Generated by trjconv : CNT in water t= 490.00000
33518
    1C        C    1   2.847   2.772   4.750
    1C        C    2   2.902   2.720   4.869
    1C        C    3   2.843   2.770   4.986
    1C        C    4   2.857   2.778   4.260
    1C        C    5   2.909   2.734   4.384
    1C        C    6   2.854   2.780   4.506
    1C        C    7   3.018   2.647   4.625
    1C        C    8   2.902   2.727   4.627
    1C        C    9   3.083   2.608   4.744
    1C        C   10   3.016   2.637   4.865
    1C        C   11   3.185   2.495   4.981
    1C        C   12   3.064   2.566   4.976
    1C        C   13   2.855   2.775   3.771
    1C        C   14   2.905   2.725   3.893
    1C        C   15   2.855   2.779   4.014
    1C        C   16   3.020   2.648   4.138
    1C        C   17   2.904   2.729   4.136
    1C        C   18   3.081   2.614   4.260
    1C        C   19   3.022   2.649   4.383
    1C        C   20   3.213   2.556   4.506
    1C        C   21   3.081   2.608   4.505
    1C        C   22   3.280   2.525   4.626
    1C        C   23   3.211   2.546   4.747
    1C        C   24   3.414   2.482   4.867
    1C        C   25   3.273   2.505   4.868
    1C        C   26   3.491   2.483   4.984
    1C        C   27   2.857   2.774   3.282
    1C        C   28   2.915   2.734   3.404
    1C        C   29   2.864   2.782   3.527
    1C        C   30   3.023   2.644   3.649
    1C        C   31   2.915   2.735   3.650
    1C        C   32   3.081   2.604   3.771
    1C        C   33   3.018   2.640   3.893
    1C        C   34   3.208   2.550   4.017
    1C        C   35   3.080   2.609   4.016
    1C        C   36   3.277   2.532   4.139
    1C        C   37   3.212   2.560   4.262
    1C        C   38   3.417   2.502   4.384
    1C        C   39   3.279   2.534   4.383
    1C        C   40   3.491   2.496   4.504
    1C        C   41   3.419   2.498   4.626
    1C        C   42   3.632   2.483   4.747
    1C        C   43   3.490   2.481   4.747
    1C        C   44   3.705   2.491   4.867
    1C        C   45   3.630   2.481   4.985
    1C        C   46   2.844   2.758   2.796
    1C        C   47   2.900   2.712   2.917
    1C        C   48   2.847   2.764   3.038
    1C        C   49   3.022   2.642   3.163
    1C        C   50   2.907   2.725   3.160
    1C        C   51   3.082   2.601   3.284
    1C        C   52   3.026   2.645   3.406
    1C        C   53   3.213   2.546   3.528
    1C        C   54   3.084   2.604   3.528
    1C        C   55   3.278   2.523   3.651
    1C        C   56   3.208   2.543   3.772
    1C        C   57   3.414   2.501   3.897
    1C        C   58   3.274   2.523   3.895
    1C        C   59   3.486   2.497   4.018
    1C        C   60   3.414   2.499   4.140
    1C        C   61   3.627   2.499   4.260
    1C        C   62   3.486   2.496   4.261
    1C        C   63   3.702   2.504   4.380
    1C        C   64   3.632   2.502   4.503
    1C        C   65   3.839   2.535   4.621
    1C        C   66   3.702   2.498   4.625
    1C        C   67   3.905   2.563   4.742
    1C        C   68   3.842   2.525   4.863
    1C        C   69   4.054   2.587   4.980
    1C        C   70   3.924   2.534   4.976
    1C        C   71   2.827   2.738   2.308
    1C        C   72   2.885   2.696   2.430
    1C        C   73   2.837   2.750   2.552
    1C        C   74   3.011   2.629   2.673
    1C        C   75   2.894   2.708   2.674
    1C        C   76   3.077   2.596   2.794
    1C        C   77   3.017   2.634   2.917
    1C        C   78   3.209   2.547   3.042
    1C        C   79   3.079   2.602   3.040
    1C        C   80   3.278   2.522   3.163
    1C        C   81   3.209   2.540   3.285
    1C        C   82   3.418   2.493   3.405
    1C        C   83   3.280   2.520   3.406
    1C        C   84   3.486   2.488   3.529
    1C        C   85   3.418   2.499   3.652
    1C        C   86   3.626   2.498   3.774
    1C        C   87   3.485   2.492   3.776
    1C        C   88   3.699   2.503   3.894
    1C        C   89   3.628   2.494   4.016
    1C        C   90   3.833   2.543   4.136
    1C        C   91   3.698   2.502   4.138
    1C        C   92   3.904   2.569   4.256
    1C        C   93   3.838   2.541   4.378
    1C        C   94   4.028   2.634   4.500
    1C        C   95   3.906   2.562   4.500
    1C        C   96   4.086   2.675   4.621
    1C        C   97   4.028   2.633   4.743
    1C        C   98   4.197   2.763   4.862
    1C        C   99   4.099   2.659   4.864
    1C        C  100   4.220   2.842   4.975
    1C        C  101   2.824   2.734   2.069
    1C        C  102   2.990   2.592   2.191
    1C        C  103   2.879   2.683   2.188
    1C        C  104   3.064   2.576   2.311
    1C        C  105   3.006   2.625   2.430
    1C        C  106   3.200   2.534   2.550
    1C        C  107   3.072   2.592   2.551
    1C        C  108   3.271   2.518   2.672
    1C        C  109   3.208   2.543   2.795
    1C        C  110   3.412   2.495   2.917
    1C        C  111   3.274   2.525   2.919
    1C        C  112   3.485   2.487   3.038
    1C        C  113   3.416   2.494   3.161
    1C        C  114   3.629   2.495   3.283
    1C        C  115   3.488   2.486   3.282
    1C        C  116   3.696   2.502   3.407
    1C        C  117   3.628   2.492   3.530
    1C        C  118   3.833   2.541   3.649
    1C        C  119   3.698   2.501   3.652
    1C        C  120   3.898   2.572   3.771
    1C        C  121   3.835   2.544   3.894
    1C        C  122   4.024   2.641   4.012
    1C        C  123   3.900   2.574   4.015
    1C        C  124   4.086   2.677   4.134
    1C        C  125   4.027   2.639   4.257
    1C        C  126   4.195   2.768   4.379
    1C        C  127   4.084   2.681   4.379
    1C        C  128   4.242   2.822   4.500
    1C        C  129   4.193   2.767   4.621
    1C        C  130   4.327   2.937   4.737
    1C        C  131   4.246   2.820   4.741
    1C        C  132   4.358   3.005   4.857
    1C        C  133   4.285   2.965   4.969
    1C        C  134   3.176   2.477   2.082
    1C        C  135   3.040   2.511   2.084
    1C        C  136   3.262   2.479   2.192
    1C        C  137   3.194   2.518   2.309
    1C        C  138   3.406   2.480   2.428
    1C        C  139   3.267   2.504   2.429
    1C        C  140   3.480   2.483   2.548
    1C        C  141   3.410   2.494   2.671
    1C        C  142   3.622   2.492   2.791
    1C        C  143   3.481   2.490   2.793
    1C        C  144   3.694   2.498   2.912
    1C        C  145   3.626   2.491   3.035
    1C        C  146   3.832   2.538   3.157
    1C        C  147   3.695   2.500   3.158
    1C        C  148   3.899   2.563   3.279
    1C        C  149   3.833   2.537   3.401
    1C        C  150   4.022   2.629   3.524
    1C        C  151   3.897   2.563   3.525
    1C        C  152   4.077   2.676   3.645
    1C        C  153   4.022   2.641   3.769
    1C        C  154   4.193   2.770   3.890
    1C        C  155   4.083   2.681   3.890
    1C        C  156   4.245   2.818   4.013
    1C        C  157   4.194   2.767   4.135
    1C        C  158   4.335   2.926   4.254
    1C        C  159   4.249   2.814   4.256
    1C        C  160   4.366   2.992   4.374
    1C        C  161   4.328   2.935   4.498
    1C        C  162   4.438   3.121   4.614
    1C        C  163   4.370   2.997   4.617
    1C        C  164   4.465   3.190   4.734
    1C        C  165   4.434   3.124   4.855
    1C        C  166   4.513   3.322   4.970
    1C        C  167   4.481   3.187   4.971
    1C        C  168   3.482   2.437   2.076
    1C        C  169   3.401   2.450   2.190
    1C        C  170   3.619   2.461   2.308
    1C        C  171   3.477   2.457   2.308
    1C        C  172   3.693   2.483   2.426
    1C        C  173   3.621   2.486   2.548
    1C        C  174   3.829   2.535   2.667
    1C        C  175   3.693   2.496   2.669
    1C        C  176   3.896   2.554   2.790
    1C        C  177   3.832   2.530   2.914
    1C        C  178   4.024   2.624   3.033
    1C        C  179   3.899   2.559   3.035
    1C        C  180   4.086   2.661   3.154
    1C        C  181   4.025   2.627   3.277
    1C        C  182   4.190   2.756   3.399
    1C        C  183   4.082   2.664   3.401
    1C        C  184   4.238   2.809   3.521
    1C        C  185   4.188   2.764   3.645
    1C        C  186   4.333   2.922   3.767
    1C        C  187   4.242   2.813   3.765
    1C        C  188   4.378   2.983   3.886
    1C        C  189   4.335   2.927   4.009
    1C        C  190   4.443   3.108   4.128
    1C        C  191   4.376   2.984   4.131
    1C        C  192   4.468   3.177   4.248
    1C        C  193   4.438   3.114   4.370
    1C        C  194   4.502   3.319   4.491
    1C        C  195   4.469   3.182   4.490
    1C        C  196   4.518   3.393   4.610
    1C        C  197   4.511   3.325   4.733
    1C        C  198   4.556   3.538   4.855
    1C        C  199   4.535   3.396   4.853
    1C        C  200   4.584   3.625   4.965
    1C        C  201   3.620   2.415   2.075
    1C        C  202   3.831   2.509   2.183
    1C        C  203   3.696   2.461   2.188
    1C        C  204   3.900   2.537   2.304
    1C        C  205   3.830   2.519   2.425
    1C        C  206   4.022   2.617   2.543
    1C        C  207   3.897   2.551   2.545
    1C        C  208   4.081   2.657   2.666
    1C        C  209   4.020   2.622   2.788
    1C        C  210   4.189   2.753   2.907
    1C        C  211   4.081   2.661   2.910
    1C        C  212   4.242   2.799   3.030
    1C        C  213   4.193   2.754   3.154
    1C        C  214   4.334   2.910   3.275
    1C        C  215   4.244   2.801   3.277
    1C        C  216   4.368   2.975   3.396
    1C        C  217   4.330   2.917   3.520
    1C        C  218   4.432   3.103   3.639
    1C        C  219   4.369   2.976   3.642
    1C        C  220   4.459   3.173   3.758
    1C        C  221   4.435   3.112   3.883
    1C        C  222   4.507   3.310   4.004
    1C        C  223   4.469   3.174   4.006
    1C        C  224   4.513   3.384   4.125
    1C        C  225   4.500   3.315   4.248
    1C        C  226   4.525   3.529   4.367
    1C        C  227   4.513   3.388   4.368
    1C        C  228   4.520   3.602   4.488
    1C        C  229   4.530   3.534   4.611
    1C        C  230   4.504   3.746   4.731
    1C        C  231   4.537   3.607   4.732
    1C        C  232   4.494   3.823   4.849
    1C        C  233   4.538   3.757   4.964
    1C        C  234   4.018   2.611   2.063
    1C        C  235   3.895   2.545   2.065
    1C        C  236   4.088   2.644   2.180
    1C        C  237   4.026   2.603   2.300
    1C        C  238   4.197   2.734   2.422
    1C        C  239   4.085   2.647   2.420
    1C        C  240   4.251   2.784   2.543
    1C        C  241   4.194   2.741   2.664
    1C        C  242   4.331   2.908   2.786
    1C        C  243   4.243   2.797   2.785
    1C        C  244   4.375   2.963   2.908
    1C        C  245   4.337   2.904   3.031
    1C        C  246   4.436   3.093   3.149
    1C        C  247   4.374   2.966   3.152
    1C        C  248   4.453   3.164   3.270
    1C        C  249   4.429   3.102   3.394
    1C        C  250   4.498   3.303   3.515
    1C        C  251   4.461   3.167   3.516
    1C        C  252   4.510   3.376   3.635
    1C        C  253   4.497   3.309   3.759
    1C        C  254   4.528   3.519   3.879
    1C        C  255   4.519   3.378   3.881
    1C        C  256   4.523   3.593   3.999
    1C        C  257   4.520   3.525   4.122
    1C        C  258   4.497   3.736   4.243
    1C        C  259   4.520   3.597   4.244
    1C        C  260   4.476   3.807   4.364
    1C        C  261   4.490   3.740   4.487
    1C        C  262   4.425   3.943   4.606
    1C        C  263   4.474   3.810   4.609
    1C        C  264   4.402   4.014   4.725
    1C        C  265   4.438   3.952   4.846
    1C        C  266   4.314   4.129   4.962
    1C        C  267   4.394   4.016   4.963
    1C        C  268   4.265   2.777   2.065
    1C        C  269   4.200   2.730   2.180
    1C        C  270   4.340   2.893   2.300
    1C        C  271   4.251   2.783   2.301
    1C        C  272   4.379   2.954   2.422
    1C        C  273   4.344   2.891   2.543
    1C        C  274   4.443   3.083   2.663
    1C        C  275   4.379   2.958   2.663
    1C        C  276   4.465   3.154   2.783
    1C        C  277   4.441   3.089   2.906
    1C        C  278   4.502   3.293   3.027
    1C        C  279   4.469   3.156   3.027
    1C        C  280   4.512   3.366   3.147
    1C        C  281   4.497   3.299   3.270
    1C        C  282   4.515   3.512   3.390
    1C        C  283   4.508   3.371   3.391
    1C        C  284   4.518   3.583   3.512
    1C        C  285   4.519   3.517   3.636
    1C        C  286   4.496   3.729   3.754
    1C        C  287   4.519   3.590   3.757
    1C        C  288   4.480   3.799   3.876
    1C        C  289   4.497   3.732   4.000
    1C        C  290   4.433   3.937   4.119
    1C        C  291   4.480   3.804   4.120
    1C        C  292   4.403   4.004   4.239
    1C        C  293   4.429   3.940   4.363
    1C        C  294   4.328   4.130   4.482
    1C        C  295   4.398   4.007   4.483
    1C        C  296   4.288   4.191   4.603
    1C        C  297   4.330   4.137   4.726
    1C        C  298   4.200   4.316   4.839
    1C        C  299   4.286   4.201   4.845
    1C        C  300   4.170   4.403   4.948
    1C        C  301   4.355   2.883   2.062
    1C        C  302   4.467   3.070   2.178
    1C        C  303   4.395   2.947   2.181
    1C        C  304   4.484   3.141   2.300
    1C        C  305   4.445   3.079   2.421
    1C        C  306   4.511   3.284   2.537
    1C        C  307   4.470   3.149   2.541
    1C        C  308   4.514   3.357   2.658
    1C        C  309   4.500   3.291   2.782
    1C        C  310   4.522   3.502   2.901
    1C        C  311   4.514   3.361   2.904
    1C        C  312   4.517   3.576   3.021
    1C        C  313   4.518   3.507   3.145
    1C        C  314   4.491   3.719   3.265
    1C        C  315   4.513   3.580   3.266
    1C        C  316   4.477   3.789   3.387
    1C        C  317   4.494   3.723   3.511
    1C        C  318   4.430   3.928   3.629
    1C        C  319   4.476   3.795   3.631
    1C        C  320   4.397   3.993   3.751
    1C        C  321   4.429   3.931   3.874
    1C        C  322   4.322   4.115   3.992
    1C        C  323   4.399   3.996   3.995
    1C        C  324   4.279   4.171   4.114
    1C        C  325   4.327   4.123   4.237
    1C        C  326   4.187   4.284   4.357
    1C        C  327   4.287   4.184   4.358
    1C        C  328   4.136   4.338   4.477
    1C        C  329   4.192   4.295   4.599
    1C        C  330   4.028   4.443   4.715
    1C        C  331   4.137   4.351   4.716
    1C        C  332   3.973   4.500   4.831
    1C        C  333   4.054   4.481   4.944
    1C        C  334   4.546   3.272   2.061
    1C        C  335   4.533   3.132   2.067
    1C        C  336   4.529   3.351   2.176
    1C        C  337   4.511   3.280   2.297
    1C        C  338   4.527   3.496   2.413
    1C        C  339   4.526   3.355   2.416
    1C        C  340   4.523   3.568   2.534
    1C        C  341   4.521   3.498   2.657
    1C        C  342   4.491   3.709   2.774
    1C        C  343   4.521   3.571   2.778
    1C        C  344   4.478   3.783   2.894
    1C        C  345   4.495   3.716   3.016
    1C        C  346   4.426   3.915   3.139
    1C        C  347   4.474   3.782   3.139
    1C        C  348   4.397   3.983   3.259
    1C        C  349   4.429   3.921   3.382
    1C        C  350   4.323   4.106   3.503
    1C        C  351   4.400   3.987   3.504
    1C        C  352   4.276   4.164   3.623
    1C        C  353   4.319   4.110   3.747
    1C        C  354   4.182   4.272   3.867
    1C        C  355   4.280   4.170   3.869
    1C        C  356   4.127   4.316   3.989
    1C        C  357   4.179   4.271   4.112
    1C        C  358   4.011   4.399   4.234
    1C        C  359   4.131   4.325   4.234
    1C        C  360   3.947   4.439   4.353
    1C        C  361   4.016   4.413   4.474
    1C        C  362   3.831   4.522   4.593
    1C        C  363   3.959   4.462   4.593
    1C        C  364   3.765   4.557   4.713
    1C        C  365   3.839   4.547   4.833
    1C        C  366   3.631   4.587   4.949
    1C        C  367   3.770   4.572   4.951
    1C        C  368   4.514   3.563   2.053
    1C        C  369   4.527   3.492   2.173
    1C        C  370   4.510   3.708   2.288
    1C        C  371   4.528   3.568   2.292
    1C        C  372   4.489   3.779   2.408
    1C        C  373   4.503   3.708   2.529
    1C        C  374   4.426   3.908   2.650
    1C        C  375   4.477   3.776   2.650
    1C        C  376   4.397   3.976   2.770
    1C        C  377   4.433   3.917   2.893
    1C        C  378   4.325   4.098   3.011
    1C        C  379   4.402   3.980   3.016
    1C        C  380   4.273   4.150   3.132
    1C        C  381   4.318   4.100   3.256
    1C        C  382   4.183   4.260   3.377
    1C        C  383   4.283   4.160   3.379
    1C        C  384   4.124   4.307   3.496
    1C        C  385   4.176   4.264   3.620
    1C        C  386   4.010   4.390   3.745
    1C        C  387   4.127   4.312   3.743
    1C        C  388   3.947   4.427   3.867
    1C        C  389   4.009   4.394   3.989
    1C        C  390   3.820   4.490   4.108
    1C        C  391   3.949   4.432   4.111
    1C        C  392   3.750   4.512   4.229
    1C        C  393   3.819   4.500   4.351
    1C        C  394   3.617   4.558   4.474
    1C        C  395   3.755   4.528   4.474
    1C        C  396   3.547   4.572   4.596
    1C        C  397   3.624   4.570   4.714
    1C        C  398   3.413   4.555   4.840
    1C        C  399   3.552   4.580   4.834
    1C        C  400   3.346   4.522   4.959
    1C        C  401   4.507   3.702   2.054
    1C        C  402   4.458   3.917   2.170
    1C        C  403   4.500   3.783   2.168
    1C        C  404   4.416   3.980   2.289
    1C        C  405   4.444   3.913   2.410
    1C        C  406   4.328   4.097   2.525
    1C        C  407   4.400   3.976   2.529
    1C        C  408   4.282   4.152   2.647
    1C        C  409   4.318   4.093   2.770
    1C        C  410   4.177   4.254   2.890
    1C        C  411   4.276   4.153   2.891
    1C        C  412   4.120   4.296   3.012
    1C        C  413   4.172   4.250   3.135
    1C        C  414   4.003   4.378   3.255
    1C        C  415   4.122   4.302   3.256
    1C        C  416   3.943   4.414   3.377
    1C        C  417   4.004   4.382   3.500
    1C        C  418   3.813   4.471   3.620
    1C        C  419   3.945   4.420   3.623
    1C        C  420   3.748   4.499   3.743
    1C        C  421   3.816   4.481   3.865
    1C        C  422   3.612   4.535   3.989
    1C        C  423   3.751   4.508   3.987
    1C        C  424   3.542   4.544   4.111
    1C        C  425   3.613   4.547   4.232
    1C        C  426   3.402   4.551   4.357
    1C        C  427   3.543   4.563   4.354
    1C        C  428   3.331   4.553   4.479
    1C        C  429   3.406   4.561   4.599
    1C        C  430   3.198   4.520   4.723
    1C        C  431   3.337   4.549   4.721
    1C        C  432   3.128   4.493   4.844
    1C        C  433   3.209   4.493   4.958
    1C        C  434   4.389   4.121   2.053
    1C        C  435   4.450   3.995   2.053
    1C        C  436   4.306   4.164   2.161
    1C        C  437   4.338   4.099   2.284
    1C        C  438   4.185   4.253   2.401
    1C        C  439   4.288   4.156   2.403
    1C        C  440   4.126   4.297   2.522
    1C        C  441   4.177   4.247   2.644
    1C        C  442   4.007   4.373   2.764
    1C        C  443   4.123   4.294   2.766
    1C        C  444   3.947   4.412   2.886
    1C        C  445   4.006   4.379   3.011
    1C        C  446   3.811   4.468   3.132
    1C        C  447   3.939   4.409   3.132
    1C        C  448   3.744   4.491   3.254
    1C        C  449   3.814   4.472   3.376
    1C        C  450   3.611   4.532   3.501
    1C        C  451   3.747   4.496   3.498
    1C        C  452   3.540   4.542   3.623
    1C        C  453   3.611   4.533   3.745
    1C        C  454   3.401   4.547   3.866
    1C        C  455   3.542   4.549   3.867
    1C        C  456   3.330   4.541   3.988
    1C        C  457   3.400   4.545   4.110
    1C        C  458   3.195   4.509   4.237
    1C        C  459   3.334   4.536   4.234
    1C        C  460   3.126   4.492   4.359
    1C        C  461   3.194   4.520   4.480
    1C        C  462   3.001   4.435   4.602
    1C        C  463   3.128   4.496   4.603
    1C        C  464   2.937   4.398   4.723
    1C        C  465   2.994   4.444   4.845
    1C        C  466   2.803   4.336   4.958
    1C        C  467   2.907   4.431   4.958
    1C        C  468   4.126   4.287   2.040
    1C        C  469   4.191   4.250   2.158
    1C        C  470   4.010   4.370   2.278
    1C        C  471   4.132   4.297   2.278
    1C        C  472   3.940   4.398   2.398
    1C        C  473   4.007   4.372   2.520
    1C        C  474   3.817   4.466   2.646
    1C        C  475   3.947   4.410   2.642
    1C        C  476   3.748   4.490   2.767
    1C        C  477   3.816   4.466   2.888
    1C        C  478   3.606   4.511   3.010
    1C        C  479   3.745   4.487   3.009
    1C        C  480   3.536   4.522   3.133
    1C        C  481   3.605   4.518   3.256
    1C        C  482   3.398   4.536   3.379
    1C        C  483   3.539   4.538   3.379
    1C        C  484   3.327   4.534   3.501
    1C        C  485   3.399   4.546   3.623
    1C        C  486   3.191   4.506   3.746
    1C        C  487   3.328   4.543   3.745
    1C        C  488   3.127   4.479   3.869
    1C        C  489   3.193   4.506   3.992
    1C        C  490   3.004   4.417   4.117
    1C        C  491   3.127   4.486   4.115
    1C        C  492   2.941   4.383   4.239
    1C        C  493   3.002   4.425   4.360
    1C        C  494   2.833   4.300   4.481
    1C        C  495   2.940   4.392   4.482
    1C        C  496   2.777   4.256   4.603
    1C        C  497   2.825   4.311   4.724
    1C        C  498   2.673   4.159   4.844
    1C        C  499   2.760   4.270   4.842
    1C        C  500   2.597   4.117   4.955
    1C        C  501   4.008   4.361   2.041
    1C        C  502   3.818   4.468   2.156
    1C        C  503   3.943   4.403   2.157
    1C        C  504   3.748   4.483   2.278
    1C        C  505   3.809   4.449   2.401
    1C        C  506   3.608   4.506   2.522
    1C        C  507   3.746   4.476   2.525
    1C        C  508   3.537   4.514   2.645
    1C        C  509   3.608   4.510   2.767
    1C        C  510   3.396   4.536   2.889
    1C        C  511   3.537   4.524   2.888
    1C        C  512   3.325   4.526   3.010
    1C        C  513   3.395   4.529   3.133
    1C        C  514   3.189   4.500   3.256
    1C        C  515   3.327   4.527   3.257
    1C        C  516   3.123   4.474   3.379
    1C        C  517   3.190   4.499   3.500
    1C        C  518   3.003   4.409   3.628
    1C        C  519   3.126   4.477   3.624
    1C        C  520   2.940   4.371   3.749
    1C        C  521   3.003   4.411   3.869
    1C        C  522   2.843   4.281   3.996
    1C        C  523   2.949   4.374   3.994
    1C        C  524   2.792   4.232   4.118
    1C        C  525   2.836   4.290   4.240
    1C        C  526   2.697   4.131   4.364
    1C        C  527   2.785   4.241   4.362
    1C        C  528   2.657   4.074   4.487
    1C        C  529   2.689   4.145   4.605
    1C        C  530   2.585   3.959   4.731
    1C        C  531   2.643   4.088   4.726
    1C        C  532   2.534   3.901   4.851
    1C        C  533   2.525   3.997   4.956
    1C        C  534   3.617   4.559   2.044
    1C        C  535   3.748   4.509   2.042
    1C        C  536   3.536   4.537   2.160
    1C        C  537   3.608   4.509   2.280
    1C        C  538   3.395   4.524   2.403
    1C        C  539   3.536   4.518   2.401
    1C        C  540   3.324   4.514   2.524
    1C        C  541   3.396   4.521   2.646
    1C        C  542   3.188   4.488   2.766
    1C        C  543   3.324   4.526   2.767
    1C        C  544   3.122   4.466   2.889
    1C        C  545   3.187   4.493   3.011
    1C        C  546   2.997   4.408   3.136
    1C        C  547   3.121   4.476   3.135
    1C        C  548   2.941   4.364   3.259
    1C        C  549   3.000   4.405   3.380
    1C        C  550   2.839   4.276   3.508
    1C        C  551   2.945   4.370   3.506
    1C        C  552   2.784   4.227   3.628
    1C        C  553   2.830   4.283   3.750
    1C        C  554   2.706   4.118   3.876
    1C        C  555   2.788   4.233   3.875
    1C        C  556   2.667   4.059   3.999
    1C        C  557   2.700   4.124   4.119
    1C        C  558   2.595   3.944   4.248
    1C        C  559   2.657   4.071   4.243
    1C        C  560   2.567   3.878   4.370
    1C        C  561   2.598   3.946   4.490
    1C        C  562   2.536   3.745   4.616
    1C        C  563   2.572   3.882   4.613
    1C        C  564   2.513   3.681   4.740
    1C        C  565   2.519   3.759   4.859
    1C        C  566   2.524   3.549   4.980
    1C        C  567   2.521   3.688   4.979
    1C        C  568   3.332   4.476   2.043
    1C        C  569   3.396   4.519   2.160
    1C        C  570   3.185   4.478   2.281
    1C        C  571   3.323   4.511   2.282
    1C        C  572   3.115   4.462   2.403
    1C        C  573   3.186   4.486   2.523
    1C        C  574   2.992   4.402   2.650
    1C        C  575   3.118   4.466   2.646
    1C        C  576   2.934   4.363   2.772
    1C        C  577   2.998   4.398   2.893
    1C        C  578   2.833   4.270   3.019
    1C        C  579   2.936   4.367   3.016
    1C        C  580   2.783   4.220   3.141
    1C        C  581   2.831   4.275   3.261
    1C        C  582   2.701   4.114   3.384
    1C        C  583   2.789   4.224   3.386
    1C        C  584   2.665   4.054   3.507
    1C        C  585   2.700   4.114   3.630
    1C        C  586   2.602   3.931   3.757
    1C        C  587   2.668   4.056   3.755
    1C        C  588   2.572   3.871   3.881
    1C        C  589   2.605   3.932   4.004
    1C        C  590   2.536   3.736   4.129
    1C        C  591   2.576   3.871   4.128
    1C        C  592   2.516   3.671   4.253
    1C        C  593   2.528   3.743   4.374
    1C        C  594   2.509   3.532   4.500
    1C        C  595   2.516   3.673   4.496
    1C        C  596   2.517   3.464   4.624
    1C        C  597   2.516   3.539   4.743
    1C        C  598   2.530   3.328   4.865
    1C        C  599   2.521   3.468   4.865
    1C        C  600   2.534   3.251   4.983
    1C        C  601   3.200   4.436   2.047
    1C        C  602   2.984   4.394   2.163
    1C        C  603   3.119   4.440   2.161
    1C        C  604   2.924   4.361   2.288
    1C        C  605   2.986   4.405   2.407
    1C        C  606   2.824   4.270   2.533
    1C        C  607   2.929   4.364   2.529
    1C        C  608   2.777   4.218   2.656
    1C        C  609   2.827   4.271   2.777
    1C        C  610   2.691   4.108   2.898
    1C        C  611   2.778   4.219   2.899
    1C        C  612   2.650   4.052   3.021
    1C        C  613   2.691   4.112   3.142
    1C        C  614   2.595   3.926   3.267
    1C        C  615   2.654   4.054   3.265
    1C        C  616   2.573   3.862   3.391
    1C        C  617   2.602   3.927   3.513
    1C        C  618   2.529   3.730   3.640
    1C        C  619   2.574   3.864   3.636
    1C        C  620   2.514   3.663   3.763
    1C        C  621   2.533   3.735   3.883
    1C        C  622   2.505   3.527   4.011
    1C        C  623   2.525   3.666   4.007
    1C        C  624   2.506   3.458   4.134
    1C        C  625   2.506   3.530   4.256
    1C        C  626   2.533   3.321   4.380
    1C        C  627   2.509   3.460   4.379
    1C        C  628   2.555   3.252   4.502
    1C        C  629   2.539   3.324   4.622
    1C        C  630   2.595   3.121   4.745
    1C        C  631   2.549   3.256   4.745
    1C        C  632   2.620   3.052   4.867
    1C        C  633   2.563   3.114   4.983
    1C        C  634   2.788   4.298   2.055
    1C        C  635   2.898   4.384   2.049
    1C        C  636   2.755   4.226   2.171
    1C        C  637   2.817   4.268   2.291
    1C        C  638   2.681   4.108   2.413
    1C        C  639   2.767   4.220   2.414
    1C        C  640   2.643   4.048   2.535
    1C        C  641   2.689   4.107   2.655
    1C        C  642   2.591   3.918   2.777
    1C        C  643   2.651   4.046   2.777
    1C        C  644   2.565   3.857   2.901
    1C        C  645   2.592   3.923   3.023
    1C        C  646   2.527   3.722   3.152
    1C        C  647   2.570   3.856   3.146
    1C        C  648   2.511   3.655   3.275
    1C        C  649   2.531   3.727   3.395
    1C        C  650   2.499   3.520   3.521
    1C        C  651   2.511   3.661   3.518
    1C        C  652   2.502   3.450   3.644
    1C        C  653   2.503   3.522   3.766
    1C        C  654   2.530   3.315   3.893
    1C        C  655   2.503   3.454   3.890
    1C        C  656   2.549   3.248   4.016
    1C        C  657   2.529   3.319   4.136
    1C        C  658   2.607   3.122   4.262
    1C        C  659   2.549   3.251   4.259
    1C        C  660   2.641   3.057   4.383
    1C        C  661   2.604   3.120   4.504
    1C        C  662   2.710   2.936   4.628
    1C        C  663   2.633   3.055   4.626
    1C        C  664   2.754   2.879   4.750
    1C        C  665   2.704   2.936   4.870
    1C        C  666   2.746   2.870   4.986
    1C        C  667   2.683   4.023   2.057
    1C        C  668   2.684   4.104   2.171
    1C        C  669   2.588   3.914   2.295
    1C        C  670   2.641   4.046   2.292
    1C        C  671   2.556   3.848   2.416
    1C        C  672   2.584   3.920   2.535
    1C        C  673   2.510   3.720   2.658
    1C        C  674   2.560   3.852   2.656
    1C        C  675   2.503   3.652   2.782
    1C        C  676   2.525   3.722   2.903
    1C        C  677   2.503   3.514   3.031
    1C        C  678   2.514   3.655   3.028
    1C        C  679   2.503   3.444   3.154
    1C        C  680   2.502   3.514   3.276
    1C        C  681   2.529   3.308   3.402
    1C        C  682   2.503   3.447   3.401
    1C        C  683   2.552   3.243   3.526
    1C        C  684   2.529   3.312   3.647
    1C        C  685   2.604   3.116   3.774
    1C        C  686   2.549   3.246   3.771
    1C        C  687   2.642   3.057   3.896
    1C        C  688   2.603   3.118   4.018
    1C        C  689   2.716   2.939   4.140
    1C        C  690   2.635   3.055   4.140
    1C        C  691   2.763   2.884   4.261
    1C        C  692   2.714   2.936   4.382
    1C        C  693   2.758   2.884   4.506
    1C        C  694   2.627   3.894   2.060
    1C        C  695   2.529   3.704   2.174
    1C        C  696   2.576   3.837   2.177
    1C        C  697   2.518   3.635   2.297
    1C        C  698   2.523   3.711   2.416
    1C        C  699   2.487   3.505   2.543
    1C        C  700   2.498   3.646   2.539
    1C        C  701   2.497   3.438   2.666
    1C        C  702   2.498   3.511   2.787
    1C        C  703   2.524   3.302   2.912
    1C        C  704   2.504   3.442   2.910
    1C        C  705   2.539   3.234   3.034
    1C        C  706   2.529   3.305   3.156
    1C        C  707   2.597   3.107   3.281
    1C        C  708   2.548   3.240   3.280
    1C        C  709   2.638   3.049   3.404
    1C        C  710   2.612   3.115   3.526
    1C        C  711   2.719   2.939   3.650
    1C        C  712   2.640   3.055   3.651
    1C        C  713   2.763   2.882   3.772
    1C        C  714   2.723   2.941   3.894
    1C        C  715   2.763   2.886   4.017
    1C        C  716   2.443   3.503   2.064
    1C        C  717   2.487   3.635   2.060
    1C        C  718   2.462   3.422   2.180
    1C        C  719   2.483   3.497   2.299
    1C        C  720   2.510   3.291   2.426
    1C        C  721   2.485   3.430   2.423
    1C        C  722   2.534   3.224   2.548
    1C        C  723   2.523   3.299   2.667
    1C        C  724   2.598   3.102   2.792
    1C        C  725   2.544   3.233   2.790
    1C        C  726   2.629   3.040   2.915
    1C        C  727   2.598   3.106   3.036
    1C        C  728   2.712   2.929   3.159
    1C        C  729   2.630   3.044   3.159
    1C        C  730   2.760   2.877   3.282
    1C        C  731   2.718   2.933   3.404
    1C        C  732   2.766   2.884   3.528
    1C        C  733   2.489   3.200   2.070
    1C        C  734   2.484   3.280   2.185
    1C        C  735   2.583   3.088   2.305
    1C        C  736   2.523   3.217   2.306
    1C        C  737   2.618   3.027   2.427
    1C        C  738   2.593   3.096   2.548
    1C        C  739   2.704   2.916   2.672
    1C        C  740   2.630   3.037   2.671
    1C        C  741   2.746   2.860   2.794
    1C        C  742   2.706   2.921   2.915
    1C        C  743   2.753   2.869   3.038
    1C        C  744   2.548   3.075   2.071
    1C        C  745   2.687   2.902   2.188
    1C        C  746   2.613   3.022   2.184
    1C        C  747   2.735   2.846   2.309
    1C        C  748   2.689   2.905   2.429
    1C        C  749   2.742   2.855   2.550
    1C        C  750   2.739   2.843   2.072
    1C        C  751   3.659   2.294   1.999
    1C        O  752   3.671   2.181   2.055
    1C        O  753   3.670   2.290   1.860
    1C        C  754   4.639   3.055   1.998
    1C        O  755   4.637   3.016   1.878
    1C        O  756   4.752   2.992   2.053
    1C        C  757   4.475   4.215   1.977
    1C        O  758   4.595   4.241   2.007
    1C        O  759   4.455   4.231   1.839
    1C        C  760   3.593   4.684   1.968
    1C        O  761   3.590   4.804   2.007
    1C        O  762   3.559   4.677   1.833
    1C        C  763   2.889   4.491   1.947
    1C        O  764   2.846   4.472   1.830
    1C        O  765   2.908   4.628   1.972
    1C        C  766   2.347   3.464   1.958
    1C        O  767   2.402   3.435   1.849
    1C        O  768   2.216   3.515   1.956
    1C        C  769   4.697   3.600   5.057
    1C        O  770   4.677   3.541   5.167
    1C        O  771   4.814   3.676   5.055
    1C        C  772   4.272   4.448   5.045
    1C        O  773   4.252   4.417   5.166
    1C        O  774   4.369   4.547   5.029
    1C        C  775   4.156   2.516   5.060
    1C        O  776   4.256   2.463   5.005
    1C        O  777   4.169   2.543   5.197
    1C        C  778   2.901   4.518   5.078
    1C        O  779   2.887   4.643   5.077
    1C        O  780   2.959   4.462   5.192
    1C        C  781   2.481   3.037   5.080
    1C        O  782   2.377   2.978   5.042
    1C        O  783   2.500   3.053   5.216
    1C        C  784   2.420   3.991   5.060
    1C        O  785   2.331   4.080   5.058
    1C        O  786   2.450   3.946   5.190
    1C        C  787   2.946   2.432   2.002
    1C        O  788   2.955   2.429   1.876
    1C        O  789   2.916   2.306   2.052
    1C        C  790   3.173   2.375   5.066
    1C        O  791   3.208   2.262   5.022
    1C        O  792   3.180   2.390   5.206
    1C        H  793   4.249   3.044   5.031
    1C        H  794   4.201   2.797   5.070
    1C        H  795   4.463   3.143   5.067
    1C        H  796   4.471   3.376   5.053
    1C        H  797   4.496   3.787   5.058
    1C        H  798   4.457   4.006   5.049
    1C        H  799   4.234   4.127   5.034
    1C        H  800   4.045   4.550   5.026
    1C        H  801   3.821   4.591   5.043
    1C        H  802   3.590   4.602   5.047
    1C        H  803   3.399   4.531   5.051
    1C        H  804   3.158   4.491   5.052
    1C        H  805   3.888   2.490   5.067
    1C        H  806   3.670   2.416   5.060
    1C        H  807   2.985   2.536   5.042
    1C        H  808   3.441   2.517   5.073
    1C        H  809   2.847   2.713   5.076
    1C        H  810   2.705   2.903   5.079
    1C        H  811   2.554   3.299   5.076
    1C        H  812   2.487   3.504   5.070
    1C        H  813   2.539   3.736   5.073
    1C        H  814   2.574   4.185   5.035
    1C        H  815   2.767   4.299   5.051
    1C        H  816   2.697   2.864   1.975
    1C        H  817   2.864   2.700   1.976
    1C        H  818   3.207   2.418   1.998
    1C        H  819   3.443   2.465   1.980
    1C        H  820   3.852   2.516   1.971
    1C        H  821   4.073   2.606   1.971
    1C        H  822   4.253   2.717   1.977
    1C        H  823   4.374   2.928   1.967
    1C        H  824   4.615   3.311   1.988
    1C        H  825   4.479   3.512   1.965
    1C        H  826   4.514   3.746   1.957
    1C        H  827   3.806   4.540   1.957
    1C        H  828   3.972   4.397   1.946
    1C        H  829   4.174   4.269   1.946
    1C        H  830   4.472   3.951   1.958
    1C        H  831   2.660   3.830   1.981
    1C        H  832   2.723   4.057   1.964
    1C        H  833   2.733   4.280   1.965
    1C        H  834   3.385   4.486   1.950
    1C        H  835   3.170   4.369   1.968
    1C        H  836   2.546   3.023   1.978
    1C        H  837   2.414   3.216   1.995
    1C        H  838   2.503   3.676   1.962
    2V3OU   H29  839   2.803   3.554   5.423
    2V3OU   C27  840   2.780   3.507   5.523
    2V3OU   H27  841   2.722   3.571   5.594
    2V3OU   H28  842   2.730   3.409   5.502
    2V3OU   O11  843   2.906   3.477   5.584
    2V3OU   C15  844   2.920   3.399   5.696
    2V3OU   C13  845   3.049   3.376   5.749
    2V3OU   C14  846   3.077   3.270   5.837
    2V3OU   C16  847   2.972   3.188   5.877
    2V3OU    H6  848   2.992   3.101   5.941
    2V3OU   C12  849   3.216   3.233   5.873
    2V3OU    O2  850   3.246   3.126   5.929
    2V3OU   C10  851   3.328   3.312   5.819
    2V3OU    C8  852   3.460   3.273   5.835
    2V3OU   O10  853   3.486   3.157   5.900
    2V3OU   H26  854   3.403   3.123   5.937
    2V3OU    C6  855   3.567   3.348   5.776
    2V3OU    C5  856   3.538   3.465   5.705
    2V3OU    C4  857   3.702   3.289   5.764
    2V3OU    H4  858   3.730   3.221   5.850
    2V3OU    H5  859   3.708   3.221   5.673
    2V3OU    C2  860   3.815   3.392   5.762
    2V3OU    O6  861   3.809   3.470   5.881
    2V3OU   H21  862   3.764   3.553   5.860
    2V3OU    C3  863   3.782   3.495   5.654
    2V3OU    H2  864   3.860   3.575   5.650
    2V3OU    H3  865   3.783   3.447   5.553
    2V3OU   C25  866   3.954   3.328   5.757
    2V3OU    O7  867   4.002   3.294   5.649
    2V3OU   C26  868   4.028   3.286   5.883
    2V3OU   H22  869   4.067   3.379   5.932
    2V3OU   H23  870   4.123   3.233   5.855
    2V3OU    O8  871   3.963   3.203   5.976
    2V3OU   H24  872   3.933   3.268   6.041
    2V3OU    C1  873   3.647   3.562   5.673
    2V3OU    H1  874   3.622   3.617   5.578
    2V3OU    O3  875   3.663   3.654   5.782
    2V3OU   C19  876   3.620   3.790   5.772
    2V3OU    H9  877   3.524   3.802   5.713
    2V3OU    O4  878   3.719   3.848   5.690
    2V3OU   C20  879   3.852   3.876   5.733
    2V3OU   H10  880   3.904   3.778   5.753
    2V3OU   C24  881   3.609   3.858   5.909
    2V3OU   H16  882   3.543   3.796   5.976
    2V3OU   H17  883   3.561   3.955   5.880
    2V3OU   C23  884   3.750   3.877   5.965
    2V3OU   H15  885   3.789   3.773   5.990
    2V3OU    N1  886   3.737   3.953   6.088
    2V3OU   H19  887   3.807   3.925   6.154
    2V3OU   H20  888   3.650   3.933   6.132
    2V3OU   C21  889   3.851   3.947   5.869
    2V3OU   H11  890   3.948   3.931   5.925
    2V3OU    O5  891   3.832   4.088   5.871
    2V3OU   H18  892   3.775   4.098   5.949
    2V3OU   C22  893   3.913   3.951   5.616
    2V3OU   H12  894   3.860   4.048   5.600
    2V3OU   H13  895   3.908   3.888   5.523
    2V3OU   H14  896   4.022   3.964   5.636
    2V3OU   C11  897   3.157   3.471   5.718
    2V3OU    O1  898   3.135   3.585   5.671
    2V3OU    C9  899   3.296   3.430   5.747
    2V3OU    C7  900   3.401   3.505   5.695
    2V3OU    O9  901   3.385   3.613   5.611
    2V3OU   H25  902   3.295   3.620   5.575
    2V3OU   C17  903   2.818   3.318   5.749
    2V3OU    H7  904   2.714   3.350   5.740
    2V3OU   C18  905   2.842   3.213   5.837
    2V3OU    H8  906   2.754   3.150   5.857
    3SOL     OW  907   3.442   2.911   3.984
    3SOL    HW1  908   3.457   2.893   3.887
    3SOL    HW2  909   3.491   2.994   4.010
    4SOL     OW  910   6.567   6.422   0.700
    4SOL    HW1  911   6.564   6.502   0.759
    4SOL    HW2  912   6.482   6.371   0.708
    5SOL     OW  913   5.533   1.544   0.726
    5SOL    HW1  914   5.523   1.459   0.673
    5SOL    HW2  915   5.552   1.521   0.822
    6SOL     OW  916   5.193   1.529   2.865
    6SOL    HW1  917   5.280   1.537   2.815
    6SOL    HW2  918   5.131   1.602   2.835
    7SOL     OW  919   1.852   4.152   4.089
    7SOL    HW1  920   1.943   4.185   4.114
    7SOL    HW2  921   1.860   4.077   4.023
    8SOL     OW  922   0.735   3.197   4.884
    8SOL    HW1  923   0.815   3.207   4.943
    8SOL    HW2  924   0.756   3.230   4.792
    9SOL     OW  925   0.103   0.707   6.653
    9SOL    HW1  926   0.109   0.804   6.631
    9SOL    HW2  927   0.053   0.659   6.580
   10SOL     OW  928   5.393   4.769   1.750
   10SOL    HW1  929   5.374   4.753   1.654
   10SOL    HW2  930   5.482   4.729   1.774
   11SOL     OW  931   1.952   2.082   0.717
   11SOL    HW1  932   1.978   2.111   0.624
   11SOL    HW2  933   1.861   2.117   0.738
   12SOL     OW  934   4.102   5.087   2.558
   12SOL    HW1  935   4.200   5.071   2.550
   12SOL    HW2  936   4.065   5.031   2.632
   13SOL     OW  937   6.322   6.059   1.274
   13SOL    HW1  938   6.299   6.035   1.369
   13SOL    HW2  939   6.422   6.057   1.263
   14SOL     OW  940   4.425   6.628   5.838
   14SOL    HW1  941   4.364   6.699   5.872
   14SOL    HW2  942   4.402   6.540   5.880
   15SOL     OW  943   1.188   6.327   5.780
   15SOL    HW1  944   1.192   6.418   5.822
   15SOL    HW2  945   1.222   6.333   5.686
   16SOL     OW  946   2.345   4.714   4.791
   16SOL    HW1  947   2.261   4.680   4.835
   16SOL    HW2  948   2.321   4.783   4.723
   17SOL     OW  949   6.331   0.930   5.389
   17SOL    HW1  950   6.239   0.954   5.421
   17SOL    HW2  951   6.396   0.999   5.420
   18SOL     OW  952   3.077   1.497   5.956
   18SOL    HW1  953   3.015   1.517   5.880
   18SOL    HW2  954   3.052   1.555   6.034
   19SOL     OW  955   2.769   6.337   2.576
   19SOL    HW1  956   2.865   6.317   2.557
   19SOL    HW2  957   2.725   6.371   2.493
   20SOL     OW  958   6.107   1.582   5.135
   20SOL    HW1  959   6.089   1.538   5.223
   20SOL    HW2  960   6.021   1.611   5.094
   21SOL     OW  961   2.447   4.411   2.557
   21SOL    HW1  962   2.492   4.323   2.540
   21SOL    HW2  963   2.475   4.477   2.487
   22SOL     OW  964   1.102   0.737   6.620
   22SOL    HW1  965   1.110   0.639   6.640
   22SOL    HW2  966   1.088   0.787   6.706
   23SOL     OW  967   5.542   4.842   1.132
   23SOL    HW1  968   5.467   4.850   1.067
   23SOL    HW2  969   5.627   4.824   1.082
   24SOL     OW  970   4.624   1.474   0.565
   24SOL    HW1  971   4.561   1.533   0.515
   24SOL    HW2  972   4.626   1.384   0.522
   25SOL     OW  973   2.159   0.560   4.426
   25SOL    HW1  974   2.078   0.602   4.466
   25SOL    HW2  975   2.200   0.497   4.492
   26SOL     OW  976   0.554   2.363   6.431
   26SOL    HW1  977   0.624   2.297   6.403
   26SOL    HW2  978   0.473   2.314   6.463
   27SOL     OW  979   6.519   0.368   2.505
   27SOL    HW1  980   6.502   0.292   2.567
   27SOL    HW2  981   6.616   0.392   2.509
   28SOL     OW  982   2.231   0.578   4.759
   28SOL    HW1  983   2.259   0.482   4.751
   28SOL    HW2  984   2.201   0.597   4.852
   29SOL     OW  985   6.779   6.958   1.129
   29SOL    HW1  986   6.836   0.012   1.148
   29SOL    HW2  987   6.811   6.912   1.046
   30SOL     OW  988   4.390   0.146   4.944
   30SOL    HW1  989   4.364   0.234   4.903
   30SOL    HW2  990   4.314   0.081   4.935
   31SOL     OW  991   0.529   3.912   5.067
   31SOL    HW1  992   0.430   3.903   5.057
   31SOL    HW2  993   0.560   3.994   5.018
   32SOL     OW  994   3.908   0.542   1.066
   32SOL    HW1  995   3.815   0.574   1.084
   32SOL    HW2  996   3.956   0.610   1.011
   33SOL     OW  997   1.832   5.531   6.174
   33SOL    HW1  998   1.861   5.613   6.125
   33SOL    HW2  999   1.867   5.450   6.128
   34SOL     OW 1000   3.231   5.661   5.140
   34SOL    HW1 1001   3.245   5.655   5.239
   34SOL    HW2 1002   3.315   5.634   5.093
   35SOL     OW 1003   1.853   2.959   6.687
   35SOL    HW1 1004   1.884   2.962   6.782
   35SOL    HW2 1005   1.846   3.052   6.651
   36SOL     OW 1006   4.339   0.997   3.495
   36SOL    HW1 1007   4.394   0.958   3.422
   36SOL    HW2 1008   4.256   1.038   3.457
   37SOL     OW 1009   2.411   0.170   3.985
   37SOL    HW1 1010   2.449   0.130   3.901
   37SOL    HW2 1011   2.312   0.178   3.976
   38SOL     OW 1012   0.853   3.807   3.025
   38SOL    HW1 1013   0.916   3.853   3.087
   38SOL    HW2 1014   0.780   3.870   2.998
   39SOL     OW 1015   6.540   4.308   1.171
   39SOL    HW1 1016   6.633   4.328   1.200
   39SOL    HW2 1017   6.476   4.369   1.218
   40SOL     OW 1018   4.978   1.944   0.673
   40SOL    HW1 1019   5.031   1.871   0.716
   40SOL    HW2 1020   4.892   1.907   0.638
   41SOL     OW 1021   4.876   4.397   1.539
   41SOL    HW1 1022   4.779   4.391   1.515
   41SOL    HW2 1023   4.896   4.338   1.617
   42SOL     OW 1024   2.714   4.686   6.499
   42SOL    HW1 1025   2.719   4.756   6.428
   42SOL    HW2 1026   2.733   4.727   6.588
   43SOL     OW 1027   4.647   7.019   5.220
   43SOL    HW1 1028   4.710   0.011   5.144
   43SOL    HW2 1029   4.700   7.005   5.303
   44SOL     OW 1030   6.412   0.901   6.103
   44SOL    HW1 1031   6.466   0.825   6.065
   44SOL    HW2 1032   6.327   0.910   6.051
   45SOL     OW 1033   2.039   4.598   6.132
   45SOL    HW1 1034   2.008   4.557   6.218
   45SOL    HW2 1035   2.116   4.660   6.151
   46SOL     OW 1036   1.439   3.487   4.812
   46SOL    HW1 1037   1.421   3.585   4.802
   46SOL    HW2 1038   1.513   3.460   4.751
   47SOL     OW 1039   5.804   4.086   0.335
   47SOL    HW1 1040   5.899   4.058   0.347
   47SOL    HW2 1041   5.802   4.178   0.295
   48SOL     OW 1042   6.227   3.821   0.477
   48SOL    HW1 1043   6.127   3.822   0.481
   48SOL    HW2 1044   6.262   3.739   0.522
   49SOL     OW 1045   3.052   4.032   0.004
   49SOL    HW1 1046   3.118   4.080   0.062
   49SOL    HW2 1047   3.066   4.058   6.934
   50SOL     OW 1048   5.865   2.077   0.273
   50SOL    HW1 1049   5.821   2.165   0.290
   50SOL    HW2 1050   5.957   2.078   0.313
   51SOL     OW 1051   0.964   5.497   2.447
   51SOL    HW1 1052   1.017   5.582   2.442
   51SOL    HW2 1053   0.897   5.505   2.520
   52SOL     OW 1054   5.989   2.775   2.007
   52SOL    HW1 1055   6.034   2.740   1.925
   52SOL    HW2 1056   5.924   2.708   2.042
   53SOL     OW 1057   3.458   0.832   1.821
   53SOL    HW1 1058   3.463   0.839   1.921
   53SOL    HW2 1059   3.547   0.855   1.783
   54SOL     OW 1060   5.458   7.005   6.494
   54SOL    HW1 1061   5.536   6.953   6.460
   54SOL    HW2 1062   5.399   0.005   6.418
   55SOL     OW 1063   1.000   3.629   6.164
   55SOL    HW1 1064   0.969   3.653   6.072
   55SOL    HW2 1065   1.083   3.680   6.186
   56SOL     OW 1066   0.325   2.208   6.747
   56SOL    HW1 1067   0.235   2.243   6.774
   56SOL    HW2 1068   0.336   2.217   6.648
   57SOL     OW 1069   4.408   6.432   0.717
   57SOL    HW1 1070   4.411   6.474   0.808
   57SOL    HW2 1071   4.418   6.502   0.647
   58SOL     OW 1072   1.140   0.781   0.280
   58SOL    HW1 1073   1.207   0.789   0.354
   58SOL    HW2 1074   1.144   0.863   0.223
   59SOL     OW 1075   4.481   3.484   5.607
   59SOL    HW1 1076   4.486   3.531   5.519
   59SOL    HW2 1077   4.494   3.386   5.593
   60SOL     OW 1078   6.187   2.285   1.863
   60SOL    HW1 1079   6.196   2.353   1.790
   60SOL    HW2 1080   6.111   2.311   1.923
   61SOL     OW 1081   0.994   6.233   4.579
   61SOL    HW1 1082   0.984   6.329   4.606
   61SOL    HW2 1083   0.911   6.183   4.601
   62SOL     OW 1084   6.122   3.323   3.163
   62SOL    HW1 1085   6.129   3.331   3.064
   62SOL    HW2 1086   6.206   3.283   3.200
   63SOL     OW 1087   3.815   0.728   6.204
   63SOL    HW1 1088   3.877   0.789   6.253
   63SOL    HW2 1089   3.778   0.774   6.124
   64SOL     OW 1090   1.379   3.390   5.479
   64SOL    HW1 1091   1.377   3.478   5.527
   64SOL    HW2 1092   1.442   3.396   5.402
   65SOL     OW 1093   0.761   5.136   4.172
   65SOL    HW1 1094   0.834   5.175   4.227
   65SOL    HW2 1095   0.709   5.209   4.128
   66SOL     OW 1096   3.923   1.152   1.870
   66SOL    HW1 1097   3.935   1.119   1.776
   66SOL    HW2 1098   3.984   1.229   1.886
   67SOL     OW 1099   6.878   3.348   1.626
   67SOL    HW1 1100   6.795   3.341   1.571
   67SOL    HW2 1101   6.956   3.314   1.574
   68SOL     OW 1102   6.712   1.528   6.743
   68SOL    HW1 1103   6.658   1.534   6.660
   68SOL    HW2 1104   6.651   1.523   6.822
   69SOL     OW 1105   1.064   6.112   6.309
   69SOL    HW1 1106   1.065   6.013   6.326
   69SOL    HW2 1107   1.147   6.137   6.259
   70SOL     OW 1108   5.161   4.063   4.099
   70SOL    HW1 1109   5.142   3.990   4.166
   70SOL    HW2 1110   5.197   4.143   4.147
   71SOL     OW 1111   5.348   2.075   4.030
   71SOL    HW1 1112   5.266   2.020   4.015
   71SOL    HW2 1113   5.387   2.054   4.119
   72SOL     OW 1114   0.722   1.555   3.291
   72SOL    HW1 1115   0.758   1.579   3.381
   72SOL    HW2 1116   0.742   1.459   3.272
   73SOL     OW 1117   2.738   0.092   0.402
   73SOL    HW1 1118   2.722   0.163   0.470
   73SOL    HW2 1119   2.834   0.066   0.403
   74SOL     OW 1120   3.063   2.363   0.771
   74SOL    HW1 1121   3.082   2.460   0.788
   74SOL    HW2 1122   3.038   2.351   0.674
   75SOL     OW 1123   2.605   3.328   0.247
   75SOL    HW1 1124   2.512   3.343   0.214
   75SOL    HW2 1125   2.612   3.361   0.341
   76SOL     OW 1126   3.721   5.378   5.711
   76SOL    HW1 1127   3.730   5.410   5.617
   76SOL    HW2 1128   3.626   5.353   5.730
   77SOL     OW 1129   1.134   5.389   4.168
   77SOL    HW1 1130   1.161   5.311   4.111
   77SOL    HW2 1131   1.213   5.420   4.221
   78SOL     OW 1132   4.593   1.784   1.469
   78SOL    HW1 1133   4.616   1.857   1.533
   78SOL    HW2 1134   4.538   1.821   1.394
   79SOL     OW 1135   1.377   4.651   3.738
   79SOL    HW1 1136   1.362   4.673   3.642
   79SOL    HW2 1137   1.339   4.561   3.757
   80SOL     OW 1138   3.617   1.342   4.664
   80SOL    HW1 1139   3.690   1.374   4.725
   80SOL    HW2 1140   3.550   1.290   4.717
   81SOL     OW 1141   3.791   5.323   1.698
   81SOL    HW1 1142   3.824   5.253   1.635
   81SOL    HW2 1143   3.763   5.280   1.784
   82SOL     OW 1144   2.164   6.212   1.984
   82SOL    HW1 1145   2.229   6.274   2.028
   82SOL    HW2 1146   2.167   6.227   1.885
   83SOL     OW 1147   5.023   1.415   3.794
   83SOL    HW1 1148   4.963   1.353   3.844
   83SOL    HW2 1149   5.017   1.397   3.696
   84SOL     OW 1150   5.627   2.933   2.506
   84SOL    HW1 1151   5.680   2.976   2.433
   84SOL    HW2 1152   5.568   3.001   2.549
   85SOL     OW 1153   2.546   6.707   3.689
   85SOL    HW1 1154   2.509   6.614   3.692
   85SOL    HW2 1155   2.616   6.717   3.759
   86SOL     OW 1156   5.268   6.797   0.031
   86SOL    HW1 1157   5.291   6.862   0.104
   86SOL    HW2 1158   5.341   6.797   6.988
   87SOL     OW 1159   2.445   4.311   6.346
   87SOL    HW1 1160   2.347   4.327   6.357
   87SOL    HW2 1161   2.468   4.221   6.382
   88SOL     OW 1162   2.672   3.335   1.327
   88SOL    HW1 1163   2.672   3.415   1.387
   88SOL    HW2 1164   2.632   3.360   1.239
   89SOL     OW 1165   3.218   3.455   3.448
   89SOL    HW1 1166   3.208   3.401   3.532
   89SOL    HW2 1167   3.160   3.536   3.454
   90SOL     OW 1168   5.420   3.926   2.122
   90SOL    HW1 1169   5.380   3.864   2.190
   90SOL    HW2 1170   5.447   4.011   2.168
   91SOL     OW 1171   4.703   5.856   6.132
   91SOL    HW1 1172   4.684   5.886   6.038
   91SOL    HW2 1173   4.639   5.902   6.194
   92SOL     OW 1174   4.881   4.399   0.227
   92SOL    HW1 1175   4.979   4.389   0.215
   92SOL    HW2 1176   4.842   4.448   0.148
   93SOL     OW 1177   2.941   3.634   2.011
   93SOL    HW1 1178   3.028   3.641   1.961
   93SOL    HW2 1179   2.923   3.539   2.034
   94SOL     OW 1180   2.899   2.167   4.301
   94SOL    HW1 1181   2.898   2.152   4.400
   94SOL    HW2 1182   2.820   2.222   4.275
   95SOL     OW 1183   0.142   0.549   4.099
   95SOL    HW1 1184   0.230   0.584   4.131
   95SOL    HW2 1185   0.147   0.535   4.000
   96SOL     OW 1186   6.623   5.148   0.000
   96SOL    HW1 1187   6.548   5.210   7.003
   96SOL    HW2 1188   6.607   5.059   6.984
   97SOL     OW 1189   2.292   4.152   5.653
   97SOL    HW1 1190   2.388   4.157   5.624
   97SOL    HW2 1191   2.238   4.217   5.600
   98SOL     OW 1192   0.816   2.164   3.688
   98SOL    HW1 1193   0.728   2.208   3.673
   98SOL    HW2 1194   0.888   2.215   3.642
   99SOL     OW 1195   3.260   4.151   5.159
   99SOL    HW1 1196   3.303   4.093   5.229
   99SOL    HW2 1197   3.193   4.097   5.108
  100SOL     OW 1198   6.985   0.768   5.062
  100SOL    HW1 1199   6.935   0.720   4.990
  100SOL    HW2 1200   0.031   0.708   5.097
  101SOL     OW 1201   5.512   3.958   2.610
  101SOL    HW1 1202   5.456   3.908   2.545
  101SOL    HW2 1203   5.477   4.051   2.621
  102SOL     OW 1204   4.034   0.504   0.111
  102SOL    HW1 1205   4.062   0.422   0.060
  102SOL    HW2 1206   3.937   0.523   0.092
  103SOL     OW 1207   1.885   1.222   2.070
  103SOL    HW1 1208   1.970   1.172   2.086
  103SOL    HW2 1209   1.851   1.202   1.978
  104SOL     OW 1210   6.459   4.968   1.764
  104SOL    HW1 1211   6.363   4.982   1.740
  104SOL    HW2 1212   6.517   5.001   1.690
  105SOL     OW 1213   6.838   0.996   5.464
  105SOL    HW1 1214   6.874   0.973   5.374
  105SOL    HW2 1215   6.754   0.946   5.481
  106SOL     OW 1216   4.527   3.047   1.429
  106SOL    HW1 1217   4.475   3.086   1.353
  106SOL    HW2 1218   4.476   3.059   1.514
  107SOL     OW 1219   6.048   6.878   1.709
  107SOL    HW1 1220   6.019   6.784   1.729
  107SOL    HW2 1221   5.997   6.913   1.630
  108SOL     OW 1222   3.182   1.444   4.678
  108SOL    HW1 1223   3.146   1.446   4.771
  108SOL    HW2 1224   3.107   1.450   4.612
  109SOL     OW 1225   1.785   1.173   4.701
  109SOL    HW1 1226   1.815   1.125   4.783
  109SOL    HW2 1227   1.757   1.266   4.725
  110SOL     OW 1228   3.643   4.298   5.769
  110SOL    HW1 1229   3.706   4.220   5.764
  110SOL    HW2 1230   3.692   4.382   5.748
  111SOL     OW 1231   5.822   2.672   0.628
  111SOL    HW1 1232   5.902   2.703   0.577
  111SOL    HW2 1233   5.801   2.739   0.700
  112SOL     OW 1234   5.181   6.852   6.729
  112SOL    HW1 1235   5.160   6.772   6.785
  112SOL    HW2 1236   5.265   6.835   6.677
  113SOL     OW 1237   0.460   5.157   2.762
  113SOL    HW1 1238   0.528   5.207   2.709
  113SOL    HW2 1239   0.376   5.148   2.708
  114SOL     OW 1240   6.947   2.449   2.090
  114SOL    HW1 1241   6.927   2.425   1.995
  114SOL    HW2 1242   0.006   2.502   2.095
  115SOL     OW 1243   5.620   6.508   3.573
  115SOL    HW1 1244   5.668   6.579   3.521
  115SOL    HW2 1245   5.664   6.420   3.559
  116SOL     OW 1246   0.221   5.034   0.556
  116SOL    HW1 1247   0.302   5.000   0.509
  116SOL    HW2 1248   0.226   5.133   0.565
  117SOL     OW 1249   2.383   2.694   0.080
  117SOL    HW1 1250   2.413   2.768   0.140
  117SOL    HW2 1251   2.453   2.678   0.010
  118SOL     OW 1252   0.388   2.263   2.519
  118SOL    HW1 1253   0.366   2.348   2.472
  118SOL    HW2 1254   0.320   2.194   2.496
  119SOL     OW 1255   6.180   0.408   5.063
  119SOL    HW1 1256   6.163   0.341   4.990
  119SOL    HW2 1257   6.173   0.500   5.025
  120SOL     OW 1258   4.471   1.325   4.058
  120SOL    HW1 1259   4.507   1.254   4.118
  120SOL    HW2 1260   4.544   1.389   4.033
  121SOL     OW 1261   0.507   5.030   0.115
  121SOL    HW1 1262   0.414   4.993   0.116
  121SOL    HW2 1263   0.508   5.122   0.153
  122SOL     OW 1264   6.764   4.805   6.085
  122SOL    HW1 1265   6.753   4.900   6.114
  122SOL    HW2 1266   6.861   4.780   6.090
  123SOL     OW 1267   0.702   2.635   1.711
  123SOL    HW1 1268   0.693   2.715   1.651
  123SOL    HW2 1269   0.749   2.562   1.661
  124SOL     OW 1270   1.356   2.981   7.008
  124SOL    HW1 1271   1.424   2.946   6.944
  124SOL    HW2 1272   1.387   3.069   0.019
  125SOL     OW 1273   4.855   3.327   0.441
  125SOL    HW1 1274   4.838   3.228   0.434
  125SOL    HW2 1275   4.831   3.371   0.355
  126SOL     OW 1276   3.880   3.093   3.901
  126SOL    HW1 1277   3.858   3.136   3.989
  126SOL    HW2 1278   3.797   3.052   3.862
  127SOL     OW 1279   0.678   5.378   5.427
  127SOL    HW1 1280   0.645   5.377   5.521
  127SOL    HW2 1281   0.718   5.467   5.406
  128SOL     OW 1282   5.032   3.868   7.025
  128SOL    HW1 1283   5.013   3.885   0.096
  128SOL    HW2 1284   5.072   3.949   6.983
  129SOL     OW 1285   0.155   5.397   2.570
  129SOL    HW1 1286   0.106   5.418   2.655
  129SOL    HW2 1287   0.239   5.451   2.567
  130SOL     OW 1288   6.069   2.784   4.025
  130SOL    HW1 1289   6.039   2.837   4.105
  130SOL    HW2 1290   6.004   2.796   3.950
  131SOL     OW 1291   0.780   2.336   3.279
  131SOL    HW1 1292   0.856   2.400   3.275
  131SOL    HW2 1293   0.806   2.256   3.333
  132SOL     OW 1294   3.456   2.624   1.061
  132SOL    HW1 1295   3.494   2.551   1.118
  132SOL    HW2 1296   3.508   2.708   1.075
  133SOL     OW 1297   5.356   6.007   6.359
  133SOL    HW1 1298   5.312   6.071   6.423
  133SOL    HW2 1299   5.398   6.059   6.285
  134SOL     OW 1300   5.901   1.873   1.544
  134SOL    HW1 1301   5.937   1.946   1.486
  134SOL    HW2 1302   5.816   1.904   1.588
  135SOL     OW 1303   5.027   3.674   3.881
  135SOL    HW1 1304   4.970   3.634   3.809
  135SOL    HW2 1305   4.982   3.755   3.918
  136SOL     OW 1306   3.563   0.806   6.794
  136SOL    HW1 1307   3.493   0.771   6.733
  136SOL    HW2 1308   3.639   0.742   6.798
  137SOL     OW 1309   2.658   3.982   5.866
  137SOL    HW1 1310   2.675   3.924   5.787
  137SOL    HW2 1311   2.727   4.054   5.870
  138SOL     OW 1312   1.091   4.900   6.372
  138SOL    HW1 1313   1.109   4.995   6.400
  138SOL    HW2 1314   0.993   4.881   6.379
  139SOL     OW 1315   1.450   0.065   0.963
  139SOL    HW1 1316   1.506   0.014   0.898
  139SOL    HW2 1317   1.480   0.044   1.056
  140SOL     OW 1318   4.321   0.629   1.595
  140SOL    HW1 1319   4.369   0.596   1.676
  140SOL    HW2 1320   4.253   0.698   1.622
  141SOL     OW 1321   0.559   3.082   0.464
  141SOL    HW1 1322   0.536   2.987   0.485
  141SOL    HW2 1323   0.523   3.106   0.374
  142SOL     OW 1324   2.284   3.453   0.765
  142SOL    HW1 1325   2.273   3.354   0.767
  142SOL    HW2 1326   2.347   3.482   0.837
  143SOL     OW 1327   4.239   6.088   2.064
  143SOL    HW1 1328   4.241   6.060   2.159
  143SOL    HW2 1329   4.332   6.100   2.030
  144SOL     OW 1330   3.460   5.797   3.050
  144SOL    HW1 1331   3.404   5.722   3.018
  144SOL    HW2 1332   3.402   5.875   3.073
  145SOL     OW 1333   0.480   4.566   3.565
  145SOL    HW1 1334   0.388   4.532   3.582
  145SOL    HW2 1335   0.476   4.648   3.509
  146SOL     OW 1336   4.951   0.693   6.226
  146SOL    HW1 1337   4.950   0.730   6.133
  146SOL    HW2 1338   5.010   0.612   6.229
  147SOL     OW 1339   4.344   0.443   4.898
  147SOL    HW1 1340   4.263   0.402   4.856
  147SOL    HW2 1341   4.317   0.522   4.953
  148SOL     OW 1342   1.608   6.180   1.449
  148SOL    HW1 1343   1.656   6.247   1.506
  148SOL    HW2 1344   1.576   6.224   1.365
  149SOL     OW 1345   2.090   2.517   4.327
  149SOL    HW1 1346   2.039   2.437   4.355
  149SOL    HW2 1347   2.061   2.546   4.236
  150SOL     OW 1348   4.066   1.663   4.801
  150SOL    HW1 1349   4.121   1.689   4.879
  150SOL    HW2 1350   4.089   1.570   4.773
  151SOL     OW 1351   4.741   2.633   0.869
  151SOL    HW1 1352   4.791   2.581   0.939
  151SOL    HW2 1353   4.787   2.720   0.854
  152SOL     OW 1354   0.599   2.466   1.375
  152SOL    HW1 1355   0.541   2.396   1.333
  152SOL    HW2 1356   0.619   2.441   1.469
  153SOL     OW 1357   2.220   1.157   3.698
  153SOL    HW1 1358   2.179   1.246   3.719
  153SOL    HW2 1359   2.301   1.144   3.755
  154SOL     OW 1360   6.415   2.634   2.348
  154SOL    HW1 1361   6.354   2.659   2.273
  154SOL    HW2 1362   6.402   2.698   2.424
  155SOL     OW 1363   0.040   5.310   3.116
  155SOL    HW1 1364   6.992   5.243   3.105
  155SOL    HW2 1365   0.121   5.264   3.152
  156SOL     OW 1366   5.038   2.642   0.296
  156SOL    HW1 1367   5.053   2.553   0.339
  156SOL    HW2 1368   5.070   2.714   0.358
  157SOL     OW 1369   5.169   6.321   0.983
  157SOL    HW1 1370   5.248   6.367   1.022
  157SOL    HW2 1371   5.150   6.358   0.892
  158SOL     OW 1372   0.789   2.958   3.742
  158SOL    HW1 1373   0.784   2.971   3.841
  158SOL    HW2 1374   0.771   2.862   3.721
  159SOL     OW 1375   5.900   5.386   0.623
  159SOL    HW1 1376   5.948   5.354   0.705
  159SOL    HW2 1377   5.816   5.334   0.610
  160SOL     OW 1378   5.460   0.272   1.177
  160SOL    HW1 1379   5.424   0.222   1.256
  160SOL    HW2 1380   5.384   0.313   1.127
  161SOL     OW 1381   6.765   6.718   1.268
  161SOL    HW1 1382   6.745   6.650   1.199
  161SOL    HW2 1383   6.745   6.809   1.232
  162SOL     OW 1384   4.090   6.726   6.447
  162SOL    HW1 1385   4.161   6.693   6.385
  162SOL    HW2 1386   4.061   6.818   6.419
  163SOL     OW 1387   1.014   3.837   2.393
  163SOL    HW1 1388   1.088   3.772   2.408
  163SOL    HW2 1389   0.954   3.803   2.321
  164SOL     OW 1390   2.663   1.629   3.880
  164SOL    HW1 1391   2.639   1.687   3.802
  164SOL    HW2 1392   2.624   1.537   3.866
  165SOL     OW 1393   6.827   6.780   3.784
  165SOL    HW1 1394   6.896   6.707   3.779
  165SOL    HW2 1395   6.777   6.772   3.870
  166SOL     OW 1396   6.326   4.314   3.909
  166SOL    HW1 1397   6.302   4.263   3.826
  166SOL    HW2 1398   6.306   4.411   3.896
  167SOL     OW 1399   2.435   1.683   6.225
  167SOL    HW1 1400   2.431   1.753   6.296
  167SOL    HW2 1401   2.425   1.593   6.267
  168SOL     OW 1402   3.895   3.512   1.699
  168SOL    HW1 1403   3.916   3.600   1.656
  168SOL    HW2 1404   3.912   3.439   1.633
  169SOL     OW 1405   4.481   1.865   1.243
  169SOL    HW1 1406   4.493   1.964   1.253
  169SOL    HW2 1407   4.441   1.846   1.153
  170SOL     OW 1408   6.400   5.572   1.517
  170SOL    HW1 1409   6.405   5.660   1.565
  170SOL    HW2 1410   6.321   5.571   1.457
  171SOL     OW 1411   3.527   3.159   0.898
  171SOL    HW1 1412   3.499   3.093   0.828
  171SOL    HW2 1413   3.458   3.163   0.970
  172SOL     OW 1414   1.005   1.775   6.626
  172SOL    HW1 1415   1.003   1.800   6.529
  172SOL    HW2 1416   0.926   1.813   6.673
  173SOL     OW 1417   6.034   1.464   3.815
  173SOL    HW1 1418   6.001   1.469   3.909
  173SOL    HW2 1419   6.098   1.539   3.798
  174SOL     OW 1420   5.408   4.604   4.679
  174SOL    HW1 1421   5.474   4.659   4.730
  174SOL    HW2 1422   5.385   4.522   4.731
  175SOL     OW 1423   0.334   0.196   2.891
  175SOL    HW1 1424   0.316   0.098   2.899
  175SOL    HW2 1425   0.283   0.232   2.812
  176SOL     OW 1426   6.028   3.683   1.843
  176SOL    HW1 1427   6.048   3.749   1.771
  176SOL    HW2 1428   6.113   3.650   1.884
  177SOL     OW 1429   5.802   2.171   3.721
  177SOL    HW1 1430   5.879   2.224   3.684
  177SOL    HW2 1431   5.821   2.148   3.816
  178SOL     OW 1432   2.620   5.879   4.650
  178SOL    HW1 1433   2.535   5.860   4.602
  178SOL    HW2 1434   2.602   5.936   4.730
  179SOL     OW 1435   3.178   4.070   1.503
  179SOL    HW1 1436   3.134   4.119   1.428
  179SOL    HW2 1437   3.224   4.136   1.563
  180SOL     OW 1438   4.298   1.240   6.925
  180SOL    HW1 1439   4.311   1.157   6.872
  180SOL    HW2 1440   4.373   1.304   6.907
  181SOL     OW 1441   3.470   2.108   5.848
  181SOL    HW1 1442   3.455   2.197   5.803
  181SOL    HW2 1443   3.464   2.035   5.780
  182SOL     OW 1444   2.999   2.529   6.052
  182SOL    HW1 1445   2.984   2.510   5.955
  182SOL    HW2 1446   3.093   2.563   6.065
  183SOL     OW 1447   3.083   0.508   3.565
  183SOL    HW1 1448   3.006   0.569   3.546
  183SOL    HW2 1449   3.096   0.446   3.488
  184SOL     OW 1450   5.167   5.826   3.892
  184SOL    HW1 1451   5.125   5.778   3.970
  184SOL    HW2 1452   5.105   5.822   3.813
  185SOL     OW 1453   6.986   0.213   4.678
  185SOL    HW1 1454   6.973   0.137   4.613
  185SOL    HW2 1455   7.004   0.297   4.627
  186SOL     OW 1456   3.585   5.995   4.704
  186SOL    HW1 1457   3.597   6.028   4.797
  186SOL    HW2 1458   3.488   5.994   4.681
  187SOL     OW 1459   4.053   6.185   1.439
  187SOL    HW1 1460   3.985   6.240   1.390
  187SOL    HW2 1461   4.137   6.239   1.450
  188SOL     OW 1462   1.478   2.748   2.768
  188SOL    HW1 1463   1.418   2.695   2.707
  188SOL    HW2 1464   1.487   2.841   2.733
  189SOL     OW 1465   5.420   5.157   5.442
  189SOL    HW1 1466   5.328   5.131   5.471
  189SOL    HW2 1467   5.487   5.105   5.494
  190SOL     OW 1468   6.036   0.050   0.335
  190SOL    HW1 1469   5.994   6.988   0.357
  190SOL    HW2 1470   5.975   0.124   0.364
  191SOL     OW 1471   7.001   1.394   5.623
  191SOL    HW1 1472   0.019   1.424   5.708
  191SOL    HW2 1473   6.998   1.471   5.559
  192SOL     OW 1474   0.621   5.751   1.022
  192SOL    HW1 1475   0.605   5.710   0.933
  192SOL    HW2 1476   0.663   5.841   1.010
  193SOL     OW 1477   2.332   6.523   0.552
  193SOL    HW1 1478   2.389   6.533   0.471
  193SOL    HW2 1479   2.252   6.583   0.545
  194SOL     OW 1480   4.139   6.011   2.321
  194SOL    HW1 1481   4.083   5.958   2.257
  194SOL    HW2 1482   4.144   5.964   2.409
  195SOL     OW 1483   3.897   0.774   1.494
  195SOL    HW1 1484   3.943   0.696   1.537
  195SOL    HW2 1485   3.874   0.751   1.399
  196SOL     OW 1486   3.422   2.149   0.537
  196SOL    HW1 1487   3.404   2.167   0.634
  196SOL    HW2 1488   3.386   2.060   0.512
  197SOL     OW 1489   1.712   6.201   0.245
  197SOL    HW1 1490   1.748   6.289   0.273
  197SOL    HW2 1491   1.720   6.191   0.146
  198SOL     OW 1492   4.019   0.064   6.755
  198SOL    HW1 1493   3.997   0.150   6.801
  198SOL    HW2 1494   3.989   0.068   6.660
  199SOL     OW 1495   0.543   0.387   2.949
  199SOL    HW1 1496   0.467   0.329   2.923
  199SOL    HW2 1497   0.582   0.429   2.867
  200SOL     OW 1498   0.977   4.248   3.227
  200SOL    HW1 1499   0.979   4.348   3.237
  200SOL    HW2 1500   0.968   4.206   3.317
  201SOL     OW 1501   5.060   1.137   6.144
  201SOL    HW1 1502   5.048   1.179   6.054
  201SOL    HW2 1503   4.978   1.151   6.199
  202SOL     OW 1504   3.640   1.185   2.535
  202SOL    HW1 1505   3.558   1.235   2.506
  202SOL    HW2 1506   3.633   1.089   2.506
  203SOL     OW 1507   5.666   2.794   0.099
  203SOL    HW1 1508   5.696   2.732   0.027
  203SOL    HW2 1509   5.590   2.753   0.150
  204SOL     OW 1510   2.857   6.258   1.585
  204SOL    HW1 1511   2.821   6.176   1.541
  204SOL    HW2 1512   2.786   6.329   1.585
  205SOL     OW 1513   6.064   1.010   0.719
  205SOL    HW1 1514   6.034   1.007   0.624
  205SOL    HW2 1515   6.077   1.105   0.747
  206SOL     OW 1516   0.582   5.162   1.895
  206SOL    HW1 1517   0.523   5.081   1.902
  206SOL    HW2 1518   0.556   5.215   1.815
  207SOL     OW 1519   4.863   1.335   5.200
  207SOL    HW1 1520   4.799   1.364   5.129
  207SOL    HW2 1521   4.851   1.392   5.282
  208SOL     OW 1522   3.565   4.800   5.976
  208SOL    HW1 1523   3.512   4.874   5.934
  208SOL    HW2 1524   3.539   4.713   5.934
  209SOL     OW 1525   6.951   4.986   5.498
  209SOL    HW1 1526   7.006   4.962   5.418
  209SOL    HW2 1527   6.876   5.047   5.471
  210SOL     OW 1528   3.922   2.111   2.110
  210SOL    HW1 1529   3.976   2.168   2.047
  210SOL    HW2 1530   3.825   2.135   2.101
  211SOL     OW 1531   1.261   2.081   1.797
  211SOL    HW1 1532   1.256   2.118   1.704
  211SOL    HW2 1533   1.170   2.053   1.827
  212SOL     OW 1534   0.730   4.742   4.344
  212SOL    HW1 1535   0.711   4.670   4.410
  212SOL    HW2 1536   0.778   4.703   4.265
  213SOL     OW 1537   4.097   2.869   6.764
  213SOL    HW1 1538   4.059   2.779   6.741
  213SOL    HW2 1539   4.049   2.906   6.844
  214SOL     OW 1540   1.423   6.677   2.725
  214SOL    HW1 1541   1.397   6.621   2.804
  214SOL    HW2 1542   1.441   6.618   2.646
  215SOL     OW 1543   3.422   3.395   2.696
  215SOL    HW1 1544   3.401   3.359   2.605
  215SOL    HW2 1545   3.489   3.336   2.741
  216SOL     OW 1546   1.756   6.294   5.704
  216SOL    HW1 1547   1.680   6.356   5.721
  216SOL    HW2 1548   1.758   6.224   5.775
  217SOL     OW 1549   6.805   2.752   3.742
  217SOL    HW1 1550   6.896   2.721   3.768
  217SOL    HW2 1551   6.792   2.847   3.771
  218SOL     OW 1552   1.836   3.736   5.379
  218SOL    HW1 1553   1.890   3.789   5.444
  218SOL    HW2 1554   1.776   3.673   5.428
  219SOL     OW 1555   4.342   5.238   0.623
  219SOL    HW1 1556   4.306   5.247   0.716
  219SOL    HW2 1557   4.419   5.300   0.611
  220SOL     OW 1558   1.681   4.476   0.928
  220SOL    HW1 1559   1.708   4.522   0.843
  220SOL    HW2 1560   1.753   4.412   0.956
  221SOL     OW 1561   6.624   2.603   3.915
  221SOL    HW1 1562   6.540   2.649   3.943
  221SOL    HW2 1563   6.666   2.652   3.839
  222SOL     OW 1564   1.119   6.334   4.876
  222SOL    HW1 1565   1.128   6.422   4.831
  222SOL    HW2 1566   1.181   6.268   4.833
  223SOL     OW 1567   5.940   4.060   2.523
  223SOL    HW1 1568   5.891   4.039   2.438
  223SOL    HW2 1569   5.973   4.154   2.521
  224SOL     OW 1570   3.605   2.093   2.288
  224SOL    HW1 1571   3.525   2.138   2.327
  224SOL    HW2 1572   3.635   2.143   2.206
  225SOL     OW 1573   0.631   0.322   1.173
  225SOL    HW1 1574   0.537   0.299   1.146
  225SOL    HW2 1575   0.629   0.390   1.246
  226SOL     OW 1576   0.357   5.549   1.138
  226SOL    HW1 1577   0.286   5.607   1.097
  226SOL    HW2 1578   0.445   5.568   1.095
  227SOL     OW 1579   1.717   2.903   3.374
  227SOL    HW1 1580   1.681   2.957   3.299
  227SOL    HW2 1581   1.814   2.885   3.359
  228SOL     OW 1582   3.910   6.956   2.820
  228SOL    HW1 1583   3.826   6.922   2.863
  228SOL    HW2 1584   3.962   6.879   2.783
  229SOL     OW 1585   6.524   5.636   3.301
  229SOL    HW1 1586   6.601   5.618   3.239
  229SOL    HW2 1587   6.451   5.682   3.250
  230SOL     OW 1588   1.405   4.249   5.598
  230SOL    HW1 1589   1.378   4.192   5.675
  230SOL    HW2 1590   1.374   4.343   5.614
  231SOL     OW 1591   0.458   1.989   0.264
  231SOL    HW1 1592   0.372   2.002   0.312
  231SOL    HW2 1593   0.534   2.002   0.328
  232SOL     OW 1594   1.978   5.015   6.346
  232SOL    HW1 1595   2.051   5.031   6.279
  232SOL    HW2 1596   1.914   4.947   6.310
  233SOL     OW 1597   3.117   1.038   6.153
  233SOL    HW1 1598   3.147   0.974   6.223
  233SOL    HW2 1599   3.183   1.039   6.078
  234SOL     OW 1600   2.892   5.687   0.086
  234SOL    HW1 1601   2.874   5.730   0.174
  234SOL    HW2 1602   2.863   5.748   0.012
  235SOL     OW 1603   3.900   3.071   4.347
  235SOL    HW1 1604   3.951   3.090   4.263
  235SOL    HW2 1605   3.963   3.065   4.424
  236SOL     OW 1606   6.712   1.877   5.279
  236SOL    HW1 1607   6.770   1.826   5.216
  236SOL    HW2 1608   6.760   1.893   5.365
  237SOL     OW 1609   0.138   6.580   1.934
  237SOL    HW1 1610   0.041   6.560   1.922
  237SOL    HW2 1611   0.155   6.609   2.028
  238SOL     OW 1612   7.008   2.209   2.214
  238SOL    HW1 1613   6.925   2.186   2.265
  238SOL    HW2 1614   6.991   2.290   2.158
  239SOL     OW 1615   0.588   5.656   0.762
  239SOL    HW1 1616   0.584   5.556   0.774
  239SOL    HW2 1617   0.625   5.677   0.672
  240SOL     OW 1618   6.705   3.038   5.423
  240SOL    HW1 1619   6.721   3.022   5.521
  240SOL    HW2 1620   6.606   3.043   5.407
  241SOL     OW 1621   6.280   1.642   4.114
  241SOL    HW1 1622   6.272   1.621   4.016
  241SOL    HW2 1623   6.338   1.722   4.126
  242SOL     OW 1624   1.987   2.703   3.468
  242SOL    HW1 1625   1.951   2.691   3.561
  242SOL    HW2 1626   1.981   2.800   3.443
  243SOL     OW 1627   4.101   1.030   5.650
  243SOL    HW1 1628   4.096   0.993   5.743
  243SOL    HW2 1629   4.013   1.020   5.605
  244SOL     OW 1630   6.653   0.434   5.880
  244SOL    HW1 1631   6.734   0.400   5.928
  244SOL    HW2 1632   6.679   0.464   5.788
  245SOL     OW 1633   5.613   2.741   3.734
  245SOL    HW1 1634   5.629   2.839   3.747
  245SOL    HW2 1635   5.670   2.708   3.658
  246SOL     OW 1636   4.896   3.284   3.709
  246SOL    HW1 1637   4.889   3.271   3.808
  246SOL    HW2 1638   4.989   3.310   3.684
  247SOL     OW 1639   3.364   0.431   3.942
  247SOL    HW1 1640   3.358   0.518   3.990
  247SOL    HW2 1641   3.285   0.421   3.881
  248SOL     OW 1642   6.159   1.761   1.813
  248SOL    HW1 1643   6.106   1.844   1.799
  248SOL    HW2 1644   6.144   1.698   1.736
  249SOL     OW 1645   2.406   6.379   3.777
  249SOL    HW1 1646   2.504   6.394   3.765
  249SOL    HW2 1647   2.388   6.349   3.871
  250SOL     OW 1648   5.222   3.153   6.332
  250SOL    HW1 1649   5.302   3.122   6.383
  250SOL    HW2 1650   5.192   3.241   6.368
  251SOL     OW 1651   1.687   2.167   0.860
  251SOL    HW1 1652   1.694   2.071   0.888
  251SOL    HW2 1653   1.721   2.226   0.933
  252SOL     OW 1654   0.290   1.323   0.274
  252SOL    HW1 1655   0.203   1.315   0.225
  252SOL    HW2 1656   0.274   1.321   0.372
  253SOL     OW 1657   1.531   3.902   5.404
  253SOL    HW1 1658   1.629   3.894   5.387
  253SOL    HW2 1659   1.480   3.867   5.325
  254SOL     OW 1660   5.297   3.475   5.405
  254SOL    HW1 1661   5.266   3.569   5.390
  254SOL    HW2 1662   5.249   3.436   5.483
  255SOL     OW 1663   3.607   2.171   3.187
  255SOL    HW1 1664   3.586   2.073   3.186
  255SOL    HW2 1665   3.575   2.210   3.274
  256SOL     OW 1666   6.628   5.760   0.486
  256SOL    HW1 1667   6.708   5.818   0.501
  256SOL    HW2 1668   6.648   5.696   0.411
  257SOL     OW 1669   3.225   5.144   6.577
  257SOL    HW1 1670   3.138   5.157   6.625
  257SOL    HW2 1671   3.210   5.149   6.478
  258SOL     OW 1672   5.053   3.974   4.345
  258SOL    HW1 1673   5.025   3.930   4.430
  258SOL    HW2 1674   4.981   4.037   4.315
  259SOL     OW 1675   1.292   2.382   3.322
  259SOL    HW1 1676   1.339   2.435   3.393
  259SOL    HW2 1677   1.358   2.348   3.255
  260SOL     OW 1678   6.412   6.871   5.471
  260SOL    HW1 1679   6.403   6.969   5.489
  260SOL    HW2 1680   6.387   6.819   5.553
  261SOL     OW 1681   0.843   1.557   2.877
  261SOL    HW1 1682   0.864   1.620   2.952
  261SOL    HW2 1683   0.821   1.610   2.795
  262SOL     OW 1684   2.084   4.741   1.778
  262SOL    HW1 1685   2.154   4.737   1.706
  262SOL    HW2 1686   2.127   4.767   1.865
  263SOL     OW 1687   6.598   2.132   5.296
  263SOL    HW1 1688   6.660   2.183   5.237
  263SOL    HW2 1689   6.602   2.035   5.272
  264SOL     OW 1690   3.071   3.769   5.940
  264SOL    HW1 1691   3.145   3.736   5.998
  264SOL    HW2 1692   2.994   3.704   5.944
  265SOL     OW 1693   5.517   5.800   5.234
  265SOL    HW1 1694   5.533   5.843   5.324
  265SOL    HW2 1695   5.454   5.856   5.181
  266SOL     OW 1696   3.243   2.658   6.212
  266SOL    HW1 1697   3.340   2.681   6.213
  266SOL    HW2 1698   3.190   2.736   6.178
  267SOL     OW 1699   1.523   1.341   6.069
  267SOL    HW1 1700   1.495   1.399   6.146
  267SOL    HW2 1701   1.470   1.367   5.988
  268SOL     OW 1702   3.145   5.921   3.588
  268SOL    HW1 1703   3.116   5.982   3.515
  268SOL    HW2 1704   3.245   5.919   3.592
  269SOL     OW 1705   1.750   1.420   4.797
  269SOL    HW1 1706   1.766   1.418   4.895
  269SOL    HW2 1707   1.709   1.508   4.772
  270SOL     OW 1708   5.132   6.841   4.634
  270SOL    HW1 1709   5.171   6.765   4.686
  270SOL    HW2 1710   5.206   6.895   4.593
  271SOL     OW 1711   1.201   1.723   0.049
  271SOL    HW1 1712   1.180   1.703   6.979
  271SOL    HW2 1713   1.296   1.755   0.056
  272SOL     OW 1714   5.055   5.818   2.133
  272SOL    HW1 1715   5.068   5.747   2.202
  272SOL    HW2 1716   5.070   5.779   2.042
  273SOL     OW 1717   2.915   6.694   4.472
  273SOL    HW1 1718   2.958   6.741   4.549
  273SOL    HW2 1719   2.946   6.598   4.470
  274SOL     OW 1720   5.948   1.540   0.951
  274SOL    HW1 1721   5.927   1.541   0.853
  274SOL    HW2 1722   5.864   1.523   1.003
  275SOL     OW 1723   5.622   6.100   5.925
  275SOL    HW1 1724   5.607   6.167   5.852
  275SOL    HW2 1725   5.698   6.039   5.899
  276SOL     OW 1726   0.253   6.521   3.615
  276SOL    HW1 1727   0.297   6.527   3.705
  276SOL    HW2 1728   0.154   6.525   3.627
  277SOL     OW 1729   5.002   2.365   5.194
  277SOL    HW1 1730   5.015   2.402   5.102
  277SOL    HW2 1731   5.089   2.329   5.228
  278SOL     OW 1732   5.630   3.615   3.360
  278SOL    HW1 1733   5.706   3.655   3.410
  278SOL    HW2 1734   5.661   3.535   3.309
  279SOL     OW 1735   0.379   3.422   4.071
  279SOL    HW1 1736   0.336   3.422   4.162
  279SOL    HW2 1737   0.326   3.365   4.009
  280SOL     OW 1738   3.694   1.100   3.398
  280SOL    HW1 1739   3.660   1.006   3.397
  280SOL    HW2 1740   3.779   1.105   3.346
  281SOL     OW 1741   5.409   6.302   4.900
  281SOL    HW1 1742   5.380   6.280   4.807
  281SOL    HW2 1743   5.496   6.351   4.897
  282SOL     OW 1744   1.359   2.409   0.434
  282SOL    HW1 1745   1.374   2.486   0.372
  282SOL    HW2 1746   1.429   2.410   0.506
  283SOL     OW 1747   5.297   3.318   4.746
  283SOL    HW1 1748   5.297   3.235   4.690
  283SOL    HW2 1749   5.392   3.345   4.764
  284SOL     OW 1750   5.165   5.802   2.830
  284SOL    HW1 1751   5.237   5.747   2.787
  284SOL    HW2 1752   5.078   5.755   2.823
  285SOL     OW 1753   4.440   0.911   6.127
  285SOL    HW1 1754   4.421   0.917   6.029
  285SOL    HW2 1755   4.522   0.856   6.142
  286SOL     OW 1756   2.833   4.826   5.464
  286SOL    HW1 1757   2.921   4.836   5.510
  286SOL    HW2 1758   2.814   4.729   5.448
  287SOL     OW 1759   3.461   0.177   6.656
  287SOL    HW1 1760   3.389   0.236   6.692
  287SOL    HW2 1761   3.545   0.192   6.708
  288SOL     OW 1762   4.514   1.463   0.829
  288SOL    HW1 1763   4.558   1.449   0.740
  288SOL    HW2 1764   4.580   1.505   0.891
  289SOL     OW 1765   6.583   5.444   4.142
  289SOL    HW1 1766   6.500   5.462   4.089
  289SOL    HW2 1767   6.610   5.527   4.191
  290SOL     OW 1768   3.940   0.947   6.333
  290SOL    HW1 1769   3.919   1.040   6.302
  290SOL    HW2 1770   4.034   0.943   6.365
  291SOL     OW 1771   3.637   0.526   5.572
  291SOL    HW1 1772   3.671   0.444   5.525
  291SOL    HW2 1773   3.579   0.498   5.648
  292SOL     OW 1774   4.561   0.303   3.869
  292SOL    HW1 1775   4.492   0.332   3.802
  292SOL    HW2 1776   4.550   0.356   3.953
  293SOL     OW 1777   5.613   6.458   2.593
  293SOL    HW1 1778   5.640   6.519   2.518
  293SOL    HW2 1779   5.690   6.446   2.656
  294SOL     OW 1780   6.056   0.963   6.395
  294SOL    HW1 1781   6.026   1.054   6.365
  294SOL    HW2 1782   6.021   0.945   6.487
  295SOL     OW 1783   1.098   0.766   4.763
  295SOL    HW1 1784   1.054   0.853   4.784
  295SOL    HW2 1785   1.057   0.728   4.679
  296SOL     OW 1786   0.841   2.397   1.617
  296SOL    HW1 1787   0.768   2.338   1.582
  296SOL    HW2 1788   0.870   2.365   1.707
  297SOL     OW 1789   5.086   3.560   3.470
  297SOL    HW1 1790   5.016   3.495   3.438
  297SOL    HW2 1791   5.107   3.624   3.397
  298SOL     OW 1792   4.645   0.725   6.169
  298SOL    HW1 1793   4.660   0.710   6.267
  298SOL    HW2 1794   4.730   0.708   6.119
  299SOL     OW 1795   0.953   0.538   6.916
  299SOL    HW1 1796   0.866   0.494   6.891
  299SOL    HW2 1797   0.973   0.611   6.850
  300SOL     OW 1798   3.890   0.184   3.602
  300SOL    HW1 1799   3.906   0.089   3.576
  300SOL    HW2 1800   3.885   0.190   3.702
  301SOL     OW 1801   6.759   5.206   0.240
  301SOL    HW1 1802   6.713   5.175   0.157
  301SOL    HW2 1803   6.692   5.223   0.312
  302SOL     OW 1804   6.718   5.432   2.403
  302SOL    HW1 1805   6.646   5.489   2.442
  302SOL    HW2 1806   6.733   5.459   2.308
  303SOL     OW 1807   5.444   5.882   3.498
  303SOL    HW1 1808   5.361   5.877   3.444
  303SOL    HW2 1809   5.489   5.793   3.500
  304SOL     OW 1810   2.730   6.195   4.897
  304SOL    HW1 1811   2.714   6.103   4.932
  304SOL    HW2 1812   2.667   6.259   4.942
  305SOL     OW 1813   1.192   2.539   1.844
  305SOL    HW1 1814   1.213   2.571   1.751
  305SOL    HW2 1815   1.158   2.616   1.898
  306SOL     OW 1816   0.251   0.185   3.617
  306SOL    HW1 1817   0.305   0.116   3.666
  306SOL    HW2 1818   0.311   0.260   3.589
  307SOL     OW 1819   3.761   3.245   4.103
  307SOL    HW1 1820   3.706   3.243   4.187
  307SOL    HW2 1821   3.807   3.334   4.097
  308SOL     OW 1822   6.352   2.181   2.783
  308SOL    HW1 1823   6.439   2.231   2.778
  308SOL    HW2 1824   6.317   2.167   2.690
  309SOL     OW 1825   1.416   5.839   6.525
  309SOL    HW1 1826   1.410   5.889   6.439
  309SOL    HW2 1827   1.355   5.882   6.592
  310SOL     OW 1828   5.174   6.528   5.281
  310SOL    HW1 1829   5.136   6.620   5.272
  310SOL    HW2 1830   5.189   6.489   5.190
  311SOL     OW 1831   1.592   5.593   2.708
  311SOL    HW1 1832   1.646   5.610   2.625
  311SOL    HW2 1833   1.548   5.679   2.737
  312SOL     OW 1834   3.619   0.411   3.629
  312SOL    HW1 1835   3.645   0.430   3.534
  312SOL    HW2 1836   3.550   0.339   3.630
  313SOL     OW 1837   3.417   3.875   2.795
  313SOL    HW1 1838   3.448   3.942   2.863
  313SOL    HW2 1839   3.355   3.918   2.730
  314SOL     OW 1840   3.312   5.655   6.106
  314SOL    HW1 1841   3.263   5.591   6.167
  314SOL    HW2 1842   3.257   5.738   6.095
  315SOL     OW 1843   6.108   0.807   4.694
  315SOL    HW1 1844   6.081   0.861   4.614
  315SOL    HW2 1845   6.199   0.835   4.724
  316SOL     OW 1846   4.395   1.010   6.518
  316SOL    HW1 1847   4.463   1.065   6.470
  316SOL    HW2 1848   4.335   0.966   6.452
  317SOL     OW 1849   1.153   1.844   0.752
  317SOL    HW1 1850   1.092   1.922   0.766
  317SOL    HW2 1851   1.170   1.799   0.839
  318SOL     OW 1852   0.405   6.952   5.229
  318SOL    HW1 1853   0.407   0.024   5.252
  318SOL    HW2 1854   0.489   6.908   5.262
  319SOL     OW 1855   0.580   1.348   3.535
  319SOL    HW1 1856   0.582   1.307   3.443
  319SOL    HW2 1857   0.486   1.354   3.567
  320SOL     OW 1858   5.736   2.012   6.458
  320SOL    HW1 1859   5.716   1.977   6.366
  320SOL    HW2 1860   5.762   1.936   6.518
  321SOL     OW 1861   4.502   2.709   0.708
  321SOL    HW1 1862   4.561   2.690   0.786
  321SOL    HW2 1863   4.461   2.800   0.719
  322SOL     OW 1864   3.057   3.098   6.602
  322SOL    HW1 1865   3.009   3.181   6.575
  322SOL    HW2 1866   3.146   3.121   6.642
  323SOL     OW 1867   2.008   3.908   2.481
  323SOL    HW1 1868   1.922   3.908   2.532
  323SOL    HW2 1869   1.996   3.859   2.394
  324SOL     OW 1870   0.789   0.242   3.032
  324SOL    HW1 1871   0.850   0.232   2.953
  324SOL    HW2 1872   0.706   0.290   3.005
  325SOL     OW 1873   0.115   4.103   0.960
  325SOL    HW1 1874   0.063   4.082   1.042
  325SOL    HW2 1875   0.146   4.198   0.963
  326SOL     OW 1876   0.969   6.119   6.744
  326SOL    HW1 1877   1.045   6.171   6.705
  326SOL    HW2 1878   0.930   6.170   6.821
  327SOL     OW 1879   5.258   5.448   4.950
  327SOL    HW1 1880   5.192   5.487   5.014
  327SOL    HW2 1881   5.324   5.393   4.999
  328SOL     OW 1882   1.483   4.024   3.146
  328SOL    HW1 1883   1.476   3.924   3.147
  328SOL    HW2 1884   1.488   4.056   3.051
  329SOL     OW 1885   3.116   3.034   1.587
  329SOL    HW1 1886   3.072   3.084   1.662
  329SOL    HW2 1887   3.200   2.992   1.620
  330SOL     OW 1888   2.689   4.727   0.802
  330SOL    HW1 1889   2.777   4.756   0.840
  330SOL    HW2 1890   2.651   4.800   0.745
  331SOL     OW 1891   6.419   5.302   5.995
  331SOL    HW1 1892   6.517   5.293   6.015
  331SOL    HW2 1893   6.367   5.244   6.058
  332SOL     OW 1894   5.816   2.723   3.126
  332SOL    HW1 1895   5.871   2.745   3.207
  332SOL    HW2 1896   5.810   2.624   3.116
  333SOL     OW 1897   3.661   1.080   5.281
  333SOL    HW1 1898   3.573   1.059   5.239
  333SOL    HW2 1899   3.647   1.128   5.367
  334SOL     OW 1900   4.051   3.729   3.389
  334SOL    HW1 1901   4.037   3.636   3.357
  334SOL    HW2 1902   4.091   3.784   3.317
  335SOL     OW 1903   4.270   1.681   1.304
  335SOL    HW1 1904   4.345   1.746   1.321
  335SOL    HW2 1905   4.183   1.723   1.330
  336SOL     OW 1906   3.107   1.495   4.200
  336SOL    HW1 1907   3.171   1.441   4.146
  336SOL    HW2 1908   3.143   1.507   4.292
  337SOL     OW 1909   1.434   0.944   5.212
  337SOL    HW1 1910   1.395   0.912   5.125
  337SOL    HW2 1911   1.529   0.912   5.219
  338SOL     OW 1912   4.272   1.455   1.560
  338SOL    HW1 1913   4.250   1.482   1.466
  338SOL    HW2 1914   4.337   1.519   1.599
  339SOL     OW 1915   4.161   6.255   5.721
  339SOL    HW1 1916   4.095   6.194   5.675
  339SOL    HW2 1917   4.151   6.347   5.685
  340SOL     OW 1918   4.793   1.944   4.377
  340SOL    HW1 1919   4.839   2.000   4.309
  340SOL    HW2 1920   4.828   1.850   4.374
  341SOL     OW 1921   6.683   6.196   2.909
  341SOL    HW1 1922   6.676   6.233   3.001
  341SOL    HW2 1923   6.698   6.097   2.913
  342SOL     OW 1924   4.975   1.845   2.539
  342SOL    HW1 1925   5.038   1.769   2.553
  342SOL    HW2 1926   4.897   1.814   2.484
  343SOL     OW 1927   6.774   6.364   2.714
  343SOL    HW1 1928   6.753   6.327   2.805
  343SOL    HW2 1929   6.692   6.405   2.674
  344SOL     OW 1930   0.733   1.761   0.439
  344SOL    HW1 1931   0.805   1.714   0.491
  344SOL    HW2 1932   0.723   1.855   0.473
  345SOL     OW 1933   6.748   3.168   4.299
  345SOL    HW1 1934   6.718   3.102   4.368
  345SOL    HW2 1935   6.848   3.173   4.300
  346SOL     OW 1936   2.044   6.718   3.703
  346SOL    HW1 1937   2.085   6.681   3.619
  346SOL    HW2 1938   1.980   6.790   3.679
  347SOL     OW 1939   2.105   4.644   0.647
  347SOL    HW1 1940   2.115   4.742   0.665
  347SOL    HW2 1941   2.088   4.630   0.550
  348SOL     OW 1942   4.646   5.469   1.596
  348SOL    HW1 1943   4.663   5.374   1.620
  348SOL    HW2 1944   4.572   5.474   1.529
  349SOL     OW 1945   5.742   4.172   1.155
  349SOL    HW1 1946   5.776   4.106   1.088
  349SOL    HW2 1947   5.814   4.189   1.224
  350SOL     OW 1948   3.670   2.912   0.363
  350SOL    HW1 1949   3.741   2.963   0.412
  350SOL    HW2 1950   3.701   2.893   0.270
  351SOL     OW 1951   3.181   4.723   1.018
  351SOL    HW1 1952   3.188   4.624   1.031
  351SOL    HW2 1953   3.088   4.747   0.990
  352SOL     OW 1954   4.404   0.454   2.506
  352SOL    HW1 1955   4.317   0.453   2.457
  352SOL    HW2 1956   4.397   0.512   2.587
  353SOL     OW 1957   1.849   7.001   6.360
  353SOL    HW1 1958   1.827   7.022   6.265
  353SOL    HW2 1959   1.936   0.018   6.385
  354SOL     OW 1960   0.117   2.335   0.333
  354SOL    HW1 1961   0.216   2.334   0.324
  354SOL    HW2 1962   0.080   2.418   0.292
  355SOL     OW 1963   1.151   1.806   2.921
  355SOL    HW1 1964   1.159   1.873   2.995
  355SOL    HW2 1965   1.134   1.854   2.835
  356SOL     OW 1966   1.666   0.905   5.760
  356SOL    HW1 1967   1.668   0.849   5.677
  356SOL    HW2 1968   1.650   0.847   5.840
  357SOL     OW 1969   5.018   0.257   5.014
  357SOL    HW1 1970   4.980   0.344   4.981
  357SOL    HW2 1971   5.085   0.275   5.086
  358SOL     OW 1972   3.663   5.844   6.774
  358SOL    HW1 1973   3.589   5.908   6.751
  358SOL    HW2 1974   3.626   5.751   6.779
  359SOL     OW 1975   2.123   2.154   2.460
  359SOL    HW1 1976   2.177   2.077   2.493
  359SOL    HW2 1977   2.106   2.217   2.536
  360SOL     OW 1978   0.805   4.631   4.101
  360SOL    HW1 1979   0.771   4.665   4.013
  360SOL    HW2 1980   0.780   4.535   4.111
  361SOL     OW 1981   6.677   2.048   3.102
  361SOL    HW1 1982   6.735   2.088   3.031
  361SOL    HW2 1983   6.695   1.950   3.109
  362SOL     OW 1984   3.684   3.906   0.934
  362SOL    HW1 1985   3.600   3.906   0.879
  362SOL    HW2 1986   3.761   3.877   0.878
  363SOL     OW 1987   5.330   5.503   1.703
  363SOL    HW1 1988   5.255   5.568   1.691
  363SOL    HW2 1989   5.314   5.423   1.645
  364SOL     OW 1990   0.916   6.438   6.312
  364SOL    HW1 1991   0.920   6.351   6.362
  364SOL    HW2 1992   0.833   6.440   6.256
  365SOL     OW 1993   4.500   1.954   3.599
  365SOL    HW1 1994   4.541   1.893   3.666
  365SOL    HW2 1995   4.412   1.917   3.569
  366SOL     OW 1996   5.232   1.470   0.090
  366SOL    HW1 1997   5.173   1.476   0.170
  366SOL    HW2 1998   5.320   1.431   0.116
  367SOL     OW 1999   5.517   1.430   6.117
  367SOL    HW1 2000   5.565   1.360   6.168
  367SOL    HW2 2001   5.454   1.387   6.052
  368SOL     OW 2002   6.859   1.909   5.501
  368SOL    HW1 2003   6.807   1.965   5.566
  368SOL    HW2 2004   6.957   1.918   5.521
  369SOL     OW 2005   6.834   3.754   1.838
  369SOL    HW1 2006   6.747   3.708   1.822
  369SOL    HW2 2007   6.906   3.686   1.852
  370SOL     OW 2008   1.377   3.104   3.999
  370SOL    HW1 2009   1.448   3.095   3.928
  370SOL    HW2 2010   1.316   3.025   3.995
  371SOL     OW 2011   0.863   4.529   6.986
  371SOL    HW1 2012   0.950   4.490   6.954
  371SOL    HW2 2013   0.880   4.587   0.040
  372SOL     OW 2014   3.682   6.184   6.244
  372SOL    HW1 2015   3.761   6.209   6.299
  372SOL    HW2 2016   3.689   6.088   6.216
  373SOL     OW 2017   5.745   5.279   3.652
  373SOL    HW1 2018   5.813   5.336   3.697
  373SOL    HW2 2019   5.745   5.299   3.554
  374SOL     OW 2020   2.710   1.665   2.992
  374SOL    HW1 2021   2.691   1.664   2.894
  374SOL    HW2 2022   2.654   1.735   3.037
  375SOL     OW 2023   1.202   5.202   4.536
  375SOL    HW1 2024   1.157   5.151   4.610
  375SOL    HW2 2025   1.260   5.140   4.484
  376SOL     OW 2026   2.901   1.058   3.547
  376SOL    HW1 2027   2.958   0.977   3.553
  376SOL    HW2 2028   2.906   1.096   3.454
  377SOL     OW 2029   1.218   1.673   6.787
  377SOL    HW1 2030   1.135   1.721   6.758
  377SOL    HW2 2031   1.264   1.636   6.707
  378SOL     OW 2032   4.047   0.918   2.097
  378SOL    HW1 2033   4.060   0.997   2.037
  378SOL    HW2 2034   4.132   0.865   2.102
  379SOL     OW 2035   5.719   1.771   6.264
  379SOL    HW1 2036   5.747   1.678   6.239
  379SOL    HW2 2037   5.639   1.767   6.323
  380SOL     OW 2038   4.180   2.849   0.371
  380SOL    HW1 2039   4.115   2.923   0.355
  380SOL    HW2 2040   4.258   2.884   0.422
  381SOL     OW 2041   1.861   3.624   3.319
  381SOL    HW1 2042   1.957   3.628   3.291
  381SOL    HW2 2043   1.846   3.687   3.395
  382SOL     OW 2044   4.738   0.517   0.000
  382SOL    HW1 2045   4.742   0.589   6.957
  382SOL    HW2 2046   4.723   0.557   0.090
  383SOL     OW 2047   4.984   2.135   0.870
  383SOL    HW1 2048   5.004   2.067   0.799
  383SOL    HW2 2049   4.910   2.194   0.839
  384SOL     OW 2050   6.495   3.634   4.746
  384SOL    HW1 2051   6.470   3.731   4.736
  384SOL    HW2 2052   6.531   3.618   4.838
  385SOL     OW 2053   4.354   3.547   0.268
  385SOL    HW1 2054   4.306   3.613   0.325
  385SOL    HW2 2055   4.442   3.585   0.240
  386SOL     OW 2056   3.848   5.925   3.375
  386SOL    HW1 2057   3.756   5.894   3.352
  386SOL    HW2 2058   3.913   5.849   3.364
  387SOL     OW 2059   2.919   6.613   3.429
  387SOL    HW1 2060   2.931   6.553   3.507
  387SOL    HW2 2061   2.927   6.560   3.344
  388SOL     OW 2062   1.438   4.522   6.783
  388SOL    HW1 2063   1.488   4.443   6.745
  388SOL    HW2 2064   1.502   4.577   6.837
  389SOL     OW 2065   2.879   3.489   3.184
  389SOL    HW1 2066   2.913   3.576   3.149
  389SOL    HW2 2067   2.866   3.426   3.107
  390SOL     OW 2068   1.973   1.446   3.930
  390SOL    HW1 2069   2.053   1.504   3.915
  390SOL    HW2 2070   1.997   1.351   3.911
  391SOL     OW 2071   0.592   2.849   0.200
  391SOL    HW1 2072   0.604   2.799   0.114
  391SOL    HW2 2073   0.497   2.840   0.231
  392SOL     OW 2074   2.795   5.422   2.345
  392SOL    HW1 2075   2.786   5.324   2.330
  392SOL    HW2 2076   2.704   5.461   2.362
  393SOL     OW 2077   5.783   4.531   4.778
  393SOL    HW1 2078   5.724   4.610   4.794
  393SOL    HW2 2079   5.872   4.561   4.743
  394SOL     OW 2080   2.479   0.630   6.781
  394SOL    HW1 2081   2.454   0.573   6.860
  394SOL    HW2 2082   2.416   0.708   6.776
  395SOL     OW 2083   6.504   3.513   1.120
  395SOL    HW1 2084   6.537   3.514   1.025
  395SOL    HW2 2085   6.535   3.596   1.166
  396SOL     OW 2086   3.034   3.939   4.225
  396SOL    HW1 2087   2.999   4.015   4.281
  396SOL    HW2 2088   3.095   3.882   4.281
  397SOL     OW 2089   4.244   2.407   6.393
  397SOL    HW1 2090   4.314   2.440   6.330
  397SOL    HW2 2091   4.252   2.308   6.404
  398SOL     OW 2092   1.176   5.390   1.607
  398SOL    HW1 2093   1.108   5.422   1.541
  398SOL    HW2 2094   1.235   5.466   1.634
  399SOL     OW 2095   5.141   5.227   2.098
  399SOL    HW1 2096   5.082   5.147   2.087
  399SOL    HW2 2097   5.221   5.217   2.039
  400SOL     OW 2098   1.372   5.591   5.536
  400SOL    HW1 2099   1.407   5.610   5.444
  400SOL    HW2 2100   1.440   5.621   5.604
  401SOL     OW 2101   5.220   1.244   6.812
  401SOL    HW1 2102   5.161   1.212   6.885
  401SOL    HW2 2103   5.241   1.341   6.825
  402SOL     OW 2104   5.753   4.887   0.923
  402SOL    HW1 2105   5.786   4.839   0.842
  402SOL    HW2 2106   5.747   4.985   0.903
  403SOL     OW 2107   4.947   3.006   6.297
  403SOL    HW1 2108   5.041   3.010   6.264
  403SOL    HW2 2109   4.947   2.978   6.393
  404SOL     OW 2110   0.289   0.299   4.645
  404SOL    HW1 2111   0.252   0.215   4.605
  404SOL    HW2 2112   0.221   0.339   4.707
  405SOL     OW 2113   0.397   2.328   0.310
  405SOL    HW1 2114   0.443   2.292   0.228
  405SOL    HW2 2115   0.465   2.349   0.380
  406SOL     OW 2116   1.699   3.245   4.060
  406SOL    HW1 2117   1.767   3.305   4.102
  406SOL    HW2 2118   1.718   3.150   4.087
  407SOL     OW 2119   2.495   0.708   4.698
  407SOL    HW1 2120   2.500   0.773   4.623
  407SOL    HW2 2121   2.410   0.656   4.693
  408SOL     OW 2122   1.842   0.318   3.003
  408SOL    HW1 2123   1.860   0.220   3.001
  408SOL    HW2 2124   1.750   0.336   2.968
  409SOL     OW 2125   6.581   3.426   3.701
  409SOL    HW1 2126   6.646   3.357   3.670
  409SOL    HW2 2127   6.549   3.403   3.793
  410SOL     OW 2128   2.583   1.564   6.516
  410SOL    HW1 2129   2.583   1.644   6.575
  410SOL    HW2 2130   2.544   1.486   6.566
  411SOL     OW 2131   6.370   4.402   5.450
  411SOL    HW1 2132   6.281   4.360   5.433
  411SOL    HW2 2133   6.361   4.501   5.446
  412SOL     OW 2134   3.133   0.365   2.800
  412SOL    HW1 2135   3.120   0.429   2.724
  412SOL    HW2 2136   3.170   0.413   2.879
  413SOL     OW 2137   2.550   6.771   0.940
  413SOL    HW1 2138   2.451   6.772   0.931
  413SOL    HW2 2139   2.590   6.718   0.865
  414SOL     OW 2140   3.722   4.022   0.530
  414SOL    HW1 2141   3.712   3.922   0.525
  414SOL    HW2 2142   3.635   4.066   0.508
  415SOL     OW 2143   3.060   6.248   1.411
  415SOL    HW1 2144   3.042   6.318   1.342
  415SOL    HW2 2145   2.983   6.244   1.475
  416SOL     OW 2146   3.942   6.219   5.096
  416SOL    HW1 2147   3.935   6.242   4.999
  416SOL    HW2 2148   4.009   6.145   5.108
  417SOL     OW 2149   4.758   5.951   1.538
  417SOL    HW1 2150   4.713   6.039   1.554
  417SOL    HW2 2151   4.731   5.916   1.448
  418SOL     OW 2152   5.273   4.906   1.226
  418SOL    HW1 2153   5.201   4.944   1.167
  418SOL    HW2 2154   5.324   4.837   1.176
  419SOL     OW 2155   6.541   6.608   1.359
  419SOL    HW1 2156   6.524   6.513   1.336
  419SOL    HW2 2157   6.637   6.631   1.340
  420SOL     OW 2158   4.421   4.876   0.261
  420SOL    HW1 2159   4.379   4.814   0.328
  420SOL    HW2 2160   4.394   4.970   0.282
  421SOL     OW 2161   1.832   6.297   6.442
  421SOL    HW1 2162   1.907   6.324   6.502
  421SOL    HW2 2163   1.866   6.233   6.373
  422SOL     OW 2164   5.436   3.767   6.755
  422SOL    HW1 2165   5.381   3.820   6.820
  422SOL    HW2 2166   5.412   3.794   6.661
  423SOL     OW 2167   0.393   3.019   6.989
  423SOL    HW1 2168   0.440   2.972   6.914
  423SOL    HW2 2169   0.297   3.033   6.963
  424SOL     OW 2170   2.450   3.960   0.379
  424SOL    HW1 2171   2.526   3.898   0.357
  424SOL    HW2 2172   2.409   3.992   0.294
  425SOL     OW 2173   3.113   1.434   0.681
  425SOL    HW1 2174   3.132   1.408   0.586
  425SOL    HW2 2175   3.159   1.371   0.743
  426SOL     OW 2176   5.480   4.119   5.763
  426SOL    HW1 2177   5.532   4.111   5.677
  426SOL    HW2 2178   5.409   4.049   5.765
  427SOL     OW 2179   5.303   3.932   0.794
  427SOL    HW1 2180   5.347   4.017   0.822
  427SOL    HW2 2181   5.303   3.868   0.871
  428SOL     OW 2182   3.769   1.039   5.005
  428SOL    HW1 2183   3.689   1.022   4.946
  428SOL    HW2 2184   3.738   1.072   5.094
  429SOL     OW 2185   1.314   5.121   6.943
  429SOL    HW1 2186   1.347   5.134   0.011
  429SOL    HW2 2187   1.392   5.113   6.881
  430SOL     OW 2188   1.204   0.608   5.432
  430SOL    HW1 2189   1.137   0.661   5.382
  430SOL    HW2 2190   1.223   0.652   5.519
  431SOL     OW 2191   3.670   1.576   0.686
  431SOL    HW1 2192   3.759   1.595   0.729
  431SOL    HW2 2193   3.598   1.621   0.738
  432SOL     OW 2194   0.333   1.831   1.056
  432SOL    HW1 2195   0.290   1.921   1.044
  432SOL    HW2 2196   0.262   1.760   1.058
  433SOL     OW 2197   3.278   6.794   5.405
  433SOL    HW1 2198   3.218   6.746   5.469
  433SOL    HW2 2199   3.353   6.733   5.378
  434SOL     OW 2200   6.791   3.732   1.301
  434SOL    HW1 2201   6.732   3.802   1.261
  434SOL    HW2 2202   6.860   3.775   1.359
  435SOL     OW 2203   3.431   4.343   0.235
  435SOL    HW1 2204   3.356   4.394   0.276
  435SOL    HW2 2205   3.396   4.258   0.196
  436SOL     OW 2206   1.852   0.870   0.094
  436SOL    HW1 2207   1.868   0.884   0.192
  436SOL    HW2 2208   1.888   0.948   0.043
  437SOL     OW 2209   6.766   7.001   6.624
  437SOL    HW1 2210   6.748   7.020   6.721
  437SOL    HW2 2211   6.753   0.058   6.570
  438SOL     OW 2212   1.295   2.923   1.923
  438SOL    HW1 2213   1.388   2.921   1.958
  438SOL    HW2 2214   1.297   2.941   1.824
  439SOL     OW 2215   6.711   4.908   2.971
  439SOL    HW1 2216   6.741   4.825   2.923
  439SOL    HW2 2217   6.760   4.916   3.057
  440SOL     OW 2218   1.211   2.899   3.955
  440SOL    HW1 2219   1.176   2.927   4.044
  440SOL    HW2 2220   1.238   2.803   3.958
  441SOL     OW 2221   0.848   1.616   3.549
  441SOL    HW1 2222   0.867   1.710   3.521
  441SOL    HW2 2223   0.932   1.563   3.546
  442SOL     OW 2224   0.014   3.832   0.012
  442SOL    HW1 2225   6.945   3.799   0.012
  442SOL    HW2 2226   0.049   3.833   0.106
  443SOL     OW 2227   0.656   4.022   5.503
  443SOL    HW1 2228   0.621   3.948   5.447
  443SOL    HW2 2229   0.731   4.068   5.455
  444SOL     OW 2230   4.172   2.934   6.498
  444SOL    HW1 2231   4.239   2.866   6.468
  444SOL    HW2 2232   4.146   2.915   6.593
  445SOL     OW 2233   2.037   4.282   3.004
  445SOL    HW1 2234   2.087   4.237   2.930
  445SOL    HW2 2235   2.023   4.378   2.982
  446SOL     OW 2236   4.597   4.909   4.083
  446SOL    HW1 2237   4.582   4.917   3.985
  446SOL    HW2 2238   4.519   4.948   4.132
  447SOL     OW 2239   6.464   5.413   0.711
  447SOL    HW1 2240   6.413   5.331   0.735
  447SOL    HW2 2241   6.423   5.457   0.632
  448SOL     OW 2242   4.171   0.975   5.018
  448SOL    HW1 2243   4.263   0.954   5.052
  448SOL    HW2 2244   4.175   0.991   4.920
  449SOL     OW 2245   5.301   0.687   4.689
  449SOL    HW1 2246   5.374   0.632   4.730
  449SOL    HW2 2247   5.341   0.762   4.636
  450SOL     OW 2248   0.395   6.174   3.623
  450SOL    HW1 2249   0.480   6.169   3.570
  450SOL    HW2 2250   0.327   6.114   3.582
  451SOL     OW 2251   0.731   2.445   2.918
  451SOL    HW1 2252   0.709   2.350   2.938
  451SOL    HW2 2253   0.691   2.504   2.989
  452SOL     OW 2254   0.090   4.851   6.704
  452SOL    HW1 2255   0.079   4.758   6.669
  452SOL    HW2 2256   0.177   4.858   6.753
  453SOL     OW 2257   3.281   1.496   6.391
  453SOL    HW1 2258   3.211   1.425   6.395
  453SOL    HW2 2259   3.238   1.586   6.395
  454SOL     OW 2260   1.174   6.152   6.551
  454SOL    HW1 2261   1.113   6.120   6.479
  454SOL    HW2 2262   1.196   6.249   6.536
  455SOL     OW 2263   5.240   0.893   5.283
  455SOL    HW1 2264   5.248   0.982   5.329
  455SOL    HW2 2265   5.224   0.908   5.186
  456SOL     OW 2266   4.553   6.067   6.236
  456SOL    HW1 2267   4.636   6.112   6.204
  456SOL    HW2 2268   4.491   6.052   6.159
  457SOL     OW 2269   2.297   4.754   3.287
  457SOL    HW1 2270   2.390   4.724   3.312
  457SOL    HW2 2271   2.300   4.799   3.198
  458SOL     OW 2272   6.268   5.331   5.777
  458SOL    HW1 2273   6.195   5.271   5.809
  458SOL    HW2 2274   6.339   5.336   5.847
  459SOL     OW 2275   1.841   0.797   2.661
  459SOL    HW1 2276   1.822   0.894   2.675
  459SOL    HW2 2277   1.813   0.746   2.743
  460SOL     OW 2278   6.813   1.829   2.810
  460SOL    HW1 2279   6.869   1.893   2.759
  460SOL    HW2 2280   6.718   1.839   2.784
  461SOL     OW 2281   4.702   6.266   5.504
  461SOL    HW1 2282   4.770   6.204   5.465
  461SOL    HW2 2283   4.726   6.287   5.598
  462SOL     OW 2284   3.302   3.140   6.664
  462SOL    HW1 2285   3.346   3.072   6.605
  462SOL    HW2 2286   3.372   3.198   6.705
  463SOL     OW 2287   6.841   4.813   2.566
  463SOL    HW1 2288   6.753   4.799   2.612
  463SOL    HW2 2289   6.839   4.900   2.516
  464SOL     OW 2290   1.707   1.440   5.696
  464SOL    HW1 2291   1.774   1.489   5.752
  464SOL    HW2 2292   1.614   1.462   5.728
  465SOL     OW 2293   6.768   2.394   4.034
  465SOL    HW1 2294   6.707   2.468   4.006
  465SOL    HW2 2295   6.746   2.366   4.127
  466SOL     OW 2296   1.359   6.995   4.008
  466SOL    HW1 2297   1.441   6.966   3.958
  466SOL    HW2 2298   1.368   6.971   4.104
  467SOL     OW 2299   1.289   0.775   5.631
  467SOL    HW1 2300   1.269   0.855   5.575
  467SOL    HW2 2301   1.271   0.797   5.727
  468SOL     OW 2302   3.435   4.673   1.221
  468SOL    HW1 2303   3.387   4.592   1.185
  468SOL    HW2 2304   3.465   4.654   1.315
  469SOL     OW 2305   2.169   5.502   6.883
  469SOL    HW1 2306   2.232   5.546   6.820
  469SOL    HW2 2307   2.079   5.545   6.875
  470SOL     OW 2308   4.037   0.541   2.472
  470SOL    HW1 2309   4.089   0.496   2.399
  470SOL    HW2 2310   4.101   0.586   2.535
  471SOL     OW 2311   2.304   2.717   4.899
  471SOL    HW1 2312   2.320   2.803   4.947
  471SOL    HW2 2313   2.212   2.683   4.922
  472SOL     OW 2314   4.041   5.288   6.004
  472SOL    HW1 2315   3.966   5.308   6.066
  472SOL    HW2 2316   4.013   5.308   5.910
  473SOL     OW 2317   1.590   3.227   3.012
  473SOL    HW1 2318   1.530   3.165   3.062
  473SOL    HW2 2319   1.547   3.251   2.925
  474SOL     OW 2320   4.311   5.149   4.859
  474SOL    HW1 2321   4.356   5.100   4.934
  474SOL    HW2 2322   4.370   5.148   4.778
  475SOL     OW 2323   6.848   6.799   6.252
  475SOL    HW1 2324   6.835   6.801   6.153
  475SOL    HW2 2325   6.863   6.892   6.285
  476SOL     OW 2326   6.578   4.599   2.815
  476SOL    HW1 2327   6.520   4.517   2.809
  476SOL    HW2 2328   6.650   4.584   2.883
  477SOL     OW 2329   2.139   5.269   3.773
  477SOL    HW1 2330   2.110   5.212   3.697
  477SOL    HW2 2331   2.092   5.239   3.857
  478SOL     OW 2332   3.894   5.415   3.643
  478SOL    HW1 2333   3.867   5.510   3.658
  478SOL    HW2 2334   3.959   5.388   3.714
  479SOL     OW 2335   3.400   2.727   0.757
  479SOL    HW1 2336   3.464   2.679   0.696
  479SOL    HW2 2337   3.424   2.709   0.852
  480SOL     OW 2338   0.677   6.787   2.384
  480SOL    HW1 2339   0.751   6.722   2.399
  480SOL    HW2 2340   0.668   6.846   2.464
  481SOL     OW 2341   3.848   0.207   1.330
  481SOL    HW1 2342   3.934   0.246   1.365
  481SOL    HW2 2343   3.823   0.127   1.385
  482SOL     OW 2344   5.628   4.522   2.374
  482SOL    HW1 2345   5.678   4.491   2.455
  482SOL    HW2 2346   5.594   4.615   2.390
  483SOL     OW 2347   5.602   1.912   2.216
  483SOL    HW1 2348   5.620   1.837   2.152
  483SOL    HW2 2349   5.663   1.906   2.294
  484SOL     OW 2350   0.327   2.900   4.585
  484SOL    HW1 2351   0.240   2.856   4.565
  484SOL    HW2 2352   0.399   2.831   4.595
  485SOL     OW 2353   3.394   5.253   2.226
  485SOL    HW1 2354   3.311   5.304   2.204
  485SOL    HW2 2355   3.370   5.165   2.267
  486SOL     OW 2356   0.811   0.171   0.685
  486SOL    HW1 2357   0.720   0.197   0.717
  486SOL    HW2 2358   0.880   0.218   0.739
  487SOL     OW 2359   0.305   2.643   7.011
  487SOL    HW1 2360   0.245   2.723   7.008
  487SOL    HW2 2361   0.400   2.672   7.009
  488SOL     OW 2362   0.309   2.094   2.207
  488SOL    HW1 2363   0.388   2.147   2.237
  488SOL    HW2 2364   0.243   2.088   2.282
  489SOL     OW 2365   3.188   5.804   6.951
  489SOL    HW1 2366   3.134   5.729   6.912
  489SOL    HW2 2367   3.255   5.767   7.015
  490SOL     OW 2368   6.226   6.305   4.239
  490SOL    HW1 2369   6.286   6.383   4.259
  490SOL    HW2 2370   6.203   6.304   4.142
  491SOL     OW 2371   1.195   2.733   2.220
  491SOL    HW1 2372   1.149   2.708   2.134
  491SOL    HW2 2373   1.165   2.671   2.293
  492SOL     OW 2374   2.479   0.240   5.635
  492SOL    HW1 2375   2.474   0.240   5.536
  492SOL    HW2 2376   2.387   0.239   5.673
  493SOL     OW 2377   6.036   4.585   5.277
  493SOL    HW1 2378   5.953   4.626   5.238
  493SOL    HW2 2379   6.072   4.517   5.212
  494SOL     OW 2380   0.255   0.314   0.888
  494SOL    HW1 2381   0.217   0.398   0.851
  494SOL    HW2 2382   0.259   0.244   0.816
  495SOL     OW 2383   4.869   4.883   1.627
  495SOL    HW1 2384   4.928   4.830   1.565
  495SOL    HW2 2385   4.907   4.878   1.720
  496SOL     OW 2386   5.448   3.337   2.787
  496SOL    HW1 2387   5.463   3.378   2.877
  496SOL    HW2 2388   5.355   3.300   2.783
  497SOL     OW 2389   3.917   0.949   4.706
  497SOL    HW1 2390   3.958   0.875   4.759
  497SOL    HW2 2391   3.926   1.035   4.758
  498SOL     OW 2392   0.488   2.971   3.005
  498SOL    HW1 2393   0.462   3.056   3.050
  498SOL    HW2 2394   0.489   2.984   2.906
  499SOL     OW 2395   3.456   0.950   5.130
  499SOL    HW1 2396   3.478   0.852   5.128
  499SOL    HW2 2397   3.453   0.985   5.036
  500SOL     OW 2398   1.010   3.577   2.923
  500SOL    HW1 2399   0.962   3.651   2.971
  500SOL    HW2 2400   0.957   3.493   2.930
  501SOL     OW 2401   1.633   2.984   6.929
  501SOL    HW1 2402   1.718   3.005   6.978
  501SOL    HW2 2403   1.623   2.885   6.921
  502SOL     OW 2404   4.244   5.207   0.154
  502SOL    HW1 2405   4.180   5.194   0.078
  502SOL    HW2 2406   4.251   5.304   0.176
  503SOL     OW 2407   5.730   4.641   5.468
  503SOL    HW1 2408   5.665   4.625   5.393
  503SOL    HW2 2409   5.709   4.580   5.544
  504SOL     OW 2410   2.100   6.753   4.118
  504SOL    HW1 2411   2.122   6.704   4.034
  504SOL    HW2 2412   2.084   6.686   4.191
  505SOL     OW 2413   4.275   0.359   5.625
  505SOL    HW1 2414   4.217   0.286   5.662
  505SOL    HW2 2415   4.236   0.392   5.539
  506SOL     OW 2416   2.021   4.413   5.462
  506SOL    HW1 2417   1.971   4.421   5.548
  506SOL    HW2 2418   2.057   4.320   5.453
  507SOL     OW 2419   3.292   0.278   4.795
  507SOL    HW1 2420   3.306   0.197   4.738
  507SOL    HW2 2421   3.332   0.263   4.885
  508SOL     OW 2422   6.665   3.946   3.111
  508SOL    HW1 2423   6.608   3.929   3.031
  508SOL    HW2 2424   6.698   3.859   3.148
  509SOL     OW 2425   4.663   1.240   1.992
  509SOL    HW1 2426   4.567   1.268   1.993
  509SOL    HW2 2427   4.690   1.217   1.898
  510SOL     OW 2428   6.828   4.399   4.639
  510SOL    HW1 2429   6.751   4.400   4.576
  510SOL    HW2 2430   6.912   4.424   4.590
  511SOL     OW 2431   0.756   6.486   0.244
  511SOL    HW1 2432   0.847   6.462   0.277
  511SOL    HW2 2433   0.758   6.578   0.205
  512SOL     OW 2434   0.995   3.954   6.556
  512SOL    HW1 2435   1.088   3.929   6.527
  512SOL    HW2 2436   0.929   3.906   6.499
  513SOL     OW 2437   6.624   5.676   4.309
  513SOL    HW1 2438   6.631   5.758   4.253
  513SOL    HW2 2439   6.706   5.667   4.365
  514SOL     OW 2440   6.312   1.941   4.448
  514SOL    HW1 2441   6.374   1.865   4.467
  514SOL    HW2 2442   6.309   2.002   4.528
  515SOL     OW 2443   2.275   6.715   5.888
  515SOL    HW1 2444   2.271   6.684   5.793
  515SOL    HW2 2445   2.186   6.700   5.931
  516SOL     OW 2446   2.336   4.937   1.905
  516SOL    HW1 2447   2.398   4.936   1.983
  516SOL    HW2 2448   2.279   5.019   1.908
  517SOL     OW 2449   4.330   6.888   1.447
  517SOL    HW1 2450   4.386   6.939   1.381
  517SOL    HW2 2451   4.270   6.825   1.398
  518SOL     OW 2452   2.404   2.616   1.595
  518SOL    HW1 2453   2.442   2.630   1.686
  518SOL    HW2 2454   2.441   2.532   1.556
  519SOL     OW 2455   0.189   0.084   6.018
  519SOL    HW1 2456   0.116   0.029   5.977
  519SOL    HW2 2457   0.155   0.130   6.099
  520SOL     OW 2458   5.384   4.862   5.837
  520SOL    HW1 2459   5.411   4.807   5.916
  520SOL    HW2 2460   5.311   4.925   5.864
  521SOL     OW 2461   6.895   1.963   6.938
  521SOL    HW1 2462   6.809   1.925   6.969
  521SOL    HW2 2463   6.879   2.021   6.857
  522SOL     OW 2464   4.108   3.230   3.876
  522SOL    HW1 2465   4.026   3.173   3.880
  522SOL    HW2 2466   4.130   3.251   3.781
  523SOL     OW 2467   6.726   6.813   4.742
  523SOL    HW1 2468   6.758   6.728   4.702
  523SOL    HW2 2469   6.730   6.807   4.842
  524SOL     OW 2470   2.643   1.063   6.325
  524SOL    HW1 2471   2.559   1.046   6.272
  524SOL    HW2 2472   2.673   1.157   6.310
  525SOL     OW 2473   2.777   4.216   6.773
  525SOL    HW1 2474   2.785   4.167   6.860
  525SOL    HW2 2475   2.856   4.195   6.716
  526SOL     OW 2476   3.453   5.630   4.728
  526SOL    HW1 2477   3.391   5.553   4.719
  526SOL    HW2 2478   3.532   5.617   4.668
  527SOL     OW 2479   0.065   1.129   0.147
  527SOL    HW1 2480   0.059   1.130   0.048
  527SOL    HW2 2481   0.154   1.094   0.175
  528SOL     OW 2482   2.485   1.403   5.183
  528SOL    HW1 2483   2.527   1.389   5.272
  528SOL    HW2 2484   2.550   1.449   5.123
  529SOL     OW 2485   1.323   5.053   4.365
  529SOL    HW1 2486   1.406   4.999   4.350
  529SOL    HW2 2487   1.247   5.011   4.316
  530SOL     OW 2488   2.282   3.106   5.366
  530SOL    HW1 2489   2.216   3.049   5.318
  530SOL    HW2 2490   2.372   3.097   5.321
  531SOL     OW 2491   1.332   0.369   1.157
  531SOL    HW1 2492   1.282   0.299   1.106
  531SOL    HW2 2493   1.299   0.459   1.132
  532SOL     OW 2494   0.981   1.312   5.401
  532SOL    HW1 2495   1.075   1.334   5.426
  532SOL    HW2 2496   0.962   1.344   5.308
  533SOL     OW 2497   5.433   6.952   4.737
  533SOL    HW1 2498   5.520   6.994   4.710
  533SOL    HW2 2499   5.442   6.852   4.734
  534SOL     OW 2500   4.927   5.187   2.338
  534SOL    HW1 2501   4.892   5.150   2.252
  534SOL    HW2 2502   4.984   5.266   2.320
  535SOL     OW 2503   0.236   3.754   3.542
  535SOL    HW1 2504   0.188   3.666   3.534
  535SOL    HW2 2505   0.322   3.750   3.493
  536SOL     OW 2506   1.829   5.716   1.321
  536SOL    HW1 2507   1.831   5.644   1.390
  536SOL    HW2 2508   1.751   5.776   1.337
  537SOL     OW 2509   2.187   0.021   2.274
  537SOL    HW1 2510   2.231   0.108   2.297
  537SOL    HW2 2511   2.133   7.015   2.353
  538SOL     OW 2512   1.048   6.247   2.987
  538SOL    HW1 2513   1.071   6.343   2.978
  538SOL    HW2 2514   0.956   6.231   2.953
  539SOL     OW 2515   1.774   5.111   2.196
  539SOL    HW1 2516   1.711   5.188   2.192
  539SOL    HW2 2517   1.778   5.077   2.290
  540SOL     OW 2518   1.948   2.519   2.557
  540SOL    HW1 2519   1.879   2.523   2.485
  540SOL    HW2 2520   2.025   2.579   2.534
  541SOL     OW 2521   2.786   5.844   5.738
  541SOL    HW1 2522   2.690   5.846   5.712
  541SOL    HW2 2523   2.833   5.770   5.690
  542SOL     OW 2524   6.107   5.522   7.001
  542SOL    HW1 2525   6.178   5.455   7.019
  542SOL    HW2 2526   6.123   5.564   6.911
  543SOL     OW 2527   1.046   5.190   6.829
  543SOL    HW1 2528   1.136   5.183   6.873
  543SOL    HW2 2529   1.027   5.106   6.778
  544SOL     OW 2530   0.831   4.497   0.717
  544SOL    HW1 2531   0.823   4.448   0.631
  544SOL    HW2 2532   0.922   4.539   0.724
  545SOL     OW 2533   3.694   1.372   3.129
  545SOL    HW1 2534   3.674   1.435   3.054
  545SOL    HW2 2535   3.679   1.278   3.100
  546SOL     OW 2536   1.861   3.537   0.652
  546SOL    HW1 2537   1.845   3.596   0.731
  546SOL    HW2 2538   1.793   3.463   0.651
  547SOL     OW 2539   2.863   3.616   0.218
  547SOL    HW1 2540   2.827   3.528   0.187
  547SOL    HW2 2541   2.944   3.640   0.165
  548SOL     OW 2542   3.295   2.952   4.215
  548SOL    HW1 2543   3.266   2.860   4.239
  548SOL    HW2 2544   3.339   2.952   4.125
  549SOL     OW 2545   5.851   3.540   1.511
  549SOL    HW1 2546   5.943   3.523   1.476
  549SOL    HW2 2547   5.831   3.476   1.585
  550SOL     OW 2548   6.900   3.983   2.276
  550SOL    HW1 2549   6.981   3.990   2.334
  550SOL    HW2 2550   6.917   4.028   2.188
  551SOL     OW 2551   6.531   2.035   0.821
  551SOL    HW1 2552   6.589   2.091   0.881
  551SOL    HW2 2553   6.469   2.095   0.770
  552SOL     OW 2554   3.426   5.792   0.710
  552SOL    HW1 2555   3.491   5.862   0.681
  552SOL    HW2 2556   3.354   5.834   0.765
  553SOL     OW 2557   2.264   1.321   1.511
  553SOL    HW1 2558   2.213   1.243   1.474
  553SOL    HW2 2559   2.245   1.402   1.457
  554SOL     OW 2560   5.703   6.195   5.079
  554SOL    HW1 2561   5.702   6.287   5.039
  554SOL    HW2 2562   5.610   6.168   5.104
  555SOL     OW 2563   1.266   4.431   4.137
  555SOL    HW1 2564   1.216   4.396   4.216
  555SOL    HW2 2565   1.349   4.377   4.124
  556SOL     OW 2566   5.660   2.748   4.004
  556SOL    HW1 2567   5.644   2.739   3.905
  556SOL    HW2 2568   5.702   2.836   4.023
  557SOL     OW 2569   0.368   6.614   5.915
  557SOL    HW1 2570   0.455   6.649   5.949
  557SOL    HW2 2571   0.368   6.514   5.921
  558SOL     OW 2572   4.072   4.034   5.330
  558SOL    HW1 2573   3.981   4.026   5.290
  558SOL    HW2 2574   4.112   3.943   5.340
  559SOL     OW 2575   0.010   6.165   5.978
  559SOL    HW1 2576   0.021   6.169   5.879
  559SOL    HW2 2577   0.018   6.257   6.016
  560SOL     OW 2578   4.236   0.287   0.350
  560SOL    HW1 2579   4.279   0.204   0.386
  560SOL    HW2 2580   4.234   0.357   0.422
  561SOL     OW 2581   5.393   6.979   0.462
  561SOL    HW1 2582   5.380   0.048   0.491
  561SOL    HW2 2583   5.392   6.919   0.542
  562SOL     OW 2584   5.303   1.488   5.717
  562SOL    HW1 2585   5.363   1.512   5.641
  562SOL    HW2 2586   5.226   1.434   5.683
  563SOL     OW 2587   3.291   6.449   4.088
  563SOL    HW1 2588   3.286   6.513   4.164
  563SOL    HW2 2589   3.324   6.361   4.121
  564SOL     OW 2590   0.247   1.339   6.970
  564SOL    HW1 2591   0.291   1.276   0.007
  564SOL    HW2 2592   0.181   1.289   6.913
  565SOL     OW 2593   4.716   3.902   5.253
  565SOL    HW1 2594   4.636   3.956   5.276
  565SOL    HW2 2595   4.743   3.847   5.333
  566SOL     OW 2596   5.054   4.560   2.634
  566SOL    HW1 2597   5.065   4.659   2.630
  566SOL    HW2 2598   5.019   4.527   2.546
  567SOL     OW 2599   3.632   3.261   4.371
  567SOL    HW1 2600   3.624   3.172   4.416
  567SOL    HW2 2601   3.722   3.300   4.391
  568SOL     OW 2602   2.770   1.607   0.054
  568SOL    HW1 2603   2.848   1.557   0.092
  568SOL    HW2 2604   2.687   1.581   0.103
  569SOL     OW 2605   2.163   2.867   0.932
  569SOL    HW1 2606   2.087   2.897   0.989
  569SOL    HW2 2607   2.177   2.769   0.944
  570SOL     OW 2608   6.944   6.241   1.113
  570SOL    HW1 2609   6.851   6.265   1.138
  570SOL    HW2 2610   6.965   6.149   1.148
  571SOL     OW 2611   4.413   5.223   2.860
  571SOL    HW1 2612   4.326   5.266   2.836
  571SOL    HW2 2613   4.480   5.294   2.881
  572SOL     OW 2614   1.499   3.679   5.140
  572SOL    HW1 2615   1.577   3.735   5.114
  572SOL    HW2 2616   1.430   3.736   5.183
  573SOL     OW 2617   3.824   2.298   5.945
  573SOL    HW1 2618   3.905   2.289   6.004
  573SOL    HW2 2619   3.794   2.207   5.916
  574SOL     OW 2620   1.852   1.260   4.469
  574SOL    HW1 2621   1.834   1.183   4.408
  574SOL    HW2 2622   1.843   1.229   4.564
  575SOL     OW 2623   5.563   2.404   0.227
  575SOL    HW1 2624   5.644   2.455   0.257
  575SOL    HW2 2625   5.563   2.397   0.128
  576SOL     OW 2626   1.248   1.381   2.496
  576SOL    HW1 2627   1.238   1.480   2.501
  576SOL    HW2 2628   1.169   1.337   2.538
  577SOL     OW 2629   3.205   2.147   3.412
  577SOL    HW1 2630   3.244   2.181   3.497
  577SOL    HW2 2631   3.278   2.110   3.354
  578SOL     OW 2632   6.949   3.382   3.743
  578SOL    HW1 2633   6.895   3.450   3.792
  578SOL    HW2 2634   6.999   3.427   3.669
  579SOL     OW 2635   4.456   2.898   6.712
  579SOL    HW1 2636   4.396   2.948   6.774
  579SOL    HW2 2637   4.465   2.804   6.744
  580SOL     OW 2638   1.184   5.411   6.515
  580SOL    HW1 2639   1.270   5.395   6.564
  580SOL    HW2 2640   1.145   5.323   6.488
  581SOL     OW 2641   4.129   3.370   2.984
  581SOL    HW1 2642   4.075   3.290   2.960
  581SOL    HW2 2643   4.203   3.343   3.046
  582SOL     OW 2644   5.957   3.575   2.253
  582SOL    HW1 2645   6.033   3.611   2.199
  582SOL    HW2 2646   5.884   3.644   2.258
  583SOL     OW 2647   2.569   4.749   6.909
  583SOL    HW1 2648   2.547   4.679   6.842
  583SOL    HW2 2649   2.549   4.839   6.870
  584SOL     OW 2650   0.361   5.049   4.638
  584SOL    HW1 2651   0.409   4.964   4.617
  584SOL    HW2 2652   0.264   5.039   4.617
  585SOL     OW 2653   6.938   1.588   0.053
  585SOL    HW1 2654   6.973   1.640   7.000
  585SOL    HW2 2655   6.876   1.647   0.106
  586SOL     OW 2656   2.653   6.603   0.763
  586SOL    HW1 2657   2.692   6.653   0.685
  586SOL    HW2 2658   2.724   6.547   0.805
  587SOL     OW 2659   0.852   3.026   5.272
  587SOL    HW1 2660   0.843   2.928   5.287
  587SOL    HW2 2661   0.910   3.066   5.343
  588SOL     OW 2662   3.421   6.579   1.644
  588SOL    HW1 2663   3.426   6.588   1.743
  588SOL    HW2 2664   3.393   6.485   1.620
  589SOL     OW 2665   4.319   4.975   2.700
  589SOL    HW1 2666   4.342   5.015   2.788
  589SOL    HW2 2667   4.239   4.915   2.710
  590SOL     OW 2668   0.193   1.575   2.013
  590SOL    HW1 2669   0.111   1.608   2.060
  590SOL    HW2 2670   0.168   1.534   1.926
  591SOL     OW 2671   3.626   6.622   3.090
  591SOL    HW1 2672   3.598   6.536   3.048
  591SOL    HW2 2673   3.660   6.605   3.183
  592SOL     OW 2674   5.168   0.874   0.510
  592SOL    HW1 2675   5.123   0.821   0.582
  592SOL    HW2 2676   5.121   0.962   0.500
  593SOL     OW 2677   5.167   2.114   3.698
  593SOL    HW1 2678   5.154   2.202   3.744
  593SOL    HW2 2679   5.233   2.125   3.624
  594SOL     OW 2680   3.757   2.611   1.399
  594SOL    HW1 2681   3.673   2.664   1.393
  594SOL    HW2 2682   3.792   2.612   1.492
  595SOL     OW 2683   3.740   6.944   3.879
  595SOL    HW1 2684   3.804   7.020   3.891
  595SOL    HW2 2685   3.693   6.926   3.965
  596SOL     OW 2686   1.330   4.555   2.907
  596SOL    HW1 2687   1.353   4.477   2.849
  596SOL    HW2 2688   1.377   4.637   2.874
  597SOL     OW 2689   3.836   2.027   5.417
  597SOL    HW1 2690   3.934   2.038   5.433
  597SOL    HW2 2691   3.814   2.057   5.324
  598SOL     OW 2692   3.456   4.606   0.721
  598SOL    HW1 2693   3.419   4.671   0.787
  598SOL    HW2 2694   3.401   4.522   0.723
  599SOL     OW 2695   6.506   6.476   2.686
  599SOL    HW1 2696   6.417   6.510   2.655
  599SOL    HW2 2697   6.498   6.443   2.780
  600SOL     OW 2698   2.089   0.014   6.875
  600SOL    HW1 2699   2.020   7.000   6.937
  600SOL    HW2 2700   2.165   0.051   6.929
  601SOL     OW 2701   3.403   5.388   4.046
  601SOL    HW1 2702   3.323   5.340   4.082
  601SOL    HW2 2703   3.395   5.398   3.947
  602SOL     OW 2704   2.105   0.826   0.802
  602SOL    HW1 2705   2.148   0.821   0.712
  602SOL    HW2 2706   2.005   0.827   0.792
  603SOL     OW 2707   3.893   2.198   3.231
  603SOL    HW1 2708   3.899   2.209   3.330
  603SOL    HW2 2709   3.801   2.168   3.206
  604SOL     OW 2710   0.066   4.032   6.568
  604SOL    HW1 2711   0.032   3.963   6.632
  604SOL    HW2 2712   0.025   4.018   6.478
  605SOL     OW 2713   6.121   0.541   4.429
  605SOL    HW1 2714   6.086   0.505   4.516
  605SOL    HW2 2715   6.072   0.498   4.353
  606SOL     OW 2716   3.492   6.925   3.680
  606SOL    HW1 2717   3.545   6.955   3.601
  606SOL    HW2 2718   3.510   6.828   3.698
  607SOL     OW 2719   4.777   1.232   3.841
  607SOL    HW1 2720   4.723   1.149   3.845
  607SOL    HW2 2721   4.841   1.234   3.918
  608SOL     OW 2722   4.420   1.204   1.455
  608SOL    HW1 2723   4.422   1.222   1.357
  608SOL    HW2 2724   4.488   1.262   1.501
  609SOL     OW 2725   3.766   4.133   4.385
  609SOL    HW1 2726   3.818   4.218   4.379
  609SOL    HW2 2727   3.825   4.060   4.421
  610SOL     OW 2728   4.936   2.027   4.163
  610SOL    HW1 2729   4.996   1.959   4.121
  610SOL    HW2 2730   4.915   2.099   4.096
  611SOL     OW 2731   0.809   6.928   0.840
  611SOL    HW1 2732   0.800   7.001   0.908
  611SOL    HW2 2733   0.726   6.922   0.786
  612SOL     OW 2734   3.121   5.338   5.413
  612SOL    HW1 2735   3.085   5.360   5.503
  612SOL    HW2 2736   3.220   5.351   5.412
  613SOL     OW 2737   3.406   2.017   6.992
  613SOL    HW1 2738   3.341   1.982   0.034
  613SOL    HW2 2739   3.371   1.998   6.900
  614SOL     OW 2740   5.104   4.615   0.955
  614SOL    HW1 2741   5.109   4.547   1.028
  614SOL    HW2 2742   5.041   4.687   0.982
  615SOL     OW 2743   6.008   6.837   0.841
  615SOL    HW1 2744   6.081   6.816   0.906
  615SOL    HW2 2745   6.043   6.897   0.769
  616SOL     OW 2746   5.716   1.644   4.544
  616SOL    HW1 2747   5.718   1.561   4.487
  616SOL    HW2 2748   5.626   1.688   4.535
  617SOL     OW 2749   0.128   5.237   5.207
  617SOL    HW1 2750   0.078   5.233   5.294
  617SOL    HW2 2751   0.217   5.194   5.217
  618SOL     OW 2752   6.382   3.596   0.563
  618SOL    HW1 2753   6.384   3.640   0.653
  618SOL    HW2 2754   6.466   3.544   0.549
  619SOL     OW 2755   2.508   0.715   6.190
  619SOL    HW1 2756   2.508   0.785   6.119
  619SOL    HW2 2757   2.448   0.743   6.265
  620SOL     OW 2758   7.022   1.725   2.098
  620SOL    HW1 2759   6.970   1.742   2.182
  620SOL    HW2 2760   0.035   1.811   2.064
  621SOL     OW 2761   3.446   1.366   6.792
  621SOL    HW1 2762   3.382   1.440   6.771
  621SOL    HW2 2763   3.396   1.280   6.798
  622SOL     OW 2764   1.330   1.654   5.050
  622SOL    HW1 2765   1.427   1.649   5.075
  622SOL    HW2 2766   1.275   1.613   5.123
  623SOL     OW 2767   6.150   6.926   4.333
  623SOL    HW1 2768   6.175   6.840   4.376
  623SOL    HW2 2769   6.230   6.964   4.286
  624SOL     OW 2770   6.465   0.643   6.403
  624SOL    HW1 2771   6.398   0.716   6.409
  624SOL    HW2 2772   6.435   0.575   6.336
  625SOL     OW 2773   2.439   1.482   0.554
  625SOL    HW1 2774   2.446   1.579   0.580
  625SOL    HW2 2775   2.402   1.430   0.631
  626SOL     OW 2776   0.180   5.206   3.734
  626SOL    HW1 2777   0.161   5.174   3.827
  626SOL    HW2 2778   0.267   5.168   3.703
  627SOL     OW 2779   6.132   0.478   6.849
  627SOL    HW1 2780   6.113   0.494   6.752
  627SOL    HW2 2781   6.132   0.379   6.867
  628SOL     OW 2782   4.455   4.677   5.983
  628SOL    HW1 2783   4.519   4.601   5.996
  628SOL    HW2 2784   4.432   4.717   6.072
  629SOL     OW 2785   0.814   6.682   5.815
  629SOL    HW1 2786   0.762   6.616   5.761
  629SOL    HW2 2787   0.769   6.697   5.903
  630SOL     OW 2788   6.611   1.072   1.289
  630SOL    HW1 2789   6.610   1.100   1.385
  630SOL    HW2 2790   6.675   1.130   1.238
  631SOL     OW 2791   1.878   2.992   4.056
  631SOL    HW1 2792   1.957   3.010   4.115
  631SOL    HW2 2793   1.905   3.003   3.961
  632SOL     OW 2794   3.124   3.626   0.097
  632SOL    HW1 2795   3.204   3.566   0.100
  632SOL    HW2 2796   3.091   3.633   0.003
  633SOL     OW 2797   1.455   6.314   1.227
  633SOL    HW1 2798   1.465   6.258   1.145
  633SOL    HW2 2799   1.358   6.321   1.251
  634SOL     OW 2800   3.040   3.225   4.430
  634SOL    HW1 2801   2.951   3.270   4.421
  634SOL    HW2 2802   3.100   3.280   4.488
  635SOL     OW 2803   5.450   0.647   0.158
  635SOL    HW1 2804   5.364   0.686   0.125
  635SOL    HW2 2805   5.521   0.718   0.161
  636SOL     OW 2806   2.672   0.613   5.842
  636SOL    HW1 2807   2.716   0.691   5.887
  636SOL    HW2 2808   2.597   0.645   5.785
  637SOL     OW 2809   6.685   0.762   2.746
  637SOL    HW1 2810   6.686   0.662   2.756
  637SOL    HW2 2811   6.593   0.797   2.765
  638SOL     OW 2812   6.350   3.205   4.626
  638SOL    HW1 2813   6.276   3.168   4.570
  638SOL    HW2 2814   6.431   3.220   4.569
  639SOL     OW 2815   5.489   4.764   2.395
  639SOL    HW1 2816   5.568   4.825   2.402
  639SOL    HW2 2817   5.423   4.786   2.466
  640SOL     OW 2818   0.578   2.303   1.991
  640SOL    HW1 2819   0.622   2.392   1.980
  640SOL    HW2 2820   0.578   2.278   2.088
  641SOL     OW 2821   2.550   5.282   4.410
  641SOL    HW1 2822   2.533   5.356   4.346
  641SOL    HW2 2823   2.592   5.319   4.493
  642SOL     OW 2824   0.780   4.020   4.929
  642SOL    HW1 2825   0.859   4.007   4.988
  642SOL    HW2 2826   0.803   3.995   4.835
  643SOL     OW 2827   5.029   5.495   0.576
  643SOL    HW1 2828   4.970   5.562   0.621
  643SOL    HW2 2829   5.059   5.532   0.488
  644SOL     OW 2830   6.622   6.493   5.323
  644SOL    HW1 2831   6.647   6.442   5.405
  644SOL    HW2 2832   6.636   6.591   5.338
  645SOL     OW 2833   3.638   5.189   2.148
  645SOL    HW1 2834   3.696   5.270   2.139
  645SOL    HW2 2835   3.547   5.216   2.178
  646SOL     OW 2836   3.694   1.670   5.242
  646SOL    HW1 2837   3.729   1.698   5.152
  646SOL    HW2 2838   3.746   1.716   5.314
  647SOL     OW 2839   3.941   2.875   6.189
  647SOL    HW1 2840   4.028   2.907   6.152
  647SOL    HW2 2841   3.916   2.789   6.147
  648SOL     OW 2842   6.260   1.227   2.836
  648SOL    HW1 2843   6.198   1.149   2.824
  648SOL    HW2 2844   6.290   1.260   2.746
  649SOL     OW 2845   1.948   5.863   0.387
  649SOL    HW1 2846   1.993   5.793   0.444
  649SOL    HW2 2847   1.860   5.886   0.428
  650SOL     OW 2848   0.460   3.889   1.158
  650SOL    HW1 2849   0.413   3.898   1.070
  650SOL    HW2 2850   0.525   3.814   1.153
  651SOL     OW 2851   1.350   0.243   4.826
  651SOL    HW1 2852   1.315   0.179   4.894
  651SOL    HW2 2853   1.274   0.295   4.787
  652SOL     OW 2854   3.628   6.207   1.703
  652SOL    HW1 2855   3.701   6.141   1.686
  652SOL    HW2 2856   3.664   6.283   1.757
  653SOL     OW 2857   1.174   6.938   2.026
  653SOL    HW1 2858   1.201   6.868   1.960
  653SOL    HW2 2859   1.088   6.911   2.070
  654SOL     OW 2860   0.154   0.034   4.945
  654SOL    HW1 2861   0.161   0.033   4.845
  654SOL    HW2 2862   0.233   0.081   4.983
  655SOL     OW 2863   6.715   3.989   1.956
  655SOL    HW1 2864   6.747   3.916   1.895
  655SOL    HW2 2865   6.668   3.948   2.034
  656SOL     OW 2866   3.117   6.007   0.612
  656SOL    HW1 2867   3.146   5.981   0.704
  656SOL    HW2 2868   3.083   6.102   0.613
  657SOL     OW 2869   3.826   3.381   2.297
  657SOL    HW1 2870   3.917   3.406   2.265
  657SOL    HW2 2871   3.799   3.294   2.257
  658SOL     OW 2872   1.453   2.335   5.052
  658SOL    HW1 2873   1.475   2.244   5.087
  658SOL    HW2 2874   1.538   2.384   5.032
  659SOL     OW 2875   1.982   5.855   6.301
  659SOL    HW1 2876   1.966   5.829   6.206
  659SOL    HW2 2877   1.920   5.803   6.361
  660SOL     OW 2878   4.984   4.416   2.373
  660SOL    HW1 2879   4.894   4.387   2.405
  660SOL    HW2 2880   4.976   4.455   2.281
  661SOL     OW 2881   4.730   4.157   4.378
  661SOL    HW1 2882   4.745   4.066   4.418
  661SOL    HW2 2883   4.763   4.157   4.284
  662SOL     OW 2884   4.902   3.540   0.210
  662SOL    HW1 2885   5.001   3.528   0.213
  662SOL    HW2 2886   4.877   3.622   0.262
  663SOL     OW 2887   0.578   3.938   0.325
  663SOL    HW1 2888   0.526   3.937   0.240
  663SOL    HW2 2889   0.673   3.912   0.307
  664SOL     OW 2890   2.203   6.756   6.717
  664SOL    HW1 2891   2.224   6.852   6.697
  664SOL    HW2 2892   2.104   6.745   6.725
  665SOL     OW 2893   4.064   4.924   1.518
  665SOL    HW1 2894   4.151   4.933   1.567
  665SOL    HW2 2895   4.059   4.832   1.477
  666SOL     OW 2896   3.587   1.726   0.285
  666SOL    HW1 2897   3.640   1.664   0.343
  666SOL    HW2 2898   3.611   1.711   0.189
  667SOL     OW 2899   1.027   3.184   3.308
  667SOL    HW1 2900   1.015   3.100   3.255
  667SOL    HW2 2901   1.069   3.254   3.250
  668SOL     OW 2902   4.847   6.845   0.438
  668SOL    HW1 2903   4.776   6.868   0.371
  668SOL    HW2 2904   4.884   6.928   0.478
  669SOL     OW 2905   2.052   5.749   3.156
  669SOL    HW1 2906   2.146   5.726   3.178
  669SOL    HW2 2907   1.995   5.740   3.237
  670SOL     OW 2908   3.308   2.878   3.218
  670SOL    HW1 2909   3.278   2.819   3.143
  670SOL    HW2 2910   3.232   2.935   3.248
  671SOL     OW 2911   1.298   0.328   6.188
  671SOL    HW1 2912   1.224   0.394   6.195
  671SOL    HW2 2913   1.339   0.333   6.097
  672SOL     OW 2914   2.590   2.249   4.001
  672SOL    HW1 2915   2.685   2.238   3.972
  672SOL    HW2 2916   2.545   2.318   3.945
  673SOL     OW 2917   5.604   6.561   1.285
  673SOL    HW1 2918   5.643   6.493   1.222
  673SOL    HW2 2919   5.612   6.652   1.244
  674SOL     OW 2920   0.479   2.311   3.720
  674SOL    HW1 2921   0.414   2.314   3.795
  674SOL    HW2 2922   0.550   2.380   3.734
  675SOL     OW 2923   6.082   2.427   4.941
  675SOL    HW1 2924   6.057   2.523   4.925
  675SOL    HW2 2925   6.144   2.396   4.869
  676SOL     OW 2926   2.101   4.588   4.486
  676SOL    HW1 2927   2.043   4.617   4.562
  676SOL    HW2 2928   2.081   4.643   4.406
  677SOL     OW 2929   5.775   0.021   0.598
  677SOL    HW1 2930   5.866   0.051   0.626
  677SOL    HW2 2931   5.774   0.005   0.499
  678SOL     OW 2932   2.337   2.005   6.155
  678SOL    HW1 2933   2.331   2.103   6.172
  678SOL    HW2 2934   2.424   1.984   6.110
  679SOL     OW 2935   5.735   0.061   2.702
  679SOL    HW1 2936   5.741   0.114   2.787
  679SOL    HW2 2937   5.728   6.989   2.724
  680SOL     OW 2938   5.088   4.181   5.017
  680SOL    HW1 2939   5.047   4.136   5.096
  680SOL    HW2 2940   5.055   4.138   4.933
  681SOL     OW 2941   1.502   0.030   1.943
  681SOL    HW1 2942   1.472   6.992   2.014
  681SOL    HW2 2943   1.517   7.005   1.858
  682SOL     OW 2944   0.947   6.027   0.666
  682SOL    HW1 2945   0.965   6.001   0.571
  682SOL    HW2 2946   1.009   6.100   0.693
  683SOL     OW 2947   5.307   1.498   0.469
  683SOL    HW1 2948   5.369   1.519   0.393
  683SOL    HW2 2949   5.214   1.487   0.434
  684SOL     OW 2950   6.981   5.974   6.137
  684SOL    HW1 2951   7.005   6.039   6.065
  684SOL    HW2 2952   6.997   6.016   6.226
  685SOL     OW 2953   5.688   0.988   5.586
  685SOL    HW1 2954   5.651   1.031   5.668
  685SOL    HW2 2955   5.706   1.059   5.517
  686SOL     OW 2956   5.661   5.273   3.053
  686SOL    HW1 2957   5.609   5.294   3.136
  686SOL    HW2 2958   5.598   5.242   2.981
  687SOL     OW 2959   6.288   3.100   5.268
  687SOL    HW1 2960   6.307   3.193   5.299
  687SOL    HW2 2961   6.319   3.035   5.336
  688SOL     OW 2962   6.932   3.889   4.963
  688SOL    HW1 2963   6.957   3.850   4.875
  688SOL    HW2 2964   6.839   3.924   4.959
  689SOL     OW 2965   5.953   3.663   6.349
  689SOL    HW1 2966   5.926   3.698   6.260
  689SOL    HW2 2967   6.050   3.683   6.366
  690SOL     OW 2968   1.150   2.110   3.413
  690SOL    HW1 2969   1.219   2.167   3.369
  690SOL    HW2 2970   1.113   2.159   3.492
  691SOL     OW 2971   0.395   3.303   6.711
  691SOL    HW1 2972   0.393   3.396   6.675
  691SOL    HW2 2973   0.457   3.247   6.656
  692SOL     OW 2974   1.937   0.005   3.015
  692SOL    HW1 2975   1.922   6.962   3.086
  692SOL    HW2 2976   2.031   7.023   2.981
  693SOL     OW 2977   0.005   1.293   2.173
  693SOL    HW1 2978   0.090   1.317   2.125
  693SOL    HW2 2979   0.009   1.196   2.199
  694SOL     OW 2980   1.735   0.398   1.559
  694SOL    HW1 2981   1.742   0.347   1.645
  694SOL    HW2 2982   1.640   0.403   1.531
  695SOL     OW 2983   3.611   6.623   5.943
  695SOL    HW1 2984   3.516   6.645   5.965
  695SOL    HW2 2985   3.636   6.536   5.986
  696SOL     OW 2986   4.691   5.369   2.480
  696SOL    HW1 2987   4.680   5.271   2.495
  696SOL    HW2 2988   4.637   5.397   2.401
  697SOL     OW 2989   1.179   3.880   3.772
  697SOL    HW1 2990   1.215   3.973   3.775
  697SOL    HW2 2991   1.226   3.824   3.840
  698SOL     OW 2992   4.308   6.442   3.749
  698SOL    HW1 2993   4.289   6.364   3.689
  698SOL    HW2 2994   4.395   6.483   3.723
  699SOL     OW 2995   1.798   4.611   0.693
  699SOL    HW1 2996   1.891   4.646   0.685
  699SOL    HW2 2997   1.768   4.574   0.606
  700SOL     OW 2998   1.821   1.041   4.289
  700SOL    HW1 2999   1.803   0.972   4.359
  700SOL    HW2 3000   1.735   1.073   4.250
  701SOL     OW 3001   0.217   4.446   5.963
  701SOL    HW1 3002   0.157   4.489   6.030
  701SOL    HW2 3003   0.182   4.465   5.871
  702SOL     OW 3004   5.811   5.534   4.863
  702SOL    HW1 3005   5.808   5.606   4.794
  702SOL    HW2 3006   5.785   5.571   4.952
  703SOL     OW 3007   3.935   4.047   6.854
  703SOL    HW1 3008   3.977   3.978   6.913
  703SOL    HW2 3009   3.977   4.043   6.763
  704SOL     OW 3010   2.424   0.094   0.636
  704SOL    HW1 3011   2.379   0.026   0.694
  704SOL    HW2 3012   2.401   0.077   0.540
  705SOL     OW 3013   6.031   2.501   2.479
  705SOL    HW1 3014   6.030   2.575   2.546
  705SOL    HW2 3015   5.940   2.493   2.437
  706SOL     OW 3016   4.033   1.929   3.748
  706SOL    HW1 3017   4.015   1.840   3.789
  706SOL    HW2 3018   4.107   1.921   3.680
  707SOL     OW 3019   5.201   0.825   1.563
  707SOL    HW1 3020   5.240   0.902   1.614
  707SOL    HW2 3021   5.191   0.852   1.467
  708SOL     OW 3022   4.195   0.861   1.755
  708SOL    HW1 3023   4.201   0.906   1.666
  708SOL    HW2 3024   4.230   0.923   1.826
  709SOL     OW 3025   1.037   4.765   0.115
  709SOL    HW1 3026   1.076   4.702   0.048
  709SOL    HW2 3027   1.022   4.717   0.202
  710SOL     OW 3028   3.237   3.980   2.624
  710SOL    HW1 3029   3.138   3.970   2.630
  710SOL    HW2 3030   3.263   4.005   2.531
  711SOL     OW 3031   0.599   0.696   3.836
  711SOL    HW1 3032   0.604   0.648   3.749
  711SOL    HW2 3033   0.621   0.793   3.821
  712SOL     OW 3034   1.746   4.002   1.399
  712SOL    HW1 3035   1.775   4.080   1.454
  712SOL    HW2 3036   1.675   3.951   1.448
  713SOL     OW 3037   4.035   3.133   2.898
  713SOL    HW1 3038   3.958   3.096   2.950
  713SOL    HW2 3039   4.068   3.063   2.834
  714SOL     OW 3040   4.899   5.536   5.265
  714SOL    HW1 3041   4.849   5.616   5.234
  714SOL    HW2 3042   4.865   5.508   5.354
  715SOL     OW 3043   4.402   0.728   6.528
  715SOL    HW1 3044   4.446   0.802   6.579
  715SOL    HW2 3045   4.370   0.763   6.440
  716SOL     OW 3046   0.033   4.868   1.862
  716SOL    HW1 3047   0.011   4.937   1.931
  716SOL    HW2 3048   0.114   4.817   1.890
  717SOL     OW 3049   6.174   2.300   0.517
  717SOL    HW1 3050   6.151   2.240   0.440
  717SOL    HW2 3051   6.141   2.392   0.499
  718SOL     OW 3052   3.579   3.914   6.727
  718SOL    HW1 3053   3.526   3.998   6.739
  718SOL    HW2 3054   3.647   3.928   6.655
  719SOL     OW 3055   5.528   4.252   0.630
  719SOL    HW1 3056   5.561   4.331   0.682
  719SOL    HW2 3057   5.516   4.174   0.692
  720SOL     OW 3058   2.471   0.975   6.105
  720SOL    HW1 3059   2.548   1.013   6.054
  720SOL    HW2 3060   2.387   0.982   6.050
  721SOL     OW 3061   1.714   6.973   5.883
  721SOL    HW1 3062   1.619   6.996   5.900
  721SOL    HW2 3063   1.744   7.017   5.798
  722SOL     OW 3064   4.318   0.050   5.412
  722SOL    HW1 3065   4.310   6.986   5.369
  722SOL    HW2 3066   4.394   0.101   5.370
  723SOL     OW 3067   0.943   3.356   1.716
  723SOL    HW1 3068   0.869   3.388   1.775
  723SOL    HW2 3069   1.012   3.428   1.708
  724SOL     OW 3070   7.020   1.267   5.180
  724SOL    HW1 3071   0.061   1.329   5.221
  724SOL    HW2 3072   0.023   1.172   5.194
  725SOL     OW 3073   2.045   5.380   1.038
  725SOL    HW1 3074   2.013   5.418   1.125
  725SOL    HW2 3075   1.971   5.330   0.994
  726SOL     OW 3076   3.868   0.287   6.695
  726SOL    HW1 3077   3.900   0.378   6.669
  726SOL    HW2 3078   3.915   0.218   6.641
  727SOL     OW 3079   3.143   4.888   4.179
  727SOL    HW1 3080   3.229   4.879   4.230
  727SOL    HW2 3081   3.160   4.937   4.094
  728SOL     OW 3082   6.636   3.585   5.065
  728SOL    HW1 3083   6.610   3.498   5.109
  728SOL    HW2 3084   6.644   3.656   5.135
  729SOL     OW 3085   2.872   0.279   1.338
  729SOL    HW1 3086   2.913   0.241   1.420
  729SOL    HW2 3087   2.933   0.348   1.299
  730SOL     OW 3088   5.898   0.352   4.303
  730SOL    HW1 3089   5.913   0.298   4.386
  730SOL    HW2 3090   5.957   0.318   4.230
  731SOL     OW 3091   5.824   3.743   3.584
  731SOL    HW1 3092   5.793   3.797   3.663
  731SOL    HW2 3093   5.888   3.673   3.614
  732SOL     OW 3094   6.833   2.798   1.719
  732SOL    HW1 3095   6.868   2.711   1.683
  732SOL    HW2 3096   6.756   2.779   1.781
  733SOL     OW 3097   4.774   4.297   3.914
  733SOL    HW1 3098   4.727   4.373   3.870
  733SOL    HW2 3099   4.815   4.238   3.845
  734SOL     OW 3100   6.923   4.435   0.980
  734SOL    HW1 3101   6.870   4.520   0.973
  734SOL    HW2 3102   6.870   4.360   0.941
  735SOL     OW 3103   1.581   4.656   6.209
  735SOL    HW1 3104   1.541   4.689   6.124
  735SOL    HW2 3105   1.581   4.556   6.209
  736SOL     OW 3106   6.287   1.155   3.175
  736SOL    HW1 3107   6.296   1.253   3.156
  736SOL    HW2 3108   6.199   1.123   3.142
  737SOL     OW 3109   5.320   3.241   0.599
  737SOL    HW1 3110   5.231   3.250   0.644
  737SOL    HW2 3111   5.307   3.204   0.507
  738SOL     OW 3112   1.004   3.779   4.134
  738SOL    HW1 3113   1.014   3.680   4.149
  738SOL    HW2 3114   0.938   3.795   4.060
  739SOL     OW 3115   4.832   6.313   6.452
  739SOL    HW1 3116   4.741   6.341   6.422
  739SOL    HW2 3117   4.861   6.232   6.401
  740SOL     OW 3118   6.011   6.673   1.492
  740SOL    HW1 3119   5.957   6.757   1.481
  740SOL    HW2 3120   6.092   6.677   1.434
  741SOL     OW 3121   2.350   0.661   2.438
  741SOL    HW1 3122   2.400   0.746   2.447
  741SOL    HW2 3123   2.252   0.677   2.453
  742SOL     OW 3124   1.364   6.971   2.965
  742SOL    HW1 3125   1.377   6.961   2.867
  742SOL    HW2 3126   1.266   6.982   2.985
  743SOL     OW 3127   2.204   4.176   4.591
  743SOL    HW1 3128   2.105   4.187   4.599
  743SOL    HW2 3129   2.242   4.254   4.540
  744SOL     OW 3130   0.097   5.683   0.613
  744SOL    HW1 3131   0.031   5.654   0.543
  744SOL    HW2 3132   0.149   5.761   0.578
  745SOL     OW 3133   1.482   5.835   2.772
  745SOL    HW1 3134   1.410   5.870   2.713
  745SOL    HW2 3135   1.445   5.818   2.863
  746SOL     OW 3136   1.941   0.842   4.859
  746SOL    HW1 3137   1.881   0.793   4.923
  746SOL    HW2 3138   1.947   0.791   4.774
  747SOL     OW 3139   5.155   4.854   2.768
  747SOL    HW1 3140   5.134   4.848   2.671
  747SOL    HW2 3141   5.098   4.925   2.810
  748SOL     OW 3142   4.689   3.594   1.340
  748SOL    HW1 3143   4.604   3.548   1.315
  748SOL    HW2 3144   4.766   3.541   1.305
  749SOL     OW 3145   6.592   1.562   5.651
  749SOL    HW1 3146   6.613   1.572   5.554
  749SOL    HW2 3147   6.510   1.505   5.662
  750SOL     OW 3148   2.230   4.134   0.462
  750SOL    HW1 3149   2.314   4.081   0.476
  750SOL    HW2 3150   2.254   4.229   0.440
  751SOL     OW 3151   4.672   0.660   0.225
  751SOL    HW1 3152   4.629   0.591   0.283
  751SOL    HW2 3153   4.643   0.751   0.255
  752SOL     OW 3154   4.933   2.229   2.150
  752SOL    HW1 3155   4.950   2.325   2.172
  752SOL    HW2 3156   4.928   2.176   2.235
  753SOL     OW 3157   2.011   2.694   4.013
  753SOL    HW1 3158   2.092   2.712   4.069
  753SOL    HW2 3159   2.023   2.736   3.923
  754SOL     OW 3160   4.729   5.748   6.996
  754SOL    HW1 3161   4.764   5.778   6.908
  754SOL    HW2 3162   4.772   5.661   7.021
  755SOL     OW 3163   0.374   6.238   1.007
  755SOL    HW1 3164   0.421   6.170   0.951
  755SOL    HW2 3165   0.438   6.278   1.072
  756SOL     OW 3166   5.256   0.405   3.424
  756SOL    HW1 3167   5.257   0.480   3.358
  756SOL    HW2 3168   5.315   0.429   3.501
  757SOL     OW 3169   0.127   0.417   3.839
  757SOL    HW1 3170   0.081   0.349   3.896
  757SOL    HW2 3171   0.221   0.386   3.820
  758SOL     OW 3172   3.893   2.428   1.239
  758SOL    HW1 3173   3.985   2.453   1.208
  758SOL    HW2 3174   3.856   2.500   1.297
  759SOL     OW 3175   1.343   0.808   6.536
  759SOL    HW1 3176   1.270   0.748   6.571
  759SOL    HW2 3177   1.302   0.887   6.490
  760SOL     OW 3178   4.736   1.809   5.778
  760SOL    HW1 3179   4.721   1.872   5.854
  760SOL    HW2 3180   4.830   1.816   5.747
  761SOL     OW 3181   5.736   2.237   6.879
  761SOL    HW1 3182   5.799   2.174   6.924
  761SOL    HW2 3183   5.788   2.306   6.829
  762SOL     OW 3184   2.458   6.648   4.086
  762SOL    HW1 3185   2.385   6.713   4.067
  762SOL    HW2 3186   2.418   6.557   4.100
  763SOL     OW 3187   3.991   5.851   6.833
  763SOL    HW1 3188   3.947   5.925   6.783
  763SOL    HW2 3189   4.074   5.886   6.878
  764SOL     OW 3190   4.459   1.444   2.398
  764SOL    HW1 3191   4.435   1.423   2.493
  764SOL    HW2 3192   4.485   1.359   2.351
  765SOL     OW 3193   6.733   0.100   3.452
  765SOL    HW1 3194   6.715   0.030   3.520
  765SOL    HW2 3195   6.817   0.148   3.475
  766SOL     OW 3196   0.171   6.408   6.822
  766SOL    HW1 3197   0.253   6.371   6.777
  766SOL    HW2 3198   0.113   6.451   6.753
  767SOL     OW 3199   5.705   6.936   2.462
  767SOL    HW1 3200   5.714   7.009   2.395
  767SOL    HW2 3201   5.726   6.971   2.553
  768SOL     OW 3202   2.944   6.082   2.910
  768SOL    HW1 3203   3.032   6.128   2.921
  768SOL    HW2 3204   2.952   5.986   2.936
  769SOL     OW 3205   4.163   1.132   5.409
  769SOL    HW1 3206   4.157   1.088   5.499
  769SOL    HW2 3207   4.086   1.195   5.397
  770SOL     OW 3208   3.200   5.039   3.960
  770SOL    HW1 3209   3.158   5.018   3.872
  770SOL    HW2 3210   3.299   5.027   3.954
  771SOL     OW 3211   0.855   5.411   3.417
  771SOL    HW1 3212   0.835   5.323   3.461
  771SOL    HW2 3213   0.769   5.458   3.397
  772SOL     OW 3214   6.559   3.933   6.242
  772SOL    HW1 3215   6.596   3.853   6.194
  772SOL    HW2 3216   6.460   3.924   6.252
  773SOL     OW 3217   0.239   3.662   2.409
  773SOL    HW1 3218   0.186   3.579   2.393
  773SOL    HW2 3219   0.226   3.725   2.332
  774SOL     OW 3220   1.541   1.207   1.341
  774SOL    HW1 3221   1.619   1.269   1.331
  774SOL    HW2 3222   1.574   1.113   1.350
  775SOL     OW 3223   1.753   2.168   4.740
  775SOL    HW1 3224   1.823   2.236   4.763
  775SOL    HW2 3225   1.784   2.114   4.662
  776SOL     OW 3226   1.861   0.557   6.180
  776SOL    HW1 3227   1.959   0.543   6.165
  776SOL    HW2 3228   1.831   0.497   6.255
  777SOL     OW 3229   4.377   1.241   0.877
  777SOL    HW1 3230   4.312   1.238   0.801
  777SOL    HW2 3231   4.433   1.323   0.869
  778SOL     OW 3232   4.163   6.624   4.284
  778SOL    HW1 3233   4.223   6.601   4.208
  778SOL    HW2 3234   4.085   6.561   4.285
  779SOL     OW 3235   1.303   1.349   2.188
  779SOL    HW1 3236   1.374   1.319   2.252
  779SOL    HW2 3237   1.243   1.415   2.233
  780SOL     OW 3238   5.995   3.349   4.937
  780SOL    HW1 3239   6.053   3.306   5.006
  780SOL    HW2 3240   5.992   3.448   4.952
  781SOL     OW 3241   6.951   1.014   5.871
  781SOL    HW1 3242   0.024   1.006   5.882
  781SOL    HW2 3243   6.931   1.072   5.792
  782SOL     OW 3244   6.770   2.956   1.130
  782SOL    HW1 3245   6.791   3.054   1.130
  782SOL    HW2 3246   6.847   2.905   1.167
  783SOL     OW 3247   2.554   4.884   0.599
  783SOL    HW1 3248   2.514   4.847   0.515
  783SOL    HW2 3249   2.554   4.984   0.596
  784SOL     OW 3250   4.743   0.546   5.146
  784SOL    HW1 3251   4.784   0.584   5.229
  784SOL    HW2 3252   4.730   0.447   5.158
  785SOL     OW 3253   6.492   2.747   2.981
  785SOL    HW1 3254   6.477   2.804   2.901
  785SOL    HW2 3255   6.404   2.724   3.023
  786SOL     OW 3256   6.915   6.495   0.102
  786SOL    HW1 3257   6.858   6.545   0.037
  786SOL    HW2 3258   6.918   6.543   0.189
  787SOL     OW 3259   2.994   2.319   6.258
  787SOL    HW1 3260   2.983   2.401   6.201
  787SOL    HW2 3261   3.092   2.303   6.274
  788SOL     OW 3262   1.636   3.833   4.477
  788SOL    HW1 3263   1.731   3.836   4.508
  788SOL    HW2 3264   1.632   3.855   4.380
  789SOL     OW 3265   5.488   4.268   1.169
  789SOL    HW1 3266   5.585   4.246   1.171
  789SOL    HW2 3267   5.474   4.359   1.207
  790SOL     OW 3268   3.261   1.445   3.634
  790SOL    HW1 3269   3.260   1.345   3.625
  790SOL    HW2 3270   3.194   1.473   3.702
  791SOL     OW 3271   3.257   1.428   3.964
  791SOL    HW1 3272   3.182   1.485   3.931
  791SOL    HW2 3273   3.228   1.332   3.963
  792SOL     OW 3274   5.762   0.750   3.850
  792SOL    HW1 3275   5.696   0.815   3.887
  792SOL    HW2 3276   5.740   0.658   3.883
  793SOL     OW 3277   5.386   0.116   6.974
  793SOL    HW1 3278   5.480   0.111   6.941
  793SOL    HW2 3279   5.376   0.057   0.029
  794SOL     OW 3280   2.398   5.359   5.551
  794SOL    HW1 3281   2.420   5.421   5.476
  794SOL    HW2 3282   2.398   5.265   5.517
  795SOL     OW 3283   4.606   4.324   6.482
  795SOL    HW1 3284   4.522   4.314   6.428
  795SOL    HW2 3285   4.585   4.368   6.568
  796SOL     OW 3286   0.158   2.462   6.789
  796SOL    HW1 3287   0.232   2.522   6.821
  796SOL    HW2 3288   0.123   2.496   6.702
  797SOL     OW 3289   5.969   2.960   3.800
  797SOL    HW1 3290   6.042   3.028   3.799
  797SOL    HW2 3291   5.880   3.007   3.800
  798SOL     OW 3292   5.260   0.737   6.158
  798SOL    HW1 3293   5.325   0.811   6.139
  798SOL    HW2 3294   5.210   0.715   6.075
  799SOL     OW 3295   6.733   3.177   2.911
  799SOL    HW1 3296   6.726   3.131   3.000
  799SOL    HW2 3297   6.805   3.245   2.914
  800SOL     OW 3298   6.423   1.413   2.209
  800SOL    HW1 3299   6.329   1.395   2.241
  800SOL    HW2 3300   6.438   1.365   2.123
  801SOL     OW 3301   0.320   2.524   3.043
  801SOL    HW1 3302   0.298   2.434   3.005
  801SOL    HW2 3303   0.241   2.558   3.094
  802SOL     OW 3304   5.377   1.038   0.707
  802SOL    HW1 3305   5.331   1.119   0.671
  802SOL    HW2 3306   5.316   0.959   0.700
  803SOL     OW 3307   6.458   6.932   5.108
  803SOL    HW1 3308   6.539   6.987   5.089
  803SOL    HW2 3309   6.445   6.865   5.035
  804SOL     OW 3310   0.457   6.774   0.406
  804SOL    HW1 3311   0.407   6.739   0.326
  804SOL    HW2 3312   0.394   6.789   0.481
  805SOL     OW 3313   2.932   3.069   6.171
  805SOL    HW1 3314   3.009   3.042   6.114
  805SOL    HW2 3315   2.917   3.000   6.242
  806SOL     OW 3316   5.419   0.834   0.414
  806SOL    HW1 3317   5.418   0.767   0.339
  806SOL    HW2 3318   5.327   0.841   0.453
  807SOL     OW 3319   1.468   7.020   3.400
  807SOL    HW1 3320   1.425   6.969   3.476
  807SOL    HW2 3321   1.466   6.963   3.318
  808SOL     OW 3322   5.196   3.306   5.597
  808SOL    HW1 3323   5.255   3.356   5.661
  808SOL    HW2 3324   5.213   3.208   5.604
  809SOL     OW 3325   0.053   4.286   6.472
  809SOL    HW1 3326   0.060   4.196   6.513
  809SOL    HW2 3327   0.118   4.348   6.516
  810SOL     OW 3328   5.890   4.303   0.196
  810SOL    HW1 3329   5.868   4.268   0.105
  810SOL    HW2 3330   5.982   4.274   0.223
  811SOL     OW 3331   5.098   5.258   3.847
  811SOL    HW1 3332   5.003   5.231   3.865
  811SOL    HW2 3333   5.151   5.179   3.817
  812SOL     OW 3334   0.234   6.728   1.719
  812SOL    HW1 3335   0.210   6.820   1.690
  812SOL    HW2 3336   0.195   6.710   1.809
  813SOL     OW 3337   5.224   5.520   2.618
  813SOL    HW1 3338   5.171   5.584   2.562
  813SOL    HW2 3339   5.292   5.474   2.561
  814SOL     OW 3340   6.099   6.307   1.918
  814SOL    HW1 3341   6.079   6.405   1.907
  814SOL    HW2 3342   6.032   6.267   1.981
  815SOL     OW 3343   6.748   2.300   1.215
  815SOL    HW1 3344   6.829   2.249   1.244
  815SOL    HW2 3345   6.666   2.250   1.241
  816SOL     OW 3346   6.690   6.527   0.985
  816SOL    HW1 3347   6.758   6.496   0.919
  816SOL    HW2 3348   6.652   6.614   0.955
  817SOL     OW 3349   1.953   3.168   2.548
  817SOL    HW1 3350   2.030   3.135   2.493
  817SOL    HW2 3351   1.894   3.091   2.572
  818SOL     OW 3352   6.307   1.405   1.313
  818SOL    HW1 3353   6.317   1.502   1.335
  818SOL    HW2 3354   6.370   1.381   1.239
  819SOL     OW 3355   6.571   3.440   3.975
  819SOL    HW1 3356   6.610   3.348   3.973
  819SOL    HW2 3357   6.539   3.461   4.067
  820SOL     OW 3358   1.202   3.343   4.825
  820SOL    HW1 3359   1.179   3.366   4.730
  820SOL    HW2 3360   1.276   3.403   4.856
  821SOL     OW 3361   1.083   3.274   6.958
  821SOL    HW1 3362   1.126   3.277   0.023
  821SOL    HW2 3363   0.984   3.284   6.968
  822SOL     OW 3364   1.584   4.060   4.644
  822SOL    HW1 3365   1.557   4.142   4.594
  822SOL    HW2 3366   1.563   3.979   4.589
  823SOL     OW 3367   3.941   4.188   0.174
  823SOL    HW1 3368   3.894   4.218   0.257
  823SOL    HW2 3369   3.949   4.088   0.174
  824SOL     OW 3370   5.050   2.362   5.860
  824SOL    HW1 3371   5.127   2.332   5.916
  824SOL    HW2 3372   5.022   2.288   5.799
  825SOL     OW 3373   2.212   4.182   2.230
  825SOL    HW1 3374   2.293   4.230   2.264
  825SOL    HW2 3375   2.237   4.090   2.202
  826SOL     OW 3376   6.793   3.949   6.407
  826SOL    HW1 3377   6.744   3.951   6.320
  826SOL    HW2 3378   6.774   4.034   6.457
  827SOL     OW 3379   3.414   6.279   0.131
  827SOL    HW1 3380   3.371   6.319   0.050
  827SOL    HW2 3381   3.477   6.206   0.102
  828SOL     OW 3382   5.616   0.470   5.819
  828SOL    HW1 3383   5.587   0.556   5.861
  828SOL    HW2 3384   5.714   0.457   5.834
  829SOL     OW 3385   3.189   3.088   4.641
  829SOL    HW1 3386   3.249   3.019   4.602
  829SOL    HW2 3387   3.119   3.114   4.573
  830SOL     OW 3388   4.531   4.128   5.357
  830SOL    HW1 3389   4.597   4.152   5.286
  830SOL    HW2 3390   4.451   4.187   5.350
  831SOL     OW 3391   6.532   1.374   4.670
  831SOL    HW1 3392   6.445   1.326   4.661
  831SOL    HW2 3393   6.569   1.392   4.579
  832SOL     OW 3394   2.073   1.669   6.011
  832SOL    HW1 3395   2.023   1.595   6.056
  832SOL    HW2 3396   2.100   1.737   6.079
  833SOL     OW 3397   6.565   6.918   6.045
  833SOL    HW1 3398   6.495   6.937   6.115
  833SOL    HW2 3399   6.592   6.821   6.051
  834SOL     OW 3400   3.072   4.053   4.767
  834SOL    HW1 3401   2.986   4.100   4.743
  834SOL    HW2 3402   3.052   3.979   4.830
  835SOL     OW 3403   3.611   6.552   3.484
  835SOL    HW1 3404   3.688   6.523   3.427
  835SOL    HW2 3405   3.645   6.606   3.561
  836SOL     OW 3406   2.723   1.020   0.525
  836SOL    HW1 3407   2.679   0.940   0.484
  836SOL    HW2 3408   2.757   1.080   0.453
  837SOL     OW 3409   5.055   1.281   5.894
  837SOL    HW1 3410   5.019   1.369   5.863
  837SOL    HW2 3411   5.043   1.213   5.821
  838SOL     OW 3412   2.007   5.510   3.613
  838SOL    HW1 3413   1.950   5.428   3.605
  838SOL    HW2 3414   2.103   5.484   3.620
  839SOL     OW 3415   2.934   1.911   2.884
  839SOL    HW1 3416   2.987   1.996   2.879
  839SOL    HW2 3417   2.902   1.897   2.977
  840SOL     OW 3418   1.104   1.357   7.006
  840SOL    HW1 3419   1.142   1.391   0.066
  840SOL    HW2 3420   1.054   1.430   6.960
  841SOL     OW 3421   0.803   3.233   6.992
  841SOL    HW1 3422   0.746   3.315   7.003
  841SOL    HW2 3423   0.797   3.177   0.049
  842SOL     OW 3424   3.728   5.152   3.263
  842SOL    HW1 3425   3.778   5.177   3.347
  842SOL    HW2 3426   3.775   5.076   3.218
  843SOL     OW 3427   6.260   2.127   2.196
  843SOL    HW1 3428   6.327   2.187   2.153
  843SOL    HW2 3429   6.176   2.178   2.214
  844SOL     OW 3430   5.193   5.950   0.621
  844SOL    HW1 3431   5.218   5.959   0.717
  844SOL    HW2 3432   5.103   5.993   0.605
  845SOL     OW 3433   0.748   4.901   5.248
  845SOL    HW1 3434   0.842   4.933   5.239
  845SOL    HW2 3435   0.686   4.969   5.209
  846SOL     OW 3436   6.235   1.741   6.691
  846SOL    HW1 3437   6.313   1.799   6.711
  846SOL    HW2 3438   6.257   1.680   6.615
  847SOL     OW 3439   5.056   3.245   2.264
  847SOL    HW1 3440   5.020   3.206   2.179
  847SOL    HW2 3441   5.072   3.343   2.251
  848SOL     OW 3442   5.856   0.794   5.525
  848SOL    HW1 3443   5.949   0.822   5.551
  848SOL    HW2 3444   5.789   0.852   5.570
  849SOL     OW 3445   0.669   5.326   4.434
  849SOL    HW1 3446   0.758   5.305   4.394
  849SOL    HW2 3447   0.648   5.422   4.419
  850SOL     OW 3448   3.755   0.815   2.658
  850SOL    HW1 3449   3.837   0.757   2.656
  850SOL    HW2 3450   3.729   0.838   2.564
  851SOL     OW 3451   1.302   0.242   6.774
  851SOL    HW1 3452   1.342   0.182   6.705
  851SOL    HW2 3453   1.316   0.337   6.748
  852SOL     OW 3454   2.007   3.871   6.528
  852SOL    HW1 3455   2.032   3.948   6.469
  852SOL    HW2 3456   1.995   3.789   6.472
  853SOL     OW 3457   1.596   3.902   1.809
  853SOL    HW1 3458   1.652   3.820   1.823
  853SOL    HW2 3459   1.596   3.956   1.893
  854SOL     OW 3460   5.319   5.221   1.884
  854SOL    HW1 3461   5.281   5.144   1.833
  854SOL    HW2 3462   5.276   5.306   1.855
  855SOL     OW 3463   5.030   0.317   1.719
  855SOL    HW1 3464   5.111   0.348   1.768
  855SOL    HW2 3465   5.047   0.226   1.680
  856SOL     OW 3466   1.900   6.883   5.287
  856SOL    HW1 3467   1.866   6.792   5.310
  856SOL    HW2 3468   1.924   6.886   5.190
  857SOL     OW 3469   6.631   3.504   2.138
  857SOL    HW1 3470   6.533   3.511   2.158
  857SOL    HW2 3471   6.646   3.516   2.040
  858SOL     OW 3472   3.274   4.478   1.060
  858SOL    HW1 3473   3.356   4.427   1.035
  858SOL    HW2 3474   3.203   4.415   1.089
  859SOL     OW 3475   6.525   4.902   6.928
  859SOL    HW1 3476   6.458   4.850   6.876
  859SOL    HW2 3477   6.544   4.854   7.014
  860SOL     OW 3478   1.794   5.136   1.287
  860SOL    HW1 3479   1.835   5.227   1.275
  860SOL    HW2 3480   1.785   5.092   1.198
  861SOL     OW 3481   3.449   5.688   5.420
  861SOL    HW1 3482   3.442   5.722   5.514
  861SOL    HW2 3483   3.500   5.753   5.365
  862SOL     OW 3484   4.683   4.459   4.246
  862SOL    HW1 3485   4.595   4.459   4.294
  862SOL    HW2 3486   4.709   4.365   4.226
  863SOL     OW 3487   6.068   1.264   1.347
  863SOL    HW1 3488   6.154   1.314   1.335
  863SOL    HW2 3489   6.044   1.218   1.262
  864SOL     OW 3490   5.843   3.942   3.117
  864SOL    HW1 3491   5.787   4.023   3.124
  864SOL    HW2 3492   5.840   3.908   3.023
  865SOL     OW 3493   1.797   6.902   4.474
  865SOL    HW1 3494   1.869   6.946   4.420
  865SOL    HW2 3495   1.709   6.946   4.454
  866SOL     OW 3496   3.172   1.969   1.952
  866SOL    HW1 3497   3.251   2.015   1.993
  866SOL    HW2 3498   3.203   1.917   1.872
  867SOL     OW 3499   1.721   2.923   6.285
  867SOL    HW1 3500   1.654   2.977   6.336
  867SOL    HW2 3501   1.782   2.984   6.235
  868SOL     OW 3502   5.323   2.806   3.250
  868SOL    HW1 3503   5.287   2.732   3.306
  868SOL    HW2 3504   5.256   2.833   3.181
  869SOL     OW 3505   6.599   5.057   2.771
  869SOL    HW1 3506   6.625   4.987   2.838
  869SOL    HW2 3507   6.645   5.143   2.793
  870SOL     OW 3508   6.895   1.534   1.039
  870SOL    HW1 3509   6.886   1.502   1.134
  870SOL    HW2 3510   6.812   1.511   0.988
  871SOL     OW 3511   6.263   3.255   0.985
  871SOL    HW1 3512   6.232   3.284   0.894
  871SOL    HW2 3513   6.354   3.215   0.978
  872SOL     OW 3514   5.717   2.105   3.260
  872SOL    HW1 3515   5.695   2.023   3.313
  872SOL    HW2 3516   5.745   2.078   3.167
  873SOL     OW 3517   4.375   6.717   5.513
  873SOL    HW1 3518   4.382   6.753   5.420
  873SOL    HW2 3519   4.467   6.702   5.549
  874SOL     OW 3520   0.718   3.341   5.890
  874SOL    HW1 3521   0.756   3.412   5.831
  874SOL    HW2 3522   0.792   3.284   5.926
  875SOL     OW 3523   6.351   4.446   6.948
  875SOL    HW1 3524   6.409   4.474   7.025
  875SOL    HW2 3525   6.341   4.523   6.885
  876SOL     OW 3526   0.724   3.323   2.114
  876SOL    HW1 3527   0.770   3.408   2.138
  876SOL    HW2 3528   0.678   3.285   2.194
  877SOL     OW 3529   5.917   5.658   0.746
  877SOL    HW1 3530   5.822   5.689   0.735
  877SOL    HW2 3531   5.932   5.579   0.686
  878SOL     OW 3532   3.120   4.720   0.295
  878SOL    HW1 3533   3.163   4.713   0.385
  878SOL    HW2 3534   3.180   4.680   0.226
  879SOL     OW 3535   4.657   2.276   2.096
  879SOL    HW1 3536   4.757   2.271   2.087
  879SOL    HW2 3537   4.632   2.362   2.139
  880SOL     OW 3538   3.890   5.013   0.827
  880SOL    HW1 3539   3.946   4.943   0.870
  880SOL    HW2 3540   3.793   4.990   0.838
  881SOL     OW 3541   4.114   5.319   5.111
  881SOL    HW1 3542   4.142   5.281   5.023
  881SOL    HW2 3543   4.193   5.359   5.157
  882SOL     OW 3544   0.994   1.004   4.810
  882SOL    HW1 3545   0.915   1.063   4.791
  882SOL    HW2 3546   1.056   1.052   4.872
  883SOL     OW 3547   3.105   5.121   6.326
  883SOL    HW1 3548   3.045   5.051   6.365
  883SOL    HW2 3549   3.058   5.168   6.251
  884SOL     OW 3550   4.376   3.892   1.349
  884SOL    HW1 3551   4.384   3.958   1.275
  884SOL    HW2 3552   4.467   3.859   1.374
  885SOL     OW 3553   4.369   6.289   0.048
  885SOL    HW1 3554   4.346   6.192   0.053
  885SOL    HW2 3555   4.293   6.344   0.084
  886SOL     OW 3556   4.550   1.548   6.092
  886SOL    HW1 3557   4.627   1.497   6.053
  886SOL    HW2 3558   4.503   1.599   6.020
  887SOL     OW 3559   4.630   0.830   6.662
  887SOL    HW1 3560   4.683   0.801   6.583
  887SOL    HW2 3561   4.646   0.927   6.680
  888SOL     OW 3562   6.782   5.854   3.430
  888SOL    HW1 3563   6.766   5.853   3.331
  888SOL    HW2 3564   6.870   5.810   3.450
  889SOL     OW 3565   0.462   6.868   4.571
  889SOL    HW1 3566   0.451   6.875   4.472
  889SOL    HW2 3567   0.503   6.780   4.594
  890SOL     OW 3568   2.703   4.679   2.141
  890SOL    HW1 3569   2.739   4.735   2.215
  890SOL    HW2 3570   2.776   4.659   2.075
  891SOL     OW 3571   5.429   3.320   6.670
  891SOL    HW1 3572   5.510   3.378   6.661
  891SOL    HW2 3573   5.408   3.278   6.582
  892SOL     OW 3574   2.750   4.947   1.614
  892SOL    HW1 3575   2.749   4.899   1.702
  892SOL    HW2 3576   2.820   4.905   1.555
  893SOL     OW 3577   1.830   0.151   0.154
  893SOL    HW1 3578   1.825   0.166   0.253
  893SOL    HW2 3579   1.756   0.200   0.108
  894SOL     OW 3580   0.800   5.872   3.759
  894SOL    HW1 3581   0.853   5.824   3.829
  894SOL    HW2 3582   0.858   5.889   3.680
  895SOL     OW 3583   2.101   6.569   5.105
  895SOL    HW1 3584   2.035   6.622   5.052
  895SOL    HW2 3585   2.096   6.473   5.079
  896SOL     OW 3586   5.373   6.890   3.251
  896SOL    HW1 3587   5.450   6.906   3.190
  896SOL    HW2 3588   5.390   6.806   3.304
  897SOL     OW 3589   5.438   2.608   6.125
  897SOL    HW1 3590   5.402   2.548   6.196
  897SOL    HW2 3591   5.453   2.556   6.041
  898SOL     OW 3592   5.864   6.468   4.050
  898SOL    HW1 3593   5.937   6.488   3.985
  898SOL    HW2 3594   5.778   6.454   4.001
  899SOL     OW 3595   0.310   4.772   6.131
  899SOL    HW1 3596   0.329   4.760   6.033
  899SOL    HW2 3597   0.256   4.856   6.143
  900SOL     OW 3598   0.944   5.924   3.546
  900SOL    HW1 3599   0.949   6.023   3.527
  900SOL    HW2 3600   0.916   5.876   3.463
  901SOL     OW 3601   6.379   2.405   3.310
  901SOL    HW1 3602   6.421   2.314   3.303
  901SOL    HW2 3603   6.399   2.444   3.399
  902SOL     OW 3604   0.034   6.206   7.012
  902SOL    HW1 3605   0.073   6.253   6.933
  902SOL    HW2 3606   0.072   6.245   0.071
  903SOL     OW 3607   1.263   4.654   0.522
  903SOL    HW1 3608   1.192   4.627   0.457
  903SOL    HW2 3609   1.221   4.686   0.606
  904SOL     OW 3610   1.880   1.492   3.261
  904SOL    HW1 3611   1.814   1.417   3.260
  904SOL    HW2 3612   1.960   1.466   3.316
  905SOL     OW 3613   5.251   2.247   5.023
  905SOL    HW1 3614   5.311   2.273   4.947
  905SOL    HW2 3615   5.302   2.253   5.109
  906SOL     OW 3616   6.102   4.212   5.327
  906SOL    HW1 3617   6.081   4.178   5.235
  906SOL    HW2 3618   6.184   4.167   5.361
  907SOL     OW 3619   6.711   3.367   1.881
  907SOL    HW1 3620   6.784   3.299   1.892
  907SOL    HW2 3621   6.712   3.402   1.787
  908SOL     OW 3622   2.010   0.506   3.677
  908SOL    HW1 3623   2.046   0.586   3.725
  908SOL    HW2 3624   1.935   0.466   3.729
  909SOL     OW 3625   3.627   0.856   1.547
  909SOL    HW1 3626   3.714   0.820   1.514
  909SOL    HW2 3627   3.634   0.954   1.562
  910SOL     OW 3628   1.938   1.957   1.113
  910SOL    HW1 3629   2.020   1.974   1.057
  910SOL    HW2 3630   1.872   1.905   1.060
  911SOL     OW 3631   0.316   4.159   1.194
  911SOL    HW1 3632   0.377   4.210   1.255
  911SOL    HW2 3633   0.281   4.079   1.243
  912SOL     OW 3634   1.009   0.398   5.722
  912SOL    HW1 3635   1.085   0.435   5.776
  912SOL    HW2 3636   0.981   0.310   5.761
  913SOL     OW 3637   2.622   1.434   1.876
  913SOL    HW1 3638   2.570   1.417   1.960
  913SOL    HW2 3639   2.710   1.386   1.882
  914SOL     OW 3640   3.426   6.572   2.617
  914SOL    HW1 3641   3.428   6.576   2.517
  914SOL    HW2 3642   3.518   6.589   2.653
  915SOL     OW 3643   0.612   2.626   0.020
  915SOL    HW1 3644   0.612   2.649   6.948
  915SOL    HW2 3645   0.706   2.613   0.051
  916SOL     OW 3646   2.097   3.165   3.085
  916SOL    HW1 3647   2.111   3.238   3.018
  916SOL    HW2 3648   1.999   3.150   3.099
  917SOL     OW 3649   3.412   2.339   6.856
  917SOL    HW1 3650   3.360   2.378   6.780
  917SOL    HW2 3651   3.366   2.256   6.888
  918SOL     OW 3652   0.928   0.871   5.892
  918SOL    HW1 3653   0.874   0.927   5.956
  918SOL    HW2 3654   0.873   0.850   5.812
  919SOL     OW 3655   2.456   6.221   1.668
  919SOL    HW1 3656   2.370   6.271   1.681
  919SOL    HW2 3657   2.475   6.215   1.570
  920SOL     OW 3658   2.108   0.454   4.171
  920SOL    HW1 3659   2.207   0.449   4.158
  920SOL    HW2 3660   2.087   0.500   4.258
  921SOL     OW 3661   5.572   5.044   5.664
  921SOL    HW1 3662   5.497   5.013   5.723
  921SOL    HW2 3663   5.656   4.995   5.689
  922SOL     OW 3664   2.252   3.883   6.669
  922SOL    HW1 3665   2.155   3.879   6.643
  922SOL    HW2 3666   2.271   3.813   6.738
  923SOL     OW 3667   3.975   0.510   6.614
  923SOL    HW1 3668   4.054   0.556   6.654
  923SOL    HW2 3669   3.988   0.500   6.516
  924SOL     OW 3670   5.898   3.505   3.188
  924SOL    HW1 3671   5.989   3.465   3.199
  924SOL    HW2 3672   5.894   3.591   3.239
  925SOL     OW 3673   6.723   1.785   3.112
  925SOL    HW1 3674   6.765   1.771   3.022
  925SOL    HW2 3675   6.774   1.733   3.181
  926SOL     OW 3676   5.410   6.300   0.755
  926SOL    HW1 3677   5.409   6.243   0.672
  926SOL    HW2 3678   5.330   6.360   0.755
  927SOL     OW 3679   4.023   5.145   5.309
  927SOL    HW1 3680   4.065   5.203   5.239
  927SOL    HW2 3681   3.957   5.084   5.266
  928SOL     OW 3682   0.614   1.151   1.345
  928SOL    HW1 3683   0.522   1.133   1.311
  928SOL    HW2 3684   0.626   1.105   1.433
  929SOL     OW 3685   0.875   2.808   2.694
  929SOL    HW1 3686   0.859   2.710   2.701
  929SOL    HW2 3687   0.865   2.837   2.599
  930SOL     OW 3688   4.805   6.190   3.363
  930SOL    HW1 3689   4.805   6.217   3.460
  930SOL    HW2 3690   4.837   6.096   3.355
  931SOL     OW 3691   1.543   3.011   1.991
  931SOL    HW1 3692   1.634   2.978   1.967
  931SOL    HW2 3693   1.542   3.111   1.984
  932SOL     OW 3694   4.543   6.231   1.361
  932SOL    HW1 3695   4.603   6.223   1.441
  932SOL    HW2 3696   4.599   6.250   1.280
  933SOL     OW 3697   2.082   6.075   2.857
  933SOL    HW1 3698   2.057   5.980   2.837
  933SOL    HW2 3699   2.169   6.077   2.905
  934SOL     OW 3700   3.176   1.341   5.514
  934SOL    HW1 3701   3.203   1.383   5.427
  934SOL    HW2 3702   3.217   1.391   5.590
  935SOL     OW 3703   2.842   3.324   6.579
  935SOL    HW1 3704   2.792   3.384   6.642
  935SOL    HW2 3705   2.776   3.268   6.528
  936SOL     OW 3706   0.362   1.624   1.457
  936SOL    HW1 3707   0.429   1.621   1.531
  936SOL    HW2 3708   0.410   1.614   1.369
  937SOL     OW 3709   4.802   2.238   4.005
  937SOL    HW1 3710   4.715   2.245   4.054
  937SOL    HW2 3711   4.788   2.186   3.920
  938SOL     OW 3712   0.051   2.505   0.124
  938SOL    HW1 3713   0.008   2.595   0.130
  938SOL    HW2 3714   0.129   2.509   0.061
  939SOL     OW 3715   6.108   1.062   5.805
  939SOL    HW1 3716   6.170   1.083   5.881
  939SOL    HW2 3717   6.019   1.103   5.822
  940SOL     OW 3718   0.525   0.885   4.430
  940SOL    HW1 3719   0.601   0.944   4.457
  940SOL    HW2 3720   0.552   0.829   4.352
  941SOL     OW 3721   5.402   2.712   4.845
  941SOL    HW1 3722   5.429   2.638   4.905
  941SOL    HW2 3723   5.305   2.733   4.859
  942SOL     OW 3724   5.479   0.188   5.084
  942SOL    HW1 3725   5.435   0.250   5.149
  942SOL    HW2 3726   5.410   0.130   5.042
  943SOL     OW 3727   5.373   1.725   0.605
  943SOL    HW1 3728   5.445   1.725   0.674
  943SOL    HW2 3729   5.363   1.632   0.568
  944SOL     OW 3730   6.420   3.888   4.863
  944SOL    HW1 3731   6.337   3.842   4.896
  944SOL    HW2 3732   6.395   3.954   4.792
  945SOL     OW 3733   5.358   4.198   4.961
  945SOL    HW1 3734   5.261   4.182   4.982
  945SOL    HW2 3735   5.401   4.247   5.036
  946SOL     OW 3736   5.670   2.826   5.828
  946SOL    HW1 3737   5.671   2.852   5.925
  946SOL    HW2 3738   5.617   2.742   5.816
  947SOL     OW 3739   2.052   3.216   5.680
  947SOL    HW1 3740   1.990   3.289   5.650
  947SOL    HW2 3741   2.143   3.231   5.642
  948SOL     OW 3742   3.670   2.030   0.033
  948SOL    HW1 3743   3.677   2.047   0.131
  948SOL    HW2 3744   3.573   2.029   0.006
  949SOL     OW 3745   5.237   5.770   6.442
  949SOL    HW1 3746   5.321   5.727   6.475
  949SOL    HW2 3747   5.260   5.855   6.395
  950SOL     OW 3748   3.702   5.370   1.326
  950SOL    HW1 3749   3.772   5.439   1.340
  950SOL    HW2 3750   3.708   5.335   1.232
  951SOL     OW 3751   1.342   2.197   2.968
  951SOL    HW1 3752   1.397   2.257   3.027
  951SOL    HW2 3753   1.251   2.235   2.958
  952SOL     OW 3754   5.065   1.761   1.998
  952SOL    HW1 3755   5.029   1.722   1.914
  952SOL    HW2 3756   5.059   1.861   1.993
  953SOL     OW 3757   3.917   0.111   6.499
  953SOL    HW1 3758   3.976   0.090   6.421
  953SOL    HW2 3759   3.834   0.156   6.468
  954SOL     OW 3760   6.546   6.116   0.559
  954SOL    HW1 3761   6.488   6.053   0.507
  954SOL    HW2 3762   6.500   6.205   0.566
  955SOL     OW 3763   6.574   6.970   2.762
  955SOL    HW1 3764   6.629   6.892   2.729
  955SOL    HW2 3765   6.529   6.944   2.847
  956SOL     OW 3766   0.551   2.280   0.944
  956SOL    HW1 3767   0.532   2.215   0.870
  956SOL    HW2 3768   0.586   2.231   1.024
  957SOL     OW 3769   2.753   6.589   5.097
  957SOL    HW1 3770   2.689   6.665   5.103
  957SOL    HW2 3771   2.845   6.624   5.082
  958SOL     OW 3772   5.158   2.396   0.394
  958SOL    HW1 3773   5.110   2.335   0.457
  958SOL    HW2 3774   5.229   2.344   0.346
  959SOL     OW 3775   1.341   4.409   2.673
  959SOL    HW1 3776   1.242   4.411   2.681
  959SOL    HW2 3777   1.371   4.314   2.657
  960SOL     OW 3778   1.814   5.328   5.500
  960SOL    HW1 3779   1.785   5.235   5.481
  960SOL    HW2 3780   1.890   5.327   5.565
  961SOL     OW 3781   3.811   6.671   1.919
  961SOL    HW1 3782   3.891   6.731   1.916
  961SOL    HW2 3783   3.729   6.725   1.900
  962SOL     OW 3784   1.534   7.013   4.410
  962SOL    HW1 3785   1.473   6.958   4.353
  962SOL    HW2 3786   1.480   0.036   4.478
  963SOL     OW 3787   6.114   0.229   1.304
  963SOL    HW1 3788   6.062   0.264   1.381
  963SOL    HW2 3789   6.149   0.137   1.326
  964SOL     OW 3790   5.085   4.276   1.386
  964SOL    HW1 3791   5.025   4.269   1.465
  964SOL    HW2 3792   5.117   4.185   1.360
  965SOL     OW 3793   0.634   2.089   1.173
  965SOL    HW1 3794   0.728   2.073   1.142
  965SOL    HW2 3795   0.606   2.012   1.231
  966SOL     OW 3796   0.326   1.919   1.794
  966SOL    HW1 3797   0.417   1.932   1.754
  966SOL    HW2 3798   0.268   1.871   1.728
  967SOL     OW 3799   0.745   5.881   2.444
  967SOL    HW1 3800   0.748   5.828   2.359
  967SOL    HW2 3801   0.741   5.979   2.423
  968SOL     OW 3802   6.090   3.608   2.509
  968SOL    HW1 3803   6.079   3.629   2.412
  968SOL    HW2 3804   6.024   3.538   2.535
  969SOL     OW 3805   4.495   5.930   5.544
  969SOL    HW1 3806   4.581   5.902   5.501
  969SOL    HW2 3807   4.419   5.879   5.504
  970SOL     OW 3808   4.526   2.313   5.233
  970SOL    HW1 3809   4.498   2.237   5.293
  970SOL    HW2 3810   4.600   2.283   5.173
  971SOL     OW 3811   6.712   1.923   1.846
  971SOL    HW1 3812   6.767   1.993   1.891
  971SOL    HW2 3813   6.620   1.922   1.886
  972SOL     OW 3814   6.862   5.217   0.872
  972SOL    HW1 3815   6.916   5.285   0.921
  972SOL    HW2 3816   6.846   5.138   0.932
  973SOL     OW 3817   5.822   4.051   5.760
  973SOL    HW1 3818   5.902   3.996   5.786
  973SOL    HW2 3819   5.824   4.067   5.662
  974SOL     OW 3820   2.838   1.429   4.096
  974SOL    HW1 3821   2.920   1.427   4.153
  974SOL    HW2 3822   2.863   1.422   4.000
  975SOL     OW 3823   3.505   6.958   5.711
  975SOL    HW1 3824   3.414   6.922   5.691
  975SOL    HW2 3825   3.522   6.954   5.810
  976SOL     OW 3826   0.453   5.034   3.984
  976SOL    HW1 3827   0.509   4.986   4.052
  976SOL    HW2 3828   0.501   5.116   3.954
  977SOL     OW 3829   1.508   1.027   3.712
  977SOL    HW1 3830   1.502   1.062   3.805
  977SOL    HW2 3831   1.551   1.095   3.653
  978SOL     OW 3832   5.933   3.366   4.653
  978SOL    HW1 3833   5.989   3.448   4.641
  978SOL    HW2 3834   5.934   3.339   4.750
  979SOL     OW 3835   5.887   0.761   3.285
  979SOL    HW1 3836   5.907   0.739   3.189
  979SOL    HW2 3837   5.951   0.832   3.316
  980SOL     OW 3838   5.788   1.149   5.072
  980SOL    HW1 3839   5.763   1.231   5.022
  980SOL    HW2 3840   5.719   1.079   5.059
  981SOL     OW 3841   0.092   2.765   5.948
  981SOL    HW1 3842   0.174   2.780   5.892
  981SOL    HW2 3843   0.041   2.850   5.955
  982SOL     OW 3844   1.500   2.830   1.377
  982SOL    HW1 3845   1.587   2.848   1.423
  982SOL    HW2 3846   1.491   2.731   1.361
  983SOL     OW 3847   5.571   1.347   2.940
  983SOL    HW1 3848   5.572   1.284   2.862
  983SOL    HW2 3849   5.649   1.327   3.000
  984SOL     OW 3850   4.941   0.969   4.049
  984SOL    HW1 3851   4.946   0.886   4.106
  984SOL    HW2 3852   4.975   0.949   3.958
  985SOL     OW 3853   3.157   5.576   0.115
  985SOL    HW1 3854   3.085   5.613   0.057
  985SOL    HW2 3855   3.161   5.477   0.106
  986SOL     OW 3856   4.730   5.210   6.312
  986SOL    HW1 3857   4.633   5.222   6.333
  986SOL    HW2 3858   4.747   5.242   6.218
  987SOL     OW 3859   3.843   0.180   2.722
  987SOL    HW1 3860   3.903   0.103   2.744
  987SOL    HW2 3861   3.784   0.155   2.645
  988SOL     OW 3862   3.535   4.004   1.926
  988SOL    HW1 3863   3.626   3.981   1.961
  988SOL    HW2 3864   3.466   3.946   1.969
  989SOL     OW 3865   0.779   6.690   5.463
  989SOL    HW1 3866   0.706   6.677   5.530
  989SOL    HW2 3867   0.859   6.730   5.508
  990SOL     OW 3868   4.655   6.284   3.635
  990SOL    HW1 3869   4.726   6.282   3.705
  990SOL    HW2 3870   4.624   6.378   3.621
  991SOL     OW 3871   6.115   1.922   5.065
  991SOL    HW1 3872   6.179   1.935   4.988
  991SOL    HW2 3873   6.112   2.006   5.119
  992SOL     OW 3874   0.678   3.194   0.971
  992SOL    HW1 3875   0.616   3.273   0.970
  992SOL    HW2 3876   0.652   3.131   0.898
  993SOL     OW 3877   3.452   5.218   3.587
  993SOL    HW1 3878   3.404   5.285   3.529
  993SOL    HW2 3879   3.436   5.126   3.552
  994SOL     OW 3880   2.873   3.634   2.762
  994SOL    HW1 3881   2.907   3.702   2.828
  994SOL    HW2 3882   2.870   3.544   2.806
  995SOL     OW 3883   1.078   1.384   4.989
  995SOL    HW1 3884   1.085   1.455   4.920
  995SOL    HW2 3885   1.130   1.303   4.960
  996SOL     OW 3886   1.455   3.591   2.735
  996SOL    HW1 3887   1.389   3.559   2.802
  996SOL    HW2 3888   1.421   3.572   2.643
  997SOL     OW 3889   6.665   1.155   1.545
  997SOL    HW1 3890   6.570   1.185   1.542
  997SOL    HW2 3891   6.725   1.233   1.562
  998SOL     OW 3892   5.244   6.935   2.984
  998SOL    HW1 3893   5.245   7.020   2.932
  998SOL    HW2 3894   5.283   6.951   3.075
  999SOL     OW 3895   0.488   5.145   1.279
  999SOL    HW1 3896   0.448   5.110   1.364
  999SOL    HW2 3897   0.517   5.069   1.222
 1000SOL     OW 3898   3.928   1.679   3.857
 1000SOL    HW1 3899   3.975   1.652   3.940
 1000SOL    HW2 3900   3.882   1.599   3.817
 1001SOL     OW 3901   4.747   0.348   5.397
 1001SOL    HW1 3902   4.670   0.320   5.455
 1001SOL    HW2 3903   4.741   0.301   5.309
 1002SOL     OW 3904   6.381   1.658   1.381
 1002SOL    HW1 3905   6.446   1.702   1.319
 1002SOL    HW2 3906   6.422   1.651   1.472
 1003SOL     OW 3907   4.343   5.235   2.468
 1003SOL    HW1 3908   4.370   5.325   2.433
 1003SOL    HW2 3909   4.266   5.245   2.531
 1004SOL     OW 3910   6.129   6.102   7.015
 1004SOL    HW1 3911   6.209   6.139   6.967
 1004SOL    HW2 3912   6.157   6.067   0.079
 1005SOL     OW 3913   6.906   6.723   3.460
 1005SOL    HW1 3914   6.937   6.788   3.530
 1005SOL    HW2 3915   6.982   6.701   3.399
 1006SOL     OW 3916   1.971   4.498   1.058
 1006SOL    HW1 3917   2.039   4.555   1.103
 1006SOL    HW2 3918   2.006   4.468   0.969
 1007SOL     OW 3919   0.293   1.015   3.564
 1007SOL    HW1 3920   0.197   0.987   3.554
 1007SOL    HW2 3921   0.348   0.970   3.494
 1008SOL     OW 3922   2.017   3.239   3.457
 1008SOL    HW1 3923   2.043   3.335   3.468
 1008SOL    HW2 3924   1.970   3.226   3.370
 1009SOL     OW 3925   1.320   6.151   5.207
 1009SOL    HW1 3926   1.262   6.159   5.288
 1009SOL    HW2 3927   1.316   6.236   5.154
 1010SOL     OW 3928   4.845   1.638   0.337
 1010SOL    HW1 3929   4.837   1.646   0.436
 1010SOL    HW2 3930   4.853   1.729   0.297
 1011SOL     OW 3931   3.633   6.206   3.224
 1011SOL    HW1 3932   3.599   6.210   3.318
 1011SOL    HW2 3933   3.729   6.231   3.222
 1012SOL     OW 3934   4.848   5.883   6.781
 1012SOL    HW1 3935   4.935   5.903   6.826
 1012SOL    HW2 3936   4.844   5.930   6.693
 1013SOL     OW 3937   0.656   0.992   1.618
 1013SOL    HW1 3938   0.585   0.922   1.625
 1013SOL    HW2 3939   0.737   0.954   1.573
 1014SOL     OW 3940   4.410   0.439   5.856
 1014SOL    HW1 3941   4.364   0.425   5.768
 1014SOL    HW2 3942   4.467   0.359   5.877
 1015SOL     OW 3943   3.323   6.086   3.821
 1015SOL    HW1 3944   3.230   6.104   3.788
 1015SOL    HW2 3945   3.319   6.022   3.898
 1016SOL     OW 3946   4.286   2.807   1.428
 1016SOL    HW1 3947   4.350   2.838   1.358
 1016SOL    HW2 3948   4.290   2.707   1.435
 1017SOL     OW 3949   4.184   1.748   6.458
 1017SOL    HW1 3950   4.098   1.753   6.510
 1017SOL    HW2 3951   4.221   1.840   6.446
 1018SOL     OW 3952   1.719   3.480   3.136
 1018SOL    HW1 3953   1.776   3.456   3.058
 1018SOL    HW2 3954   1.772   3.538   3.199
 1019SOL     OW 3955   6.343   1.040   0.316
 1019SOL    HW1 3956   6.437   1.050   0.286
 1019SOL    HW2 3957   6.341   1.001   0.408
 1020SOL     OW 3958   2.522   1.637   1.582
 1020SOL    HW1 3959   2.516   1.687   1.496
 1020SOL    HW2 3960   2.604   1.665   1.632
 1021SOL     OW 3961   6.762   1.274   1.140
 1021SOL    HW1 3962   6.778   1.363   1.182
 1021SOL    HW2 3963   6.674   1.274   1.092
 1022SOL     OW 3964   4.062   3.410   6.800
 1022SOL    HW1 3965   4.110   3.349   6.736
 1022SOL    HW2 3966   3.988   3.457   6.752
 1023SOL     OW 3967   5.326   0.979   2.872
 1023SOL    HW1 3968   5.384   0.915   2.924
 1023SOL    HW2 3969   5.325   1.067   2.919
 1024SOL     OW 3970   6.667   1.349   3.353
 1024SOL    HW1 3971   6.684   1.393   3.441
 1024SOL    HW2 3972   6.596   1.280   3.363
 1025SOL     OW 3973   2.910   4.733   0.975
 1025SOL    HW1 3974   2.905   4.638   0.943
 1025SOL    HW2 3975   2.856   4.743   1.059
 1026SOL     OW 3976   1.117   2.315   0.369
 1026SOL    HW1 3977   1.215   2.333   0.383
 1026SOL    HW2 3978   1.086   2.360   0.285
 1027SOL     OW 3979   2.753   4.693   2.527
 1027SOL    HW1 3980   2.778   4.726   2.619
 1027SOL    HW2 3981   2.818   4.729   2.460
 1028SOL     OW 3982   1.424   6.769   0.593
 1028SOL    HW1 3983   1.452   6.677   0.619
 1028SOL    HW2 3984   1.425   6.778   0.493
 1029SOL     OW 3985   2.759   0.626   6.216
 1029SOL    HW1 3986   2.677   0.659   6.170
 1029SOL    HW2 3987   2.805   0.702   6.262
 1030SOL     OW 3988   3.932   3.950   4.994
 1030SOL    HW1 3989   3.899   4.024   4.935
 1030SOL    HW2 3990   3.897   3.964   5.087
 1031SOL     OW 3991   1.985   5.951   1.560
 1031SOL    HW1 3992   2.069   5.944   1.506
 1031SOL    HW2 3993   1.909   5.977   1.500
 1032SOL     OW 3994   1.866   0.654   4.274
 1032SOL    HW1 3995   1.816   0.568   4.288
 1032SOL    HW2 3996   1.833   0.722   4.339
 1033SOL     OW 3997   2.710   5.942   3.090
 1033SOL    HW1 3998   2.676   5.850   3.074
 1033SOL    HW2 3999   2.728   5.986   3.001
 1034SOL     OW 4000   1.281   4.859   4.060
 1034SOL    HW1 4001   1.353   4.802   4.098
 1034SOL    HW2 4002   1.202   4.858   4.122
 1035SOL     OW 4003   2.405   1.413   4.505
 1035SOL    HW1 4004   2.440   1.504   4.480
 1035SOL    HW2 4005   2.482   1.350   4.515
 1036SOL     OW 4006   4.832   2.277   0.382
 1036SOL    HW1 4007   4.750   2.238   0.340
 1036SOL    HW2 4008   4.913   2.228   0.350
 1037SOL     OW 4009   2.411   2.258   6.774
 1037SOL    HW1 4010   2.360   2.335   6.735
 1037SOL    HW2 4011   2.480   2.292   6.837
 1038SOL     OW 4012   2.197   1.044   4.769
 1038SOL    HW1 4013   2.144   0.960   4.751
 1038SOL    HW2 4014   2.211   1.093   4.683
 1039SOL     OW 4015   3.984   1.740   3.549
 1039SOL    HW1 4016   3.917   1.766   3.619
 1039SOL    HW2 4017   3.957   1.653   3.508
 1040SOL     OW 4018   6.371   4.237   3.301
 1040SOL    HW1 4019   6.396   4.273   3.391
 1040SOL    HW2 4020   6.292   4.176   3.310
 1041SOL     OW 4021   0.968   0.522   4.262
 1041SOL    HW1 4022   1.035   0.482   4.200
 1041SOL    HW2 4023   0.958   0.620   4.243
 1042SOL     OW 4024   5.550   4.540   0.713
 1042SOL    HW1 4025   5.593   4.614   0.662
 1042SOL    HW2 4026   5.451   4.549   0.710
 1043SOL     OW 4027   3.149   1.001   6.669
 1043SOL    HW1 4028   3.174   1.042   6.581
 1043SOL    HW2 4029   3.105   0.913   6.652
 1044SOL     OW 4030   4.255   3.357   1.784
 1044SOL    HW1 4031   4.213   3.394   1.867
 1044SOL    HW2 4032   4.342   3.403   1.767
 1045SOL     OW 4033   3.079   1.655   3.284
 1045SOL    HW1 4034   3.057   1.559   3.304
 1045SOL    HW2 4035   3.139   1.690   3.356
 1046SOL     OW 4036   4.027   0.496   1.944
 1046SOL    HW1 4037   3.996   0.500   2.039
 1046SOL    HW2 4038   4.016   0.585   1.901
 1047SOL     OW 4039   1.121   4.907   2.210
 1047SOL    HW1 4040   1.087   4.852   2.287
 1047SOL    HW2 4041   1.044   4.949   2.162
 1048SOL     OW 4042   5.443   4.394   5.620
 1048SOL    HW1 4043   5.419   4.354   5.532
 1048SOL    HW2 4044   5.395   4.481   5.632
 1049SOL     OW 4045   0.470   3.214   4.923
 1049SOL    HW1 4046   0.564   3.217   4.889
 1049SOL    HW2 4047   0.454   3.292   4.984
 1050SOL     OW 4048   3.004   0.532   6.968
 1050SOL    HW1 4049   2.978   0.472   6.892
 1050SOL    HW2 4050   2.974   0.492   0.029
 1051SOL     OW 4051   4.606   4.381   1.497
 1051SOL    HW1 4052   4.547   4.459   1.477
 1051SOL    HW2 4053   4.565   4.297   1.461
 1052SOL     OW 4054   3.447   0.071   4.384
 1052SOL    HW1 4055   3.544   0.048   4.378
 1052SOL    HW2 4056   3.435   0.170   4.381
 1053SOL     OW 4057   4.286   4.876   3.591
 1053SOL    HW1 4058   4.341   4.809   3.541
 1053SOL    HW2 4059   4.346   4.928   3.652
 1054SOL     OW 4060   3.795   6.128   4.325
 1054SOL    HW1 4061   3.886   6.121   4.365
 1054SOL    HW2 4062   3.786   6.215   4.277
 1055SOL     OW 4063   4.506   5.166   4.691
 1055SOL    HW1 4064   4.595   5.146   4.733
 1055SOL    HW2 4065   4.515   5.246   4.631
 1056SOL     OW 4066   1.326   6.736   5.317
 1056SOL    HW1 4067   1.409   6.776   5.355
 1056SOL    HW2 4068   1.246   6.776   5.360
 1057SOL     OW 4069   3.757   3.951   2.059
 1057SOL    HW1 4070   3.709   3.877   2.107
 1057SOL    HW2 4071   3.854   3.947   2.082
 1058SOL     OW 4072   3.959   1.031   1.623
 1058SOL    HW1 4073   4.050   1.034   1.580
 1058SOL    HW2 4074   3.919   0.941   1.609
 1059SOL     OW 4075   3.398   1.482   0.851
 1059SOL    HW1 4076   3.351   1.394   0.862
 1059SOL    HW2 4077   3.397   1.531   0.938
 1060SOL     OW 4078   2.559   2.392   5.246
 1060SOL    HW1 4079   2.479   2.424   5.194
 1060SOL    HW2 4080   2.529   2.364   5.337
 1061SOL     OW 4081   3.073   5.665   1.692
 1061SOL    HW1 4082   3.135   5.731   1.734
 1061SOL    HW2 4083   3.029   5.707   1.612
 1062SOL     OW 4084   5.614   5.051   4.596
 1062SOL    HW1 4085   5.537   5.095   4.551
 1062SOL    HW2 4086   5.612   5.071   4.694
 1063SOL     OW 4087   2.041   2.783   6.641
 1063SOL    HW1 4088   2.000   2.713   6.582
 1063SOL    HW2 4089   1.977   2.859   6.651
 1064SOL     OW 4090   0.053   3.028   1.690
 1064SOL    HW1 4091   7.008   3.085   1.730
 1064SOL    HW2 4092   0.039   2.933   1.717
 1065SOL     OW 4093   6.263   5.982   4.991
 1065SOL    HW1 4094   6.195   5.911   4.972
 1065SOL    HW2 4095   6.305   6.012   4.906
 1066SOL     OW 4096   3.639   0.550   3.353
 1066SOL    HW1 4097   3.628   0.640   3.396
 1066SOL    HW2 4098   3.563   0.533   3.291
 1067SOL     OW 4099   1.763   3.203   1.313
 1067SOL    HW1 4100   1.775   3.131   1.382
 1067SOL    HW2 4101   1.750   3.291   1.360
 1068SOL     OW 4102   0.744   3.462   1.869
 1068SOL    HW1 4103   0.688   3.542   1.848
 1068SOL    HW2 4104   0.716   3.424   1.957
 1069SOL     OW 4105   3.612   3.694   1.736
 1069SOL    HW1 4106   3.551   3.655   1.805
 1069SOL    HW2 4107   3.706   3.665   1.755
 1070SOL     OW 4108   2.235   0.959   6.864
 1070SOL    HW1 4109   2.248   0.915   6.953
 1070SOL    HW2 4110   2.141   0.945   6.834
 1071SOL     OW 4111   3.981   6.410   3.543
 1071SOL    HW1 4112   4.053   6.350   3.507
 1071SOL    HW2 4113   3.998   6.427   3.640
 1072SOL     OW 4114   3.921   5.608   2.914
 1072SOL    HW1 4115   3.850   5.649   2.972
 1072SOL    HW2 4116   4.011   5.624   2.955
 1073SOL     OW 4117   2.488   4.602   2.733
 1073SOL    HW1 4118   2.579   4.616   2.773
 1073SOL    HW2 4119   2.489   4.518   2.679
 1074SOL     OW 4120   1.414   5.533   2.093
 1074SOL    HW1 4121   1.346   5.569   2.158
 1074SOL    HW2 4122   1.386   5.554   2.000
 1075SOL     OW 4123   0.057   4.125   3.825
 1075SOL    HW1 4124   0.071   4.026   3.819
 1075SOL    HW2 4125   0.080   4.168   3.738
 1076SOL     OW 4126   0.409   5.032   3.570
 1076SOL    HW1 4127   0.489   5.012   3.513
 1076SOL    HW2 4128   0.330   5.052   3.512
 1077SOL     OW 4129   4.714   0.156   0.647
 1077SOL    HW1 4130   4.634   0.213   0.624
 1077SOL    HW2 4131   4.686   0.081   0.706
 1078SOL     OW 4132   0.576   1.920   1.367
 1078SOL    HW1 4133   0.537   1.836   1.329
 1078SOL    HW2 4134   0.504   1.973   1.411
 1079SOL     OW 4135   2.315   5.610   3.172
 1079SOL    HW1 4136   2.374   5.551   3.116
 1079SOL    HW2 4137   2.272   5.555   3.243
 1080SOL     OW 4138   1.853   5.047   4.543
 1080SOL    HW1 4139   1.931   5.104   4.518
 1080SOL    HW2 4140   1.784   5.103   4.589
 1081SOL     OW 4141   1.343   1.006   6.828
 1081SOL    HW1 4142   1.330   1.080   6.895
 1081SOL    HW2 4143   1.268   1.008   6.762
 1082SOL     OW 4144   2.244   7.022   6.604
 1082SOL    HW1 4145   2.178   0.035   6.668
 1082SOL    HW2 4146   2.336   0.002   6.644
 1083SOL     OW 4147   4.009   3.098   1.504
 1083SOL    HW1 4148   3.917   3.134   1.520
 1083SOL    HW2 4149   4.003   3.000   1.485
 1084SOL     OW 4150   6.402   3.746   0.778
 1084SOL    HW1 4151   6.428   3.843   0.780
 1084SOL    HW2 4152   6.358   3.722   0.864
 1085SOL     OW 4153   2.140   3.771   3.912
 1085SOL    HW1 4154   2.138   3.789   4.011
 1085SOL    HW2 4155   2.054   3.727   3.885
 1086SOL     OW 4156   4.127   5.075   1.921
 1086SOL    HW1 4157   4.030   5.066   1.899
 1086SOL    HW2 4158   4.138   5.078   2.021
 1087SOL     OW 4159   4.411   3.111   5.356
 1087SOL    HW1 4160   4.358   3.182   5.310
 1087SOL    HW2 4161   4.355   3.067   5.426
 1088SOL     OW 4162   5.148   3.737   3.243
 1088SOL    HW1 4163   5.243   3.761   3.261
 1088SOL    HW2 4164   5.129   3.746   3.146
 1089SOL     OW 4165   6.244   0.310   3.488
 1089SOL    HW1 4166   6.331   0.263   3.474
 1089SOL    HW2 4167   6.210   0.292   3.580
 1090SOL     OW 4168   0.218   2.161   5.563
 1090SOL    HW1 4169   0.296   2.117   5.518
 1090SOL    HW2 4170   0.243   2.254   5.590
 1091SOL     OW 4171   1.273   1.817   4.815
 1091SOL    HW1 4172   1.202   1.777   4.757
 1091SOL    HW2 4173   1.288   1.758   4.894
 1092SOL     OW 4174   2.176   4.675   1.197
 1092SOL    HW1 4175   2.188   4.750   1.262
 1092SOL    HW2 4176   2.231   4.597   1.225
 1093SOL     OW 4177   0.806   1.845   2.290
 1093SOL    HW1 4178   0.850   1.782   2.354
 1093SOL    HW2 4179   0.708   1.846   2.307
 1094SOL     OW 4180   0.777   6.354   1.873
 1094SOL    HW1 4181   0.682   6.374   1.851
 1094SOL    HW2 4182   0.787   6.258   1.899
 1095SOL     OW 4183   6.151   3.547   6.561
 1095SOL    HW1 4184   6.193   3.622   6.510
 1095SOL    HW2 4185   6.068   3.580   6.607
 1096SOL     OW 4186   3.516   4.222   1.725
 1096SOL    HW1 4187   3.508   4.168   1.809
 1096SOL    HW2 4188   3.427   4.260   1.700
 1097SOL     OW 4189   1.812   4.910   5.225
 1097SOL    HW1 4190   1.804   4.972   5.303
 1097SOL    HW2 4191   1.725   4.904   5.177
 1098SOL     OW 4192   4.120   1.416   2.896
 1098SOL    HW1 4193   4.056   1.365   2.838
 1098SOL    HW2 4194   4.199   1.358   2.915
 1099SOL     OW 4195   3.673   1.820   2.757
 1099SOL    HW1 4196   3.680   1.900   2.698
 1099SOL    HW2 4197   3.660   1.850   2.852
 1100SOL     OW 4198   0.878   0.427   0.398
 1100SOL    HW1 4199   0.818   0.351   0.421
 1100SOL    HW2 4200   0.974   0.396   0.403
 1101SOL     OW 4201   5.282   2.844   0.682
 1101SOL    HW1 4202   5.283   2.745   0.695
 1101SOL    HW2 4203   5.374   2.881   0.694
 1102SOL     OW 4204   0.581   5.057   3.327
 1102SOL    HW1 4205   0.659   5.008   3.287
 1102SOL    HW2 4206   0.582   5.152   3.294
 1103SOL     OW 4207   0.639   2.932   1.146
 1103SOL    HW1 4208   0.585   2.862   1.194
 1103SOL    HW2 4209   0.646   3.013   1.203
 1104SOL     OW 4210   2.767   4.833   5.730
 1104SOL    HW1 4211   2.809   4.748   5.761
 1104SOL    HW2 4212   2.761   4.833   5.630
 1105SOL     OW 4213   4.328   5.774   0.284
 1105SOL    HW1 4214   4.390   5.816   0.350
 1105SOL    HW2 4215   4.379   5.750   0.201
 1106SOL     OW 4216   0.148   2.036   6.311
 1106SOL    HW1 4217   0.110   2.076   6.228
 1106SOL    HW2 4218   0.099   1.952   6.333
 1107SOL     OW 4219   1.781   0.394   1.232
 1107SOL    HW1 4220   1.752   0.482   1.269
 1107SOL    HW2 4221   1.722   0.369   1.155
 1108SOL     OW 4222   0.843   2.099   5.744
 1108SOL    HW1 4223   0.863   2.001   5.741
 1108SOL    HW2 4224   0.918   2.147   5.790
 1109SOL     OW 4225   5.176   0.792   4.322
 1109SOL    HW1 4226   5.116   0.861   4.362
 1109SOL    HW2 4227   5.264   0.834   4.299
 1110SOL     OW 4228   3.701   3.169   2.183
 1110SOL    HW1 4229   3.672   3.083   2.227
 1110SOL    HW2 4230   3.714   3.153   2.085
 1111SOL     OW 4231   5.767   6.488   0.133
 1111SOL    HW1 4232   5.760   6.583   0.163
 1111SOL    HW2 4233   5.824   6.482   0.051
 1112SOL     OW 4234   5.935   0.708   2.518
 1112SOL    HW1 4235   5.985   0.656   2.587
 1112SOL    HW2 4236   5.998   0.768   2.470
 1113SOL     OW 4237   6.417   3.815   1.961
 1113SOL    HW1 4238   6.418   3.833   2.059
 1113SOL    HW2 4239   6.350   3.744   1.940
 1114SOL     OW 4240   5.109   1.548   4.967
 1114SOL    HW1 4241   5.026   1.561   4.912
 1114SOL    HW2 4242   5.185   1.597   4.924
 1115SOL     OW 4243   2.367   2.956   0.802
 1115SOL    HW1 4244   2.410   2.885   0.746
 1115SOL    HW2 4245   2.289   2.917   0.851
 1116SOL     OW 4246   4.507   6.105   4.805
 1116SOL    HW1 4247   4.585   6.043   4.814
 1116SOL    HW2 4248   4.481   6.113   4.709
 1117SOL     OW 4249   2.483   3.247   0.739
 1117SOL    HW1 4250   2.396   3.214   0.777
 1117SOL    HW2 4251   2.477   3.248   0.639
 1118SOL     OW 4252   2.138   3.767   3.615
 1118SOL    HW1 4253   2.190   3.812   3.543
 1118SOL    HW2 4254   2.188   3.775   3.702
 1119SOL     OW 4255   3.547   4.125   2.196
 1119SOL    HW1 4256   3.594   4.212   2.182
 1119SOL    HW2 4257   3.561   4.067   2.116
 1120SOL     OW 4258   4.516   0.499   4.058
 1120SOL    HW1 4259   4.442   0.466   4.117
 1120SOL    HW2 4260   4.562   0.576   4.103
 1121SOL     OW 4261   5.293   3.408   2.113
 1121SOL    HW1 4262   5.276   3.434   2.018
 1121SOL    HW2 4263   5.227   3.453   2.173
 1122SOL     OW 4264   4.997   4.566   6.813
 1122SOL    HW1 4265   4.971   4.477   6.774
 1122SOL    HW2 4266   4.935   4.588   6.889
 1123SOL     OW 4267   3.605   0.861   2.083
 1123SOL    HW1 4268   3.568   0.782   2.132
 1123SOL    HW2 4269   3.686   0.894   2.131
 1124SOL     OW 4270   1.045   4.266   4.745
 1124SOL    HW1 4271   1.040   4.206   4.825
 1124SOL    HW2 4272   1.128   4.323   4.751
 1125SOL     OW 4273   3.957   3.475   5.105
 1125SOL    HW1 4274   4.047   3.518   5.114
 1125SOL    HW2 4275   3.969   3.378   5.083
 1126SOL     OW 4276   5.864   6.794   2.150
 1126SOL    HW1 4277   5.944   6.852   2.164
 1126SOL    HW2 4278   5.782   6.845   2.174
 1127SOL     OW 4279   1.473   4.691   0.358
 1127SOL    HW1 4280   1.417   4.663   0.437
 1127SOL    HW2 4281   1.529   4.770   0.383
 1128SOL     OW 4282   2.888   1.890   4.594
 1128SOL    HW1 4283   2.807   1.900   4.651
 1128SOL    HW2 4284   2.870   1.823   4.521
 1129SOL     OW 4285   5.654   6.964   0.026
 1129SOL    HW1 4286   5.644   6.939   0.123
 1129SOL    HW2 4287   5.750   6.980   0.005
 1130SOL     OW 4288   0.002   4.808   5.952
 1130SOL    HW1 4289   7.003   4.904   5.965
 1130SOL    HW2 4290   0.053   4.798   5.866
 1131SOL     OW 4291   0.524   4.954   6.469
 1131SOL    HW1 4292   0.508   5.046   6.433
 1131SOL    HW2 4293   0.559   4.896   6.395
 1132SOL     OW 4294   4.712   0.116   5.640
 1132SOL    HW1 4295   4.793   0.159   5.602
 1132SOL    HW2 4296   4.730   0.086   5.733
 1133SOL     OW 4297   1.067   3.090   1.185
 1133SOL    HW1 4298   1.145   3.030   1.205
 1133SOL    HW2 4299   1.029   3.125   1.270
 1134SOL     OW 4300   5.798   3.146   5.970
 1134SOL    HW1 4301   5.811   3.105   5.880
 1134SOL    HW2 4302   5.881   3.195   5.997
 1135SOL     OW 4303   4.515   1.583   3.251
 1135SOL    HW1 4304   4.447   1.648   3.284
 1135SOL    HW2 4305   4.509   1.498   3.304
 1136SOL     OW 4306   3.724   5.119   4.301
 1136SOL    HW1 4307   3.716   5.191   4.369
 1136SOL    HW2 4308   3.781   5.150   4.225
 1137SOL     OW 4309   1.653   1.176   5.447
 1137SOL    HW1 4310   1.737   1.123   5.457
 1137SOL    HW2 4311   1.675   1.274   5.447
 1138SOL     OW 4312   0.930   4.167   5.367
 1138SOL    HW1 4313   0.879   4.221   5.301
 1138SOL    HW2 4314   0.976   4.228   5.432
 1139SOL     OW 4315   1.411   6.502   1.524
 1139SOL    HW1 4316   1.373   6.442   1.454
 1139SOL    HW2 4317   1.350   6.503   1.604
 1140SOL     OW 4318   3.295   1.816   3.810
 1140SOL    HW1 4319   3.313   1.791   3.905
 1140SOL    HW2 4320   3.375   1.793   3.754
 1141SOL     OW 4321   6.670   5.621   5.642
 1141SOL    HW1 4322   6.721   5.561   5.703
 1141SOL    HW2 4323   6.618   5.688   5.696
 1142SOL     OW 4324   6.220   1.034   3.696
 1142SOL    HW1 4325   6.147   1.068   3.755
 1142SOL    HW2 4326   6.221   1.087   3.611
 1143SOL     OW 4327   4.527   1.929   2.935
 1143SOL    HW1 4328   4.475   1.880   2.866
 1143SOL    HW2 4329   4.610   1.879   2.957
 1144SOL     OW 4330   0.190   6.245   4.996
 1144SOL    HW1 4331   0.122   6.264   5.067
 1144SOL    HW2 4332   0.169   6.157   4.952
 1145SOL     OW 4333   0.720   5.313   5.150
 1145SOL    HW1 4334   0.725   5.227   5.100
 1145SOL    HW2 4335   0.744   5.297   5.246
 1146SOL     OW 4336   5.522   2.250   0.800
 1146SOL    HW1 4337   5.562   2.330   0.755
 1146SOL    HW2 4338   5.567   2.167   0.766
 1147SOL     OW 4339   6.170   2.476   1.623
 1147SOL    HW1 4340   6.268   2.485   1.610
 1147SOL    HW2 4341   6.133   2.410   1.558
 1148SOL     OW 4342   3.535   0.298   0.670
 1148SOL    HW1 4343   3.461   0.333   0.727
 1148SOL    HW2 4344   3.610   0.364   0.671
 1149SOL     OW 4345   6.701   3.485   2.561
 1149SOL    HW1 4346   6.671   3.537   2.640
 1149SOL    HW2 4347   6.710   3.545   2.482
 1150SOL     OW 4348   1.356   4.738   6.421
 1150SOL    HW1 4349   1.434   4.732   6.360
 1150SOL    HW2 4350   1.302   4.820   6.399
 1151SOL     OW 4351   4.852   5.516   0.062
 1151SOL    HW1 4352   4.923   5.582   0.083
 1151SOL    HW2 4353   4.876   5.466   7.004
 1152SOL     OW 4354   0.202   0.611   4.613
 1152SOL    HW1 4355   0.117   0.661   4.600
 1152SOL    HW2 4356   0.227   0.611   4.710
 1153SOL     OW 4357   2.469   5.285   2.548
 1153SOL    HW1 4358   2.501   5.330   2.631
 1153SOL    HW2 4359   2.497   5.340   2.468
 1154SOL     OW 4360   1.636   4.869   1.608
 1154SOL    HW1 4361   1.606   4.957   1.643
 1154SOL    HW2 4362   1.734   4.872   1.590
 1155SOL     OW 4363   3.541   5.795   2.234
 1155SOL    HW1 4364   3.445   5.819   2.248
 1155SOL    HW2 4365   3.581   5.767   2.322
 1156SOL     OW 4366   2.031   0.850   4.169
 1156SOL    HW1 4367   1.983   0.764   4.189
 1156SOL    HW2 4368   1.977   0.927   4.203
 1157SOL     OW 4369   1.193   2.627   4.243
 1157SOL    HW1 4370   1.270   2.672   4.198
 1157SOL    HW2 4371   1.202   2.636   4.342
 1158SOL     OW 4372   4.356   5.429   5.238
 1158SOL    HW1 4373   4.438   5.384   5.273
 1158SOL    HW2 4374   4.380   5.484   5.158
 1159SOL     OW 4375   4.916   4.939   3.108
 1159SOL    HW1 4376   4.861   5.008   3.154
 1159SOL    HW2 4377   5.001   4.925   3.160
 1160SOL     OW 4378   3.014   3.431   0.459
 1160SOL    HW1 4379   3.049   3.376   0.535
 1160SOL    HW2 4380   3.080   3.430   0.384
 1161SOL     OW 4381   4.272   0.158   3.876
 1161SOL    HW1 4382   4.346   0.103   3.915
 1161SOL    HW2 4383   4.253   0.235   3.937
 1162SOL     OW 4384   3.621   4.510   1.643
 1162SOL    HW1 4385   3.611   4.412   1.662
 1162SOL    HW2 4386   3.581   4.563   1.718
 1163SOL     OW 4387   4.968   2.727   2.626
 1163SOL    HW1 4388   4.955   2.819   2.661
 1163SOL    HW2 4389   4.949   2.660   2.698
 1164SOL     OW 4390   6.029   3.314   3.530
 1164SOL    HW1 4391   6.062   3.386   3.469
 1164SOL    HW2 4392   5.947   3.272   3.491
 1165SOL     OW 4393   1.473   4.815   2.271
 1165SOL    HW1 4394   1.401   4.768   2.219
 1165SOL    HW2 4395   1.454   4.913   2.271
 1166SOL     OW 4396   3.578   3.283   6.460
 1166SOL    HW1 4397   3.512   3.263   6.388
 1166SOL    HW2 4398   3.613   3.197   6.497
 1167SOL     OW 4399   4.828   1.595   4.912
 1167SOL    HW1 4400   4.761   1.527   4.940
 1167SOL    HW2 4401   4.809   1.681   4.958
 1168SOL     OW 4402   6.163   5.962   3.892
 1168SOL    HW1 4403   6.129   5.961   3.986
 1168SOL    HW2 4404   6.246   5.908   3.885
 1169SOL     OW 4405   1.226   3.741   1.867
 1169SOL    HW1 4406   1.186   3.774   1.782
 1169SOL    HW2 4407   1.264   3.819   1.918
 1170SOL     OW 4408   3.210   0.552   1.100
 1170SOL    HW1 4409   3.199   0.637   1.047
 1170SOL    HW2 4410   3.226   0.476   1.037
 1171SOL     OW 4411   1.815   6.607   0.552
 1171SOL    HW1 4412   1.812   6.706   0.540
 1171SOL    HW2 4413   1.909   6.575   0.540
 1172SOL     OW 4414   3.273   3.597   5.066
 1172SOL    HW1 4415   3.175   3.611   5.082
 1172SOL    HW2 4416   3.300   3.642   4.980
 1173SOL     OW 4417   4.534   1.128   6.288
 1173SOL    HW1 4418   4.505   1.054   6.227
 1173SOL    HW2 4419   4.624   1.161   6.260
 1174SOL     OW 4420   3.236   6.033   1.115
 1174SOL    HW1 4421   3.237   6.105   1.046
 1174SOL    HW2 4422   3.329   6.006   1.138
 1175SOL     OW 4423   5.916   4.752   5.650
 1175SOL    HW1 4424   5.951   4.665   5.685
 1175SOL    HW2 4425   5.850   4.735   5.577
 1176SOL     OW 4426   6.164   4.009   0.868
 1176SOL    HW1 4427   6.165   4.062   0.783
 1176SOL    HW2 4428   6.246   4.030   0.921
 1177SOL     OW 4429   6.266   2.734   6.899
 1177SOL    HW1 4430   6.237   2.772   6.987
 1177SOL    HW2 4431   6.241   2.798   6.826
 1178SOL     OW 4432   5.431   4.269   2.041
 1178SOL    HW1 4433   5.409   4.326   2.120
 1178SOL    HW2 4434   5.514   4.303   1.998
 1179SOL     OW 4435   2.639   6.157   6.497
 1179SOL    HW1 4436   2.641   6.130   6.593
 1179SOL    HW2 4437   2.702   6.232   6.482
 1180SOL     OW 4438   2.483   1.721   4.090
 1180SOL    HW1 4439   2.520   1.807   4.126
 1180SOL    HW2 4440   2.557   1.655   4.079
 1181SOL     OW 4441   2.230   4.347   2.730
 1181SOL    HW1 4442   2.220   4.248   2.718
 1181SOL    HW2 4443   2.307   4.380   2.675
 1182SOL     OW 4444   1.425   4.096   2.813
 1182SOL    HW1 4445   1.401   3.999   2.817
 1182SOL    HW2 4446   1.421   4.127   2.718
 1183SOL     OW 4447   4.653   5.821   1.312
 1183SOL    HW1 4448   4.578   5.847   1.372
 1183SOL    HW2 4449   4.616   5.792   1.223
 1184SOL     OW 4450   3.006   3.268   5.184
 1184SOL    HW1 4451   2.952   3.212   5.248
 1184SOL    HW2 4452   3.085   3.215   5.153
 1185SOL     OW 4453   1.932   1.758   6.803
 1185SOL    HW1 4454   2.028   1.740   6.825
 1185SOL    HW2 4455   1.912   1.726   6.711
 1186SOL     OW 4456   4.096   1.424   5.235
 1186SOL    HW1 4457   3.996   1.414   5.238
 1186SOL    HW2 4458   4.134   1.357   5.171
 1187SOL     OW 4459   6.769   0.960   5.172
 1187SOL    HW1 4460   6.699   0.939   5.105
 1187SOL    HW2 4461   6.755   1.053   5.207
 1188SOL     OW 4462   1.085   0.159   5.485
 1188SOL    HW1 4463   1.051   0.167   5.391
 1188SOL    HW2 4464   1.012   0.122   5.543
 1189SOL     OW 4465   6.534   0.810   1.786
 1189SOL    HW1 4466   6.595   0.832   1.710
 1189SOL    HW2 4467   6.586   0.807   1.871
 1190SOL     OW 4468   4.230   4.728   2.989
 1190SOL    HW1 4469   4.187   4.709   3.077
 1190SOL    HW2 4470   4.300   4.799   3.000
 1191SOL     OW 4471   3.437   5.011   6.688
 1191SOL    HW1 4472   3.519   4.980   6.641
 1191SOL    HW2 4473   3.382   5.069   6.627
 1192SOL     OW 4474   4.585   5.047   2.127
 1192SOL    HW1 4475   4.571   4.948   2.115
 1192SOL    HW2 4476   4.497   5.090   2.147
 1193SOL     OW 4477   4.270   7.014   3.649
 1193SOL    HW1 4478   4.254   0.059   3.718
 1193SOL    HW2 4479   4.348   6.958   3.675
 1194SOL     OW 4480   6.051   0.172   0.895
 1194SOL    HW1 4481   6.113   0.235   0.942
 1194SOL    HW2 4482   6.001   0.118   0.963
 1195SOL     OW 4483   3.981   0.456   6.321
 1195SOL    HW1 4484   3.886   0.459   6.289
 1195SOL    HW2 4485   4.030   0.537   6.288
 1196SOL     OW 4486   7.003   5.378   2.313
 1196SOL    HW1 4487   0.053   5.360   2.375
 1196SOL    HW2 4488   6.917   5.373   2.364
 1197SOL     OW 4489   2.886   4.920   5.986
 1197SOL    HW1 4490   2.983   4.939   5.971
 1197SOL    HW2 4491   2.861   4.836   5.938
 1198SOL     OW 4492   3.066   1.695   2.825
 1198SOL    HW1 4493   2.992   1.629   2.838
 1198SOL    HW2 4494   3.030   1.788   2.833
 1199SOL     OW 4495   3.840   3.976   3.146
 1199SOL    HW1 4496   3.933   3.942   3.137
 1199SOL    HW2 4497   3.796   3.976   3.056
 1200SOL     OW 4498   3.636   4.504   0.344
 1200SOL    HW1 4499   3.562   4.452   0.301
 1200SOL    HW2 4500   3.599   4.586   0.387
 1201SOL     OW 4501   1.472   0.863   4.822
 1201SOL    HW1 4502   1.392   0.835   4.875
 1201SOL    HW2 4503   1.488   0.961   4.834
 1202SOL     OW 4504   5.939   0.081   4.978
 1202SOL    HW1 4505   6.007   0.154   4.967
 1202SOL    HW2 4506   5.984   7.023   5.008
 1203SOL     OW 4507   5.872   0.010   1.939
 1203SOL    HW1 4508   5.963   0.022   1.979
 1203SOL    HW2 4509   5.843   6.940   1.951
 1204SOL     OW 4510   3.230   0.423   0.547
 1204SOL    HW1 4511   3.270   0.388   0.462
 1204SOL    HW2 4512   3.232   0.352   0.616
 1205SOL     OW 4513   0.355   2.616   5.163
 1205SOL    HW1 4514   0.323   2.529   5.124
 1205SOL    HW2 4515   0.444   2.639   5.125
 1206SOL     OW 4516   1.084   1.576   4.742
 1206SOL    HW1 4517   1.154   1.555   4.674
 1206SOL    HW2 4518   1.032   1.655   4.712
 1207SOL     OW 4519   5.449   6.195   0.136
 1207SOL    HW1 4520   5.521   6.182   0.205
 1207SOL    HW2 4521   5.481   6.259   0.066
 1208SOL     OW 4522   4.048   3.690   3.963
 1208SOL    HW1 4523   4.006   3.772   4.001
 1208SOL    HW2 4524   4.060   3.701   3.864
 1209SOL     OW 4525   6.201   5.061   4.388
 1209SOL    HW1 4526   6.243   5.144   4.426
 1209SOL    HW2 4527   6.205   4.988   4.455
 1210SOL     OW 4528   3.084   6.977   2.541
 1210SOL    HW1 4529   3.012   0.020   2.538
 1210SOL    HW2 4530   3.170   7.018   2.510
 1211SOL     OW 4531   1.426   3.790   4.780
 1211SOL    HW1 4532   1.352   3.796   4.713
 1211SOL    HW2 4533   1.405   3.849   4.858
 1212SOL     OW 4534   2.179   3.916   4.562
 1212SOL    HW1 4535   2.191   4.015   4.567
 1212SOL    HW2 4536   2.111   3.894   4.493
 1213SOL     OW 4537   5.900   2.804   5.685
 1213SOL    HW1 4538   5.817   2.828   5.736
 1213SOL    HW2 4539   5.942   2.724   5.728
 1214SOL     OW 4540   2.262   2.606   3.348
 1214SOL    HW1 4541   2.171   2.645   3.361
 1214SOL    HW2 4542   2.289   2.614   3.252
 1215SOL     OW 4543   0.785   4.884   1.506
 1215SOL    HW1 4544   0.808   4.981   1.491
 1215SOL    HW2 4545   0.869   4.831   1.516
 1216SOL     OW 4546   2.972   0.068   1.883
 1216SOL    HW1 4547   2.875   0.059   1.903
 1216SOL    HW2 4548   3.002   0.162   1.903
 1217SOL     OW 4549   1.302   1.079   2.736
 1217SOL    HW1 4550   1.376   1.013   2.724
 1217SOL    HW2 4551   1.322   1.138   2.814
 1218SOL     OW 4552   0.625   3.293   4.044
 1218SOL    HW1 4553   0.541   3.341   4.068
 1218SOL    HW2 4554   0.637   3.293   3.945
 1219SOL     OW 4555   2.874   6.018   2.625
 1219SOL    HW1 4556   2.783   6.011   2.583
 1219SOL    HW2 4557   2.864   6.040   2.722
 1220SOL     OW 4558   6.517   3.621   2.988
 1220SOL    HW1 4559   6.547   3.631   3.082
 1220SOL    HW2 4560   6.457   3.697   2.963
 1221SOL     OW 4561   4.869   3.027   6.895
 1221SOL    HW1 4562   4.785   3.008   6.844
 1221SOL    HW2 4563   4.849   3.092   6.968
 1222SOL     OW 4564   6.481   6.278   1.412
 1222SOL    HW1 4565   6.385   6.248   1.411
 1222SOL    HW2 4566   6.537   6.207   1.455
 1223SOL     OW 4567   6.297   6.089   5.238
 1223SOL    HW1 4568   6.262   6.182   5.243
 1223SOL    HW2 4569   6.292   6.056   5.143
 1224SOL     OW 4570   5.604   5.001   2.080
 1224SOL    HW1 4571   5.622   4.933   2.009
 1224SOL    HW2 4572   5.600   5.092   2.039
 1225SOL     OW 4573   5.005   1.622   6.992
 1225SOL    HW1 4574   4.943   1.572   6.931
 1225SOL    HW2 4575   5.084   1.564   7.014
 1226SOL     OW 4576   5.178   4.558   0.333
 1226SOL    HW1 4577   5.248   4.630   0.327
 1226SOL    HW2 4578   5.097   4.586   0.282
 1227SOL     OW 4579   4.999   4.322   6.667
 1227SOL    HW1 4580   5.076   4.289   6.722
 1227SOL    HW2 4581   4.915   4.275   6.695
 1228SOL     OW 4582   3.949   3.118   3.586
 1228SOL    HW1 4583   3.854   3.104   3.616
 1228SOL    HW2 4584   4.011   3.087   3.658
 1229SOL     OW 4585   1.996   5.433   3.091
 1229SOL    HW1 4586   1.930   5.493   3.137
 1229SOL    HW2 4587   2.020   5.472   3.002
 1230SOL     OW 4588   5.506   4.501   1.449
 1230SOL    HW1 4589   5.564   4.582   1.449
 1230SOL    HW2 4590   5.539   4.436   1.517
 1231SOL     OW 4591   1.931   2.039   6.804
 1231SOL    HW1 4592   2.020   1.999   6.782
 1231SOL    HW2 4593   1.864   1.966   6.817
 1232SOL     OW 4594   2.691   0.850   5.433
 1232SOL    HW1 4595   2.778   0.837   5.386
 1232SOL    HW2 4596   2.651   0.762   5.455
 1233SOL     OW 4597   0.728   5.637   5.388
 1233SOL    HW1 4598   0.636   5.676   5.380
 1233SOL    HW2 4599   0.783   5.665   5.309
 1234SOL     OW 4600   7.002   3.348   0.449
 1234SOL    HW1 4601   0.008   3.256   0.470
 1234SOL    HW2 4602   0.045   3.395   0.394
 1235SOL     OW 4603   6.063   4.775   1.446
 1235SOL    HW1 4604   6.143   4.822   1.407
 1235SOL    HW2 4605   5.991   4.841   1.463
 1236SOL     OW 4606   1.643   1.389   2.600
 1236SOL    HW1 4607   1.702   1.445   2.541
 1236SOL    HW2 4608   1.582   1.334   2.543
 1237SOL     OW 4609   0.399   6.783   4.997
 1237SOL    HW1 4610   0.378   6.864   5.052
 1237SOL    HW2 4611   0.418   6.705   5.057
 1238SOL     OW 4612   0.381   0.438   4.400
 1238SOL    HW1 4613   0.374   0.464   4.496
 1238SOL    HW2 4614   0.468   0.390   4.384
 1239SOL     OW 4615   5.495   5.199   4.808
 1239SOL    HW1 4616   5.428   5.227   4.740
 1239SOL    HW2 4617   5.461   5.120   4.859
 1240SOL     OW 4618   0.117   4.044   2.409
 1240SOL    HW1 4619   0.145   4.126   2.460
 1240SOL    HW2 4620   0.172   4.037   2.326
 1241SOL     OW 4621   4.547   4.930   4.987
 1241SOL    HW1 4622   4.605   4.886   5.056
 1241SOL    HW2 4623   4.457   4.886   4.987
 1242SOL     OW 4624   1.532   5.002   0.455
 1242SOL    HW1 4625   1.574   4.929   0.509
 1242SOL    HW2 4626   1.478   5.061   0.515
 1243SOL     OW 4627   1.266   4.289   4.969
 1243SOL    HW1 4628   1.328   4.244   4.905
 1243SOL    HW2 4629   1.267   4.241   5.057
 1244SOL     OW 4630   5.808   0.169   5.478
 1244SOL    HW1 4631   5.865   0.118   5.543
 1244SOL    HW2 4632   5.866   0.210   5.408
 1245SOL     OW 4633   4.897   6.633   0.955
 1245SOL    HW1 4634   4.883   6.650   0.857
 1245SOL    HW2 4635   4.815   6.589   0.992
 1246SOL     OW 4636   4.804   0.604   0.524
 1246SOL    HW1 4637   4.880   0.628   0.585
 1246SOL    HW2 4638   4.840   0.553   0.446
 1247SOL     OW 4639   6.645   0.135   3.032
 1247SOL    HW1 4640   6.704   0.078   3.088
 1247SOL    HW2 4641   6.549   0.117   3.055
 1248SOL     OW 4642   1.505   6.542   4.436
 1248SOL    HW1 4643   1.532   6.451   4.467
 1248SOL    HW2 4644   1.549   6.563   4.349
 1249SOL     OW 4645   5.568   5.757   0.127
 1249SOL    HW1 4646   5.540   5.668   0.163
 1249SOL    HW2 4647   5.491   5.821   0.133
 1250SOL     OW 4648   6.769   3.239   5.123
 1250SOL    HW1 4649   6.682   3.288   5.119
 1250SOL    HW2 4650   6.816   3.262   5.208
 1251SOL     OW 4651   2.787   0.778   2.370
 1251SOL    HW1 4652   2.852   0.850   2.397
 1251SOL    HW2 4653   2.696   0.818   2.358
 1252SOL     OW 4654   2.044   6.318   6.649
 1252SOL    HW1 4655   2.089   6.383   6.710
 1252SOL    HW2 4656   2.021   6.235   6.700
 1253SOL     OW 4657   2.950   0.370   0.476
 1253SOL    HW1 4658   2.913   0.317   0.553
 1253SOL    HW2 4659   3.043   0.399   0.497
 1254SOL     OW 4660   5.858   0.331   2.734
 1254SOL    HW1 4661   5.787   0.294   2.793
 1254SOL    HW2 4662   5.947   0.294   2.761
 1255SOL     OW 4663   5.612   1.766   5.522
 1255SOL    HW1 4664   5.513   1.772   5.509
 1255SOL    HW2 4665   5.658   1.822   5.453
 1256SOL     OW 4666   0.989   5.214   4.344
 1256SOL    HW1 4667   1.039   5.182   4.425
 1256SOL    HW2 4668   1.049   5.206   4.264
 1257SOL     OW 4669   0.762   6.560   3.868
 1257SOL    HW1 4670   0.843   6.604   3.908
 1257SOL    HW2 4671   0.783   6.464   3.848
 1258SOL     OW 4672   4.282   6.387   5.366
 1258SOL    HW1 4673   4.281   6.436   5.453
 1258SOL    HW2 4674   4.346   6.310   5.371
 1259SOL     OW 4675   5.781   0.203   4.621
 1259SOL    HW1 4676   5.827   0.283   4.659
 1259SOL    HW2 4677   5.683   0.220   4.615
 1260SOL     OW 4678   2.967   1.339   1.371
 1260SOL    HW1 4679   3.031   1.386   1.432
 1260SOL    HW2 4680   2.875   1.374   1.385
 1261SOL     OW 4681   6.284   4.431   6.081
 1261SOL    HW1 4682   6.206   4.369   6.076
 1261SOL    HW2 4683   6.300   4.472   5.991
 1262SOL     OW 4684   4.185   4.901   0.797
 1262SOL    HW1 4685   4.142   4.890   0.886
 1262SOL    HW2 4686   4.143   4.838   0.731
 1263SOL     OW 4687   6.629   1.889   1.512
 1263SOL    HW1 4688   6.576   1.826   1.569
 1263SOL    HW2 4689   6.662   1.965   1.569
 1264SOL     OW 4690   0.196   3.278   3.909
 1264SOL    HW1 4691   0.106   3.244   3.883
 1264SOL    HW2 4692   0.267   3.219   3.870
 1265SOL     OW 4693   7.025   5.386   4.767
 1265SOL    HW1 4694   0.076   5.336   4.806
 1265SOL    HW2 4695   6.973   5.430   4.840
 1266SOL     OW 4696   1.930   1.674   4.539
 1266SOL    HW1 4697   2.022   1.687   4.503
 1266SOL    HW2 4698   1.933   1.673   4.639
 1267SOL     OW 4699   7.019   4.604   2.525
 1267SOL    HW1 4700   6.966   4.531   2.482
 1267SOL    HW2 4701   6.965   4.646   2.598
 1268SOL     OW 4702   6.839   3.312   0.220
 1268SOL    HW1 4703   6.938   3.321   0.231
 1268SOL    HW2 4704   6.795   3.327   0.309
 1269SOL     OW 4705   0.149   5.439   6.066
 1269SOL    HW1 4706   0.114   5.529   6.041
 1269SOL    HW2 4707   0.245   5.447   6.094
 1270SOL     OW 4708   1.692   3.081   4.690
 1270SOL    HW1 4709   1.607   3.108   4.735
 1270SOL    HW2 4710   1.716   2.988   4.716
 1271SOL     OW 4711   4.948   1.696   2.799
 1271SOL    HW1 4712   4.913   1.612   2.757
 1271SOL    HW2 4713   4.917   1.775   2.747
 1272SOL     OW 4714   0.662   6.211   1.600
 1272SOL    HW1 4715   0.627   6.137   1.658
 1272SOL    HW2 4716   0.714   6.171   1.524
 1273SOL     OW 4717   2.907   6.685   6.176
 1273SOL    HW1 4718   2.947   6.664   6.265
 1273SOL    HW2 4719   2.856   6.771   6.181
 1274SOL     OW 4720   6.591   2.792   1.854
 1274SOL    HW1 4721   6.525   2.772   1.782
 1274SOL    HW2 4722   6.573   2.883   1.892
 1275SOL     OW 4723   3.661   1.809   4.219
 1275SOL    HW1 4724   3.633   1.855   4.135
 1275SOL    HW2 4725   3.585   1.754   4.254
 1276SOL     OW 4726   6.186   0.273   3.759
 1276SOL    HW1 4727   6.254   0.244   3.826
 1276SOL    HW2 4728   6.095   0.248   3.790
 1277SOL     OW 4729   0.359   0.891   5.202
 1277SOL    HW1 4730   0.358   0.984   5.165
 1277SOL    HW2 4731   0.448   0.873   5.244
 1278SOL     OW 4732   2.073   1.842   5.704
 1278SOL    HW1 4733   2.119   1.883   5.782
 1278SOL    HW2 4734   2.134   1.777   5.659
 1279SOL     OW 4735   2.458   5.441   6.384
 1279SOL    HW1 4736   2.462   5.533   6.346
 1279SOL    HW2 4737   2.493   5.376   6.316
 1280SOL     OW 4738   1.902   6.861   3.229
 1280SOL    HW1 4739   1.989   6.867   3.277
 1280SOL    HW2 4740   1.840   6.801   3.278
 1281SOL     OW 4741   1.049   6.519   3.706
 1281SOL    HW1 4742   1.064   6.585   3.780
 1281SOL    HW2 4743   1.124   6.452   3.706
 1282SOL     OW 4744   1.062   0.412   2.029
 1282SOL    HW1 4745   1.073   0.406   2.128
 1282SOL    HW2 4746   1.038   0.505   2.003
 1283SOL     OW 4747   5.580   5.559   6.585
 1283SOL    HW1 4748   5.593   5.472   6.537
 1283SOL    HW2 4749   5.592   5.546   6.683
 1284SOL     OW 4750   2.772   2.128   1.902
 1284SOL    HW1 4751   2.679   2.143   1.934
 1284SOL    HW2 4752   2.830   2.205   1.929
 1285SOL     OW 4753   4.917   2.395   5.572
 1285SOL    HW1 4754   4.879   2.483   5.597
 1285SOL    HW2 4755   5.017   2.402   5.563
 1286SOL     OW 4756   6.313   5.106   1.449
 1286SOL    HW1 4757   6.352   5.196   1.427
 1286SOL    HW2 4758   6.216   5.116   1.468
 1287SOL     OW 4759   6.889   4.859   6.377
 1287SOL    HW1 4760   6.969   4.829   6.324
 1287SOL    HW2 4761   6.846   4.936   6.329
 1288SOL     OW 4762   6.245   3.241   2.216
 1288SOL    HW1 4763   6.151   3.259   2.188
 1288SOL    HW2 4764   6.246   3.164   2.280
 1289SOL     OW 4765   0.151   6.432   2.725
 1289SOL    HW1 4766   0.072   6.458   2.780
 1289SOL    HW2 4767   0.138   6.338   2.691
 1290SOL     OW 4768   0.631   6.460   1.480
 1290SOL    HW1 4769   0.650   6.392   1.552
 1290SOL    HW2 4770   0.616   6.549   1.521
 1291SOL     OW 4771   2.351   6.045   0.333
 1291SOL    HW1 4772   2.355   6.058   0.432
 1291SOL    HW2 4773   2.299   5.962   0.313
 1292SOL     OW 4774   0.908   5.778   0.724
 1292SOL    HW1 4775   0.837   5.765   0.655
 1292SOL    HW2 4776   0.933   5.875   0.728
 1293SOL     OW 4777   0.103   2.009   5.774
 1293SOL    HW1 4778   0.159   2.051   5.702
 1293SOL    HW2 4779   0.103   2.067   5.855
 1294SOL     OW 4780   0.811   2.117   2.352
 1294SOL    HW1 4781   0.822   2.035   2.297
 1294SOL    HW2 4782   0.776   2.092   2.443
 1295SOL     OW 4783   6.374   3.369   1.425
 1295SOL    HW1 4784   6.310   3.384   1.350
 1295SOL    HW2 4785   6.454   3.428   1.413
 1296SOL     OW 4786   4.139   2.146   6.024
 1296SOL    HW1 4787   4.120   2.165   6.120
 1296SOL    HW2 4788   4.156   2.232   5.975
 1297SOL     OW 4789   6.236   1.179   6.031
 1297SOL    HW1 4790   6.332   1.157   6.050
 1297SOL    HW2 4791   6.223   1.278   6.035
 1298SOL     OW 4792   5.178   3.112   3.167
 1298SOL    HW1 4793   5.195   3.194   3.221
 1298SOL    HW2 4794   5.176   3.137   3.070
 1299SOL     OW 4795   0.982   4.154   4.129
 1299SOL    HW1 4796   1.078   4.136   4.112
 1299SOL    HW2 4797   0.932   4.067   4.133
 1300SOL     OW 4798   3.088   3.437   1.465
 1300SOL    HW1 4799   3.042   3.351   1.441
 1300SOL    HW2 4800   3.131   3.475   1.383
 1301SOL     OW 4801   0.712   0.248   3.295
 1301SOL    HW1 4802   0.756   0.257   3.206
 1301SOL    HW2 4803   0.742   0.163   3.339
 1302SOL     OW 4804   2.873   6.096   4.583
 1302SOL    HW1 4805   2.806   6.089   4.657
 1302SOL    HW2 4806   2.926   6.011   4.578
 1303SOL     OW 4807   4.041   1.806   1.375
 1303SOL    HW1 4808   4.009   1.804   1.470
 1303SOL    HW2 4809   4.056   1.900   1.346
 1304SOL     OW 4810   2.523   0.848   6.979
 1304SOL    HW1 4811   2.539   0.943   6.951
 1304SOL    HW2 4812   2.480   0.798   6.904
 1305SOL     OW 4813   4.544   6.575   5.011
 1305SOL    HW1 4814   4.595   6.551   5.094
 1305SOL    HW2 4815   4.446   6.575   5.032
 1306SOL     OW 4816   1.049   4.525   4.430
 1306SOL    HW1 4817   1.119   4.455   4.441
 1306SOL    HW2 4818   0.959   4.484   4.443
 1307SOL     OW 4819   1.362   2.398   4.524
 1307SOL    HW1 4820   1.413   2.404   4.438
 1307SOL    HW2 4821   1.411   2.339   4.588
 1308SOL     OW 4822   5.255   5.795   3.099
 1308SOL    HW1 4823   5.228   5.782   3.004
 1308SOL    HW2 4824   5.318   5.873   3.105
 1309SOL     OW 4825   5.658   2.807   4.442
 1309SOL    HW1 4826   5.669   2.903   4.465
 1309SOL    HW2 4827   5.585   2.767   4.498
 1310SOL     OW 4828   4.981   3.589   5.218
 1310SOL    HW1 4829   4.993   3.491   5.200
 1310SOL    HW2 4830   4.904   3.623   5.164
 1311SOL     OW 4831   6.054   5.853   5.207
 1311SOL    HW1 4832   6.038   5.770   5.260
 1311SOL    HW2 4833   6.081   5.927   5.268
 1312SOL     OW 4834   0.788   6.563   0.593
 1312SOL    HW1 4835   0.888   6.568   0.593
 1312SOL    HW2 4836   0.757   6.519   0.509
 1313SOL     OW 4837   3.459   5.306   5.083
 1313SOL    HW1 4838   3.494   5.229   5.030
 1313SOL    HW2 4839   3.362   5.292   5.103
 1314SOL     OW 4840   6.967   1.368   4.798
 1314SOL    HW1 4841   6.899   1.303   4.834
 1314SOL    HW2 4842   6.938   1.400   4.708
 1315SOL     OW 4843   2.090   1.411   2.433
 1315SOL    HW1 4844   2.172   1.388   2.487
 1315SOL    HW2 4845   2.115   1.420   2.337
 1316SOL     OW 4846   2.989   6.723   2.630
 1316SOL    HW1 4847   2.927   6.733   2.707
 1316SOL    HW2 4848   3.020   6.814   2.599
 1317SOL     OW 4849   0.035   5.846   4.025
 1317SOL    HW1 4850   0.121   5.890   4.051
 1317SOL    HW2 4851   7.005   5.909   3.970
 1318SOL     OW 4852   6.862   6.414   0.782
 1318SOL    HW1 4853   6.916   6.487   0.742
 1318SOL    HW2 4854   6.922   6.350   0.831
 1319SOL     OW 4855   6.415   0.835   6.649
 1319SOL    HW1 4856   6.320   0.853   6.674
 1319SOL    HW2 4857   6.434   0.876   6.559
 1320SOL     OW 4858   5.197   5.424   6.870
 1320SOL    HW1 4859   5.185   5.352   6.938
 1320SOL    HW2 4860   5.107   5.455   6.838
 1321SOL     OW 4861   3.747   2.625   6.788
 1321SOL    HW1 4862   3.831   2.661   6.746
 1321SOL    HW2 4863   3.756   2.626   6.887
 1322SOL     OW 4864   6.310   1.641   4.748
 1322SOL    HW1 4865   6.372   1.660   4.672
 1322SOL    HW2 4866   6.222   1.610   4.711
 1323SOL     OW 4867   6.585   1.615   4.918
 1323SOL    HW1 4868   6.581   1.712   4.942
 1323SOL    HW2 4869   6.492   1.580   4.906
 1324SOL     OW 4870   1.914   3.565   1.011
 1324SOL    HW1 4871   2.008   3.589   1.035
 1324SOL    HW2 4872   1.893   3.473   1.045
 1325SOL     OW 4873   2.969   5.922   2.405
 1325SOL    HW1 4874   3.048   5.978   2.379
 1325SOL    HW2 4875   2.938   5.950   2.496
 1326SOL     OW 4876   5.119   3.360   4.218
 1326SOL    HW1 4877   5.036   3.406   4.185
 1326SOL    HW2 4878   5.158   3.305   4.145
 1327SOL     OW 4879   3.696   5.233   3.005
 1327SOL    HW1 4880   3.670   5.236   3.102
 1327SOL    HW2 4881   3.644   5.302   2.954
 1328SOL     OW 4882   1.611   2.842   6.566
 1328SOL    HW1 4883   1.571   2.759   6.607
 1328SOL    HW2 4884   1.683   2.877   6.627
 1329SOL     OW 4885   0.554   0.307   0.693
 1329SOL    HW1 4886   0.472   0.249   0.703
 1329SOL    HW2 4887   0.536   0.378   0.625
 1330SOL     OW 4888   5.644   6.310   1.131
 1330SOL    HW1 4889   5.670   6.286   1.038
 1330SOL    HW2 4890   5.633   6.227   1.185
 1331SOL     OW 4891   5.603   0.543   2.010
 1331SOL    HW1 4892   5.572   0.458   1.967
 1331SOL    HW2 4893   5.529   0.580   2.066
 1332SOL     OW 4894   4.579   1.408   1.554
 1332SOL    HW1 4895   4.673   1.408   1.586
 1332SOL    HW2 4896   4.530   1.487   1.591
 1333SOL     OW 4897   3.789   4.279   5.291
 1333SOL    HW1 4898   3.876   4.327   5.300
 1333SOL    HW2 4899   3.720   4.324   5.348
 1334SOL     OW 4900   0.113   3.959   4.599
 1334SOL    HW1 4901   0.031   4.002   4.636
 1334SOL    HW2 4902   0.189   3.974   4.662
 1335SOL     OW 4903   2.605   4.879   3.150
 1335SOL    HW1 4904   2.612   4.828   3.064
 1335SOL    HW2 4905   2.653   4.828   3.223
 1336SOL     OW 4906   0.212   0.696   4.870
 1336SOL    HW1 4907   0.188   0.652   4.957
 1336SOL    HW2 4908   0.196   0.794   4.877
 1337SOL     OW 4909   2.116   1.843   6.205
 1337SOL    HW1 4910   2.050   1.879   6.271
 1337SOL    HW2 4911   2.193   1.907   6.197
 1338SOL     OW 4912   3.954   5.269   0.726
 1338SOL    HW1 4913   3.953   5.172   0.751
 1338SOL    HW2 4914   3.997   5.280   0.637
 1339SOL     OW 4915   6.914   4.346   5.554
 1339SOL    HW1 4916   6.831   4.291   5.555
 1339SOL    HW2 4917   6.899   4.429   5.608
 1340SOL     OW 4918   1.482   2.181   6.497
 1340SOL    HW1 4919   1.414   2.249   6.524
 1340SOL    HW2 4920   1.550   2.171   6.570
 1341SOL     OW 4921   4.064   1.129   3.449
 1341SOL    HW1 4922   4.014   1.163   3.369
 1341SOL    HW2 4923   4.003   1.077   3.508
 1342SOL     OW 4924   0.281   6.505   0.965
 1342SOL    HW1 4925   0.182   6.503   0.951
 1342SOL    HW2 4926   0.314   6.411   0.977
 1343SOL     OW 4927   4.230   5.189   3.368
 1343SOL    HW1 4928   4.233   5.119   3.297
 1343SOL    HW2 4929   4.138   5.227   3.374
 1344SOL     OW 4930   6.460   1.000   2.726
 1344SOL    HW1 4931   6.412   0.919   2.759
 1344SOL    HW2 4932   6.430   1.080   2.778
 1345SOL     OW 4933   0.407   7.018   3.715
 1345SOL    HW1 4934   0.478   6.998   3.783
 1345SOL    HW2 4935   0.409   6.949   3.643
 1346SOL     OW 4936   0.201   1.116   4.014
 1346SOL    HW1 4937   0.186   1.169   4.098
 1346SOL    HW2 4938   0.152   1.029   4.020
 1347SOL     OW 4939   5.847   0.348   3.090
 1347SOL    HW1 4940   5.944   0.366   3.110
 1347SOL    HW2 4941   5.794   0.353   3.174
 1348SOL     OW 4942   5.165   4.681   5.074
 1348SOL    HW1 4943   5.066   4.695   5.075
 1348SOL    HW2 4944   5.188   4.604   5.015
 1349SOL     OW 4945   4.139   3.123   0.050
 1349SOL    HW1 4946   4.170   3.137   0.144
 1349SOL    HW2 4947   4.067   3.189   0.028
 1350SOL     OW 4948   2.855   0.886   6.217
 1350SOL    HW1 4949   2.932   0.936   6.177
 1350SOL    HW2 4950   2.795   0.950   6.265
 1351SOL     OW 4951   0.739   0.992   4.559
 1351SOL    HW1 4952   0.768   1.070   4.614
 1351SOL    HW2 4953   0.736   0.910   4.617
 1352SOL     OW 4954   0.529   0.944   3.396
 1352SOL    HW1 4955   0.476   1.011   3.345
 1352SOL    HW2 4956   0.624   0.975   3.403
 1353SOL     OW 4957   1.274   4.134   3.811
 1353SOL    HW1 4958   1.258   4.129   3.909
 1353SOL    HW2 4959   1.372   4.144   3.793
 1354SOL     OW 4960   0.735   6.963   1.840
 1354SOL    HW1 4961   0.802   6.889   1.847
 1354SOL    HW2 4962   0.749   0.002   1.914
 1355SOL     OW 4963   4.608   3.087   6.865
 1355SOL    HW1 4964   4.553   3.067   6.784
 1355SOL    HW2 4965   4.634   3.183   6.865
 1356SOL     OW 4966   2.975   3.889   2.645
 1356SOL    HW1 4967   2.909   3.959   2.619
 1356SOL    HW2 4968   2.954   3.803   2.597
 1357SOL     OW 4969   2.857   3.130   5.370
 1357SOL    HW1 4970   2.826   3.035   5.374
 1357SOL    HW2 4971   2.868   3.165   5.463
 1358SOL     OW 4972   2.032   2.469   5.836
 1358SOL    HW1 4973   2.072   2.387   5.877
 1358SOL    HW2 4974   2.010   2.535   5.909
 1359SOL     OW 4975   6.227   1.121   6.919
 1359SOL    HW1 4976   6.187   1.106   6.828
 1359SOL    HW2 4977   6.265   1.213   6.923
 1360SOL     OW 4978   3.508   3.813   4.406
 1360SOL    HW1 4979   3.605   3.809   4.382
 1360SOL    HW2 4980   3.463   3.883   4.351
 1361SOL     OW 4981   0.723   6.221   0.114
 1361SOL    HW1 4982   0.819   6.193   0.115
 1361SOL    HW2 4983   0.713   6.308   0.160
 1362SOL     OW 4984   2.908   3.326   6.180
 1362SOL    HW1 4985   2.909   3.227   6.165
 1362SOL    HW2 4986   3.001   3.362   6.171
 1363SOL     OW 4987   5.865   6.534   2.227
 1363SOL    HW1 4988   5.842   6.627   2.198
 1363SOL    HW2 4989   5.795   6.471   2.195
 1364SOL     OW 4990   0.584   3.357   1.369
 1364SOL    HW1 4991   0.603   3.379   1.273
 1364SOL    HW2 4992   0.636   3.417   1.429
 1365SOL     OW 4993   0.863   3.826   5.996
 1365SOL    HW1 4994   0.823   3.825   5.904
 1365SOL    HW2 4995   0.804   3.878   6.058
 1366SOL     OW 4996   5.685   0.749   0.720
 1366SOL    HW1 4997   5.726   0.669   0.677
 1366SOL    HW2 4998   5.680   0.824   0.654
 1367SOL     OW 4999   0.830   5.735   4.347
 1367SOL    HW1 5000   0.917   5.777   4.375
 1367SOL    HW2 5001   0.845   5.676   4.268
 1368SOL     OW 5002   0.909   6.367   5.669
 1368SOL    HW1 5003   0.983   6.339   5.730
 1368SOL    HW2 5004   0.945   6.430   5.600
 1369SOL     OW 5005   2.731   6.532   3.020
 1369SOL    HW1 5006   2.751   6.457   2.956
 1369SOL    HW2 5007   2.647   6.510   3.071
 1370SOL     OW 5008   6.059   2.359   2.777
 1370SOL    HW1 5009   6.060   2.380   2.679
 1370SOL    HW2 5010   6.142   2.309   2.801
 1371SOL     OW 5011   5.990   1.707   5.492
 1371SOL    HW1 5012   5.944   1.679   5.576
 1371SOL    HW2 5013   5.923   1.706   5.417
 1372SOL     OW 5014   6.375   2.583   0.247
 1372SOL    HW1 5015   6.364   2.561   0.344
 1372SOL    HW2 5016   6.345   2.504   0.192
 1373SOL     OW 5017   5.118   2.784   1.762
 1373SOL    HW1 5018   5.066   2.729   1.828
 1373SOL    HW2 5019   5.083   2.768   1.670
 1374SOL     OW 5020   4.174   4.297   0.092
 1374SOL    HW1 5021   4.199   4.377   0.147
 1374SOL    HW2 5022   4.088   4.259   0.125
 1375SOL     OW 5023   5.477   5.799   4.281
 1375SOL    HW1 5024   5.492   5.792   4.379
 1375SOL    HW2 5025   5.525   5.879   4.245
 1376SOL     OW 5026   2.549   4.931   5.858
 1376SOL    HW1 5027   2.473   4.870   5.839
 1376SOL    HW2 5028   2.633   4.892   5.821
 1377SOL     OW 5029   1.712   1.306   3.165
 1377SOL    HW1 5030   1.701   1.310   3.065
 1377SOL    HW2 5031   1.624   1.283   3.207
 1378SOL     OW 5032   4.863   2.481   4.423
 1378SOL    HW1 5033   4.902   2.449   4.336
 1378SOL    HW2 5034   4.787   2.421   4.449
 1379SOL     OW 5035   5.128   5.322   1.134
 1379SOL    HW1 5036   5.058   5.383   1.170
 1379SOL    HW2 5037   5.132   5.239   1.189
 1380SOL     OW 5038   0.093   5.388   1.799
 1380SOL    HW1 5039   0.105   5.346   1.889
 1380SOL    HW2 5040   0.117   5.485   1.804
 1381SOL     OW 5041   6.001   2.346   5.826
 1381SOL    HW1 5042   6.083   2.302   5.862
 1381SOL    HW2 5043   5.948   2.386   5.901
 1382SOL     OW 5044   4.716   2.571   0.268
 1382SOL    HW1 5045   4.801   2.521   0.254
 1382SOL    HW2 5046   4.729   2.667   0.241
 1383SOL     OW 5047   0.269   1.275   2.036
 1383SOL    HW1 5048   0.302   1.182   2.020
 1383SOL    HW2 5049   0.343   1.330   2.076
 1384SOL     OW 5050   5.777   1.164   1.932
 1384SOL    HW1 5051   5.773   1.212   1.845
 1384SOL    HW2 5052   5.835   1.215   1.996
 1385SOL     OW 5053   0.942   5.632   1.845
 1385SOL    HW1 5054   0.903   5.695   1.777
 1385SOL    HW2 5055   0.869   5.579   1.887
 1386SOL     OW 5056   2.707   5.798   4.390
 1386SOL    HW1 5057   2.788   5.786   4.333
 1386SOL    HW2 5058   2.733   5.842   4.476
 1387SOL     OW 5059   3.053   5.599   2.520
 1387SOL    HW1 5060   3.055   5.652   2.435
 1387SOL    HW2 5061   2.988   5.641   2.583
 1388SOL     OW 5062   6.710   0.160   1.639
 1388SOL    HW1 5063   6.766   0.114   1.708
 1388SOL    HW2 5064   6.698   0.100   1.560
 1389SOL     OW 5065   6.352   1.294   2.582
 1389SOL    HW1 5066   6.365   1.223   2.512
 1389SOL    HW2 5067   6.340   1.383   2.538
 1390SOL     OW 5068   6.899   2.082   6.207
 1390SOL    HW1 5069   6.801   2.062   6.199
 1390SOL    HW2 5070   6.918   2.122   6.296
 1391SOL     OW 5071   0.930   3.142   2.627
 1391SOL    HW1 5072   0.922   3.134   2.528
 1391SOL    HW2 5073   0.998   3.076   2.661
 1392SOL     OW 5074   4.654   4.845   5.245
 1392SOL    HW1 5075   4.582   4.778   5.229
 1392SOL    HW2 5076   4.743   4.803   5.228
 1393SOL     OW 5077   3.665   6.710   5.681
 1393SOL    HW1 5078   3.621   6.690   5.768
 1393SOL    HW2 5079   3.669   6.810   5.668
 1394SOL     OW 5080   2.585   6.207   5.345
 1394SOL    HW1 5081   2.583   6.241   5.439
 1394SOL    HW2 5082   2.667   6.240   5.299
 1395SOL     OW 5083   3.745   4.798   5.685
 1395SOL    HW1 5084   3.671   4.851   5.644
 1395SOL    HW2 5085   3.763   4.831   5.777
 1396SOL     OW 5086   5.814   5.679   4.454
 1396SOL    HW1 5087   5.836   5.581   4.456
 1396SOL    HW2 5088   5.753   5.698   4.378
 1397SOL     OW 5089   4.637   6.297   4.957
 1397SOL    HW1 5090   4.575   6.247   4.897
 1397SOL    HW2 5091   4.590   6.377   4.994
 1398SOL     OW 5092   1.442   1.184   4.865
 1398SOL    HW1 5093   1.537   1.172   4.893
 1398SOL    HW2 5094   1.430   1.274   4.823
 1399SOL     OW 5095   3.273   6.341   1.608
 1399SOL    HW1 5096   3.258   6.296   1.696
 1399SOL    HW2 5097   3.217   6.295   1.538
 1400SOL     OW 5098   1.050   0.016   1.761
 1400SOL    HW1 5099   0.968   0.073   1.752
 1400SOL    HW2 5100   1.086   0.025   1.854
 1401SOL     OW 5101   6.961   1.052   4.661
 1401SOL    HW1 5102   0.020   1.102   4.644
 1401SOL    HW2 5103   6.944   1.048   4.760
 1402SOL     OW 5104   6.463   2.504   0.490
 1402SOL    HW1 5105   6.544   2.517   0.547
 1402SOL    HW2 5106   6.437   2.407   0.490
 1403SOL     OW 5107   2.510   0.001   2.033
 1403SOL    HW1 5108   2.607   0.008   2.008
 1403SOL    HW2 5109   2.456   7.014   1.950
 1404SOL     OW 5110   5.664   0.208   0.298
 1404SOL    HW1 5111   5.742   0.233   0.356
 1404SOL    HW2 5112   5.579   0.230   0.346
 1405SOL     OW 5113   2.191   3.666   1.036
 1405SOL    HW1 5114   2.155   3.752   1.001
 1405SOL    HW2 5115   2.251   3.625   0.968
 1406SOL     OW 5116   1.710   4.155   1.142
 1406SOL    HW1 5117   1.612   4.165   1.122
 1406SOL    HW2 5118   1.722   4.111   1.230
 1407SOL     OW 5119   6.624   1.921   2.253
 1407SOL    HW1 5120   6.703   1.865   2.227
 1407SOL    HW2 5121   6.599   1.901   2.348
 1408SOL     OW 5122   5.505   0.604   6.194
 1408SOL    HW1 5123   5.507   0.534   6.265
 1408SOL    HW2 5124   5.423   0.660   6.204
 1409SOL     OW 5125   0.030   0.367   4.475
 1409SOL    HW1 5126   0.119   0.410   4.492
 1409SOL    HW2 5127   7.020   0.398   4.387
 1410SOL     OW 5128   0.240   3.006   6.679
 1410SOL    HW1 5129   0.339   2.998   6.679
 1410SOL    HW2 5130   0.210   3.062   6.602
 1411SOL     OW 5131   2.004   6.625   2.142
 1411SOL    HW1 5132   1.943   6.695   2.181
 1411SOL    HW2 5133   1.957   6.580   2.066
 1412SOL     OW 5134   1.269   2.745   0.845
 1412SOL    HW1 5135   1.368   2.753   0.830
 1412SOL    HW2 5136   1.227   2.835   0.835
 1413SOL     OW 5137   2.373   0.412   4.111
 1413SOL    HW1 5138   2.443   0.437   4.178
 1413SOL    HW2 5139   2.395   0.321   4.073
 1414SOL     OW 5140   2.326   1.685   1.746
 1414SOL    HW1 5141   2.393   1.693   1.672
 1414SOL    HW2 5142   2.333   1.594   1.788
 1415SOL     OW 5143   3.695   6.349   5.794
 1415SOL    HW1 5144   3.635   6.429   5.799
 1415SOL    HW2 5145   3.731   6.339   5.702
 1416SOL     OW 5146   4.257   4.966   1.727
 1416SOL    HW1 5147   4.356   4.957   1.732
 1416SOL    HW2 5148   4.221   4.997   1.815
 1417SOL     OW 5149   2.706   1.860   6.402
 1417SOL    HW1 5150   2.639   1.852   6.476
 1417SOL    HW2 5151   2.671   1.922   6.332
 1418SOL     OW 5152   3.206   4.100   3.067
 1418SOL    HW1 5153   3.226   4.054   3.153
 1418SOL    HW2 5154   3.292   4.121   3.020
 1419SOL     OW 5155   3.857   6.658   4.865
 1419SOL    HW1 5156   3.762   6.634   4.885
 1419SOL    HW2 5157   3.860   6.744   4.813
 1420SOL     OW 5158   0.954   5.744   2.117
 1420SOL    HW1 5159   0.968   5.716   2.022
 1420SOL    HW2 5160   0.865   5.710   2.149
 1421SOL     OW 5161   2.947   2.252   2.391
 1421SOL    HW1 5162   2.983   2.235   2.299
 1421SOL    HW2 5163   2.848   2.267   2.385
 1422SOL     OW 5164   1.766   5.031   0.709
 1422SOL    HW1 5165   1.727   4.940   0.694
 1422SOL    HW2 5166   1.767   5.081   0.622
 1423SOL     OW 5167   4.894   6.881   2.812
 1423SOL    HW1 5168   4.869   6.945   2.885
 1423SOL    HW2 5169   4.878   6.923   2.723
 1424SOL     OW 5170   6.046   5.253   4.836
 1424SOL    HW1 5171   6.093   5.176   4.880
 1424SOL    HW2 5172   6.079   5.338   4.876
 1425SOL     OW 5173   2.154   0.083   3.911
 1425SOL    HW1 5174   2.187   0.002   3.862
 1425SOL    HW2 5175   2.172   0.165   3.856
 1426SOL     OW 5176   1.244   1.568   5.675
 1426SOL    HW1 5177   1.190   1.526   5.748
 1426SOL    HW2 5178   1.191   1.641   5.633
 1427SOL     OW 5179   5.936   0.239   3.862
 1427SOL    HW1 5180   5.878   0.259   3.941
 1427SOL    HW2 5181   5.910   0.150   3.824
 1428SOL     OW 5182   5.662   1.856   6.874
 1428SOL    HW1 5183   5.566   1.878   6.892
 1428SOL    HW2 5184   5.720   1.915   6.929
 1429SOL     OW 5185   6.897   0.603   0.892
 1429SOL    HW1 5186   6.865   0.528   0.950
 1429SOL    HW2 5187   6.904   0.687   0.947
 1430SOL     OW 5188   1.930   4.743   3.475
 1430SOL    HW1 5189   1.850   4.686   3.495
 1430SOL    HW2 5190   1.978   4.708   3.395
 1431SOL     OW 5191   2.719   0.792   1.583
 1431SOL    HW1 5192   2.678   0.882   1.600
 1431SOL    HW2 5193   2.783   0.770   1.657
 1432SOL     OW 5194   2.248   0.988   2.625
 1432SOL    HW1 5195   2.204   1.043   2.696
 1432SOL    HW2 5196   2.194   0.904   2.612
 1433SOL     OW 5197   4.165   0.326   4.114
 1433SOL    HW1 5198   4.203   0.386   4.185
 1433SOL    HW2 5199   4.087   0.371   4.071
 1434SOL     OW 5200   0.938   0.966   5.461
 1434SOL    HW1 5201   0.927   1.052   5.511
 1434SOL    HW2 5202   1.025   0.925   5.485
 1435SOL     OW 5203   6.558   1.771   2.786
 1435SOL    HW1 5204   6.475   1.816   2.817
 1435SOL    HW2 5205   6.573   1.688   2.841
 1436SOL     OW 5206   4.191   3.837   0.264
 1436SOL    HW1 5207   4.270   3.814   0.207
 1436SOL    HW2 5208   4.196   3.785   0.350
 1437SOL     OW 5209   3.038   0.853   2.764
 1437SOL    HW1 5210   2.977   0.927   2.735
 1437SOL    HW2 5211   3.120   0.853   2.706
 1438SOL     OW 5212   3.033   6.289   1.028
 1438SOL    HW1 5213   3.125   6.271   0.993
 1438SOL    HW2 5214   3.039   6.352   1.105
 1439SOL     OW 5215   0.076   5.928   2.500
 1439SOL    HW1 5216   0.170   5.916   2.470
 1439SOL    HW2 5217   0.018   5.857   2.461
 1440SOL     OW 5218   2.739   3.439   0.571
 1440SOL    HW1 5219   2.832   3.425   0.536
 1440SOL    HW2 5220   2.744   3.487   0.659
 1441SOL     OW 5221   5.900   6.666   1.163
 1441SOL    HW1 5222   5.884   6.572   1.193
 1441SOL    HW2 5223   5.835   6.689   1.091
 1442SOL     OW 5224   5.694   5.360   0.289
 1442SOL    HW1 5225   5.615   5.407   0.250
 1442SOL    HW2 5226   5.779   5.403   0.257
 1443SOL     OW 5227   1.675   2.594   2.853
 1443SOL    HW1 5228   1.589   2.643   2.842
 1443SOL    HW2 5229   1.664   2.500   2.820
 1444SOL     OW 5230   6.398   5.799   6.886
 1444SOL    HW1 5231   6.374   5.882   6.936
 1444SOL    HW2 5232   6.486   5.813   6.840
 1445SOL     OW 5233   1.208   3.341   2.443
 1445SOL    HW1 5234   1.278   3.295   2.389
 1445SOL    HW2 5235   1.207   3.304   2.535
 1446SOL     OW 5236   6.749   0.212   6.502
 1446SOL    HW1 5237   6.769   0.293   6.557
 1446SOL    HW2 5238   6.749   0.236   6.405
 1447SOL     OW 5239   5.831   5.043   4.843
 1447SOL    HW1 5240   5.767   5.034   4.919
 1447SOL    HW2 5241   5.878   5.132   4.850
 1448SOL     OW 5242   0.947   2.965   5.821
 1448SOL    HW1 5243   0.963   2.875   5.780
 1448SOL    HW2 5244   0.948   3.035   5.749
 1449SOL     OW 5245   1.443   4.229   4.217
 1449SOL    HW1 5246   1.473   4.229   4.312
 1449SOL    HW2 5247   1.521   4.253   4.158
 1450SOL     OW 5248   2.032   2.250   5.089
 1450SOL    HW1 5249   1.959   2.282   5.149
 1450SOL    HW2 5250   2.108   2.314   5.092
 1451SOL     OW 5251   2.724   6.992   1.827
 1451SOL    HW1 5252   2.673   7.008   1.742
 1451SOL    HW2 5253   2.744   6.894   1.835
 1452SOL     OW 5254   4.922   3.184   6.091
 1452SOL    HW1 5255   4.895   3.272   6.129
 1452SOL    HW2 5256   4.903   3.112   6.157
 1453SOL     OW 5257   0.797   4.404   5.217
 1453SOL    HW1 5258   0.767   4.491   5.256
 1453SOL    HW2 5259   0.888   4.414   5.178
 1454SOL     OW 5260   2.690   1.757   3.630
 1454SOL    HW1 5261   2.768   1.695   3.620
 1454SOL    HW2 5262   2.645   1.769   3.541
 1455SOL     OW 5263   1.235   5.697   2.214
 1455SOL    HW1 5264   1.270   5.753   2.289
 1455SOL    HW2 5265   1.145   5.731   2.186
 1456SOL     OW 5266   6.370   5.605   6.000
 1456SOL    HW1 5267   6.375   5.510   5.970
 1456SOL    HW2 5268   6.419   5.663   5.934
 1457SOL     OW 5269   0.349   3.915   6.139
 1457SOL    HW1 5270   0.432   3.900   6.086
 1457SOL    HW2 5271   0.343   3.848   6.213
 1458SOL     OW 5272   5.400   4.814   5.196
 1458SOL    HW1 5273   5.368   4.902   5.230
 1458SOL    HW2 5274   5.326   4.770   5.144
 1459SOL     OW 5275   4.869   6.582   5.114
 1459SOL    HW1 5276   4.946   6.646   5.125
 1459SOL    HW2 5277   4.811   6.586   5.195
 1460SOL     OW 5278   2.035   6.303   5.093
 1460SOL    HW1 5279   2.089   6.279   5.174
 1460SOL    HW2 5280   2.079   6.267   5.011
 1461SOL     OW 5281   0.060   3.057   2.900
 1461SOL    HW1 5282   0.150   3.096   2.921
 1461SOL    HW2 5283   0.024   3.100   2.817
 1462SOL     OW 5284   0.503   0.053   0.500
 1462SOL    HW1 5285   0.506   0.011   0.409
 1462SOL    HW2 5286   0.576   0.122   0.507
 1463SOL     OW 5287   1.613   5.672   6.610
 1463SOL    HW1 5288   1.609   5.688   6.708
 1463SOL    HW2 5289   1.552   5.737   6.563
 1464SOL     OW 5290   6.974   4.545   4.320
 1464SOL    HW1 5291   6.876   4.528   4.322
 1464SOL    HW2 5292   7.019   4.477   4.262
 1465SOL     OW 5293   1.315   1.736   3.269
 1465SOL    HW1 5294   1.301   1.652   3.321
 1465SOL    HW2 5295   1.229   1.787   3.263
 1466SOL     OW 5296   4.220   2.131   1.752
 1466SOL    HW1 5297   4.199   2.052   1.808
 1466SOL    HW2 5298   4.200   2.215   1.803
 1467SOL     OW 5299   1.556   0.685   4.168
 1467SOL    HW1 5300   1.609   0.706   4.087
 1467SOL    HW2 5301   1.523   0.591   4.164
 1468SOL     OW 5302   2.171   6.072   2.399
 1468SOL    HW1 5303   2.254   6.121   2.373
 1468SOL    HW2 5304   2.098   6.093   2.335
 1469SOL     OW 5305   6.321   5.355   3.454
 1469SOL    HW1 5306   6.413   5.368   3.417
 1469SOL    HW2 5307   6.262   5.429   3.421
 1470SOL     OW 5308   6.596   2.118   0.545
 1470SOL    HW1 5309   6.672   2.179   0.523
 1470SOL    HW2 5310   6.525   2.170   0.594
 1471SOL     OW 5311   5.376   6.851   1.597
 1471SOL    HW1 5312   5.395   6.921   1.667
 1471SOL    HW2 5313   5.461   6.829   1.549
 1472SOL     OW 5314   2.173   7.009   6.043
 1472SOL    HW1 5315   2.189   7.004   6.141
 1472SOL    HW2 5316   2.176   0.079   6.013
 1473SOL     OW 5317   3.044   5.174   4.455
 1473SOL    HW1 5318   3.055   5.217   4.545
 1473SOL    HW2 5319   3.122   5.198   4.398
 1474SOL     OW 5320   4.399   4.719   1.422
 1474SOL    HW1 5321   4.497   4.719   1.442
 1474SOL    HW2 5322   4.348   4.691   1.503
 1475SOL     OW 5323   4.834   0.276   0.107
 1475SOL    HW1 5324   4.774   0.343   0.062
 1475SOL    HW2 5325   4.929   0.297   0.086
 1476SOL     OW 5326   3.717   0.944   1.832
 1476SOL    HW1 5327   3.679   0.920   1.922
 1476SOL    HW2 5328   3.747   1.040   1.833
 1477SOL     OW 5329   4.242   5.235   1.645
 1477SOL    HW1 5330   4.164   5.289   1.676
 1477SOL    HW2 5331   4.235   5.142   1.682
 1478SOL     OW 5332   5.185   5.686   5.680
 1478SOL    HW1 5333   5.143   5.609   5.727
 1478SOL    HW2 5334   5.169   5.678   5.582
 1479SOL     OW 5335   3.604   3.241   1.363
 1479SOL    HW1 5336   3.549   3.204   1.438
 1479SOL    HW2 5337   3.583   3.192   1.278
 1480SOL     OW 5338   2.722   0.527   4.743
 1480SOL    HW1 5339   2.748   0.503   4.836
 1480SOL    HW2 5340   2.644   0.589   4.745
 1481SOL     OW 5341   5.164   2.500   5.463
 1481SOL    HW1 5342   5.115   2.573   5.416
 1481SOL    HW2 5343   5.186   2.530   5.556
 1482SOL     OW 5344   4.377   1.274   0.289
 1482SOL    HW1 5345   4.306   1.320   0.236
 1482SOL    HW2 5346   4.403   1.189   0.244
 1483SOL     OW 5347   4.796   1.214   6.204
 1483SOL    HW1 5348   4.769   1.272   6.127
 1483SOL    HW2 5349   4.832   1.271   6.278
 1484SOL     OW 5350   3.044   5.775   4.600
 1484SOL    HW1 5351   2.985   5.722   4.662
 1484SOL    HW2 5352   3.123   5.809   4.651
 1485SOL     OW 5353   4.933   2.529   2.839
 1485SOL    HW1 5354   4.872   2.553   2.915
 1485SOL    HW2 5355   4.893   2.454   2.786
 1486SOL     OW 5356   4.910   6.780   3.773
 1486SOL    HW1 5357   4.894   6.743   3.682
 1486SOL    HW2 5358   4.984   6.729   3.817
 1487SOL     OW 5359   6.806   0.356   0.573
 1487SOL    HW1 5360   6.771   0.448   0.559
 1487SOL    HW2 5361   6.792   0.328   0.668
 1488SOL     OW 5362   6.026   1.059   3.101
 1488SOL    HW1 5363   5.951   1.039   3.165
 1488SOL    HW2 5364   6.061   0.973   3.064
 1489SOL     OW 5365   4.440   4.759   6.266
 1489SOL    HW1 5366   4.413   4.845   6.310
 1489SOL    HW2 5367   4.537   4.743   6.279
 1490SOL     OW 5368   0.555   2.240   2.264
 1490SOL    HW1 5369   0.512   2.297   2.335
 1490SOL    HW2 5370   0.649   2.218   2.292
 1491SOL     OW 5371   0.012   3.168   2.491
 1491SOL    HW1 5372   0.064   3.096   2.536
 1491SOL    HW2 5373   0.056   3.193   2.405
 1492SOL     OW 5374   6.270   1.401   3.081
 1492SOL    HW1 5375   6.277   1.347   2.997
 1492SOL    HW2 5376   6.310   1.492   3.066
 1493SOL     OW 5377   4.780   2.544   5.875
 1493SOL    HW1 5378   4.798   2.551   5.973
 1493SOL    HW2 5379   4.859   2.578   5.824
 1494SOL     OW 5380   6.097   3.662   6.052
 1494SOL    HW1 5381   6.114   3.756   6.084
 1494SOL    HW2 5382   6.172   3.633   5.993
 1495SOL     OW 5383   6.369   4.058   4.325
 1495SOL    HW1 5384   6.334   3.978   4.276
 1495SOL    HW2 5385   6.294   4.123   4.340
 1496SOL     OW 5386   0.151   5.692   6.726
 1496SOL    HW1 5387   0.095   5.773   6.737
 1496SOL    HW2 5388   0.245   5.712   6.752
 1497SOL     OW 5389   5.463   3.117   2.591
 1497SOL    HW1 5390   5.383   3.140   2.535
 1497SOL    HW2 5391   5.494   3.198   2.640
 1498SOL     OW 5392   2.898   5.053   1.017
 1498SOL    HW1 5393   2.985   5.048   1.067
 1498SOL    HW2 5394   2.869   4.960   0.991
 1499SOL     OW 5395   0.506   4.216   5.698
 1499SOL    HW1 5396   0.411   4.225   5.729
 1499SOL    HW2 5397   0.508   4.177   5.606
 1500SOL     OW 5398   0.709   5.631   1.243
 1500SOL    HW1 5399   0.672   5.671   1.159
 1500SOL    HW2 5400   0.665   5.543   1.260
 1501SOL     OW 5401   5.342   1.602   6.230
 1501SOL    HW1 5402   5.393   1.678   6.269
 1501SOL    HW2 5403   5.404   1.542   6.179
 1502SOL     OW 5404   6.254   0.136   6.523
 1502SOL    HW1 5405   6.296   0.049   6.545
 1502SOL    HW2 5406   6.305   0.210   6.567
 1503SOL     OW 5407   0.263   4.005   1.960
 1503SOL    HW1 5408   0.359   4.014   1.934
 1503SOL    HW2 5409   0.214   4.088   1.936
 1504SOL     OW 5410   0.655   0.870   3.043
 1504SOL    HW1 5411   0.714   0.945   3.015
 1504SOL    HW2 5412   0.650   0.867   3.143
 1505SOL     OW 5413   5.175   6.069   4.848
 1505SOL    HW1 5414   5.227   6.025   4.921
 1505SOL    HW2 5415   5.225   6.061   4.762
 1506SOL     OW 5416   0.874   0.983   0.734
 1506SOL    HW1 5417   0.842   0.889   0.727
 1506SOL    HW2 5418   0.867   1.014   0.829
 1507SOL     OW 5419   1.867   2.419   4.795
 1507SOL    HW1 5420   1.819   2.427   4.883
 1507SOL    HW2 5421   1.963   2.396   4.811
 1508SOL     OW 5422   0.894   0.655   0.559
 1508SOL    HW1 5423   0.894   0.570   0.506
 1508SOL    HW2 5424   0.925   0.635   0.652
 1509SOL     OW 5425   5.301   0.411   3.956
 1509SOL    HW1 5426   5.282   0.496   4.004
 1509SOL    HW2 5427   5.308   0.336   4.022
 1510SOL     OW 5428   3.816   5.845   3.963
 1510SOL    HW1 5429   3.717   5.834   3.978
 1510SOL    HW2 5430   3.845   5.935   3.995
 1511SOL     OW 5431   3.855   3.414   4.477
 1511SOL    HW1 5432   3.846   3.467   4.561
 1511SOL    HW2 5433   3.952   3.396   4.459
 1512SOL     OW 5434   6.610   6.071   0.961
 1512SOL    HW1 5435   6.683   6.081   0.893
 1512SOL    HW2 5436   6.524   6.051   0.913
 1513SOL     OW 5437   3.022   0.459   6.124
 1513SOL    HW1 5438   2.928   0.426   6.114
 1513SOL    HW2 5439   3.024   0.559   6.117
 1514SOL     OW 5440   3.467   2.343   5.656
 1514SOL    HW1 5441   3.477   2.310   5.562
 1514SOL    HW2 5442   3.553   2.384   5.686
 1515SOL     OW 5443   6.273   1.838   2.257
 1515SOL    HW1 5444   6.302   1.932   2.241
 1515SOL    HW2 5445   6.296   1.810   2.350
 1516SOL     OW 5446   6.021   6.366   4.890
 1516SOL    HW1 5447   5.988   6.354   4.983
 1516SOL    HW2 5448   5.965   6.311   4.827
 1517SOL     OW 5449   3.687   6.031   3.618
 1517SOL    HW1 5450   3.713   6.127   3.625
 1517SOL    HW2 5451   3.739   5.988   3.543
 1518SOL     OW 5452   0.211   2.274   0.778
 1518SOL    HW1 5453   0.115   2.261   0.754
 1518SOL    HW2 5454   0.240   2.365   0.749
 1519SOL     OW 5455   6.812   4.285   0.027
 1519SOL    HW1 5456   6.868   4.299   6.970
 1519SOL    HW2 5457   6.769   4.195   0.023
 1520SOL     OW 5458   0.131   5.723   2.217
 1520SOL    HW1 5459   0.047   5.718   2.271
 1520SOL    HW2 5460   0.112   5.769   2.130
 1521SOL     OW 5461   1.942   5.310   6.062
 1521SOL    HW1 5462   2.031   5.285   6.024
 1521SOL    HW2 5463   1.885   5.228   6.070
 1522SOL     OW 5464   5.043   5.242   4.938
 1522SOL    HW1 5465   5.115   5.312   4.936
 1522SOL    HW2 5466   4.964   5.277   4.988
 1523SOL     OW 5467   3.653   6.284   6.587
 1523SOL    HW1 5468   3.747   6.258   6.564
 1523SOL    HW2 5469   3.650   6.319   6.680
 1524SOL     OW 5470   2.214   1.751   2.368
 1524SOL    HW1 5471   2.231   1.779   2.273
 1524SOL    HW2 5472   2.274   1.674   2.390
 1525SOL     OW 5473   5.114   2.900   0.422
 1525SOL    HW1 5474   5.154   2.854   0.501
 1525SOL    HW2 5475   5.155   2.990   0.411
 1526SOL     OW 5476   1.167   1.161   0.864
 1526SOL    HW1 5477   1.255   1.207   0.858
 1526SOL    HW2 5478   1.101   1.221   0.908
 1527SOL     OW 5479   3.632   1.254   4.195
 1527SOL    HW1 5480   3.604   1.159   4.183
 1527SOL    HW2 5481   3.556   1.315   4.172
 1528SOL     OW 5482   4.643   3.869   1.160
 1528SOL    HW1 5483   4.718   3.804   1.174
 1528SOL    HW2 5484   4.673   3.961   1.186
 1529SOL     OW 5485   4.745   1.389   5.977
 1529SOL    HW1 5486   4.820   1.432   5.926
 1529SOL    HW2 5487   4.668   1.372   5.915
 1530SOL     OW 5488   3.948   6.753   1.471
 1530SOL    HW1 5489   3.849   6.760   1.464
 1530SOL    HW2 5490   3.983   6.824   1.532
 1531SOL     OW 5491   3.271   6.575   4.542
 1531SOL    HW1 5492   3.258   6.638   4.619
 1531SOL    HW2 5493   3.298   6.486   4.576
 1532SOL     OW 5494   2.772   5.577   5.947
 1532SOL    HW1 5495   2.790   5.491   5.900
 1532SOL    HW2 5496   2.859   5.615   5.980
 1533SOL     OW 5497   5.396   5.303   1.491
 1533SOL    HW1 5498   5.482   5.253   1.497
 1533SOL    HW2 5499   5.328   5.247   1.445
 1534SOL     OW 5500   3.845   6.047   6.685
 1534SOL    HW1 5501   3.778   5.977   6.710
 1534SOL    HW2 5502   3.877   6.031   6.592
 1535SOL     OW 5503   6.205   6.680   4.457
 1535SOL    HW1 5504   6.252   6.664   4.543
 1535SOL    HW2 5505   6.198   6.594   4.406
 1536SOL     OW 5506   4.319   4.355   6.508
 1536SOL    HW1 5507   4.225   4.360   6.542
 1536SOL    HW2 5508   4.347   4.444   6.474
 1537SOL     OW 5509   3.285   5.369   3.441
 1537SOL    HW1 5510   3.253   5.309   3.368
 1537SOL    HW2 5511   3.238   5.457   3.434
 1538SOL     OW 5512   3.591   1.386   0.171
 1538SOL    HW1 5513   3.564   1.411   0.264
 1538SOL    HW2 5514   3.601   1.468   0.116
 1539SOL     OW 5515   5.638   3.572   1.079
 1539SOL    HW1 5516   5.690   3.635   1.138
 1539SOL    HW2 5517   5.644   3.603   0.984
 1540SOL     OW 5518   2.555   0.201   4.817
 1540SOL    HW1 5519   2.562   0.101   4.817
 1540SOL    HW2 5520   2.640   0.240   4.851
 1541SOL     OW 5521   3.679   3.019   4.507
 1541SOL    HW1 5522   3.740   3.012   4.428
 1541SOL    HW2 5523   3.732   3.008   4.591
 1542SOL     OW 5524   6.800   0.454   2.451
 1542SOL    HW1 5525   6.838   0.372   2.409
 1542SOL    HW2 5526   6.874   0.508   2.491
 1543SOL     OW 5527   2.774   5.245   6.376
 1543SOL    HW1 5528   2.702   5.182   6.402
 1543SOL    HW2 5529   2.816   5.284   6.458
 1544SOL     OW 5530   3.685   2.902   3.366
 1544SOL    HW1 5531   3.669   2.812   3.325
 1544SOL    HW2 5532   3.608   2.925   3.426
 1545SOL     OW 5533   6.201   6.757   2.915
 1545SOL    HW1 5534   6.133   6.697   2.872
 1545SOL    HW2 5535   6.288   6.750   2.865
 1546SOL     OW 5536   4.880   6.615   5.841
 1546SOL    HW1 5537   4.945   6.611   5.765
 1546SOL    HW2 5538   4.821   6.695   5.830
 1547SOL     OW 5539   1.392   4.060   6.706
 1547SOL    HW1 5540   1.316   4.003   6.674
 1547SOL    HW2 5541   1.371   4.093   6.799
 1548SOL     OW 5542   5.674   1.875   0.312
 1548SOL    HW1 5543   5.706   1.791   0.357
 1548SOL    HW2 5544   5.749   1.940   0.307
 1549SOL     OW 5545   4.153   1.423   4.695
 1549SOL    HW1 5546   4.159   1.323   4.687
 1549SOL    HW2 5547   4.179   1.465   4.608
 1550SOL     OW 5548   3.582   3.158   2.750
 1550SOL    HW1 5549   3.535   3.086   2.699
 1550SOL    HW2 5550   3.669   3.178   2.706
 1551SOL     OW 5551   0.251   5.326   6.551
 1551SOL    HW1 5552   0.309   5.407   6.557
 1551SOL    HW2 5553   0.155   5.353   6.553
 1552SOL     OW 5554   2.506   4.221   1.596
 1552SOL    HW1 5555   2.410   4.213   1.621
 1552SOL    HW2 5556   2.542   4.308   1.630
 1553SOL     OW 5557   6.797   1.578   5.840
 1553SOL    HW1 5558   6.844   1.664   5.858
 1553SOL    HW2 5559   6.742   1.587   5.757
 1554SOL     OW 5560   2.997   1.794   3.616
 1554SOL    HW1 5561   3.093   1.804   3.590
 1554SOL    HW2 5562   2.967   1.700   3.598
 1555SOL     OW 5563   6.302   3.192   6.138
 1555SOL    HW1 5564   6.336   3.208   6.231
 1555SOL    HW2 5565   6.379   3.180   6.076
 1556SOL     OW 5566   2.033   1.287   5.823
 1556SOL    HW1 5567   1.975   1.346   5.880
 1556SOL    HW2 5568   1.982   1.206   5.795
 1557SOL     OW 5569   1.122   3.435   6.705
 1557SOL    HW1 5570   1.108   3.408   6.800
 1557SOL    HW2 5571   1.042   3.486   6.673
 1558SOL     OW 5572   6.942   0.558   5.383
 1558SOL    HW1 5573   6.983   0.479   5.337
 1558SOL    HW2 5574   7.013   0.607   5.433
 1559SOL     OW 5575   0.483   2.370   5.836
 1559SOL    HW1 5576   0.395   2.383   5.791
 1559SOL    HW2 5577   0.527   2.287   5.801
 1560SOL     OW 5578   0.017   0.480   6.302
 1560SOL    HW1 5579   7.014   0.523   6.388
 1560SOL    HW2 5580   0.033   0.551   6.233
 1561SOL     OW 5581   5.411   5.801   2.539
 1561SOL    HW1 5582   5.402   5.834   2.445
 1561SOL    HW2 5583   5.330   5.747   2.563
 1562SOL     OW 5584   5.437   0.272   2.983
 1562SOL    HW1 5585   5.403   0.345   2.923
 1562SOL    HW2 5586   5.370   0.254   3.055
 1563SOL     OW 5587   3.574   1.482   5.905
 1563SOL    HW1 5588   3.607   1.518   5.992
 1563SOL    HW2 5589   3.482   1.444   5.916
 1564SOL     OW 5590   2.215   2.020   2.192
 1564SOL    HW1 5591   2.209   2.074   2.276
 1564SOL    HW2 5592   2.304   2.034   2.149
 1565SOL     OW 5593   5.069   3.837   1.672
 1565SOL    HW1 5594   4.982   3.787   1.673
 1565SOL    HW2 5595   5.144   3.773   1.661
 1566SOL     OW 5596   5.367   4.098   3.485
 1566SOL    HW1 5597   5.273   4.086   3.453
 1566SOL    HW2 5598   5.418   4.013   3.469
 1567SOL     OW 5599   7.010   5.346   5.441
 1567SOL    HW1 5600   6.952   5.276   5.483
 1567SOL    HW2 5601   0.072   5.350   5.488
 1568SOL     OW 5602   0.620   0.425   0.932
 1568SOL    HW1 5603   0.600   0.360   0.858
 1568SOL    HW2 5604   0.644   0.374   1.015
 1569SOL     OW 5605   3.821   6.404   5.530
 1569SOL    HW1 5606   3.778   6.314   5.516
 1569SOL    HW2 5607   3.881   6.425   5.454
 1570SOL     OW 5608   2.932   1.910   1.534
 1570SOL    HW1 5609   2.943   1.840   1.463
 1570SOL    HW2 5610   2.943   1.869   1.624
 1571SOL     OW 5611   6.548   3.629   1.467
 1571SOL    HW1 5612   6.481   3.703   1.475
 1571SOL    HW2 5613   6.630   3.663   1.421
 1572SOL     OW 5614   1.405   0.273   1.843
 1572SOL    HW1 5615   1.361   0.232   1.763
 1572SOL    HW2 5616   1.424   0.201   1.910
 1573SOL     OW 5617   4.306   0.419   2.010
 1573SOL    HW1 5618   4.217   0.442   1.970
 1573SOL    HW2 5619   4.379   0.449   1.949
 1574SOL     OW 5620   6.736   2.164   2.223
 1574SOL    HW1 5621   6.679   2.228   2.274
 1574SOL    HW2 5622   6.688   2.076   2.215
 1575SOL     OW 5623   1.998   2.205   0.432
 1575SOL    HW1 5624   1.957   2.149   0.360
 1575SOL    HW2 5625   2.093   2.226   0.409
 1576SOL     OW 5626   5.768   6.026   3.930
 1576SOL    HW1 5627   5.680   5.987   3.959
 1576SOL    HW2 5628   5.801   5.975   3.850
 1577SOL     OW 5629   2.675   0.413   5.317
 1577SOL    HW1 5630   2.664   0.421   5.416
 1577SOL    HW2 5631   2.631   0.328   5.286
 1578SOL     OW 5632   5.725   4.424   5.657
 1578SOL    HW1 5633   5.631   4.396   5.641
 1578SOL    HW2 5634   5.745   4.421   5.755
 1579SOL     OW 5635   0.913   0.801   3.608
 1579SOL    HW1 5636   0.942   0.882   3.660
 1579SOL    HW2 5637   0.972   0.790   3.528
 1580SOL     OW 5638   3.169   4.377   5.290
 1580SOL    HW1 5639   3.203   4.304   5.231
 1580SOL    HW2 5640   3.088   4.418   5.249
 1581SOL     OW 5641   6.708   4.471   4.348
 1581SOL    HW1 5642   6.662   4.384   4.361
 1581SOL    HW2 5643   6.654   4.528   4.286
 1582SOL     OW 5644   0.328   5.171   4.262
 1582SOL    HW1 5645   0.378   5.120   4.192
 1582SOL    HW2 5646   0.393   5.215   4.324
 1583SOL     OW 5647   1.675   3.219   3.584
 1583SOL    HW1 5648   1.720   3.248   3.499
 1583SOL    HW2 5649   1.726   3.254   3.662
 1584SOL     OW 5650   2.270   0.111   5.777
 1584SOL    HW1 5651   2.189   0.055   5.792
 1584SOL    HW2 5652   2.254   0.203   5.813
 1585SOL     OW 5653   5.235   1.719   4.069
 1585SOL    HW1 5654   5.216   1.641   4.129
 1585SOL    HW2 5655   5.164   1.724   3.998
 1586SOL     OW 5656   3.894   3.897   2.700
 1586SOL    HW1 5657   3.942   3.898   2.613
 1586SOL    HW2 5658   3.947   3.847   2.768
 1587SOL     OW 5659   3.529   6.824   6.915
 1587SOL    HW1 5660   3.432   6.812   6.937
 1587SOL    HW2 5661   3.555   6.760   6.843
 1588SOL     OW 5662   5.972   2.865   1.598
 1588SOL    HW1 5663   5.901   2.795   1.589
 1588SOL    HW2 5664   5.949   2.927   1.673
 1589SOL     OW 5665   5.676   4.413   4.549
 1589SOL    HW1 5666   5.603   4.457   4.498
 1589SOL    HW2 5667   5.711   4.476   4.618
 1590SOL     OW 5668   1.778   0.392   6.401
 1590SOL    HW1 5669   1.696   0.337   6.389
 1590SOL    HW2 5670   1.772   0.442   6.487
 1591SOL     OW 5671   1.081   4.484   2.025
 1591SOL    HW1 5672   1.171   4.525   2.039
 1591SOL    HW2 5673   1.016   4.555   1.999
 1592SOL     OW 5674   3.213   3.654   2.666
 1592SOL    HW1 5675   3.133   3.594   2.678
 1592SOL    HW2 5676   3.182   3.744   2.633
 1593SOL     OW 5677   1.210   5.483   4.865
 1593SOL    HW1 5678   1.199   5.573   4.822
 1593SOL    HW2 5679   1.262   5.423   4.804
 1594SOL     OW 5680   6.949   5.060   2.944
 1594SOL    HW1 5681   7.008   5.018   2.875
 1594SOL    HW2 5682   6.859   5.018   2.941
 1595SOL     OW 5683   6.562   4.843   6.291
 1595SOL    HW1 5684   6.577   4.803   6.382
 1595SOL    HW2 5685   6.622   4.799   6.225
 1596SOL     OW 5686   2.608   5.175   5.697
 1596SOL    HW1 5687   2.594   5.098   5.759
 1596SOL    HW2 5688   2.522   5.225   5.687
 1597SOL     OW 5689   3.291   6.128   1.402
 1597SOL    HW1 5690   3.289   6.076   1.317
 1597SOL    HW2 5691   3.206   6.180   1.411
 1598SOL     OW 5692   0.013   5.123   1.147
 1598SOL    HW1 5693   0.097   5.175   1.135
 1598SOL    HW2 5694   7.021   5.109   1.244
 1599SOL     OW 5695   3.887   5.090   6.985
 1599SOL    HW1 5696   3.906   5.098   6.887
 1599SOL    HW2 5697   3.790   5.069   6.998
 1600SOL     OW 5698   4.403   1.180   4.330
 1600SOL    HW1 5699   4.478   1.246   4.326
 1600SOL    HW2 5700   4.422   1.103   4.270
 1601SOL     OW 5701   1.430   5.166   4.076
 1601SOL    HW1 5702   1.377   5.225   4.136
 1601SOL    HW2 5703   1.426   5.200   3.982
 1602SOL     OW 5704   1.056   5.077   3.644
 1602SOL    HW1 5705   0.979   5.092   3.581
 1602SOL    HW2 5706   1.074   5.162   3.694
 1603SOL     OW 5707   6.911   6.549   2.050
 1603SOL    HW1 5708   6.817   6.518   2.056
 1603SOL    HW2 5709   6.954   6.545   2.140
 1604SOL     OW 5710   0.553   5.248   6.648
 1604SOL    HW1 5711   0.559   5.284   6.741
 1604SOL    HW2 5712   0.490   5.170   6.646
 1605SOL     OW 5713   5.862   6.725   3.141
 1605SOL    HW1 5714   5.881   6.824   3.147
 1605SOL    HW2 5715   5.804   6.707   3.063
 1606SOL     OW 5716   5.168   6.710   6.187
 1606SOL    HW1 5717   5.087   6.739   6.237
 1606SOL    HW2 5718   5.177   6.765   6.104
 1607SOL     OW 5719   4.142   2.489   1.163
 1607SOL    HW1 5720   4.200   2.568   1.180
 1607SOL    HW2 5721   4.193   2.405   1.184
 1608SOL     OW 5722   2.581   6.887   0.426
 1608SOL    HW1 5723   2.617   6.981   0.419
 1608SOL    HW2 5724   2.568   6.850   0.335
 1609SOL     OW 5725   4.991   2.023   5.512
 1609SOL    HW1 5726   4.914   2.077   5.477
 1609SOL    HW2 5727   4.981   2.010   5.610
 1610SOL     OW 5728   6.279   5.335   4.409
 1610SOL    HW1 5729   6.328   5.386   4.339
 1610SOL    HW2 5730   6.279   5.386   4.495
 1611SOL     OW 5731   3.095   3.856   1.644
 1611SOL    HW1 5732   3.154   3.780   1.674
 1611SOL    HW2 5733   3.147   3.918   1.586
 1612SOL     OW 5734   2.547   0.903   4.491
 1612SOL    HW1 5735   2.643   0.881   4.470
 1612SOL    HW2 5736   2.544   0.970   4.565
 1613SOL     OW 5737   2.108   5.739   0.548
 1613SOL    HW1 5738   2.176   5.667   0.552
 1613SOL    HW2 5739   2.139   5.818   0.602
 1614SOL     OW 5740   5.873   2.018   7.020
 1614SOL    HW1 5741   5.865   2.026   0.093
 1614SOL    HW2 5742   5.958   1.970   6.997
 1615SOL     OW 5743   6.623   4.548   0.036
 1615SOL    HW1 5744   6.660   4.615   0.101
 1615SOL    HW2 5745   6.683   4.469   0.032
 1616SOL     OW 5746   3.300   2.045   6.072
 1616SOL    HW1 5747   3.364   2.063   5.998
 1616SOL    HW2 5748   3.321   1.956   6.113
 1617SOL     OW 5749   5.165   0.199   3.650
 1617SOL    HW1 5750   5.185   0.136   3.725
 1617SOL    HW2 5751   5.213   0.169   3.568
 1618SOL     OW 5752   5.366   2.829   1.188
 1618SOL    HW1 5753   5.375   2.767   1.110
 1618SOL    HW2 5754   5.430   2.905   1.178
 1619SOL     OW 5755   1.655   3.436   4.402
 1619SOL    HW1 5756   1.741   3.404   4.443
 1619SOL    HW2 5757   1.609   3.497   4.466
 1620SOL     OW 5758   2.876   5.189   1.633
 1620SOL    HW1 5759   2.961   5.141   1.656
 1620SOL    HW2 5760   2.798   5.134   1.664
 1621SOL     OW 5761   1.602   0.918   0.954
 1621SOL    HW1 5762   1.563   0.987   0.893
 1621SOL    HW2 5763   1.661   0.963   1.021
 1622SOL     OW 5764   2.358   2.052   5.162
 1622SOL    HW1 5765   2.322   1.966   5.125
 1622SOL    HW2 5766   2.297   2.085   5.234
 1623SOL     OW 5767   2.826   2.370   5.168
 1623SOL    HW1 5768   2.885   2.393   5.246
 1623SOL    HW2 5769   2.731   2.371   5.198
 1624SOL     OW 5770   2.537   1.462   0.153
 1624SOL    HW1 5771   2.543   1.365   0.175
 1624SOL    HW2 5772   2.561   1.516   0.233
 1625SOL     OW 5773   0.598   5.314   2.112
 1625SOL    HW1 5774   0.509   5.329   2.156
 1625SOL    HW2 5775   0.588   5.248   2.038
 1626SOL     OW 5776   1.785   2.419   6.424
 1626SOL    HW1 5777   1.692   2.454   6.424
 1626SOL    HW2 5778   1.800   2.365   6.507
 1627SOL     OW 5779   5.586   3.039   3.463
 1627SOL    HW1 5780   5.566   2.967   3.529
 1627SOL    HW2 5781   5.590   2.999   3.371
 1628SOL     OW 5782   2.959   4.476   0.623
 1628SOL    HW1 5783   2.916   4.387   0.630
 1628SOL    HW2 5784   2.896   4.540   0.579
 1629SOL     OW 5785   3.940   2.181   3.772
 1629SOL    HW1 5786   3.954   2.082   3.766
 1629SOL    HW2 5787   3.855   2.199   3.822
 1630SOL     OW 5788   0.241   4.659   5.241
 1630SOL    HW1 5789   0.152   4.701   5.228
 1630SOL    HW2 5790   0.297   4.716   5.301
 1631SOL     OW 5791   7.022   6.936   5.915
 1631SOL    HW1 5792   6.968   6.862   5.956
 1631SOL    HW2 5793   6.961   7.005   5.876
 1632SOL     OW 5794   6.125   0.876   1.263
 1632SOL    HW1 5795   6.039   0.858   1.216
 1632SOL    HW2 5796   6.201   0.849   1.205
 1633SOL     OW 5797   5.959   2.361   3.878
 1633SOL    HW1 5798   5.941   2.444   3.826
 1633SOL    HW2 5799   5.896   2.357   3.956
 1634SOL     OW 5800   3.405   1.064   6.754
 1634SOL    HW1 5801   3.467   0.988   6.771
 1634SOL    HW2 5802   3.313   1.029   6.737
 1635SOL     OW 5803   0.329   5.544   4.744
 1635SOL    HW1 5804   0.373   5.634   4.754
 1635SOL    HW2 5805   0.263   5.548   4.669
 1636SOL     OW 5806   2.144   6.156   1.162
 1636SOL    HW1 5807   2.235   6.171   1.122
 1636SOL    HW2 5808   2.074   6.191   1.099
 1637SOL     OW 5809   0.305   3.425   1.829
 1637SOL    HW1 5810   0.323   3.487   1.753
 1637SOL    HW2 5811   0.208   3.428   1.853
 1638SOL     OW 5812   0.329   3.424   5.065
 1638SOL    HW1 5813   0.366   3.468   4.984
 1638SOL    HW2 5814   0.279   3.491   5.119
 1639SOL     OW 5815   5.558   5.329   2.225
 1639SOL    HW1 5816   5.503   5.255   2.263
 1639SOL    HW2 5817   5.499   5.407   2.204
 1640SOL     OW 5818   6.370   0.238   1.086
 1640SOL    HW1 5819   6.410   0.329   1.089
 1640SOL    HW2 5820   6.278   0.240   1.124
 1641SOL     OW 5821   5.808   2.496   5.274
 1641SOL    HW1 5822   5.864   2.579   5.268
 1641SOL    HW2 5823   5.725   2.516   5.326
 1642SOL     OW 5824   6.732   2.106   1.639
 1642SOL    HW1 5825   6.689   2.089   1.728
 1642SOL    HW2 5826   6.830   2.086   1.645
 1643SOL     OW 5827   4.531   0.316   5.556
 1643SOL    HW1 5828   4.434   0.334   5.572
 1643SOL    HW2 5829   4.563   0.247   5.621
 1644SOL     OW 5830   3.127   1.165   1.752
 1644SOL    HW1 5831   3.147   1.068   1.739
 1644SOL    HW2 5832   3.203   1.220   1.717
 1645SOL     OW 5833   2.528   6.902   6.462
 1645SOL    HW1 5834   2.549   6.989   6.418
 1645SOL    HW2 5835   2.479   6.843   6.397
 1646SOL     OW 5836   0.858   3.958   1.137
 1646SOL    HW1 5837   0.920   3.880   1.130
 1646SOL    HW2 5838   0.783   3.936   1.200
 1647SOL     OW 5839   5.572   3.322   3.673
 1647SOL    HW1 5840   5.522   3.269   3.741
 1647SOL    HW2 5841   5.540   3.299   3.581
 1648SOL     OW 5842   4.700   0.006   2.377
 1648SOL    HW1 5843   4.604   0.023   2.356
 1648SOL    HW2 5844   4.726   6.942   2.341
 1649SOL     OW 5845   3.291   0.647   3.683
 1649SOL    HW1 5846   3.251   0.584   3.616
 1649SOL    HW2 5847   3.350   0.595   3.746
 1650SOL     OW 5848   2.910   6.539   3.756
 1650SOL    HW1 5849   2.990   6.540   3.816
 1650SOL    HW2 5850   2.858   6.624   3.769
 1651SOL     OW 5851   1.194   0.016   0.414
 1651SOL    HW1 5852   1.239   7.024   0.327
 1651SOL    HW2 5853   1.098   0.039   0.398
 1652SOL     OW 5854   2.772   2.402   1.679
 1652SOL    HW1 5855   2.761   2.305   1.657
 1652SOL    HW2 5856   2.835   2.412   1.755
 1653SOL     OW 5857   1.128   5.746   1.583
 1653SOL    HW1 5858   1.071   5.766   1.663
 1653SOL    HW2 5859   1.071   5.708   1.510
 1654SOL     OW 5860   0.188   3.468   2.958
 1654SOL    HW1 5861   0.172   3.548   2.900
 1654SOL    HW2 5862   0.286   3.455   2.969
 1655SOL     OW 5863   5.050   4.829   6.354
 1655SOL    HW1 5864   5.046   4.779   6.440
 1655SOL    HW2 5865   5.075   4.767   6.280
 1656SOL     OW 5866   0.846   5.106   3.468
 1656SOL    HW1 5867   0.748   5.104   3.448
 1656SOL    HW2 5868   0.895   5.046   3.404
 1657SOL     OW 5869   1.579   0.684   5.239
 1657SOL    HW1 5870   1.491   0.642   5.220
 1657SOL    HW2 5871   1.582   0.715   5.334
 1658SOL     OW 5872   6.176   6.068   3.014
 1658SOL    HW1 5873   6.173   5.969   2.996
 1658SOL    HW2 5874   6.083   6.103   3.022
 1659SOL     OW 5875   3.970   2.756   5.842
 1659SOL    HW1 5876   4.050   2.773   5.785
 1659SOL    HW2 5877   3.992   2.688   5.911
 1660SOL     OW 5878   1.959   5.707   3.848
 1660SOL    HW1 5879   1.887   5.777   3.857
 1660SOL    HW2 5880   1.933   5.642   3.777
 1661SOL     OW 5881   3.044   0.237   2.244
 1661SOL    HW1 5882   3.062   0.143   2.272
 1661SOL    HW2 5883   3.073   0.250   2.149
 1662SOL     OW 5884   0.745   0.607   3.294
 1662SOL    HW1 5885   0.669   0.591   3.230
 1662SOL    HW2 5886   0.710   0.653   3.375
 1663SOL     OW 5887   2.717   0.110   2.776
 1663SOL    HW1 5888   2.817   0.118   2.769
 1663SOL    HW2 5889   2.676   0.123   2.685
 1664SOL     OW 5890   2.219   5.779   3.897
 1664SOL    HW1 5891   2.130   5.735   3.889
 1664SOL    HW2 5892   2.213   5.873   3.862
 1665SOL     OW 5893   6.808   0.680   4.052
 1665SOL    HW1 5894   6.867   0.744   4.100
 1665SOL    HW2 5895   6.722   0.669   4.102
 1666SOL     OW 5896   5.693   2.858   6.378
 1666SOL    HW1 5897   5.594   2.855   6.365
 1666SOL    HW2 5898   5.716   2.931   6.443
 1667SOL     OW 5899   6.443   0.259   5.834
 1667SOL    HW1 5900   6.357   0.298   5.803
 1667SOL    HW2 5901   6.509   0.332   5.853
 1668SOL     OW 5902   3.623   1.131   5.529
 1668SOL    HW1 5903   3.642   1.172   5.618
 1668SOL    HW2 5904   3.592   1.037   5.542
 1669SOL     OW 5905   5.869   6.670   6.031
 1669SOL    HW1 5906   5.787   6.695   5.980
 1669SOL    HW2 5907   5.936   6.744   6.026
 1670SOL     OW 5908   5.431   4.342   5.930
 1670SOL    HW1 5909   5.449   4.284   5.852
 1670SOL    HW2 5910   5.447   4.291   6.015
 1671SOL     OW 5911   5.106   3.205   0.109
 1671SOL    HW1 5912   5.009   3.181   0.106
 1671SOL    HW2 5913   5.116   3.303   0.123
 1672SOL     OW 5914   1.856   5.036   2.653
 1672SOL    HW1 5915   1.868   4.957   2.714
 1672SOL    HW2 5916   1.838   5.118   2.708
 1673SOL     OW 5917   0.013   2.933   4.028
 1673SOL    HW1 5918   7.024   3.004   3.959
 1673SOL    HW2 5919   0.037   2.847   3.983
 1674SOL     OW 5920   0.668   4.323   6.458
 1674SOL    HW1 5921   0.672   4.277   6.369
 1674SOL    HW2 5922   0.611   4.405   6.451
 1675SOL     OW 5923   4.726   1.713   6.821
 1675SOL    HW1 5924   4.804   1.764   6.783
 1675SOL    HW2 5925   4.667   1.776   6.870
 1676SOL     OW 5926   1.417   6.953   2.688
 1676SOL    HW1 5927   1.442   6.857   2.685
 1676SOL    HW2 5928   1.492   7.009   2.653
 1677SOL     OW 5929   5.868   1.892   5.249
 1677SOL    HW1 5930   5.817   1.841   5.179
 1677SOL    HW2 5931   5.966   1.880   5.233
 1678SOL     OW 5932   5.105   0.264   1.286
 1678SOL    HW1 5933   5.041   0.301   1.354
 1678SOL    HW2 5934   5.157   0.339   1.246
 1679SOL     OW 5935   0.690   3.525   6.651
 1679SOL    HW1 5936   0.649   3.609   6.688
 1679SOL    HW2 5937   0.637   3.446   6.684
 1680SOL     OW 5938   1.206   1.856   4.471
 1680SOL    HW1 5939   1.192   1.818   4.379
 1680SOL    HW2 5940   1.289   1.912   4.471
 1681SOL     OW 5941   6.426   5.476   1.117
 1681SOL    HW1 5942   6.508   5.524   1.087
 1681SOL    HW2 5943   6.348   5.505   1.062
 1682SOL     OW 5944   6.498   3.589   5.442
 1682SOL    HW1 5945   6.504   3.628   5.534
 1682SOL    HW2 5946   6.517   3.491   5.447
 1683SOL     OW 5947   5.449   5.985   1.035
 1683SOL    HW1 5948   5.410   5.899   1.071
 1683SOL    HW2 5949   5.519   6.018   1.098
 1684SOL     OW 5950   1.011   5.943   4.812
 1684SOL    HW1 5951   1.094   5.998   4.806
 1684SOL    HW2 5952   0.970   5.954   4.902
 1685SOL     OW 5953   1.515   1.473   6.942
 1685SOL    HW1 5954   1.590   1.409   6.925
 1685SOL    HW2 5955   1.483   1.463   0.011
 1686SOL     OW 5956   1.586   6.968   0.340
 1686SOL    HW1 5957   1.514   6.905   0.310
 1686SOL    HW2 5958   1.549   0.035   0.349
 1687SOL     OW 5959   1.625   6.523   1.792
 1687SOL    HW1 5960   1.628   6.488   1.698
 1687SOL    HW2 5961   1.690   6.473   1.848
 1688SOL     OW 5962   1.085   1.976   3.192
 1688SOL    HW1 5963   1.117   2.020   3.276
 1688SOL    HW2 5964   1.035   2.043   3.137
 1689SOL     OW 5965   2.290   1.768   2.940
 1689SOL    HW1 5966   2.282   1.798   2.845
 1689SOL    HW2 5967   2.209   1.795   2.991
 1690SOL     OW 5968   1.280   1.261   1.213
 1690SOL    HW1 5969   1.362   1.244   1.268
 1690SOL    HW2 5970   1.307   1.279   1.118
 1691SOL     OW 5971   5.313   4.445   2.719
 1691SOL    HW1 5972   5.360   4.481   2.799
 1691SOL    HW2 5973   5.240   4.508   2.692
 1692SOL     OW 5974   1.465   0.417   2.629
 1692SOL    HW1 5975   1.560   0.443   2.611
 1692SOL    HW2 5976   1.435   0.350   2.561
 1693SOL     OW 5977   2.902   2.049   3.500
 1693SOL    HW1 5978   2.884   1.956   3.532
 1693SOL    HW2 5979   3.001   2.063   3.490
 1694SOL     OW 5980   5.377   5.918   5.041
 1694SOL    HW1 5981   5.461   5.934   4.990
 1694SOL    HW2 5982   5.322   5.849   4.993
 1695SOL     OW 5983   3.115   2.628   5.626
 1695SOL    HW1 5984   3.078   2.542   5.592
 1695SOL    HW2 5985   3.076   2.704   5.574
 1696SOL     OW 5986   4.236   6.003   0.845
 1696SOL    HW1 5987   4.249   6.069   0.919
 1696SOL    HW2 5988   4.144   5.964   0.851
 1697SOL     OW 5989   1.089   1.445   1.937
 1697SOL    HW1 5990   1.104   1.388   1.856
 1697SOL    HW2 5991   1.013   1.508   1.920
 1698SOL     OW 5992   4.699   2.002   1.596
 1698SOL    HW1 5993   4.655   2.092   1.593
 1698SOL    HW2 5994   4.798   2.013   1.605
 1699SOL     OW 5995   2.285   3.170   1.024
 1699SOL    HW1 5996   2.234   3.190   1.108
 1699SOL    HW2 5997   2.229   3.194   0.945
 1700SOL     OW 5998   6.780   3.321   3.277
 1700SOL    HW1 5999   6.690   3.358   3.254
 1700SOL    HW2 6000   6.790   3.231   3.234
 1701SOL     OW 6001   5.620   3.294   4.098
 1701SOL    HW1 6002   5.551   3.363   4.078
 1701SOL    HW2 6003   5.709   3.324   4.065
 1702SOL     OW 6004   4.712   3.709   0.718
 1702SOL    HW1 6005   4.747   3.615   0.715
 1702SOL    HW2 6006   4.787   3.771   0.740
 1703SOL     OW 6007   1.643   3.656   0.118
 1703SOL    HW1 6008   1.714   3.723   0.095
 1703SOL    HW2 6009   1.636   3.590   0.043
 1704SOL     OW 6010   0.853   1.031   1.999
 1704SOL    HW1 6011   0.899   1.102   2.052
 1704SOL    HW2 6012   0.914   0.996   1.928
 1705SOL     OW 6013   4.410   3.111   1.722
 1705SOL    HW1 6014   4.347   3.185   1.743
 1705SOL    HW2 6015   4.452   3.077   1.806
 1706SOL     OW 6016   3.144   0.681   0.414
 1706SOL    HW1 6017   3.211   0.689   0.340
 1706SOL    HW2 6018   3.188   0.644   0.496
 1707SOL     OW 6019   5.329   2.117   3.494
 1707SOL    HW1 6020   5.410   2.135   3.549
 1707SOL    HW2 6021   5.286   2.204   3.468
 1708SOL     OW 6022   0.229   5.124   3.166
 1708SOL    HW1 6023   0.295   5.178   3.113
 1708SOL    HW2 6024   0.216   5.035   3.123
 1709SOL     OW 6025   2.763   6.159   2.315
 1709SOL    HW1 6026   2.857   6.125   2.321
 1709SOL    HW2 6027   2.712   6.133   2.397
 1710SOL     OW 6028   0.605   5.586   4.431
 1710SOL    HW1 6029   0.523   5.638   4.407
 1710SOL    HW2 6030   0.685   5.645   4.426
 1711SOL     OW 6031   1.541   4.513   5.461
 1711SOL    HW1 6032   1.457   4.549   5.421
 1711SOL    HW2 6033   1.559   4.421   5.426
 1712SOL     OW 6034   0.532   4.387   0.636
 1712SOL    HW1 6035   0.456   4.335   0.598
 1712SOL    HW2 6036   0.607   4.389   0.571
 1713SOL     OW 6037   1.126   2.744   1.082
 1713SOL    HW1 6038   1.167   2.734   0.992
 1713SOL    HW2 6039   1.040   2.794   1.075
 1714SOL     OW 6040   3.048   1.693   0.791
 1714SOL    HW1 6041   3.025   1.777   0.740
 1714SOL    HW2 6042   3.072   1.621   0.726
 1715SOL     OW 6043   0.196   3.275   3.255
 1715SOL    HW1 6044   0.144   3.356   3.282
 1715SOL    HW2 6045   0.238   3.233   3.336
 1716SOL     OW 6046   0.328   6.278   0.188
 1716SOL    HW1 6047   0.361   6.284   0.282
 1716SOL    HW2 6048   0.260   6.350   0.172
 1717SOL     OW 6049   2.958   0.320   6.731
 1717SOL    HW1 6050   3.014   0.239   6.752
 1717SOL    HW2 6051   2.863   0.301   6.755
 1718SOL     OW 6052   1.210   4.477   6.626
 1718SOL    HW1 6053   1.292   4.513   6.670
 1718SOL    HW2 6054   1.186   4.389   6.667
 1719SOL     OW 6055   2.326   3.645   1.456
 1719SOL    HW1 6056   2.373   3.631   1.369
 1719SOL    HW2 6057   2.388   3.626   1.532
 1720SOL     OW 6058   6.698   0.414   1.277
 1720SOL    HW1 6059   6.627   0.443   1.213
 1720SOL    HW2 6060   6.657   0.364   1.353
 1721SOL     OW 6061   2.246   6.318   3.323
 1721SOL    HW1 6062   2.180   6.379   3.279
 1721SOL    HW2 6063   2.334   6.325   3.276
 1722SOL     OW 6064   6.140   6.475   2.393
 1722SOL    HW1 6065   6.170   6.518   2.308
 1722SOL    HW2 6066   6.052   6.513   2.420
 1723SOL     OW 6067   6.510   1.643   2.430
 1723SOL    HW1 6068   6.556   1.727   2.458
 1723SOL    HW2 6069   6.574   1.582   2.384
 1724SOL     OW 6070   4.945   0.753   0.232
 1724SOL    HW1 6071   4.851   0.728   0.206
 1724SOL    HW2 6072   4.953   0.853   0.237
 1725SOL     OW 6073   3.913   4.379   1.597
 1725SOL    HW1 6074   3.887   4.330   1.515
 1725SOL    HW2 6075   3.992   4.334   1.640
 1726SOL     OW 6076   0.421   4.234   4.634
 1726SOL    HW1 6077   0.344   4.280   4.678
 1726SOL    HW2 6078   0.480   4.194   4.704
 1727SOL     OW 6079   3.677   3.896   5.424
 1727SOL    HW1 6080   3.580   3.911   5.402
 1727SOL    HW2 6081   3.687   3.884   5.523
 1728SOL     OW 6082   4.454   4.525   2.924
 1728SOL    HW1 6083   4.372   4.580   2.938
 1728SOL    HW2 6084   4.463   4.501   2.827
 1729SOL     OW 6085   2.038   3.795   2.975
 1729SOL    HW1 6086   2.076   3.791   2.882
 1729SOL    HW2 6087   1.938   3.802   2.969
 1730SOL     OW 6088   6.021   2.694   5.259
 1730SOL    HW1 6089   6.022   2.740   5.348
 1730SOL    HW2 6090   5.982   2.755   5.190
 1731SOL     OW 6091   1.924   5.196   0.867
 1731SOL    HW1 6092   1.862   5.135   0.817
 1731SOL    HW2 6093   1.974   5.253   0.803
 1732SOL     OW 6094   0.240   4.435   6.630
 1732SOL    HW1 6095   0.339   4.436   6.617
 1732SOL    HW2 6096   0.218   4.465   6.723
 1733SOL     OW 6097   1.680   3.321   0.686
 1733SOL    HW1 6098   1.613   3.362   0.747
 1733SOL    HW2 6099   1.750   3.275   0.740
 1734SOL     OW 6100   4.861   2.143   1.248
 1734SOL    HW1 6101   4.819   2.054   1.229
 1734SOL    HW2 6102   4.789   2.212   1.259
 1735SOL     OW 6103   6.449   5.295   1.324
 1735SOL    HW1 6104   6.549   5.293   1.320
 1735SOL    HW2 6105   6.414   5.363   1.259
 1736SOL     OW 6106   3.716   3.475   0.374
 1736SOL    HW1 6107   3.640   3.493   0.437
 1736SOL    HW2 6108   3.683   3.478   0.280
 1737SOL     OW 6109   2.119   6.549   3.494
 1737SOL    HW1 6110   2.091   6.490   3.570
 1737SOL    HW2 6111   2.083   6.512   3.408
 1738SOL     OW 6112   2.142   3.022   2.372
 1738SOL    HW1 6113   2.108   3.105   2.328
 1738SOL    HW2 6114   2.182   2.961   2.303
 1739SOL     OW 6115   4.341   2.014   4.944
 1739SOL    HW1 6116   4.279   2.089   4.965
 1739SOL    HW2 6117   4.351   2.006   4.845
 1740SOL     OW 6118   0.435   1.073   5.776
 1740SOL    HW1 6119   0.400   1.118   5.694
 1740SOL    HW2 6120   0.534   1.060   5.768
 1741SOL     OW 6121   1.189   0.080   2.656
 1741SOL    HW1 6122   1.269   0.021   2.663
 1741SOL    HW2 6123   1.188   0.124   2.566
 1742SOL     OW 6124   6.382   0.827   4.672
 1742SOL    HW1 6125   6.394   0.745   4.616
 1742SOL    HW2 6126   6.466   0.880   4.673
 1743SOL     OW 6127   4.219   1.433   1.202
 1743SOL    HW1 6128   4.261   1.514   1.243
 1743SOL    HW2 6129   4.128   1.419   1.242
 1744SOL     OW 6130   3.035   0.678   1.469
 1744SOL    HW1 6131   3.101   0.741   1.428
 1744SOL    HW2 6132   3.048   0.676   1.568
 1745SOL     OW 6133   0.257   2.307   2.898
 1745SOL    HW1 6134   0.340   2.286   2.845
 1745SOL    HW2 6135   0.178   2.304   2.838
 1746SOL     OW 6136   2.650   1.041   5.926
 1746SOL    HW1 6137   2.632   1.131   5.963
 1746SOL    HW2 6138   2.648   1.045   5.826
 1747SOL     OW 6139   3.264   0.336   2.066
 1747SOL    HW1 6140   3.283   0.431   2.091
 1747SOL    HW2 6141   3.245   0.330   1.968
 1748SOL     OW 6142   5.095   2.093   2.554
 1748SOL    HW1 6143   5.059   2.000   2.560
 1748SOL    HW2 6144   5.137   2.107   2.464
 1749SOL     OW 6145   4.219   0.266   6.448
 1749SOL    HW1 6146   4.154   0.299   6.379
 1749SOL    HW2 6147   4.296   0.329   6.454
 1750SOL     OW 6148   4.351   1.256   3.000
 1750SOL    HW1 6149   4.313   1.239   3.091
 1750SOL    HW2 6150   4.387   1.349   2.996
 1751SOL     OW 6151   1.713   5.546   3.767
 1751SOL    HW1 6152   1.745   5.598   3.688
 1751SOL    HW2 6153   1.737   5.450   3.756
 1752SOL     OW 6154   6.255   1.822   0.556
 1752SOL    HW1 6155   6.167   1.787   0.526
 1752SOL    HW2 6156   6.255   1.831   0.656
 1753SOL     OW 6157   1.512   0.183   1.529
 1753SOL    HW1 6158   1.428   0.146   1.569
 1753SOL    HW2 6159   1.588   0.119   1.545
 1754SOL     OW 6160   3.865   3.209   0.777
 1754SOL    HW1 6161   3.900   3.171   0.863
 1754SOL    HW2 6162   3.806   3.287   0.797
 1755SOL     OW 6163   5.497   4.105   0.914
 1755SOL    HW1 6164   5.448   4.179   0.960
 1755SOL    HW2 6165   5.567   4.069   0.975
 1756SOL     OW 6166   6.969   5.465   4.524
 1756SOL    HW1 6167   6.881   5.418   4.521
 1756SOL    HW2 6168   7.007   5.459   4.617
 1757SOL     OW 6169   3.219   6.719   4.786
 1757SOL    HW1 6170   3.181   6.686   4.872
 1757SOL    HW2 6171   3.155   6.783   4.744
 1758SOL     OW 6172   1.912   0.504   3.278
 1758SOL    HW1 6173   1.835   0.497   3.341
 1758SOL    HW2 6174   1.889   0.456   3.193
 1759SOL     OW 6175   0.560   5.700   6.323
 1759SOL    HW1 6176   0.560   5.785   6.374
 1759SOL    HW2 6177   0.606   5.629   6.376
 1760SOL     OW 6178   5.971   0.731   3.028
 1760SOL    HW1 6179   5.941   0.822   2.999
 1760SOL    HW2 6180   6.025   0.689   2.955
 1761SOL     OW 6181   6.535   1.828   1.172
 1761SOL    HW1 6182   6.622   1.838   1.219
 1761SOL    HW2 6183   6.487   1.916   1.171
 1762SOL     OW 6184   6.152   1.448   6.137
 1762SOL    HW1 6185   6.171   1.429   6.234
 1762SOL    HW2 6186   6.074   1.511   6.131
 1763SOL     OW 6187   2.114   3.836   4.178
 1763SOL    HW1 6188   2.032   3.873   4.222
 1763SOL    HW2 6189   2.152   3.763   4.234
 1764SOL     OW 6190   0.288   3.527   3.800
 1764SOL    HW1 6191   0.343   3.499   3.721
 1764SOL    HW2 6192   0.233   3.450   3.831
 1765SOL     OW 6193   2.803   2.145   6.298
 1765SOL    HW1 6194   2.808   2.122   6.395
 1765SOL    HW2 6195   2.872   2.213   6.276
 1766SOL     OW 6196   5.213   3.163   5.105
 1766SOL    HW1 6197   5.265   3.241   5.140
 1766SOL    HW2 6198   5.268   3.113   5.038
 1767SOL     OW 6199   5.509   3.220   2.210
 1767SOL    HW1 6200   5.537   3.262   2.296
 1767SOL    HW2 6201   5.472   3.291   2.149
 1768SOL     OW 6202   5.139   6.451   4.043
 1768SOL    HW1 6203   5.179   6.389   3.976
 1768SOL    HW2 6204   5.211   6.484   4.105
 1769SOL     OW 6205   3.832   1.428   2.383
 1769SOL    HW1 6206   3.890   1.489   2.437
 1769SOL    HW2 6207   3.737   1.440   2.410
 1770SOL     OW 6208   2.443   5.923   5.272
 1770SOL    HW1 6209   2.469   6.010   5.314
 1770SOL    HW2 6210   2.489   5.912   5.184
 1771SOL     OW 6211   4.337   5.593   6.850
 1771SOL    HW1 6212   4.346   5.494   6.862
 1771SOL    HW2 6213   4.258   5.613   6.792
 1772SOL     OW 6214   3.512   6.381   3.042
 1772SOL    HW1 6215   3.560   6.319   3.104
 1772SOL    HW2 6216   3.424   6.406   3.082
 1773SOL     OW 6217   1.559   5.717   6.239
 1773SOL    HW1 6218   1.595   5.629   6.207
 1773SOL    HW2 6219   1.587   5.732   6.334
 1774SOL     OW 6220   4.409   5.819   1.505
 1774SOL    HW1 6221   4.370   5.868   1.582
 1774SOL    HW2 6222   4.344   5.751   1.471
 1775SOL     OW 6223   0.567   3.891   2.270
 1775SOL    HW1 6224   0.573   3.833   2.351
 1775SOL    HW2 6225   0.604   3.841   2.191
 1776SOL     OW 6226   3.620   6.294   4.970
 1776SOL    HW1 6227   3.696   6.293   5.036
 1776SOL    HW2 6228   3.568   6.209   4.977
 1777SOL     OW 6229   4.073   6.094   0.613
 1777SOL    HW1 6230   4.146   6.053   0.668
 1777SOL    HW2 6231   4.016   6.152   0.672
 1778SOL     OW 6232   5.349   3.849   5.748
 1778SOL    HW1 6233   5.301   3.776   5.797
 1778SOL    HW2 6234   5.447   3.841   5.763
 1779SOL     OW 6235   3.977   0.456   4.949
 1779SOL    HW1 6236   4.020   0.407   4.873
 1779SOL    HW2 6237   3.878   0.450   4.940
 1780SOL     OW 6238   3.440   3.308   6.230
 1780SOL    HW1 6239   3.437   3.212   6.202
 1780SOL    HW2 6240   3.485   3.362   6.159
 1781SOL     OW 6241   3.977   5.273   3.062
 1781SOL    HW1 6242   3.889   5.228   3.077
 1781SOL    HW2 6243   3.973   5.367   3.095
 1782SOL     OW 6244   2.861   1.067   3.276
 1782SOL    HW1 6245   2.926   0.994   3.253
 1782SOL    HW2 6246   2.768   1.030   3.274
 1783SOL     OW 6247   2.271   6.066   6.676
 1783SOL    HW1 6248   2.228   6.053   6.587
 1783SOL    HW2 6249   2.241   6.154   6.715
 1784SOL     OW 6250   3.267   0.317   6.028
 1784SOL    HW1 6251   3.191   0.381   6.040
 1784SOL    HW2 6252   3.231   0.231   5.991
 1785SOL     OW 6253   6.205   3.327   2.643
 1785SOL    HW1 6254   6.277   3.262   2.618
 1785SOL    HW2 6255   6.245   3.404   2.693
 1786SOL     OW 6256   2.774   2.273   0.404
 1786SOL    HW1 6257   2.761   2.190   0.458
 1786SOL    HW2 6258   2.865   2.310   0.422
 1787SOL     OW 6259   3.338   1.766   6.145
 1787SOL    HW1 6260   3.346   1.755   6.046
 1787SOL    HW2 6261   3.258   1.716   6.179
 1788SOL     OW 6262   1.656   5.056   5.446
 1788SOL    HW1 6263   1.602   5.083   5.367
 1788SOL    HW2 6264   1.643   4.959   5.465
 1789SOL     OW 6265   5.971   1.574   0.171
 1789SOL    HW1 6266   6.069   1.593   0.163
 1789SOL    HW2 6267   5.925   1.598   0.086
 1790SOL     OW 6268   4.029   6.433   3.821
 1790SOL    HW1 6269   4.128   6.428   3.807
 1790SOL    HW2 6270   4.010   6.443   3.919
 1791SOL     OW 6271   0.027   6.816   2.826
 1791SOL    HW1 6272   6.962   6.793   2.860
 1791SOL    HW2 6273   0.095   6.800   2.897
 1792SOL     OW 6274   0.989   3.598   5.396
 1792SOL    HW1 6275   0.908   3.547   5.427
 1792SOL    HW2 6276   1.002   3.678   5.454
 1793SOL     OW 6277   6.946   0.596   3.785
 1793SOL    HW1 6278   6.900   0.586   3.874
 1793SOL    HW2 6279   0.003   0.539   3.785
 1794SOL     OW 6280   5.083   5.572   6.342
 1794SOL    HW1 6281   5.140   5.651   6.365
 1794SOL    HW2 6282   4.994   5.604   6.309
 1795SOL     OW 6283   0.220   2.879   0.623
 1795SOL    HW1 6284   0.199   2.811   0.552
 1795SOL    HW2 6285   0.145   2.883   0.688
 1796SOL     OW 6286   2.230   1.028   5.696
 1796SOL    HW1 6287   2.227   0.939   5.651
 1796SOL    HW2 6288   2.256   1.098   5.630
 1797SOL     OW 6289   1.168   6.833   0.643
 1797SOL    HW1 6290   1.263   6.800   0.647
 1797SOL    HW2 6291   1.166   6.923   0.599
 1798SOL     OW 6292   4.617   2.748   3.358
 1798SOL    HW1 6293   4.660   2.792   3.436
 1798SOL    HW2 6294   4.588   2.655   3.384
 1799SOL     OW 6295   0.677   2.088   6.228
 1799SOL    HW1 6296   0.624   2.015   6.186
 1799SOL    HW2 6297   0.702   2.155   6.159
 1800SOL     OW 6298   4.230   4.680   1.183
 1800SOL    HW1 6299   4.296   4.649   1.251
 1800SOL    HW2 6300   4.190   4.601   1.137
 1801SOL     OW 6301   6.989   0.227   2.350
 1801SOL    HW1 6302   6.951   0.195   2.437
 1801SOL    HW2 6303   0.054   0.187   2.336
 1802SOL     OW 6304   6.543   5.531   4.677
 1802SOL    HW1 6305   6.587   5.494   4.759
 1802SOL    HW2 6306   6.461   5.477   4.657
 1803SOL     OW 6307   0.015   5.659   0.225
 1803SOL    HW1 6308   6.984   5.607   0.160
 1803SOL    HW2 6309   0.058   5.736   0.177
 1804SOL     OW 6310   3.152   3.777   5.324
 1804SOL    HW1 6311   3.055   3.793   5.341
 1804SOL    HW2 6312   3.168   3.680   5.308
 1805SOL     OW 6313   5.221   3.657   6.271
 1805SOL    HW1 6314   5.172   3.611   6.197
 1805SOL    HW2 6315   5.171   3.739   6.298
 1806SOL     OW 6316   1.814   6.947   1.228
 1806SOL    HW1 6317   1.844   6.859   1.264
 1806SOL    HW2 6318   1.839   7.020   1.292
 1807SOL     OW 6319   6.334   1.867   4.867
 1807SOL    HW1 6320   6.419   1.878   4.918
 1807SOL    HW2 6321   6.329   1.774   4.829
 1808SOL     OW 6322   0.575   4.459   4.617
 1808SOL    HW1 6323   0.524   4.374   4.627
 1808SOL    HW2 6324   0.512   4.537   4.621
 1809SOL     OW 6325   2.774   2.250   5.960
 1809SOL    HW1 6326   2.751   2.185   5.888
 1809SOL    HW2 6327   2.863   2.226   5.999
 1810SOL     OW 6328   2.906   6.433   3.202
 1810SOL    HW1 6329   2.868   6.348   3.236
 1810SOL    HW2 6330   2.840   6.476   3.140
 1811SOL     OW 6331   6.131   5.552   3.357
 1811SOL    HW1 6332   6.036   5.522   3.369
 1811SOL    HW2 6333   6.149   5.565   3.259
 1812SOL     OW 6334   4.013   5.684   5.764
 1812SOL    HW1 6335   3.994   5.731   5.850
 1812SOL    HW2 6336   4.031   5.587   5.782
 1813SOL     OW 6337   6.113   4.579   0.216
 1813SOL    HW1 6338   6.158   4.492   0.199
 1813SOL    HW2 6339   6.067   4.576   0.304
 1814SOL     OW 6340   4.430   0.126   2.299
 1814SOL    HW1 6341   4.382   0.118   2.387
 1814SOL    HW2 6342   4.479   0.213   2.295
 1815SOL     OW 6343   0.179   0.784   3.081
 1815SOL    HW1 6344   0.213   0.701   3.036
 1815SOL    HW2 6345   0.224   0.794   3.170
 1816SOL     OW 6346   1.550   3.467   6.951
 1816SOL    HW1 6347   1.584   3.486   6.859
 1816SOL    HW2 6348   1.524   3.371   6.959
 1817SOL     OW 6349   1.947   5.386   2.396
 1817SOL    HW1 6350   1.995   5.468   2.366
 1817SOL    HW2 6351   1.903   5.343   2.317
 1818SOL     OW 6352   1.563   0.603   3.014
 1818SOL    HW1 6353   1.584   0.521   2.961
 1818SOL    HW2 6354   1.465   0.624   3.007
 1819SOL     OW 6355   1.441   4.178   1.067
 1819SOL    HW1 6356   1.435   4.278   1.060
 1819SOL    HW2 6357   1.409   4.149   1.158
 1820SOL     OW 6358   5.023   0.503   3.014
 1820SOL    HW1 6359   5.105   0.553   2.985
 1820SOL    HW2 6360   4.965   0.485   2.934
 1821SOL     OW 6361   2.083   1.898   3.161
 1821SOL    HW1 6362   2.037   1.832   3.221
 1821SOL    HW2 6363   2.158   1.942   3.212
 1822SOL     OW 6364   3.348   2.490   1.729
 1822SOL    HW1 6365   3.256   2.529   1.737
 1822SOL    HW2 6366   3.341   2.390   1.723
 1823SOL     OW 6367   4.403   6.647   2.029
 1823SOL    HW1 6368   4.366   6.554   2.030
 1823SOL    HW2 6369   4.371   6.695   1.947
 1824SOL     OW 6370   4.734   2.516   1.462
 1824SOL    HW1 6371   4.808   2.466   1.507
 1824SOL    HW2 6372   4.708   2.594   1.518
 1825SOL     OW 6373   1.179   0.446   1.556
 1825SOL    HW1 6374   1.267   0.442   1.509
 1825SOL    HW2 6375   1.137   0.536   1.540
 1826SOL     OW 6376   2.971   0.399   0.197
 1826SOL    HW1 6377   2.978   0.401   0.297
 1826SOL    HW2 6378   3.013   0.315   0.162
 1827SOL     OW 6379   6.724   5.647   1.816
 1827SOL    HW1 6380   6.734   5.569   1.878
 1827SOL    HW2 6381   6.807   5.657   1.761
 1828SOL     OW 6382   0.590   2.732   6.227
 1828SOL    HW1 6383   0.664   2.665   6.227
 1828SOL    HW2 6384   0.623   2.819   6.264
 1829SOL     OW 6385   5.567   5.734   2.734
 1829SOL    HW1 6386   5.533   5.774   2.649
 1829SOL    HW2 6387   5.571   5.804   2.805
 1830SOL     OW 6388   4.565   6.071   3.104
 1830SOL    HW1 6389   4.572   6.167   3.131
 1830SOL    HW2 6390   4.650   6.042   3.060
 1831SOL     OW 6391   5.289   6.422   1.929
 1831SOL    HW1 6392   5.313   6.352   1.997
 1831SOL    HW2 6393   5.372   6.469   1.899
 1832SOL     OW 6394   4.461   2.516   1.063
 1832SOL    HW1 6395   4.542   2.549   1.015
 1832SOL    HW2 6396   4.412   2.593   1.103
 1833SOL     OW 6397   4.600   0.488   4.866
 1833SOL    HW1 6398   4.502   0.471   4.869
 1833SOL    HW2 6399   4.620   0.575   4.911
 1834SOL     OW 6400   3.694   3.495   1.320
 1834SOL    HW1 6401   3.671   3.401   1.344
 1834SOL    HW2 6402   3.792   3.510   1.332
 1835SOL     OW 6403   1.264   5.000   0.811
 1835SOL    HW1 6404   1.241   4.903   0.808
 1835SOL    HW2 6405   1.256   5.034   0.904
 1836SOL     OW 6406   0.321   0.139   0.679
 1836SOL    HW1 6407   0.254   0.177   0.615
 1836SOL    HW2 6408   0.379   0.072   0.631
 1837SOL     OW 6409   0.991   2.426   4.299
 1837SOL    HW1 6410   1.023   2.391   4.387
 1837SOL    HW2 6411   1.053   2.497   4.267
 1838SOL     OW 6412   6.744   2.748   4.332
 1838SOL    HW1 6413   6.755   2.798   4.246
 1838SOL    HW2 6414   6.717   2.811   4.404
 1839SOL     OW 6415   6.417   2.923   5.431
 1839SOL    HW1 6416   6.415   2.888   5.525
 1839SOL    HW2 6417   6.428   2.846   5.368
 1840SOL     OW 6418   2.618   5.498   0.545
 1840SOL    HW1 6419   2.610   5.550   0.460
 1840SOL    HW2 6420   2.694   5.433   0.537
 1841SOL     OW 6421   2.166   2.798   3.793
 1841SOL    HW1 6422   2.221   2.842   3.864
 1841SOL    HW2 6423   2.188   2.839   3.704
 1842SOL     OW 6424   0.859   4.329   1.035
 1842SOL    HW1 6425   0.805   4.401   0.993
 1842SOL    HW2 6426   0.841   4.242   0.989
 1843SOL     OW 6427   2.662   1.569   5.076
 1843SOL    HW1 6428   2.603   1.636   5.121
 1843SOL    HW2 6429   2.749   1.613   5.052
 1844SOL     OW 6430   4.010   2.223   4.055
 1844SOL    HW1 6431   3.949   2.168   4.112
 1844SOL    HW2 6432   3.971   2.231   3.963
 1845SOL     OW 6433   3.358   0.064   6.924
 1845SOL    HW1 6434   3.446   0.024   6.898
 1845SOL    HW2 6435   3.370   0.120   7.006
 1846SOL     OW 6436   2.868   2.084   6.563
 1846SOL    HW1 6437   2.924   2.002   6.553
 1846SOL    HW2 6438   2.825   2.085   6.654
 1847SOL     OW 6439   0.952   0.361   1.262
 1847SOL    HW1 6440   0.973   0.291   1.331
 1847SOL    HW2 6441   0.872   0.333   1.209
 1848SOL     OW 6442   3.056   6.591   2.009
 1848SOL    HW1 6443   2.989   6.533   1.962
 1848SOL    HW2 6444   3.029   6.687   2.000
 1849SOL     OW 6445   3.349   1.981   6.728
 1849SOL    HW1 6446   3.330   1.883   6.720
 1849SOL    HW2 6447   3.270   2.033   6.694
 1850SOL     OW 6448   6.277   2.636   3.112
 1850SOL    HW1 6449   6.295   2.595   3.201
 1850SOL    HW2 6450   6.211   2.580   3.061
 1851SOL     OW 6451   0.570   2.695   2.384
 1851SOL    HW1 6452   0.528   2.710   2.294
 1851SOL    HW2 6453   0.538   2.765   2.448
 1852SOL     OW 6454   4.226   3.197   0.398
 1852SOL    HW1 6455   4.177   3.193   0.485
 1852SOL    HW2 6456   4.174   3.251   0.332
 1853SOL     OW 6457   1.436   4.125   1.342
 1853SOL    HW1 6458   1.473   4.100   1.431
 1853SOL    HW2 6459   1.454   4.222   1.325
 1854SOL     OW 6460   2.701   5.582   4.634
 1854SOL    HW1 6461   2.729   5.673   4.666
 1854SOL    HW2 6462   2.630   5.592   4.564
 1855SOL     OW 6463   5.489   5.136   0.573
 1855SOL    HW1 6464   5.437   5.057   0.606
 1855SOL    HW2 6465   5.436   5.185   0.504
 1856SOL     OW 6466   5.563   2.178   4.697
 1856SOL    HW1 6467   5.593   2.086   4.721
 1856SOL    HW2 6468   5.530   2.179   4.602
 1857SOL     OW 6469   3.948   0.802   3.809
 1857SOL    HW1 6470   3.910   0.882   3.856
 1857SOL    HW2 6471   3.982   0.737   3.877
 1858SOL     OW 6472   5.219   2.782   3.851
 1858SOL    HW1 6473   5.126   2.755   3.826
 1858SOL    HW2 6474   5.282   2.708   3.827
 1859SOL     OW 6475   4.417   2.431   3.217
 1859SOL    HW1 6476   4.452   2.476   3.135
 1859SOL    HW2 6477   4.481   2.443   3.292
 1860SOL     OW 6478   6.036   1.151   4.559
 1860SOL    HW1 6479   6.087   1.200   4.630
 1860SOL    HW2 6480   6.089   1.072   4.529
 1861SOL     OW 6481   5.462   6.456   3.023
 1861SOL    HW1 6482   5.495   6.398   3.098
 1861SOL    HW2 6483   5.364   6.471   3.034
 1862SOL     OW 6484   2.089   1.413   0.176
 1862SOL    HW1 6485   2.129   1.321   0.176
 1862SOL    HW2 6486   2.142   1.472   0.238
 1863SOL     OW 6487   2.938   2.966   1.263
 1863SOL    HW1 6488   2.937   2.880   1.315
 1863SOL    HW2 6489   2.867   2.963   1.193
 1864SOL     OW 6490   1.069   6.596   4.768
 1864SOL    HW1 6491   1.091   6.619   4.673
 1864SOL    HW2 6492   0.976   6.627   4.789
 1865SOL     OW 6493   4.062   1.879   5.987
 1865SOL    HW1 6494   3.999   1.852   6.059
 1865SOL    HW2 6495   4.084   1.976   5.997
 1866SOL     OW 6496   4.504   4.495   2.085
 1866SOL    HW1 6497   4.546   4.410   2.053
 1866SOL    HW2 6498   4.483   4.487   2.182
 1867SOL     OW 6499   0.324   4.229   0.256
 1867SOL    HW1 6500   0.326   4.329   0.249
 1867SOL    HW2 6501   0.229   4.198   0.255
 1868SOL     OW 6502   5.819   4.389   6.047
 1868SOL    HW1 6503   5.768   4.456   5.992
 1868SOL    HW2 6504   5.772   4.301   6.043
 1869SOL     OW 6505   6.505   1.332   5.094
 1869SOL    HW1 6506   6.495   1.234   5.111
 1869SOL    HW2 6507   6.431   1.364   5.035
 1870SOL     OW 6508   1.646   5.413   4.677
 1870SOL    HW1 6509   1.717   5.462   4.728
 1870SOL    HW2 6510   1.646   5.443   4.582
 1871SOL     OW 6511   1.947   6.830   0.316
 1871SOL    HW1 6512   1.949   6.907   0.252
 1871SOL    HW2 6513   1.904   6.859   0.402
 1872SOL     OW 6514   1.896   4.227   0.125
 1872SOL    HW1 6515   1.859   4.267   0.042
 1872SOL    HW2 6516   1.884   4.290   0.201
 1873SOL     OW 6517   4.269   1.554   6.750
 1873SOL    HW1 6518   4.176   1.518   6.742
 1873SOL    HW2 6519   4.323   1.526   6.671
 1874SOL     OW 6520   1.641   1.577   2.187
 1874SOL    HW1 6521   1.583   1.542   2.113
 1874SOL    HW2 6522   1.661   1.503   2.252
 1875SOL     OW 6523   0.567   6.673   6.408
 1875SOL    HW1 6524   0.577   6.581   6.447
 1875SOL    HW2 6525   0.515   6.730   6.470
 1876SOL     OW 6526   2.962   0.020   4.107
 1876SOL    HW1 6527   2.876   0.071   4.114
 1876SOL    HW2 6528   3.026   0.054   4.175
 1877SOL     OW 6529   1.160   0.225   3.711
 1877SOL    HW1 6530   1.128   0.209   3.804
 1877SOL    HW2 6531   1.104   0.296   3.668
 1878SOL     OW 6532   6.617   2.435   4.913
 1878SOL    HW1 6533   6.591   2.374   4.838
 1878SOL    HW2 6534   6.621   2.529   4.879
 1879SOL     OW 6535   1.389   3.978   5.031
 1879SOL    HW1 6536   1.390   4.026   5.118
 1879SOL    HW2 6537   1.433   4.036   4.961
 1880SOL     OW 6538   5.697   1.330   4.890
 1880SOL    HW1 6539   5.726   1.424   4.872
 1880SOL    HW2 6540   5.600   1.329   4.915
 1881SOL     OW 6541   6.754   1.711   0.478
 1881SOL    HW1 6542   6.739   1.614   0.500
 1881SOL    HW2 6543   6.732   1.767   0.557
 1882SOL     OW 6544   0.887   4.139   6.084
 1882SOL    HW1 6545   0.852   4.107   5.996
 1882SOL    HW2 6546   0.972   4.188   6.070
 1883SOL     OW 6547   0.137   2.661   3.240
 1883SOL    HW1 6548   0.058   2.690   3.293
 1883SOL    HW2 6549   0.196   2.740   3.222
 1884SOL     OW 6550   6.981   2.033   1.643
 1884SOL    HW1 6551   7.015   1.947   1.680
 1884SOL    HW2 6552   0.026   2.103   1.651
 1885SOL     OW 6553   2.269   2.049   5.425
 1885SOL    HW1 6554   2.232   2.102   5.500
 1885SOL    HW2 6555   2.333   1.981   5.461
 1886SOL     OW 6556   1.456   6.621   3.436
 1886SOL    HW1 6557   1.491   6.670   3.356
 1886SOL    HW2 6558   1.439   6.686   3.510
 1887SOL     OW 6559   1.162   6.429   6.185
 1887SOL    HW1 6560   1.078   6.431   6.239
 1887SOL    HW2 6561   1.144   6.464   6.093
 1888SOL     OW 6562   2.899   1.059   1.415
 1888SOL    HW1 6563   2.807   1.036   1.447
 1888SOL    HW2 6564   2.915   1.157   1.427
 1889SOL     OW 6565   1.544   3.741   3.479
 1889SOL    HW1 6566   1.562   3.678   3.554
 1889SOL    HW2 6567   1.472   3.806   3.506
 1890SOL     OW 6568   0.643   6.066   3.924
 1890SOL    HW1 6569   0.713   6.002   3.891
 1890SOL    HW2 6570   0.670   6.102   4.013
 1891SOL     OW 6571   4.081   3.692   2.509
 1891SOL    HW1 6572   4.049   3.772   2.457
 1891SOL    HW2 6573   4.181   3.693   2.511
 1892SOL     OW 6574   0.559   0.455   1.998
 1892SOL    HW1 6575   0.513   0.370   2.025
 1892SOL    HW2 6576   0.620   0.437   1.921
 1893SOL     OW 6577   3.680   3.328   3.547
 1893SOL    HW1 6578   3.705   3.381   3.628
 1893SOL    HW2 6579   3.711   3.376   3.465
 1894SOL     OW 6580   3.989   3.817   4.728
 1894SOL    HW1 6581   3.943   3.863   4.652
 1894SOL    HW2 6582   3.975   3.871   4.812
 1895SOL     OW 6583   3.910   0.039   0.237
 1895SOL    HW1 6584   4.002   0.024   0.201
 1895SOL    HW2 6585   3.902   7.021   0.327
 1896SOL     OW 6586   5.249   1.894   1.156
 1896SOL    HW1 6587   5.180   1.966   1.170
 1896SOL    HW2 6588   5.259   1.876   1.058
 1897SOL     OW 6589   2.272   4.860   3.647
 1897SOL    HW1 6590   2.261   4.763   3.626
 1897SOL    HW2 6591   2.285   4.911   3.562
 1898SOL     OW 6592   1.589   6.139   3.532
 1898SOL    HW1 6593   1.609   6.232   3.563
 1898SOL    HW2 6594   1.602   6.075   3.607
 1899SOL     OW 6595   6.884   0.226   2.102
 1899SOL    HW1 6596   6.927   0.217   2.192
 1899SOL    HW2 6597   6.930   0.298   2.050
 1900SOL     OW 6598   2.616   0.020   0.151
 1900SOL    HW1 6599   2.660   0.075   0.222
 1900SOL    HW2 6600   2.670   0.026   0.067
 1901SOL     OW 6601   2.658   3.790   0.673
 1901SOL    HW1 6602   2.569   3.812   0.713
 1901SOL    HW2 6603   2.673   3.691   0.677
 1902SOL     OW 6604   1.538   6.641   4.719
 1902SOL    HW1 6605   1.527   6.598   4.630
 1902SOL    HW2 6606   1.469   6.713   4.730
 1903SOL     OW 6607   1.380   2.859   4.644
 1903SOL    HW1 6608   1.360   2.948   4.685
 1903SOL    HW2 6609   1.478   2.841   4.648
 1904SOL     OW 6610   5.826   5.270   2.581
 1904SOL    HW1 6611   5.817   5.271   2.481
 1904SOL    HW2 6612   5.757   5.330   2.621
 1905SOL     OW 6613   0.277   0.709   3.763
 1905SOL    HW1 6614   0.253   0.663   3.849
 1905SOL    HW2 6615   0.374   0.733   3.764
 1906SOL     OW 6616   2.326   6.987   5.466
 1906SOL    HW1 6617   2.347   0.055   5.437
 1906SOL    HW2 6618   2.373   6.968   5.552
 1907SOL     OW 6619   4.752   2.815   0.143
 1907SOL    HW1 6620   4.819   2.813   0.069
 1907SOL    HW2 6621   4.668   2.859   0.110
 1908SOL     OW 6622   3.645   1.482   1.191
 1908SOL    HW1 6623   3.744   1.474   1.202
 1908SOL    HW2 6624   3.599   1.411   1.243
 1909SOL     OW 6625   6.940   4.674   5.243
 1909SOL    HW1 6626   6.903   4.750   5.190
 1909SOL    HW2 6627   6.865   4.620   5.281
 1910SOL     OW 6628   6.513   6.470   5.701
 1910SOL    HW1 6629   6.479   6.383   5.665
 1910SOL    HW2 6630   6.542   6.458   5.796
 1911SOL     OW 6631   0.032   5.103   4.262
 1911SOL    HW1 6632   0.129   5.121   4.246
 1911SOL    HW2 6633   7.006   5.189   4.263
 1912SOL     OW 6634   2.480   4.885   2.799
 1912SOL    HW1 6635   2.486   4.785   2.804
 1912SOL    HW2 6636   2.452   4.912   2.707
 1913SOL     OW 6637   2.792   4.556   5.386
 1913SOL    HW1 6638   2.856   4.519   5.319
 1913SOL    HW2 6639   2.704   4.574   5.342
 1914SOL     OW 6640   2.592   4.097   6.419
 1914SOL    HW1 6641   2.686   4.069   6.438
 1914SOL    HW2 6642   2.531   4.019   6.437
 1915SOL     OW 6643   4.511   2.286   6.557
 1915SOL    HW1 6644   4.498   2.383   6.536
 1915SOL    HW2 6645   4.457   2.261   6.637
 1916SOL     OW 6646   3.935   0.648   2.196
 1916SOL    HW1 6647   3.901   0.655   2.290
 1916SOL    HW2 6648   3.966   0.738   2.164
 1917SOL     OW 6649   2.733   4.148   1.334
 1917SOL    HW1 6650   2.744   4.130   1.432
 1917SOL    HW2 6651   2.756   4.066   1.282
 1918SOL     OW 6652   6.632   1.980   4.304
 1918SOL    HW1 6653   6.650   1.947   4.397
 1918SOL    HW2 6654   6.533   1.992   4.292
 1919SOL     OW 6655   0.997   1.881   0.989
 1919SOL    HW1 6656   1.001   1.980   0.986
 1919SOL    HW2 6657   0.903   1.850   0.969
 1920SOL     OW 6658   5.029   2.502   0.814
 1920SOL    HW1 6659   4.980   2.473   0.897
 1920SOL    HW2 6660   4.969   2.491   0.735
 1921SOL     OW 6661   2.165   3.077   6.651
 1921SOL    HW1 6662   2.240   3.039   6.596
 1921SOL    HW2 6663   2.123   3.004   6.705
 1922SOL     OW 6664   2.953   3.832   2.220
 1922SOL    HW1 6665   2.855   3.848   2.232
 1922SOL    HW2 6666   2.967   3.760   2.152
 1923SOL     OW 6667   4.153   0.460   5.394
 1923SOL    HW1 6668   4.250   0.448   5.371
 1923SOL    HW2 6669   4.108   0.514   5.322
 1924SOL     OW 6670   4.494   6.899   1.116
 1924SOL    HW1 6671   4.492   6.918   1.018
 1924SOL    HW2 6672   4.559   6.825   1.134
 1925SOL     OW 6673   1.273   4.731   1.344
 1925SOL    HW1 6674   1.223   4.691   1.421
 1925SOL    HW2 6675   1.367   4.700   1.345
 1926SOL     OW 6676   3.381   6.879   2.138
 1926SOL    HW1 6677   3.343   6.803   2.085
 1926SOL    HW2 6678   3.412   6.951   2.075
 1927SOL     OW 6679   1.925   5.371   1.287
 1927SOL    HW1 6680   2.005   5.335   1.336
 1927SOL    HW2 6681   1.870   5.425   1.350
 1928SOL     OW 6682   4.882   4.129   2.859
 1928SOL    HW1 6683   4.789   4.161   2.840
 1928SOL    HW2 6684   4.947   4.188   2.812
 1929SOL     OW 6685   2.922   0.594   3.054
 1929SOL    HW1 6686   2.838   0.623   3.101
 1929SOL    HW2 6687   2.910   0.605   2.956
 1930SOL     OW 6688   4.646   2.948   6.537
 1930SOL    HW1 6689   4.587   2.931   6.616
 1930SOL    HW2 6690   4.644   3.046   6.515
 1931SOL     OW 6691   0.973   1.780   4.594
 1931SOL    HW1 6692   0.922   1.865   4.609
 1931SOL    HW2 6693   1.051   1.799   4.534
 1932SOL     OW 6694   4.568   2.512   2.231
 1932SOL    HW1 6695   4.616   2.585   2.182
 1932SOL    HW2 6696   4.470   2.529   2.230
 1933SOL     OW 6697   1.353   1.340   0.914
 1933SOL    HW1 6698   1.396   1.396   0.985
 1933SOL    HW2 6699   1.365   1.383   0.825
 1934SOL     OW 6700   0.358   0.333   6.000
 1934SOL    HW1 6701   0.321   0.422   5.972
 1934SOL    HW2 6702   0.289   0.262   5.987
 1935SOL     OW 6703   0.045   5.409   4.005
 1935SOL    HW1 6704   0.051   5.321   3.958
 1935SOL    HW2 6705   0.009   5.394   4.097
 1936SOL     OW 6706   4.672   3.078   5.306
 1936SOL    HW1 6707   4.700   3.169   5.275
 1936SOL    HW2 6708   4.573   3.076   5.318
 1937SOL     OW 6709   5.444   5.301   6.710
 1937SOL    HW1 6710   5.367   5.357   6.741
 1937SOL    HW2 6711   5.446   5.299   6.610
 1938SOL     OW 6712   0.710   2.948   6.346
 1938SOL    HW1 6713   0.795   2.960   6.294
 1938SOL    HW2 6714   0.635   2.994   6.298
 1939SOL     OW 6715   1.110   0.377   4.711
 1939SOL    HW1 6716   1.167   0.459   4.714
 1939SOL    HW2 6717   1.023   0.398   4.667
 1940SOL     OW 6718   6.621   4.810   0.815
 1940SOL    HW1 6719   6.663   4.897   0.790
 1940SOL    HW2 6720   6.692   4.741   0.827
 1941SOL     OW 6721   6.918   2.126   4.407
 1941SOL    HW1 6722   6.858   2.183   4.464
 1941SOL    HW2 6723   7.011   2.164   4.409
 1942SOL     OW 6724   5.767   3.613   2.506
 1942SOL    HW1 6725   5.785   3.634   2.410
 1942SOL    HW2 6726   5.777   3.695   2.561
 1943SOL     OW 6727   1.056   1.254   2.660
 1943SOL    HW1 6728   1.120   1.178   2.661
 1943SOL    HW2 6729   1.024   1.273   2.753
 1944SOL     OW 6730   0.163   2.946   2.626
 1944SOL    HW1 6731   0.262   2.953   2.615
 1944SOL    HW2 6732   0.141   2.945   2.724
 1945SOL     OW 6733   5.025   0.657   2.054
 1945SOL    HW1 6734   5.108   0.707   2.080
 1945SOL    HW2 6735   4.945   0.716   2.068
 1946SOL     OW 6736   6.045   5.148   1.414
 1946SOL    HW1 6737   5.973   5.113   1.354
 1946SOL    HW2 6738   6.081   5.233   1.375
 1947SOL     OW 6739   5.992   4.731   3.952
 1947SOL    HW1 6740   6.058   4.806   3.954
 1947SOL    HW2 6741   5.916   4.754   3.892
 1948SOL     OW 6742   4.825   3.699   3.396
 1948SOL    HW1 6743   4.828   3.799   3.405
 1948SOL    HW2 6744   4.842   3.674   3.301
 1949SOL     OW 6745   3.908   4.855   6.616
 1949SOL    HW1 6746   3.964   4.801   6.551
 1949SOL    HW2 6747   3.816   4.865   6.579
 1950SOL     OW 6748   3.290   4.051   3.651
 1950SOL    HW1 6749   3.272   4.148   3.666
 1950SOL    HW2 6750   3.209   3.998   3.677
 1951SOL     OW 6751   6.074   4.284   6.047
 1951SOL    HW1 6752   6.081   4.257   5.951
 1951SOL    HW2 6753   5.981   4.317   6.065
 1952SOL     OW 6754   5.459   5.119   6.918
 1952SOL    HW1 6755   5.451   5.182   6.841
 1952SOL    HW2 6756   5.479   5.027   6.883
 1953SOL     OW 6757   0.547   1.099   6.764
 1953SOL    HW1 6758   0.528   1.097   6.862
 1953SOL    HW2 6759   0.615   1.029   6.742
 1954SOL     OW 6760   4.385   0.124   2.012
 1954SOL    HW1 6761   4.381   0.066   2.093
 1954SOL    HW2 6762   4.372   0.220   2.039
 1955SOL     OW 6763   0.736   2.004   2.600
 1955SOL    HW1 6764   0.642   2.037   2.602
 1955SOL    HW2 6765   0.772   2.002   2.694
 1956SOL     OW 6766   5.917   0.347   1.766
 1956SOL    HW1 6767   5.893   0.340   1.863
 1956SOL    HW2 6768   5.835   0.372   1.714
 1957SOL     OW 6769   5.490   1.821   4.103
 1957SOL    HW1 6770   5.394   1.797   4.090
 1957SOL    HW2 6771   5.528   1.857   4.018
 1958SOL     OW 6772   4.427   1.813   1.000
 1958SOL    HW1 6773   4.416   1.911   0.984
 1958SOL    HW2 6774   4.371   1.763   0.934
 1959SOL     OW 6775   0.477   0.659   4.641
 1959SOL    HW1 6776   0.462   0.743   4.693
 1959SOL    HW2 6777   0.390   0.630   4.601
 1960SOL     OW 6778   5.989   3.918   4.112
 1960SOL    HW1 6779   5.907   3.962   4.075
 1960SOL    HW2 6780   6.059   3.914   4.042
 1961SOL     OW 6781   6.836   4.167   4.294
 1961SOL    HW1 6782   6.849   4.260   4.260
 1961SOL    HW2 6783   6.901   4.106   4.248
 1962SOL     OW 6784   0.737   0.128   2.342
 1962SOL    HW1 6785   0.818   0.085   2.384
 1962SOL    HW2 6786   0.655   0.101   2.392
 1963SOL     OW 6787   0.711   2.147   1.818
 1963SOL    HW1 6788   0.666   2.195   1.894
 1963SOL    HW2 6789   0.810   2.152   1.831
 1964SOL     OW 6790   5.459   3.993   1.254
 1964SOL    HW1 6791   5.478   4.088   1.232
 1964SOL    HW2 6792   5.513   3.934   1.194
 1965SOL     OW 6793   0.499   4.473   4.210
 1965SOL    HW1 6794   0.447   4.553   4.239
 1965SOL    HW2 6795   0.494   4.402   4.281
 1966SOL     OW 6796   1.984   4.696   6.905
 1966SOL    HW1 6797   2.075   4.655   6.902
 1966SOL    HW2 6798   1.990   4.792   6.876
 1967SOL     OW 6799   5.668   3.369   3.183
 1967SOL    HW1 6800   5.762   3.404   3.177
 1967SOL    HW2 6801   5.670   3.271   3.198
 1968SOL     OW 6802   2.974   1.477   5.242
 1968SOL    HW1 6803   2.909   1.455   5.315
 1968SOL    HW2 6804   3.067   1.482   5.279
 1969SOL     OW 6805   2.702   6.055   0.343
 1969SOL    HW1 6806   2.707   6.039   0.441
 1969SOL    HW2 6807   2.644   6.135   0.325
 1970SOL     OW 6808   6.207   5.359   5.421
 1970SOL    HW1 6809   6.127   5.299   5.422
 1970SOL    HW2 6810   6.257   5.349   5.507
 1971SOL     OW 6811   1.896   5.894   4.599
 1971SOL    HW1 6812   1.911   5.804   4.558
 1971SOL    HW2 6813   1.882   5.884   4.698
 1972SOL     OW 6814   6.106   2.755   2.632
 1972SOL    HW1 6815   6.060   2.819   2.571
 1972SOL    HW2 6816   6.038   2.711   2.691
 1973SOL     OW 6817   2.470   3.490   6.730
 1973SOL    HW1 6818   2.394   3.426   6.717
 1973SOL    HW2 6819   2.470   3.557   6.656
 1974SOL     OW 6820   3.451   6.533   4.989
 1974SOL    HW1 6821   3.364   6.528   4.939
 1974SOL    HW2 6822   3.491   6.442   4.996
 1975SOL     OW 6823   1.767   2.546   3.439
 1975SOL    HW1 6824   1.853   2.580   3.476
 1975SOL    HW2 6825   1.745   2.594   3.354
 1976SOL     OW 6826   6.947   7.016   6.388
 1976SOL    HW1 6827   7.008   6.939   6.407
 1976SOL    HW2 6828   6.897   0.015   6.471
 1977SOL     OW 6829   2.037   4.516   5.834
 1977SOL    HW1 6830   1.976   4.446   5.796
 1977SOL    HW2 6831   2.029   4.515   5.934
 1978SOL     OW 6832   2.810   6.921   1.450
 1978SOL    HW1 6833   2.821   6.850   1.520
 1978SOL    HW2 6834   2.780   6.880   1.365
 1979SOL     OW 6835   0.214   4.976   6.461
 1979SOL    HW1 6836   0.301   4.931   6.444
 1979SOL    HW2 6837   0.169   4.933   6.539
 1980SOL     OW 6838   3.607   1.336   0.940
 1980SOL    HW1 6839   3.626   1.395   1.018
 1980SOL    HW2 6840   3.536   1.377   0.884
 1981SOL     OW 6841   4.139   2.097   3.184
 1981SOL    HW1 6842   4.052   2.147   3.190
 1981SOL    HW2 6843   4.123   2.000   3.204
 1982SOL     OW 6844   6.943   2.784   5.581
 1982SOL    HW1 6845   6.881   2.789   5.659
 1982SOL    HW2 6846   6.923   2.701   5.528
 1983SOL     OW 6847   0.208   0.703   2.348
 1983SOL    HW1 6848   0.215   0.803   2.353
 1983SOL    HW2 6849   0.287   0.667   2.299
 1984SOL     OW 6850   5.277   3.028   5.546
 1984SOL    HW1 6851   5.349   3.066   5.487
 1984SOL    HW2 6852   5.190   3.029   5.496
 1985SOL     OW 6853   6.373   3.685   2.496
 1985SOL    HW1 6854   6.409   3.602   2.453
 1985SOL    HW2 6855   6.274   3.675   2.508
 1986SOL     OW 6856   4.148   2.522   1.706
 1986SOL    HW1 6857   4.235   2.512   1.756
 1986SOL    HW2 6858   4.095   2.438   1.716
 1987SOL     OW 6859   2.739   1.080   1.818
 1987SOL    HW1 6860   2.764   1.170   1.782
 1987SOL    HW2 6861   2.787   1.065   1.904
 1988SOL     OW 6862   6.967   2.216   1.340
 1988SOL    HW1 6863   7.011   2.305   1.347
 1988SOL    HW2 6864   6.962   2.174   1.431
 1989SOL     OW 6865   2.850   5.148   4.903
 1989SOL    HW1 6866   2.893   5.107   4.983
 1989SOL    HW2 6867   2.830   5.077   4.835
 1990SOL     OW 6868   3.747   0.508   0.807
 1990SOL    HW1 6869   3.669   0.465   0.852
 1990SOL    HW2 6870   3.813   0.538   0.876
 1991SOL     OW 6871   2.515   4.813   1.057
 1991SOL    HW1 6872   2.523   4.911   1.074
 1991SOL    HW2 6873   2.421   4.790   1.031
 1992SOL     OW 6874   0.458   5.816   1.308
 1992SOL    HW1 6875   0.483   5.905   1.269
 1992SOL    HW2 6876   0.531   5.750   1.290
 1993SOL     OW 6877   2.276   2.944   3.983
 1993SOL    HW1 6878   2.287   2.885   4.063
 1993SOL    HW2 6879   2.239   3.032   4.011
 1994SOL     OW 6880   2.944   2.712   0.547
 1994SOL    HW1 6881   2.977   2.798   0.587
 1994SOL    HW2 6882   2.961   2.713   0.449
 1995SOL     OW 6883   5.846   2.321   4.701
 1995SOL    HW1 6884   5.828   2.345   4.606
 1995SOL    HW2 6885   5.761   2.295   4.746
 1996SOL     OW 6886   3.890   1.666   0.833
 1996SOL    HW1 6887   3.943   1.600   0.886
 1996SOL    HW2 6888   3.875   1.748   0.887
 1997SOL     OW 6889   4.003   0.406   3.498
 1997SOL    HW1 6890   3.953   0.321   3.514
 1997SOL    HW2 6891   4.032   0.445   3.585
 1998SOL     OW 6892   1.927   3.311   1.128
 1998SOL    HW1 6893   2.014   3.317   1.178
 1998SOL    HW2 6894   1.863   3.255   1.180
 1999SOL     OW 6895   2.110   6.655   6.337
 1999SOL    HW1 6896   2.043   6.699   6.397
 1999SOL    HW2 6897   2.154   6.579   6.385
 2000SOL     OW 6898   4.031   4.204   6.029
 2000SOL    HW1 6899   3.958   4.188   5.963
 2000SOL    HW2 6900   3.992   4.226   6.118
 2001SOL     OW 6901   2.242   1.562   0.336
 2001SOL    HW1 6902   2.309   1.533   0.404
 2001SOL    HW2 6903   2.195   1.644   0.369
 2002SOL     OW 6904   0.024   4.465   0.127
 2002SOL    HW1 6905   7.018   4.445   0.034
 2002SOL    HW2 6906   6.974   4.501   0.181
 2003SOL     OW 6907   6.716   5.289   2.833
 2003SOL    HW1 6908   6.685   5.274   2.926
 2003SOL    HW2 6909   6.767   5.375   2.828
 2004SOL     OW 6910   3.174   6.724   3.254
 2004SOL    HW1 6911   3.225   6.737   3.169
 2004SOL    HW2 6912   3.086   6.771   3.248
 2005SOL     OW 6913   1.553   6.663   0.965
 2005SOL    HW1 6914   1.556   6.640   0.868
 2005SOL    HW2 6915   1.471   6.716   0.985
 2006SOL     OW 6916   6.081   6.991   2.871
 2006SOL    HW1 6917   6.015   6.959   2.804
 2006SOL    HW2 6918   6.139   6.914   2.900
 2007SOL     OW 6919   5.492   4.831   6.907
 2007SOL    HW1 6920   5.580   4.839   6.952
 2007SOL    HW2 6921   5.506   4.804   6.811
 2008SOL     OW 6922   1.623   3.579   3.943
 2008SOL    HW1 6923   1.594   3.545   4.033
 2008SOL    HW2 6924   1.722   3.592   3.943
 2009SOL     OW 6925   6.109   0.220   2.780
 2009SOL    HW1 6926   6.091   0.125   2.808
 2009SOL    HW2 6927   6.168   0.264   2.847
 2010SOL     OW 6928   1.363   1.749   1.611
 2010SOL    HW1 6929   1.308   1.713   1.686
 2010SOL    HW2 6930   1.361   1.849   1.614
 2011SOL     OW 6931   0.440   7.002   5.926
 2011SOL    HW1 6932   0.366   7.015   5.992
 2011SOL    HW2 6933   0.403   6.962   5.842
 2012SOL     OW 6934   1.719   3.457   1.693
 2012SOL    HW1 6935   1.619   3.462   1.693
 2012SOL    HW2 6936   1.748   3.367   1.725
 2013SOL     OW 6937   0.623   3.424   2.482
 2013SOL    HW1 6938   0.723   3.432   2.489
 2013SOL    HW2 6939   0.590   3.484   2.409
 2014SOL     OW 6940   3.388   0.660   4.473
 2014SOL    HW1 6941   3.480   0.693   4.452
 2014SOL    HW2 6942   3.321   0.706   4.414
 2015SOL     OW 6943   4.506   0.554   1.827
 2015SOL    HW1 6944   4.591   0.602   1.808
 2015SOL    HW2 6945   4.512   0.460   1.794
 2016SOL     OW 6946   1.359   0.319   5.896
 2016SOL    HW1 6947   1.279   0.370   5.864
 2016SOL    HW2 6948   1.434   0.383   5.915
 2017SOL     OW 6949   4.152   6.254   3.395
 2017SOL    HW1 6950   4.235   6.289   3.352
 2017SOL    HW2 6951   4.103   6.195   3.331
 2018SOL     OW 6952   1.082   0.921   3.883
 2018SOL    HW1 6953   1.032   0.973   3.952
 2018SOL    HW2 6954   1.065   0.823   3.896
 2019SOL     OW 6955   5.730   5.085   6.423
 2019SOL    HW1 6956   5.719   5.056   6.328
 2019SOL    HW2 6957   5.826   5.106   6.441
 2020SOL     OW 6958   2.405   5.737   6.330
 2020SOL    HW1 6959   2.311   5.708   6.349
 2020SOL    HW2 6960   2.403   5.824   6.281
 2021SOL     OW 6961   0.014   6.335   3.876
 2021SOL    HW1 6962   0.081   6.334   3.951
 2021SOL    HW2 6963   6.951   6.303   3.910
 2022SOL     OW 6964   1.594   4.285   5.092
 2022SOL    HW1 6965   1.575   4.288   5.190
 2022SOL    HW2 6966   1.680   4.236   5.076
 2023SOL     OW 6967   6.749   6.421   0.498
 2023SOL    HW1 6968   6.676   6.412   0.565
 2023SOL    HW2 6969   6.838   6.414   0.544
 2024SOL     OW 6970   0.620   5.837   4.187
 2024SOL    HW1 6971   0.616   5.806   4.092
 2024SOL    HW2 6972   0.713   5.823   4.222
 2025SOL     OW 6973   1.372   6.865   4.702
 2025SOL    HW1 6974   1.291   6.874   4.760
 2025SOL    HW2 6975   1.395   6.955   4.664
 2026SOL     OW 6976   6.878   0.170   5.824
 2026SOL    HW1 6977   6.842   0.150   5.915
 2026SOL    HW2 6978   6.916   0.262   5.822
 2027SOL     OW 6979   6.860   6.047   2.615
 2027SOL    HW1 6980   6.939   6.036   2.554
 2027SOL    HW2 6981   6.840   6.144   2.627
 2028SOL     OW 6982   3.292   5.234   4.351
 2028SOL    HW1 6983   3.278   5.221   4.253
 2028SOL    HW2 6984   3.341   5.320   4.366
 2029SOL     OW 6985   6.110   2.515   6.983
 2029SOL    HW1 6986   6.156   2.568   6.912
 2029SOL    HW2 6987   6.028   2.473   6.944
 2030SOL     OW 6988   2.185   6.603   2.488
 2030SOL    HW1 6989   2.146   6.688   2.452
 2030SOL    HW2 6990   2.148   6.526   2.438
 2031SOL     OW 6991   6.881   6.025   3.931
 2031SOL    HW1 6992   6.853   6.115   3.964
 2031SOL    HW2 6993   6.841   6.007   3.842
 2032SOL     OW 6994   2.630   1.962   6.104
 2032SOL    HW1 6995   2.698   2.034   6.116
 2032SOL    HW2 6996   2.650   1.911   6.020
 2033SOL     OW 6997   2.185   1.743   0.776
 2033SOL    HW1 6998   2.199   1.751   0.677
 2033SOL    HW2 6999   2.147   1.828   0.812
 2034SOL     OW 7000   6.950   4.294   5.130
 2034SOL    HW1 7001   7.009   4.299   5.210
 2034SOL    HW2 7002   6.917   4.386   5.108
 2035SOL     OW 7003   5.705   0.213   2.925
 2035SOL    HW1 7004   5.772   0.264   2.979
 2035SOL    HW2 7005   5.613   0.231   2.961
 2036SOL     OW 7006   1.209   3.829   1.579
 2036SOL    HW1 7007   1.166   3.909   1.622
 2036SOL    HW2 7008   1.205   3.839   1.479
 2037SOL     OW 7009   0.416   2.622   0.256
 2037SOL    HW1 7010   0.375   2.555   0.194
 2037SOL    HW2 7011   0.514   2.628   0.238
 2038SOL     OW 7012   1.436   1.177   6.337
 2038SOL    HW1 7013   1.455   1.275   6.340
 2038SOL    HW2 7014   1.361   1.156   6.400
 2039SOL     OW 7015   5.799   6.391   2.793
 2039SOL    HW1 7016   5.796   6.342   2.881
 2039SOL    HW2 7017   5.865   6.346   2.732
 2040SOL     OW 7018   1.782   2.765   1.234
 2040SOL    HW1 7019   1.783   2.820   1.317
 2040SOL    HW2 7020   1.690   2.765   1.195
 2041SOL     OW 7021   2.134   0.580   6.152
 2041SOL    HW1 7022   2.220   0.536   6.127
 2041SOL    HW2 7023   2.123   0.579   6.252
 2042SOL     OW 7024   5.208   1.158   5.405
 2042SOL    HW1 7025   5.256   1.141   5.490
 2042SOL    HW2 7026   5.204   1.257   5.387
 2043SOL     OW 7027   0.188   3.934   1.315
 2043SOL    HW1 7028   0.272   3.881   1.301
 2043SOL    HW2 7029   0.117   3.875   1.351
 2044SOL     OW 7030   4.268   0.474   1.093
 2044SOL    HW1 7031   4.246   0.502   1.187
 2044SOL    HW2 7032   4.334   0.537   1.054
 2045SOL     OW 7033   1.112   6.385   5.286
 2045SOL    HW1 7034   1.173   6.372   5.208
 2045SOL    HW2 7035   1.120   6.307   5.348
 2046SOL     OW 7036   1.165   2.173   5.067
 2046SOL    HW1 7037   1.088   2.172   5.004
 2046SOL    HW2 7038   1.219   2.256   5.053
 2047SOL     OW 7039   6.913   0.419   1.105
 2047SOL    HW1 7040   7.007   0.447   1.119
 2047SOL    HW2 7041   6.860   0.435   1.189
 2048SOL     OW 7042   0.829   2.022   4.587
 2048SOL    HW1 7043   0.730   2.012   4.586
 2048SOL    HW2 7044   0.854   2.102   4.642
 2049SOL     OW 7045   5.016   1.664   5.223
 2049SOL    HW1 7046   4.922   1.666   5.189
 2049SOL    HW2 7047   5.072   1.607   5.163
 2050SOL     OW 7048   0.664   1.366   3.950
 2050SOL    HW1 7049   0.754   1.323   3.958
 2050SOL    HW2 7050   0.674   1.456   3.908
 2051SOL     OW 7051   2.844   6.375   0.534
 2051SOL    HW1 7052   2.892   6.407   0.616
 2051SOL    HW2 7053   2.820   6.453   0.476
 2052SOL     OW 7054   0.931   4.634   6.593
 2052SOL    HW1 7055   1.025   4.600   6.598
 2052SOL    HW2 7056   0.908   4.681   6.678
 2053SOL     OW 7057   0.187   6.032   3.511
 2053SOL    HW1 7058   0.155   6.122   3.481
 2053SOL    HW2 7059   0.163   5.963   3.442
 2054SOL     OW 7060   3.223   3.586   3.200
 2054SOL    HW1 7061   3.308   3.607   3.152
 2054SOL    HW2 7062   3.240   3.521   3.273
 2055SOL     OW 7063   3.228   2.320   5.806
 2055SOL    HW1 7064   3.287   2.355   5.733
 2055SOL    HW2 7065   3.192   2.231   5.781
 2056SOL     OW 7066   3.671   4.719   1.078
 2056SOL    HW1 7067   3.680   4.788   1.007
 2056SOL    HW2 7068   3.580   4.724   1.119
 2057SOL     OW 7069   5.611   2.216   4.259
 2057SOL    HW1 7070   5.548   2.259   4.194
 2057SOL    HW2 7071   5.562   2.194   4.343
 2058SOL     OW 7072   7.020   6.544   2.911
 2058SOL    HW1 7073   0.053   6.623   2.930
 2058SOL    HW2 7074   6.934   6.554   2.961
 2059SOL     OW 7075   1.158   0.543   6.086
 2059SOL    HW1 7076   1.080   0.593   6.048
 2059SOL    HW2 7077   1.214   0.606   6.140
 2060SOL     OW 7078   1.445   2.702   6.787
 2060SOL    HW1 7079   1.485   2.705   6.878
 2060SOL    HW2 7080   1.347   2.685   6.794
 2061SOL     OW 7081   1.897   2.586   2.239
 2061SOL    HW1 7082   1.958   2.606   2.163
 2061SOL    HW2 7083   1.802   2.594   2.209
 2062SOL     OW 7084   0.402   5.286   4.480
 2062SOL    HW1 7085   0.502   5.291   4.479
 2062SOL    HW2 7086   0.373   5.206   4.532
 2063SOL     OW 7087   0.786   1.183   4.751
 2063SOL    HW1 7088   0.745   1.152   4.837
 2063SOL    HW2 7089   0.791   1.283   4.751
 2064SOL     OW 7090   0.749   3.155   3.578
 2064SOL    HW1 7091   0.765   3.085   3.647
 2064SOL    HW2 7092   0.824   3.220   3.578
 2065SOL     OW 7093   4.215   3.614   5.588
 2065SOL    HW1 7094   4.282   3.550   5.624
 2065SOL    HW2 7095   4.257   3.704   5.575
 2066SOL     OW 7096   0.573   3.194   5.719
 2066SOL    HW1 7097   0.596   3.105   5.757
 2066SOL    HW2 7098   0.605   3.266   5.781
 2067SOL     OW 7099   6.683   4.931   1.291
 2067SOL    HW1 7100   6.656   4.935   1.387
 2067SOL    HW2 7101   6.607   4.958   1.233
 2068SOL     OW 7102   4.317   0.752   4.280
 2068SOL    HW1 7103   4.402   0.788   4.319
 2068SOL    HW2 7104   4.247   0.823   4.282
 2069SOL     OW 7105   0.419   2.432   4.036
 2069SOL    HW1 7106   0.464   2.383   4.110
 2069SOL    HW2 7107   0.343   2.377   4.001
 2070SOL     OW 7108   0.738   4.764   0.781
 2070SOL    HW1 7109   0.744   4.674   0.738
 2070SOL    HW2 7110   0.805   4.770   0.855
 2071SOL     OW 7111   0.058   1.600   5.437
 2071SOL    HW1 7112   0.105   1.680   5.475
 2071SOL    HW2 7113   7.015   1.630   5.371
 2072SOL     OW 7114   4.392   4.397   5.542
 2072SOL    HW1 7115   4.327   4.344   5.488
 2072SOL    HW2 7116   4.344   4.442   5.618
 2073SOL     OW 7117   3.115   5.480   6.219
 2073SOL    HW1 7118   3.071   5.569   6.212
 2073SOL    HW2 7119   3.056   5.410   6.178
 2074SOL     OW 7120   1.009   4.310   5.602
 2074SOL    HW1 7121   0.924   4.347   5.639
 2074SOL    HW2 7122   1.074   4.384   5.585
 2075SOL     OW 7123   6.523   2.164   1.288
 2075SOL    HW1 7124   6.523   2.099   1.364
 2075SOL    HW2 7125   6.474   2.247   1.315
 2076SOL     OW 7126   6.007   6.908   4.614
 2076SOL    HW1 7127   5.982   6.814   4.592
 2076SOL    HW2 7128   6.055   6.911   4.702
 2077SOL     OW 7129   6.120   4.945   0.386
 2077SOL    HW1 7130   6.025   4.933   0.357
 2077SOL    HW2 7131   6.181   4.914   0.312
 2078SOL     OW 7132   1.076   3.012   5.490
 2078SOL    HW1 7133   1.085   3.097   5.439
 2078SOL    HW2 7134   1.140   3.011   5.566
 2079SOL     OW 7135   5.464   1.485   2.009
 2079SOL    HW1 7136   5.461   1.566   2.068
 2079SOL    HW2 7137   5.373   1.444   2.004
 2080SOL     OW 7138   2.409   3.191   6.333
 2080SOL    HW1 7139   2.494   3.183   6.385
 2080SOL    HW2 7140   2.389   3.105   6.287
 2081SOL     OW 7141   6.290   5.723   2.355
 2081SOL    HW1 7142   6.313   5.815   2.386
 2081SOL    HW2 7143   6.191   5.717   2.339
 2082SOL     OW 7144   6.348   5.751   4.280
 2082SOL    HW1 7145   6.281   5.689   4.240
 2082SOL    HW2 7146   6.415   5.698   4.332
 2083SOL     OW 7147   0.564   6.787   3.781
 2083SOL    HW1 7148   0.627   6.710   3.795
 2083SOL    HW2 7149   0.590   6.863   3.839
 2084SOL     OW 7150   5.855   2.085   0.931
 2084SOL    HW1 7151   5.817   1.997   0.961
 2084SOL    HW2 7152   5.955   2.077   0.925
 2085SOL     OW 7153   5.723   5.918   0.912
 2085SOL    HW1 7154   5.768   5.992   0.962
 2085SOL    HW2 7155   5.650   5.957   0.855
 2086SOL     OW 7156   5.151   0.913   6.801
 2086SOL    HW1 7157   5.105   0.948   6.720
 2086SOL    HW2 7158   5.208   0.985   6.840
 2087SOL     OW 7159   4.395   1.509   6.986
 2087SOL    HW1 7160   4.326   1.483   0.028
 2087SOL    HW2 7161   4.350   1.532   6.900
 2088SOL     OW 7162   0.939   5.763   6.054
 2088SOL    HW1 7163   0.852   5.809   6.037
 2088SOL    HW2 7164   0.982   5.802   6.136
 2089SOL     OW 7165   2.296   4.074   0.191
 2089SOL    HW1 7166   2.271   4.108   0.100
 2089SOL    HW2 7167   2.252   4.131   0.261
 2090SOL     OW 7168   5.259   3.004   5.943
 2090SOL    HW1 7169   5.316   2.941   5.890
 2090SOL    HW2 7170   5.187   3.041   5.884
 2091SOL     OW 7171   5.521   6.168   1.836
 2091SOL    HW1 7172   5.571   6.251   1.857
 2091SOL    HW2 7173   5.521   6.154   1.736
 2092SOL     OW 7174   4.139   3.563   1.915
 2092SOL    HW1 7175   4.094   3.575   1.827
 2092SOL    HW2 7176   4.183   3.649   1.942
 2093SOL     OW 7177   3.551   1.187   1.898
 2093SOL    HW1 7178   3.526   1.101   1.854
 2093SOL    HW2 7179   3.578   1.253   1.828
 2094SOL     OW 7180   5.167   2.223   6.324
 2094SOL    HW1 7181   5.253   2.185   6.359
 2094SOL    HW2 7182   5.143   2.305   6.376
 2095SOL     OW 7183   5.397   5.611   3.882
 2095SOL    HW1 7184   5.415   5.707   3.861
 2095SOL    HW2 7185   5.472   5.575   3.937
 2096SOL     OW 7186   5.029   0.123   2.047
 2096SOL    HW1 7187   5.091   0.054   2.081
 2096SOL    HW2 7188   4.976   0.086   1.970
 2097SOL     OW 7189   1.108   5.844   6.342
 2097SOL    HW1 7190   1.207   5.860   6.340
 2097SOL    HW2 7191   1.090   5.754   6.382
 2098SOL     OW 7192   2.972   6.283   3.491
 2098SOL    HW1 7193   2.991   6.283   3.589
 2098SOL    HW2 7194   3.041   6.338   3.443
 2099SOL     OW 7195   5.055   1.590   6.114
 2099SOL    HW1 7196   5.151   1.613   6.130
 2099SOL    HW2 7197   5.006   1.587   6.201
 2100SOL     OW 7198   4.786   0.116   1.315
 2100SOL    HW1 7199   4.826   0.180   1.381
 2100SOL    HW2 7200   4.833   0.125   1.228
 2101SOL     OW 7201   0.722   0.123   2.040
 2101SOL    HW1 7202   0.791   0.098   2.108
 2101SOL    HW2 7203   0.640   0.156   2.086
 2102SOL     OW 7204   3.509   2.470   0.850
 2102SOL    HW1 7205   3.572   2.404   0.893
 2102SOL    HW2 7206   3.457   2.518   0.921
 2103SOL     OW 7207   2.926   5.858   0.278
 2103SOL    HW1 7208   2.866   5.931   0.308
 2103SOL    HW2 7209   3.011   5.897   0.243
 2104SOL     OW 7210   1.809   4.140   3.100
 2104SOL    HW1 7211   1.759   4.199   3.037
 2104SOL    HW2 7212   1.905   4.168   3.103
 2105SOL     OW 7213   6.097   5.485   5.004
 2105SOL    HW1 7214   6.061   5.466   5.096
 2105SOL    HW2 7215   6.177   5.546   5.012
 2106SOL     OW 7216   4.252   3.299   0.902
 2106SOL    HW1 7217   4.283   3.250   0.984
 2106SOL    HW2 7218   4.322   3.364   0.873
 2107SOL     OW 7219   5.061   4.513   5.716
 2107SOL    HW1 7220   5.003   4.523   5.636
 2107SOL    HW2 7221   5.030   4.576   5.787
 2108SOL     OW 7222   5.170   0.321   5.238
 2108SOL    HW1 7223   5.095   0.356   5.295
 2108SOL    HW2 7224   5.256   0.356   5.274
 2109SOL     OW 7225   2.843   6.827   2.347
 2109SOL    HW1 7226   2.831   6.738   2.303
 2109SOL    HW2 7227   2.865   6.814   2.443
 2110SOL     OW 7228   3.820   6.692   0.190
 2110SOL    HW1 7229   3.775   6.768   0.239
 2110SOL    HW2 7230   3.914   6.684   0.221
 2111SOL     OW 7231   1.111   2.652   6.017
 2111SOL    HW1 7232   1.047   2.684   5.947
 2111SOL    HW2 7233   1.165   2.576   5.980
 2112SOL     OW 7234   0.761   0.777   6.951
 2112SOL    HW1 7235   0.757   0.721   0.009
 2112SOL    HW2 7236   0.699   0.738   6.883
 2113SOL     OW 7237   0.184   0.975   4.867
 2113SOL    HW1 7238   0.091   0.992   4.899
 2113SOL    HW2 7239   0.198   1.021   4.779
 2114SOL     OW 7240   1.145   1.432   6.137
 2114SOL    HW1 7241   1.219   1.462   6.198
 2114SOL    HW2 7242   1.057   1.456   6.178
 2115SOL     OW 7243   6.603   6.289   3.149
 2115SOL    HW1 7244   6.615   6.347   3.229
 2115SOL    HW2 7245   6.533   6.220   3.167
 2116SOL     OW 7246   0.954   2.200   0.175
 2116SOL    HW1 7247   0.995   2.215   0.265
 2116SOL    HW2 7248   0.873   2.259   0.164
 2117SOL     OW 7249   6.499   1.665   2.110
 2117SOL    HW1 7250   6.481   1.751   2.157
 2117SOL    HW2 7251   6.453   1.590   2.158
 2118SOL     OW 7252   0.069   2.767   2.396
 2118SOL    HW1 7253   6.999   2.761   2.425
 2118SOL    HW2 7254   0.123   2.810   2.469
 2119SOL     OW 7255   1.432   1.388   0.154
 2119SOL    HW1 7256   1.512   1.329   0.169
 2119SOL    HW2 7257   1.441   1.470   0.211
 2120SOL     OW 7258   5.732   1.488   1.083
 2120SOL    HW1 7259   5.642   1.530   1.087
 2120SOL    HW2 7260   5.760   1.460   1.175
 2121SOL     OW 7261   1.324   0.546   6.923
 2121SOL    HW1 7262   1.252   0.579   6.983
 2121SOL    HW2 7263   1.348   0.452   6.947
 2122SOL     OW 7264   6.282   1.214   4.028
 2122SOL    HW1 7265   6.189   1.215   3.991
 2122SOL    HW2 7266   6.339   1.152   3.975
 2123SOL     OW 7267   1.396   5.217   2.938
 2123SOL    HW1 7268   1.377   5.122   2.911
 2123SOL    HW2 7269   1.471   5.253   2.883
 2124SOL     OW 7270   3.968   3.895   6.281
 2124SOL    HW1 7271   4.019   3.965   6.232
 2124SOL    HW2 7272   3.988   3.805   6.241
 2125SOL     OW 7273   1.914   6.313   4.306
 2125SOL    HW1 7274   1.833   6.253   4.303
 2125SOL    HW2 7275   1.994   6.258   4.328
 2126SOL     OW 7276   2.954   4.500   0.246
 2126SOL    HW1 7277   2.942   4.488   0.148
 2126SOL    HW2 7278   2.984   4.594   0.265
 2127SOL     OW 7279   0.705   2.454   4.289
 2127SOL    HW1 7280   0.805   2.448   4.284
 2127SOL    HW2 7281   0.665   2.369   4.256
 2128SOL     OW 7282   5.149   3.145   1.386
 2128SOL    HW1 7283   5.050   3.137   1.401
 2128SOL    HW2 7284   5.186   3.213   1.450
 2129SOL     OW 7285   5.531   3.835   4.341
 2129SOL    HW1 7286   5.543   3.737   4.326
 2129SOL    HW2 7287   5.441   3.852   4.381
 2130SOL     OW 7288   2.860   1.319   1.761
 2130SOL    HW1 7289   2.938   1.263   1.730
 2130SOL    HW2 7290   2.887   1.415   1.761
 2131SOL     OW 7291   5.455   0.469   4.862
 2131SOL    HW1 7292   5.368   0.432   4.830
 2131SOL    HW2 7293   5.517   0.394   4.884
 2132SOL     OW 7294   2.246   2.328   0.972
 2132SOL    HW1 7295   2.276   2.241   1.011
 2132SOL    HW2 7296   2.324   2.391   0.967
 2133SOL     OW 7297   3.301   2.210   1.579
 2133SOL    HW1 7298   3.349   2.166   1.655
 2133SOL    HW2 7299   3.210   2.238   1.609
 2134SOL     OW 7300   2.077   6.555   4.294
 2134SOL    HW1 7301   2.017   6.478   4.312
 2134SOL    HW2 7302   2.127   6.579   4.377
 2135SOL     OW 7303   1.032   0.801   4.283
 2135SOL    HW1 7304   1.118   0.839   4.251
 2135SOL    HW2 7305   0.956   0.851   4.241
 2136SOL     OW 7306   0.871   4.434   3.828
 2136SOL    HW1 7307   0.946   4.492   3.860
 2136SOL    HW2 7308   0.831   4.385   3.906
 2137SOL     OW 7309   1.274   0.792   4.990
 2137SOL    HW1 7310   1.252   0.724   5.059
 2137SOL    HW2 7311   1.200   0.797   4.923
 2138SOL     OW 7312   0.477   2.816   0.536
 2138SOL    HW1 7313   0.383   2.831   0.566
 2138SOL    HW2 7314   0.509   2.729   0.573
 2139SOL     OW 7315   2.461   1.307   4.916
 2139SOL    HW1 7316   2.449   1.333   5.011
 2139SOL    HW2 7317   2.524   1.229   4.910
 2140SOL     OW 7318   1.998   6.185   3.916
 2140SOL    HW1 7319   1.984   6.259   3.850
 2140SOL    HW2 7320   1.911   6.166   3.963
 2141SOL     OW 7321   6.014   1.413   6.874
 2141SOL    HW1 7322   6.009   1.355   6.955
 2141SOL    HW2 7323   5.972   1.502   6.893
 2142SOL     OW 7324   2.909   1.784   3.143
 2142SOL    HW1 7325   2.850   1.713   3.105
 2142SOL    HW2 7326   2.968   1.745   3.213
 2143SOL     OW 7327   3.638   6.988   0.115
 2143SOL    HW1 7328   3.639   6.931   0.033
 2143SOL    HW2 7329   3.727   6.984   0.160
 2144SOL     OW 7330   0.158   1.009   2.924
 2144SOL    HW1 7331   0.064   1.010   2.888
 2144SOL    HW2 7332   0.169   0.933   2.987
 2145SOL     OW 7333   3.990   5.463   2.666
 2145SOL    HW1 7334   3.944   5.515   2.738
 2145SOL    HW2 7335   4.083   5.497   2.655
 2146SOL     OW 7336   3.789   3.208   1.598
 2146SOL    HW1 7337   3.729   3.193   1.519
 2146SOL    HW2 7338   3.740   3.259   1.668
 2147SOL     OW 7339   0.029   0.993   5.202
 2147SOL    HW1 7340   0.127   0.998   5.183
 2147SOL    HW2 7341   7.018   0.907   5.166
 2148SOL     OW 7342   4.949   3.442   3.136
 2148SOL    HW1 7343   5.037   3.407   3.104
 2148SOL    HW2 7344   4.897   3.478   3.059
 2149SOL     OW 7345   3.391   1.040   3.084
 2149SOL    HW1 7346   3.304   1.025   3.039
 2149SOL    HW2 7347   3.420   1.134   3.071
 2150SOL     OW 7348   3.788   1.536   2.740
 2150SOL    HW1 7349   3.840   1.595   2.678
 2150SOL    HW2 7350   3.741   1.591   2.809
 2151SOL     OW 7351   3.831   3.014   5.589
 2151SOL    HW1 7352   3.772   2.934   5.574
 2151SOL    HW2 7353   3.816   3.080   5.515
 2152SOL     OW 7354   6.394   5.925   2.043
 2152SOL    HW1 7355   6.380   6.003   1.982
 2152SOL    HW2 7356   6.339   5.848   2.012
 2153SOL     OW 7357   4.890   3.068   3.123
 2153SOL    HW1 7358   4.880   3.074   3.222
 2153SOL    HW2 7359   4.930   3.153   3.088
 2154SOL     OW 7360   4.658   5.951   5.070
 2154SOL    HW1 7361   4.576   5.975   5.121
 2154SOL    HW2 7362   4.638   5.953   4.972
 2155SOL     OW 7363   6.736   3.397   0.545
 2155SOL    HW1 7364   6.825   3.371   0.508
 2155SOL    HW2 7365   6.717   3.493   0.524
 2156SOL     OW 7366   1.343   1.175   1.519
 2156SOL    HW1 7367   1.415   1.219   1.465
 2156SOL    HW2 7368   1.384   1.107   1.580
 2157SOL     OW 7369   0.821   1.459   4.778
 2157SOL    HW1 7370   0.763   1.505   4.711
 2157SOL    HW2 7371   0.917   1.484   4.762
 2158SOL     OW 7372   4.553   6.312   2.446
 2158SOL    HW1 7373   4.460   6.292   2.417
 2158SOL    HW2 7374   4.556   6.400   2.493
 2159SOL     OW 7375   2.194   5.701   4.405
 2159SOL    HW1 7376   2.234   5.771   4.346
 2159SOL    HW2 7377   2.128   5.743   4.468
 2160SOL     OW 7378   2.938   3.704   0.471
 2160SOL    HW1 7379   2.982   3.619   0.499
 2160SOL    HW2 7380   2.897   3.692   0.381
 2161SOL     OW 7381   5.529   2.131   3.660
 2161SOL    HW1 7382   5.495   2.205   3.718
 2161SOL    HW2 7383   5.628   2.141   3.648
 2162SOL     OW 7384   0.791   1.777   6.873
 2162SOL    HW1 7385   0.852   1.719   6.927
 2162SOL    HW2 7386   0.727   1.720   6.822
 2163SOL     OW 7387   2.630   2.252   0.169
 2163SOL    HW1 7388   2.673   2.241   0.258
 2163SOL    HW2 7389   2.691   2.304   0.109
 2164SOL     OW 7390   1.318   6.781   1.548
 2164SOL    HW1 7391   1.262   6.787   1.466
 2164SOL    HW2 7392   1.380   6.703   1.541
 2165SOL     OW 7393   2.932   6.744   1.648
 2165SOL    HW1 7394   2.982   6.662   1.617
 2165SOL    HW2 7395   2.997   6.810   1.684
 2166SOL     OW 7396   6.610   2.023   6.903
 2166SOL    HW1 7397   6.622   2.121   6.922
 2166SOL    HW2 7398   6.598   2.010   6.805
 2167SOL     OW 7399   2.590   0.309   1.424
 2167SOL    HW1 7400   2.684   0.278   1.408
 2167SOL    HW2 7401   2.569   0.383   1.361
 2168SOL     OW 7402   6.117   5.561   4.720
 2168SOL    HW1 7403   6.076   5.573   4.810
 2168SOL    HW2 7404   6.065   5.611   4.651
 2169SOL     OW 7405   5.260   2.013   4.801
 2169SOL    HW1 7406   5.177   2.009   4.746
 2169SOL    HW2 7407   5.271   2.105   4.837
 2170SOL     OW 7408   5.122   4.879   4.540
 2170SOL    HW1 7409   5.186   4.859   4.466
 2170SOL    HW2 7410   5.129   4.975   4.566
 2171SOL     OW 7411   6.799   2.108   0.237
 2171SOL    HW1 7412   6.844   2.077   0.321
 2171SOL    HW2 7413   6.743   2.188   0.258
 2172SOL     OW 7414   3.225   0.987   0.639
 2172SOL    HW1 7415   3.138   0.939   0.629
 2172SOL    HW2 7416   3.262   1.007   0.548
 2173SOL     OW 7417   5.058   1.259   5.016
 2173SOL    HW1 7418   5.092   1.349   4.990
 2173SOL    HW2 7419   4.994   1.267   5.091
 2174SOL     OW 7420   1.319   5.210   4.974
 2174SOL    HW1 7421   1.349   5.279   4.907
 2174SOL    HW2 7422   1.340   5.119   4.938
 2175SOL     OW 7423   2.497   6.395   4.649
 2175SOL    HW1 7424   2.446   6.317   4.683
 2175SOL    HW2 7425   2.536   6.446   4.726
 2176SOL     OW 7426   1.997   2.338   2.069
 2176SOL    HW1 7427   2.004   2.339   1.969
 2176SOL    HW2 7428   1.917   2.286   2.097
 2177SOL     OW 7429   6.519   1.494   1.846
 2177SOL    HW1 7430   6.506   1.410   1.898
 2177SOL    HW2 7431   6.600   1.542   1.881
 2178SOL     OW 7432   0.694   5.282   0.508
 2178SOL    HW1 7433   0.744   5.202   0.541
 2178SOL    HW2 7434   0.606   5.254   0.470
 2179SOL     OW 7435   0.728   4.494   3.598
 2179SOL    HW1 7436   0.770   4.470   3.685
 2179SOL    HW2 7437   0.636   4.530   3.614
 2180SOL     OW 7438   4.071   3.086   2.068
 2180SOL    HW1 7439   4.133   3.027   2.017
 2180SOL    HW2 7440   4.011   3.134   2.005
 2181SOL     OW 7441   4.394   6.350   6.799
 2181SOL    HW1 7442   4.307   6.381   6.761
 2181SOL    HW2 7443   4.384   6.336   6.898
 2182SOL     OW 7444   6.008   1.753   0.477
 2182SOL    HW1 7445   5.951   1.776   0.556
 2182SOL    HW2 7446   5.956   1.697   0.413
 2183SOL     OW 7447   2.886   2.716   0.921
 2183SOL    HW1 7448   2.950   2.657   0.872
 2183SOL    HW2 7449   2.807   2.735   0.863
 2184SOL     OW 7450   4.161   3.047   6.095
 2184SOL    HW1 7451   4.135   3.060   6.191
 2184SOL    HW2 7452   4.088   3.083   6.036
 2185SOL     OW 7453   1.502   1.126   0.794
 2185SOL    HW1 7454   1.456   1.204   0.838
 2185SOL    HW2 7455   1.527   1.151   0.701
 2186SOL     OW 7456   0.071   5.352   2.853
 2186SOL    HW1 7457   0.006   5.294   2.804
 2186SOL    HW2 7458   0.068   5.330   2.951
 2187SOL     OW 7459   0.276   1.651   6.544
 2187SOL    HW1 7460   0.210   1.584   6.576
 2187SOL    HW2 7461   0.350   1.603   6.496
 2188SOL     OW 7462   5.012   0.795   2.840
 2188SOL    HW1 7463   5.022   0.888   2.874
 2188SOL    HW2 7464   5.096   0.744   2.859
 2189SOL     OW 7465   2.609   0.333   6.952
 2189SOL    HW1 7466   2.656   0.356   0.011
 2189SOL    HW2 7467   2.524   0.385   6.945
 2190SOL     OW 7468   5.277   1.436   1.415
 2190SOL    HW1 7469   5.283   1.375   1.335
 2190SOL    HW2 7470   5.234   1.522   1.388
 2191SOL     OW 7471   3.084   1.443   0.360
 2191SOL    HW1 7472   3.005   1.382   0.360
 2191SOL    HW2 7473   3.162   1.396   0.402
 2192SOL     OW 7474   4.030   5.361   3.859
 2192SOL    HW1 7475   3.996   5.385   3.949
 2192SOL    HW2 7476   4.084   5.276   3.865
 2193SOL     OW 7477   7.008   5.353   5.762
 2193SOL    HW1 7478   0.052   5.424   5.767
 2193SOL    HW2 7479   0.022   5.266   5.791
 2194SOL     OW 7480   3.312   0.229   1.420
 2194SOL    HW1 7481   3.251   0.154   1.394
 2194SOL    HW2 7482   3.270   0.316   1.393
 2195SOL     OW 7483   1.733   4.401   2.600
 2195SOL    HW1 7484   1.650   4.441   2.561
 2195SOL    HW2 7485   1.779   4.346   2.530
 2196SOL     OW 7486   4.169   3.375   0.223
 2196SOL    HW1 7487   4.260   3.405   0.254
 2196SOL    HW2 7488   4.101   3.445   0.247
 2197SOL     OW 7489   4.239   4.080   0.723
 2197SOL    HW1 7490   4.155   4.094   0.670
 2197SOL    HW2 7491   4.239   4.142   0.802
 2198SOL     OW 7492   6.024   4.592   0.493
 2198SOL    HW1 7493   5.986   4.516   0.546
 2198SOL    HW2 7494   5.979   4.677   0.520
 2199SOL     OW 7495   4.352   0.823   2.401
 2199SOL    HW1 7496   4.325   0.797   2.309
 2199SOL    HW2 7497   4.450   0.808   2.414
 2200SOL     OW 7498   2.724   0.151   4.090
 2200SOL    HW1 7499   2.662   0.132   4.167
 2200SOL    HW2 7500   2.679   0.123   4.005
 2201SOL     OW 7501   4.835   4.122   2.033
 2201SOL    HW1 7502   4.739   4.149   2.038
 2201SOL    HW2 7503   4.891   4.203   2.015
 2202SOL     OW 7504   4.872   5.912   3.375
 2202SOL    HW1 7505   4.775   5.888   3.373
 2202SOL    HW2 7506   4.911   5.889   3.464
 2203SOL     OW 7507   3.244   2.154   2.765
 2203SOL    HW1 7508   3.333   2.139   2.808
 2203SOL    HW2 7509   3.250   2.228   2.699
 2204SOL     OW 7510   2.917   2.579   1.154
 2204SOL    HW1 7511   2.933   2.645   1.079
 2204SOL    HW2 7512   2.823   2.546   1.150
 2205SOL     OW 7513   2.628   0.324   0.547
 2205SOL    HW1 7514   2.531   0.300   0.545
 2205SOL    HW2 7515   2.647   0.390   0.474
 2206SOL     OW 7516   1.903   3.105   0.149
 2206SOL    HW1 7517   1.947   3.061   0.227
 2206SOL    HW2 7518   1.892   3.038   0.075
 2207SOL     OW 7519   0.609   4.267   4.858
 2207SOL    HW1 7520   0.689   4.322   4.880
 2207SOL    HW2 7521   0.632   4.170   4.865
 2208SOL     OW 7522   6.901   4.577   1.861
 2208SOL    HW1 7523   6.813   4.576   1.910
 2208SOL    HW2 7524   6.939   4.670   1.863
 2209SOL     OW 7525   1.111   6.048   1.142
 2209SOL    HW1 7526   1.146   6.129   1.095
 2209SOL    HW2 7527   1.108   5.971   1.078
 2210SOL     OW 7528   1.286   5.693   4.182
 2210SOL    HW1 7529   1.347   5.686   4.261
 2210SOL    HW2 7530   1.295   5.610   4.127
 2211SOL     OW 7531   6.959   1.399   6.066
 2211SOL    HW1 7532   6.953   1.314   6.013
 2211SOL    HW2 7533   6.928   1.475   6.010
 2212SOL     OW 7534   1.906   6.729   6.490
 2212SOL    HW1 7535   1.889   6.827   6.497
 2212SOL    HW2 7536   1.862   6.682   6.567
 2213SOL     OW 7537   3.481   1.271   3.299
 2213SOL    HW1 7538   3.547   1.202   3.329
 2213SOL    HW2 7539   3.505   1.302   3.207
 2214SOL     OW 7540   4.461   0.184   5.188
 2214SOL    HW1 7541   4.511   0.098   5.202
 2214SOL    HW2 7542   4.406   0.177   5.105
 2215SOL     OW 7543   5.688   3.342   4.555
 2215SOL    HW1 7544   5.672   3.433   4.516
 2215SOL    HW2 7545   5.777   3.342   4.602
 2216SOL     OW 7546   2.409   0.391   1.592
 2216SOL    HW1 7547   2.484   0.362   1.533
 2216SOL    HW2 7548   2.422   0.487   1.616
 2217SOL     OW 7549   4.795   1.170   1.755
 2217SOL    HW1 7550   4.824   1.222   1.674
 2217SOL    HW2 7551   4.797   1.072   1.734
 2218SOL     OW 7552   1.040   6.563   2.152
 2218SOL    HW1 7553   1.020   6.641   2.211
 2218SOL    HW2 7554   1.139   6.559   2.135
 2219SOL     OW 7555   1.315   1.976   2.724
 2219SOL    HW1 7556   1.363   2.051   2.769
 2219SOL    HW2 7557   1.372   1.894   2.727
 2220SOL     OW 7558   1.015   0.620   1.189
 2220SOL    HW1 7559   0.991   0.523   1.195
 2220SOL    HW2 7560   1.111   0.628   1.160
 2221SOL     OW 7561   6.747   1.400   0.091
 2221SOL    HW1 7562   6.688   1.445   0.159
 2221SOL    HW2 7563   6.825   1.458   0.071
 2222SOL     OW 7564   5.731   5.931   3.010
 2222SOL    HW1 7565   5.724   5.953   3.107
 2222SOL    HW2 7566   5.796   5.857   2.997
 2223SOL     OW 7567   5.855   4.948   1.492
 2223SOL    HW1 7568   5.895   5.039   1.506
 2223SOL    HW2 7569   5.771   4.956   1.439
 2224SOL     OW 7570   0.898   5.082   1.971
 2224SOL    HW1 7571   0.829   5.095   1.900
 2224SOL    HW2 7572   0.970   5.150   1.961
 2225SOL     OW 7573   0.417   4.210   0.946
 2225SOL    HW1 7574   0.344   4.244   0.887
 2225SOL    HW2 7575   0.378   4.176   1.032
 2226SOL     OW 7576   4.261   4.130   1.466
 2226SOL    HW1 7577   4.298   4.071   1.394
 2226SOL    HW2 7578   4.285   4.093   1.555
 2227SOL     OW 7579   1.003   3.172   4.241
 2227SOL    HW1 7580   0.931   3.231   4.279
 2227SOL    HW2 7581   1.073   3.228   4.197
 2228SOL     OW 7582   3.220   4.963   4.620
 2228SOL    HW1 7583   3.131   4.916   4.618
 2228SOL    HW2 7584   3.224   5.029   4.545
 2229SOL     OW 7585   5.237   0.206   3.207
 2229SOL    HW1 7586   5.221   0.271   3.282
 2229SOL    HW2 7587   5.149   0.172   3.174
 2230SOL     OW 7588   2.471   5.341   0.966
 2230SOL    HW1 7589   2.401   5.383   0.908
 2230SOL    HW2 7590   2.462   5.374   1.060
 2231SOL     OW 7591   2.495   6.189   1.410
 2231SOL    HW1 7592   2.498   6.129   1.330
 2231SOL    HW2 7593   2.493   6.284   1.380
 2232SOL     OW 7594   6.217   2.709   3.504
 2232SOL    HW1 7595   6.149   2.671   3.566
 2232SOL    HW2 7596   6.174   2.771   3.439
 2233SOL     OW 7597   3.190   1.714   6.981
 2233SOL    HW1 7598   3.234   1.744   0.041
 2233SOL    HW2 7599   3.148   1.793   6.936
 2234SOL     OW 7600   3.026   2.126   0.962
 2234SOL    HW1 7601   3.030   2.191   0.886
 2234SOL    HW2 7602   3.081   2.160   1.038
 2235SOL     OW 7603   2.240   0.535   1.178
 2235SOL    HW1 7604   2.185   0.452   1.171
 2235SOL    HW2 7605   2.184   0.614   1.156
 2236SOL     OW 7606   6.976   3.833   6.732
 2236SOL    HW1 7607   0.018   3.781   6.783
 2236SOL    HW2 7608   6.888   3.829   6.780
 2237SOL     OW 7609   6.419   2.516   4.212
 2237SOL    HW1 7610   6.487   2.590   4.212
 2237SOL    HW2 7611   6.329   2.553   4.233
 2238SOL     OW 7612   0.032   5.843   1.978
 2238SOL    HW1 7613   6.963   5.874   1.976
 2238SOL    HW2 7614   0.093   5.919   1.999
 2239SOL     OW 7615   5.527   5.469   3.235
 2239SOL    HW1 7616   5.544   5.511   3.324
 2239SOL    HW2 7617   5.433   5.489   3.207
 2240SOL     OW 7618   5.769   3.767   1.901
 2240SOL    HW1 7619   5.865   3.739   1.894
 2240SOL    HW2 7620   5.711   3.694   1.866
 2241SOL     OW 7621   0.895   6.836   2.103
 2241SOL    HW1 7622   0.818   6.850   2.165
 2241SOL    HW2 7623   0.906   6.738   2.085
 2242SOL     OW 7624   4.888   2.351   2.620
 2242SOL    HW1 7625   4.802   2.395   2.594
 2242SOL    HW2 7626   4.959   2.376   2.554
 2243SOL     OW 7627   2.722   6.391   5.529
 2243SOL    HW1 7628   2.773   6.384   5.444
 2243SOL    HW2 7629   2.775   6.351   5.603
 2244SOL     OW 7630   2.555   1.092   5.337
 2244SOL    HW1 7631   2.625   1.031   5.374
 2244SOL    HW2 7632   2.594   1.145   5.262
 2245SOL     OW 7633   0.555   1.794   2.339
 2245SOL    HW1 7634   0.527   1.740   2.259
 2245SOL    HW2 7635   0.521   1.751   2.422
 2246SOL     OW 7636   1.352   4.351   4.687
 2246SOL    HW1 7637   1.359   4.443   4.726
 2246SOL    HW2 7638   1.422   4.292   4.728
 2247SOL     OW 7639   1.706   1.438   5.413
 2247SOL    HW1 7640   1.705   1.436   5.513
 2247SOL    HW2 7641   1.790   1.481   5.381
 2248SOL     OW 7642   4.753   4.271   5.187
 2248SOL    HW1 7643   4.756   4.273   5.087
 2248SOL    HW2 7644   4.836   4.314   5.224
 2249SOL     OW 7645   4.525   5.559   4.597
 2249SOL    HW1 7646   4.431   5.534   4.574
 2249SOL    HW2 7647   4.545   5.650   4.560
 2250SOL     OW 7648   5.261   5.385   0.662
 2250SOL    HW1 7649   5.181   5.431   0.624
 2250SOL    HW2 7650   5.344   5.426   0.625
 2251SOL     OW 7651   0.243   0.749   6.188
 2251SOL    HW1 7652   0.211   0.685   6.118
 2251SOL    HW2 7653   0.336   0.726   6.214
 2252SOL     OW 7654   3.492   1.662   5.470
 2252SOL    HW1 7655   3.545   1.662   5.385
 2252SOL    HW2 7656   3.553   1.646   5.547
 2253SOL     OW 7657   1.290   2.379   5.955
 2253SOL    HW1 7658   1.359   2.431   6.005
 2253SOL    HW2 7659   1.322   2.362   5.861
 2254SOL     OW 7660   1.756   3.740   5.782
 2254SOL    HW1 7661   1.804   3.776   5.862
 2254SOL    HW2 7662   1.680   3.683   5.812
 2255SOL     OW 7663   5.472   2.648   0.985
 2255SOL    HW1 7664   5.397   2.615   0.928
 2255SOL    HW2 7665   5.522   2.570   1.023
 2256SOL     OW 7666   3.298   4.888   2.040
 2256SOL    HW1 7667   3.284   4.972   1.988
 2256SOL    HW2 7668   3.388   4.850   2.019
 2257SOL     OW 7669   2.092   3.450   3.952
 2257SOL    HW1 7670   2.179   3.493   3.927
 2257SOL    HW2 7671   2.081   3.364   3.901
 2258SOL     OW 7672   2.374   5.490   5.301
 2258SOL    HW1 7673   2.280   5.489   5.335
 2258SOL    HW2 7674   2.378   5.441   5.214
 2259SOL     OW 7675   5.818   3.614   6.822
 2259SOL    HW1 7676   5.836   3.632   6.919
 2259SOL    HW2 7677   5.891   3.654   6.767
 2260SOL     OW 7678   4.792   4.145   0.799
 2260SOL    HW1 7679   4.882   4.160   0.840
 2260SOL    HW2 7680   4.792   4.056   0.753
 2261SOL     OW 7681   3.444   6.616   5.250
 2261SOL    HW1 7682   3.453   6.554   5.172
 2261SOL    HW2 7683   3.532   6.662   5.266
 2262SOL     OW 7684   3.476   1.851   3.567
 2262SOL    HW1 7685   3.553   1.796   3.534
 2262SOL    HW2 7686   3.508   1.916   3.636
 2263SOL     OW 7687   0.264   4.170   5.842
 2263SOL    HW1 7688   0.260   4.222   5.927
 2263SOL    HW2 7689   0.222   4.080   5.857
 2264SOL     OW 7690   4.068   3.519   4.196
 2264SOL    HW1 7691   4.054   3.517   4.097
 2264SOL    HW2 7692   4.092   3.612   4.225
 2265SOL     OW 7693   0.229   0.288   2.658
 2265SOL    HW1 7694   0.282   0.274   2.574
 2265SOL    HW2 7695   0.132   0.272   2.640
 2266SOL     OW 7696   5.987   0.041   6.763
 2266SOL    HW1 7697   5.996   6.980   6.715
 2266SOL    HW2 7698   5.939   0.026   6.849
 2267SOL     OW 7699   5.276   1.414   5.361
 2267SOL    HW1 7700   5.239   1.502   5.333
 2267SOL    HW2 7701   5.365   1.399   5.317
 2268SOL     OW 7702   6.269   5.231   0.004
 2268SOL    HW1 7703   6.236   5.252   6.937
 2268SOL    HW2 7704   6.348   5.288   0.025
 2269SOL     OW 7705   0.277   5.668   4.330
 2269SOL    HW1 7706   0.202   5.659   4.264
 2269SOL    HW2 7707   0.259   5.609   4.410
 2270SOL     OW 7708   4.089   3.245   2.290
 2270SOL    HW1 7709   4.077   3.196   2.377
 2270SOL    HW2 7710   4.138   3.187   2.226
 2271SOL     OW 7711   6.993   4.176   3.216
 2271SOL    HW1 7712   6.922   4.125   3.265
 2271SOL    HW2 7713   0.039   4.205   3.280
 2272SOL     OW 7714   4.481   1.994   6.087
 2272SOL    HW1 7715   4.505   2.088   6.110
 2272SOL    HW2 7716   4.527   1.967   6.002
 2273SOL     OW 7717   0.364   1.441   3.920
 2273SOL    HW1 7718   0.457   1.419   3.951
 2273SOL    HW2 7719   0.316   1.492   3.993
 2274SOL     OW 7720   1.269   3.484   2.902
 2274SOL    HW1 7721   1.295   3.447   2.991
 2274SOL    HW2 7722   1.171   3.504   2.902
 2275SOL     OW 7723   5.021   6.505   3.461
 2275SOL    HW1 7724   5.014   6.517   3.362
 2275SOL    HW2 7725   5.057   6.415   3.482
 2276SOL     OW 7726   3.572   5.485   1.791
 2276SOL    HW1 7727   3.545   5.397   1.829
 2276SOL    HW2 7728   3.672   5.488   1.781
 2277SOL     OW 7729   3.286   3.141   0.698
 2277SOL    HW1 7730   3.307   3.230   0.738
 2277SOL    HW2 7731   3.345   3.124   0.619
 2278SOL     OW 7732   5.479   6.482   0.997
 2278SOL    HW1 7733   5.481   6.425   0.915
 2278SOL    HW2 7734   5.514   6.430   1.075
 2279SOL     OW 7735   4.934   4.439   5.278
 2279SOL    HW1 7736   5.034   4.438   5.285
 2279SOL    HW2 7737   4.906   4.497   5.202
 2280SOL     OW 7738   5.530   6.666   5.936
 2280SOL    HW1 7739   5.509   6.745   5.878
 2280SOL    HW2 7740   5.499   6.583   5.891
 2281SOL     OW 7741   2.754   2.531   0.644
 2281SOL    HW1 7742   2.726   2.625   0.665
 2281SOL    HW2 7743   2.845   2.532   0.602
 2282SOL     OW 7744   4.188   5.652   2.326
 2282SOL    HW1 7745   4.149   5.562   2.309
 2282SOL    HW2 7746   4.137   5.697   2.399
 2283SOL     OW 7747   6.757   3.674   2.337
 2283SOL    HW1 7748   6.850   3.701   2.314
 2283SOL    HW2 7749   6.724   3.608   2.270
 2284SOL     OW 7750   2.669   2.262   2.127
 2284SOL    HW1 7751   2.656   2.260   2.226
 2284SOL    HW2 7752   2.765   2.284   2.107
 2285SOL     OW 7753   1.687   3.983   6.424
 2285SOL    HW1 7754   1.703   3.908   6.360
 2285SOL    HW2 7755   1.649   3.946   6.509
 2286SOL     OW 7756   5.300   6.914   4.412
 2286SOL    HW1 7757   5.320   6.816   4.411
 2286SOL    HW2 7758   5.385   6.965   4.416
 2287SOL     OW 7759   2.190   2.809   1.596
 2287SOL    HW1 7760   2.096   2.787   1.623
 2287SOL    HW2 7761   2.243   2.724   1.590
 2288SOL     OW 7762   1.765   6.132   4.059
 2288SOL    HW1 7763   1.697   6.186   4.109
 2288SOL    HW2 7764   1.806   6.065   4.120
 2289SOL     OW 7765   4.526   2.064   0.505
 2289SOL    HW1 7766   4.585   1.986   0.527
 2289SOL    HW2 7767   4.554   2.104   0.418
 2290SOL     OW 7768   3.476   3.419   3.255
 2290SOL    HW1 7769   3.555   3.362   3.274
 2290SOL    HW2 7770   3.471   3.492   3.323
 2291SOL     OW 7771   0.641   2.676   6.785
 2291SOL    HW1 7772   0.672   2.581   6.787
 2291SOL    HW2 7773   0.715   2.734   6.753
 2292SOL     OW 7774   5.241   1.749   2.621
 2292SOL    HW1 7775   5.323   1.714   2.664
 2292SOL    HW2 7776   5.233   1.712   2.528
 2293SOL     OW 7777   0.389   0.338   0.333
 2293SOL    HW1 7778   0.369   0.402   0.259
 2293SOL    HW2 7779   0.323   0.263   0.331
 2294SOL     OW 7780   6.649   0.810   5.525
 2294SOL    HW1 7781   6.552   0.790   5.532
 2294SOL    HW2 7782   6.682   0.783   5.434
 2295SOL     OW 7783   5.883   6.027   1.159
 2295SOL    HW1 7784   5.920   6.090   1.227
 2295SOL    HW2 7785   5.864   5.939   1.202
 2296SOL     OW 7786   3.480   5.023   3.931
 2296SOL    HW1 7787   3.540   4.962   3.880
 2296SOL    HW2 7788   3.533   5.101   3.966
 2297SOL     OW 7789   4.598   3.861   5.698
 2297SOL    HW1 7790   4.680   3.885   5.646
 2297SOL    HW2 7791   4.578   3.934   5.763
 2298SOL     OW 7792   3.856   3.880   4.515
 2298SOL    HW1 7793   3.842   3.804   4.453
 2298SOL    HW2 7794   3.778   3.888   4.577
 2299SOL     OW 7795   5.606   3.066   4.780
 2299SOL    HW1 7796   5.675   3.079   4.851
 2299SOL    HW2 7797   5.575   3.155   4.747
 2300SOL     OW 7798   4.950   6.417   2.419
 2300SOL    HW1 7799   5.049   6.405   2.428
 2300SOL    HW2 7800   4.904   6.331   2.440
 2301SOL     OW 7801   3.837   3.083   4.728
 2301SOL    HW1 7802   3.921   3.107   4.680
 2301SOL    HW2 7803   3.860   3.039   4.815
 2302SOL     OW 7804   5.799   3.060   6.561
 2302SOL    HW1 7805   5.896   3.043   6.579
 2302SOL    HW2 7806   5.779   3.157   6.572
 2303SOL     OW 7807   3.072   2.195   6.851
 2303SOL    HW1 7808   3.107   2.207   6.944
 2303SOL    HW2 7809   3.069   2.098   6.828
 2304SOL     OW 7810   6.323   6.199   2.793
 2304SOL    HW1 7811   6.276   6.133   2.851
 2304SOL    HW2 7812   6.384   6.255   2.850
 2305SOL     OW 7813   3.039   0.099   4.405
 2305SOL    HW1 7814   3.078   0.174   4.460
 2305SOL    HW2 7815   2.947   0.078   4.438
 2306SOL     OW 7816   1.070   4.733   4.800
 2306SOL    HW1 7817   1.023   4.735   4.888
 2306SOL    HW2 7818   1.004   4.744   4.726
 2307SOL     OW 7819   6.261   3.273   5.717
 2307SOL    HW1 7820   6.210   3.340   5.663
 2307SOL    HW2 7821   6.200   3.199   5.745
 2308SOL     OW 7822   1.674   4.848   1.883
 2308SOL    HW1 7823   1.680   4.852   1.784
 2308SOL    HW2 7824   1.697   4.937   1.922
 2309SOL     OW 7825   1.470   0.225   5.278
 2309SOL    HW1 7826   1.536   0.289   5.239
 2309SOL    HW2 7827   1.479   0.225   5.378
 2310SOL     OW 7828   4.332   0.206   1.096
 2310SOL    HW1 7829   4.303   0.302   1.085
 2310SOL    HW2 7830   4.281   0.149   1.032
 2311SOL     OW 7831   2.912   5.189   1.346
 2311SOL    HW1 7832   2.843   5.249   1.305
 2311SOL    HW2 7833   2.905   5.194   1.446
 2312SOL     OW 7834   3.246   5.114   1.902
 2312SOL    HW1 7835   3.259   5.205   1.940
 2312SOL    HW2 7836   3.177   5.118   1.830
 2313SOL     OW 7837   5.072   5.980   1.621
 2313SOL    HW1 7838   5.136   6.019   1.687
 2313SOL    HW2 7839   5.054   6.047   1.549
 2314SOL     OW 7840   1.693   4.691   4.483
 2314SOL    HW1 7841   1.704   4.612   4.422
 2314SOL    HW2 7842   1.715   4.664   4.577
 2315SOL     OW 7843   4.000   2.647   6.639
 2315SOL    HW1 7844   4.019   2.560   6.683
 2315SOL    HW2 7845   4.032   2.645   6.545
 2316SOL     OW 7846   5.934   4.241   2.157
 2316SOL    HW1 7847   6.018   4.287   2.128
 2316SOL    HW2 7848   5.902   4.181   2.084
 2317SOL     OW 7849   0.587   5.716   3.333
 2317SOL    HW1 7850   0.672   5.749   3.294
 2317SOL    HW2 7851   0.607   5.648   3.404
 2318SOL     OW 7852   6.482   0.861   4.053
 2318SOL    HW1 7853   6.467   0.925   3.977
 2318SOL    HW2 7854   6.395   0.819   4.079
 2319SOL     OW 7855   0.814   4.849   3.310
 2319SOL    HW1 7856   0.894   4.821   3.257
 2319SOL    HW2 7857   0.823   4.816   3.404
 2320SOL     OW 7858   6.736   5.166   5.474
 2320SOL    HW1 7859   6.685   5.128   5.397
 2320SOL    HW2 7860   6.672   5.209   5.538
 2321SOL     OW 7861   3.703   5.187   5.313
 2321SOL    HW1 7862   3.714   5.257   5.242
 2321SOL    HW2 7863   3.667   5.103   5.271
 2322SOL     OW 7864   3.349   1.122   5.867
 2322SOL    HW1 7865   3.448   1.125   5.853
 2322SOL    HW2 7866   3.321   1.027   5.883
 2323SOL     OW 7867   5.255   4.091   1.902
 2323SOL    HW1 7868   5.260   3.995   1.930
 2323SOL    HW2 7869   5.320   4.145   1.955
 2324SOL     OW 7870   0.058   4.860   3.465
 2324SOL    HW1 7871   0.133   4.921   3.440
 2324SOL    HW2 7872   7.012   4.911   3.512
 2325SOL     OW 7873   0.033   1.934   0.975
 2325SOL    HW1 7874   6.984   1.895   1.030
 2325SOL    HW2 7875   0.060   2.022   1.014
 2326SOL     OW 7876   1.880   4.561   6.659
 2326SOL    HW1 7877   1.783   4.562   6.684
 2326SOL    HW2 7878   1.936   4.564   6.742
 2327SOL     OW 7879   5.750   1.661   3.815
 2327SOL    HW1 7880   5.804   1.583   3.783
 2327SOL    HW2 7881   5.781   1.744   3.770
 2328SOL     OW 7882   6.029   6.743   3.937
 2328SOL    HW1 7883   6.082   6.660   3.923
 2328SOL    HW2 7884   6.030   6.767   4.034
 2329SOL     OW 7885   7.003   5.729   3.473
 2329SOL    HW1 7886   0.001   5.650   3.415
 2329SOL    HW2 7887   0.045   5.736   3.547
 2330SOL     OW 7888   0.469   3.572   2.026
 2330SOL    HW1 7889   0.478   3.650   1.965
 2330SOL    HW2 7890   0.406   3.505   1.986
 2331SOL     OW 7891   0.515   5.070   5.888
 2331SOL    HW1 7892   0.458   5.121   5.952
 2331SOL    HW2 7893   0.488   5.092   5.794
 2332SOL     OW 7894   5.347   2.481   4.536
 2332SOL    HW1 7895   5.384   2.525   4.455
 2332SOL    HW2 7896   5.290   2.546   4.587
 2333SOL     OW 7897   2.465   4.464   3.591
 2333SOL    HW1 7898   2.483   4.473   3.689
 2333SOL    HW2 7899   2.436   4.370   3.572
 2334SOL     OW 7900   3.300   7.002   0.502
 2334SOL    HW1 7901   3.362   6.942   0.553
 2334SOL    HW2 7902   3.350   0.055   0.466
 2335SOL     OW 7903   4.751   5.357   4.111
 2335SOL    HW1 7904   4.772   5.279   4.053
 2335SOL    HW2 7905   4.682   5.330   4.178
 2336SOL     OW 7906   4.485   2.795   5.920
 2336SOL    HW1 7907   4.492   2.796   6.020
 2336SOL    HW2 7908   4.521   2.708   5.886
 2337SOL     OW 7909   5.720   0.554   4.301
 2337SOL    HW1 7910   5.634   0.546   4.352
 2337SOL    HW2 7911   5.769   0.467   4.304
 2338SOL     OW 7912   1.594   6.972   6.453
 2338SOL    HW1 7913   1.539   6.952   6.372
 2338SOL    HW2 7914   1.689   6.987   6.426
 2339SOL     OW 7915   4.317   4.517   6.172
 2339SOL    HW1 7916   4.343   4.608   6.205
 2339SOL    HW2 7917   4.390   4.452   6.195
 2340SOL     OW 7918   3.631   5.250   3.990
 2340SOL    HW1 7919   3.676   5.278   3.905
 2340SOL    HW2 7920   3.554   5.311   4.008
 2341SOL     OW 7921   6.230   5.280   6.775
 2341SOL    HW1 7922   6.159   5.328   6.722
 2341SOL    HW2 7923   6.296   5.239   6.712
 2342SOL     OW 7924   6.473   0.290   5.040
 2342SOL    HW1 7925   6.499   0.302   5.135
 2342SOL    HW2 7926   6.378   0.319   5.027
 2343SOL     OW 7927   0.768   6.832   0.480
 2343SOL    HW1 7928   0.800   6.756   0.537
 2343SOL    HW2 7929   0.670   6.822   0.463
 2344SOL     OW 7930   2.334   1.540   3.396
 2344SOL    HW1 7931   2.325   1.507   3.490
 2344SOL    HW2 7932   2.331   1.463   3.333
 2345SOL     OW 7933   1.608   1.230   3.582
 2345SOL    HW1 7934   1.582   1.322   3.609
 2345SOL    HW2 7935   1.603   1.222   3.482
 2346SOL     OW 7936   5.292   3.633   5.924
 2346SOL    HW1 7937   5.372   3.623   5.983
 2346SOL    HW2 7938   5.210   3.610   5.976
 2347SOL     OW 7939   1.352   3.599   0.965
 2347SOL    HW1 7940   1.399   3.685   0.944
 2347SOL    HW2 7941   1.254   3.610   0.946
 2348SOL     OW 7942   2.649   5.772   1.588
 2348SOL    HW1 7943   2.693   5.690   1.623
 2348SOL    HW2 7944   2.550   5.757   1.582
 2349SOL     OW 7945   4.643   4.812   5.838
 2349SOL    HW1 7946   4.561   4.769   5.875
 2349SOL    HW2 7947   4.666   4.893   5.893
 2350SOL     OW 7948   1.985   5.749   5.382
 2350SOL    HW1 7949   1.939   5.680   5.327
 2350SOL    HW2 7950   2.075   5.768   5.343
 2351SOL     OW 7951   2.383   5.761   3.652
 2351SOL    HW1 7952   2.360   5.672   3.613
 2351SOL    HW2 7953   2.351   5.765   3.747
 2352SOL     OW 7954   6.170   4.026   2.096
 2352SOL    HW1 7955   6.088   4.049   2.043
 2352SOL    HW2 7956   6.183   4.095   2.167
 2353SOL     OW 7957   3.126   3.479   6.188
 2353SOL    HW1 7958   3.076   3.566   6.194
 2353SOL    HW2 7959   3.179   3.466   6.271
 2354SOL     OW 7960   3.865   2.623   1.649
 2354SOL    HW1 7961   3.792   2.589   1.708
 2354SOL    HW2 7962   3.953   2.585   1.679
 2355SOL     OW 7963   6.555   0.300   1.477
 2355SOL    HW1 7964   6.515   0.388   1.503
 2355SOL    HW2 7965   6.601   0.259   1.555
 2356SOL     OW 7966   2.853   4.932   3.966
 2356SOL    HW1 7967   2.770   4.958   4.015
 2356SOL    HW2 7968   2.933   4.950   4.022
 2357SOL     OW 7969   6.416   4.778   0.608
 2357SOL    HW1 7970   6.348   4.717   0.569
 2357SOL    HW2 7971   6.452   4.739   0.692
 2358SOL     OW 7972   3.589   2.309   5.378
 2358SOL    HW1 7973   3.688   2.322   5.382
 2358SOL    HW2 7974   3.568   2.230   5.321
 2359SOL     OW 7975   1.872   1.639   5.819
 2359SOL    HW1 7976   1.945   1.657   5.885
 2359SOL    HW2 7977   1.882   1.700   5.740
 2360SOL     OW 7978   3.681   4.500   6.920
 2360SOL    HW1 7979   3.714   4.405   6.920
 2360SOL    HW2 7980   3.642   4.521   7.010
 2361SOL     OW 7981   4.669   5.537   1.860
 2361SOL    HW1 7982   4.657   5.498   1.769
 2361SOL    HW2 7983   4.698   5.632   1.851
 2362SOL     OW 7984   4.591   4.935   3.786
 2362SOL    HW1 7985   4.660   4.863   3.793
 2362SOL    HW2 7986   4.596   4.978   3.696
 2363SOL     OW 7987   1.540   3.916   0.496
 2363SOL    HW1 7988   1.492   3.850   0.438
 2363SOL    HW2 7989   1.541   4.005   0.451
 2364SOL     OW 7990   3.514   1.443   2.756
 2364SOL    HW1 7991   3.534   1.520   2.695
 2364SOL    HW2 7992   3.600   1.407   2.794
 2365SOL     OW 7993   4.706   4.214   3.456
 2365SOL    HW1 7994   4.754   4.266   3.385
 2365SOL    HW2 7995   4.612   4.246   3.463
 2366SOL     OW 7996   3.158   4.850   4.946
 2366SOL    HW1 7997   3.127   4.853   4.851
 2366SOL    HW2 7998   3.109   4.778   4.994
 2367SOL     OW 7999   5.775   5.031   6.146
 2367SOL    HW1 8000   5.844   5.099   6.168
 2367SOL    HW2 8001   5.818   4.952   6.103
 2368SOL     OW 8002   5.684   6.964   4.652
 2368SOL    HW1 8003   5.751   0.013   4.645
 2368SOL    HW2 8004   5.730   6.880   4.682
 2369SOL     OW 8005   3.198   2.156   4.294
 2369SOL    HW1 8006   3.099   2.144   4.300
 2369SOL    HW2 8007   3.236   2.166   4.386
 2370SOL     OW 8008   6.119   2.708   1.787
 2370SOL    HW1 8009   6.064   2.766   1.726
 2370SOL    HW2 8010   6.154   2.630   1.735
 2371SOL     OW 8011   0.386   6.180   2.781
 2371SOL    HW1 8012   0.330   6.175   2.864
 2371SOL    HW2 8013   0.451   6.255   2.788
 2372SOL     OW 8014   5.977   6.472   6.955
 2372SOL    HW1 8015   6.038   6.480   0.008
 2372SOL    HW2 8016   5.997   6.387   6.906
 2373SOL     OW 8017   6.604   5.198   6.377
 2373SOL    HW1 8018   6.663   5.160   6.448
 2373SOL    HW2 8019   6.592   5.296   6.392
 2374SOL     OW 8020   6.372   6.148   2.495
 2374SOL    HW1 8021   6.372   6.232   2.440
 2374SOL    HW2 8022   6.375   6.173   2.592
 2375SOL     OW 8023   1.414   0.443   4.218
 2375SOL    HW1 8024   1.327   0.447   4.170
 2375SOL    HW2 8025   1.451   0.350   4.216
 2376SOL     OW 8026   5.423   1.868   3.451
 2376SOL    HW1 8027   5.362   1.945   3.468
 2376SOL    HW2 8028   5.413   1.838   3.356
 2377SOL     OW 8029   4.455   4.273   6.207
 2377SOL    HW1 8030   4.529   4.245   6.145
 2377SOL    HW2 8031   4.368   4.235   6.175
 2378SOL     OW 8032   6.896   1.076   0.310
 2378SOL    HW1 8033   6.976   1.121   0.272
 2378SOL    HW2 8034   6.918   0.980   0.329
 2379SOL     OW 8035   6.534   5.232   2.174
 2379SOL    HW1 8036   6.563   5.324   2.199
 2379SOL    HW2 8037   6.529   5.223   2.075
 2380SOL     OW 8038   4.681   5.945   5.837
 2380SOL    HW1 8039   4.747   6.011   5.801
 2380SOL    HW2 8040   4.657   5.879   5.766
 2381SOL     OW 8041   2.291   4.886   4.574
 2381SOL    HW1 8042   2.300   4.965   4.513
 2381SOL    HW2 8043   2.194   4.870   4.593
 2382SOL     OW 8044   7.024   5.733   3.105
 2382SOL    HW1 8045   6.964   5.679   3.045
 2382SOL    HW2 8046   0.094   5.720   3.077
 2383SOL     OW 8047   5.201   5.054   5.915
 2383SOL    HW1 8048   5.233   5.145   5.942
 2383SOL    HW2 8049   5.140   5.018   5.986
 2384SOL     OW 8050   0.502   2.104   2.702
 2384SOL    HW1 8051   0.438   2.037   2.740
 2384SOL    HW2 8052   0.454   2.163   2.637
 2385SOL     OW 8053   0.556   1.414   0.382
 2385SOL    HW1 8054   0.467   1.370   0.373
 2385SOL    HW2 8055   0.549   1.510   0.355
 2386SOL     OW 8056   6.028   5.701   4.048
 2386SOL    HW1 8057   6.019   5.795   4.080
 2386SOL    HW2 8058   5.942   5.672   4.004
 2387SOL     OW 8059   1.213   1.257   3.412
 2387SOL    HW1 8060   1.242   1.163   3.394
 2387SOL    HW2 8061   1.244   1.284   3.504
 2388SOL     OW 8062   6.574   2.677   5.473
 2388SOL    HW1 8063   6.573   2.713   5.379
 2388SOL    HW2 8064   6.586   2.578   5.471
 2389SOL     OW 8065   4.643   4.530   3.783
 2389SOL    HW1 8066   4.602   4.564   3.867
 2389SOL    HW2 8067   4.713   4.594   3.752
 2390SOL     OW 8068   4.630   3.248   5.734
 2390SOL    HW1 8069   4.614   3.152   5.758
 2390SOL    HW2 8070   4.637   3.301   5.818
 2391SOL     OW 8071   3.210   4.304   5.585
 2391SOL    HW1 8072   3.150   4.230   5.612
 2391SOL    HW2 8073   3.204   4.318   5.486
 2392SOL     OW 8074   4.659   4.407   5.515
 2392SOL    HW1 8075   4.685   4.312   5.531
 2392SOL    HW2 8076   4.562   4.419   5.534
 2393SOL     OW 8077   4.083   4.455   1.152
 2393SOL    HW1 8078   4.052   4.362   1.171
 2393SOL    HW2 8079   4.014   4.503   1.099
 2394SOL     OW 8080   0.537   2.683   3.925
 2394SOL    HW1 8081   0.506   2.752   3.990
 2394SOL    HW2 8082   0.501   2.594   3.951
 2395SOL     OW 8083   0.773   2.475   4.582
 2395SOL    HW1 8084   0.727   2.477   4.493
 2395SOL    HW2 8085   0.819   2.561   4.598
 2396SOL     OW 8086   0.594   0.631   5.230
 2396SOL    HW1 8087   0.588   0.729   5.248
 2396SOL    HW2 8088   0.690   0.604   5.225
 2397SOL     OW 8089   0.101   4.016   5.127
 2397SOL    HW1 8090   0.056   4.102   5.152
 2397SOL    HW2 8091   0.043   3.966   5.062
 2398SOL     OW 8092   3.820   6.477   4.442
 2398SOL    HW1 8093   3.769   6.448   4.361
 2398SOL    HW2 8094   3.757   6.522   4.506
 2399SOL     OW 8095   3.260   2.099   3.709
 2399SOL    HW1 8096   3.241   2.121   3.805
 2399SOL    HW2 8097   3.244   2.001   3.694
 2400SOL     OW 8098   1.757   3.709   0.839
 2400SOL    HW1 8099   1.737   3.804   0.860
 2400SOL    HW2 8100   1.798   3.664   0.919
 2401SOL     OW 8101   2.228   0.316   5.959
 2401SOL    HW1 8102   2.165   0.374   5.907
 2401SOL    HW2 8103   2.297   0.373   6.003
 2402SOL     OW 8104   1.536   4.391   1.853
 2402SOL    HW1 8105   1.605   4.460   1.872
 2402SOL    HW2 8106   1.573   4.300   1.873
 2403SOL     OW 8107   3.878   3.101   3.341
 2403SOL    HW1 8108   3.925   3.110   3.429
 2403SOL    HW2 8109   3.805   3.034   3.348
 2404SOL     OW 8110   6.020   1.180   1.099
 2404SOL    HW1 8111   5.977   1.097   1.064
 2404SOL    HW2 8112   6.067   1.227   1.024
 2405SOL     OW 8113   2.410   3.265   0.478
 2405SOL    HW1 8114   2.389   3.189   0.417
 2405SOL    HW2 8115   2.403   3.351   0.427
 2406SOL     OW 8116   2.786   6.214   4.328
 2406SOL    HW1 8117   2.705   6.270   4.344
 2406SOL    HW2 8118   2.815   6.172   4.414
 2407SOL     OW 8119   2.337   0.895   3.265
 2407SOL    HW1 8120   2.286   0.981   3.270
 2407SOL    HW2 8121   2.414   0.907   3.202
 2408SOL     OW 8122   3.700   6.216   5.248
 2408SOL    HW1 8123   3.790   6.228   5.205
 2408SOL    HW2 8124   3.709   6.215   5.347
 2409SOL     OW 8125   1.263   3.257   0.611
 2409SOL    HW1 8126   1.171   3.223   0.629
 2409SOL    HW2 8127   1.260   3.357   0.600
 2410SOL     OW 8128   1.029   3.003   4.779
 2410SOL    HW1 8129   1.027   3.090   4.729
 2410SOL    HW2 8130   1.115   2.995   4.828
 2411SOL     OW 8131   3.258   2.519   0.016
 2411SOL    HW1 8132   3.318   2.526   0.096
 2411SOL    HW2 8133   3.314   2.509   6.959
 2412SOL     OW 8134   3.803   2.032   6.519
 2412SOL    HW1 8135   3.759   2.001   6.603
 2412SOL    HW2 8136   3.735   2.075   6.460
 2413SOL     OW 8137   0.239   3.437   0.340
 2413SOL    HW1 8138   0.302   3.513   0.323
 2413SOL    HW2 8139   0.281   3.373   0.405
 2414SOL     OW 8140   5.834   2.046   4.943
 2414SOL    HW1 8141   5.926   2.015   4.969
 2414SOL    HW2 8142   5.817   2.136   4.983
 2415SOL     OW 8143   2.557   5.686   6.918
 2415SOL    HW1 8144   2.473   5.716   6.872
 2415SOL    HW2 8145   2.624   5.760   6.916
 2416SOL     OW 8146   0.374   3.351   2.340
 2416SOL    HW1 8147   0.466   3.315   2.324
 2416SOL    HW2 8148   0.373   3.402   2.426
 2417SOL     OW 8149   3.090   2.666   1.786
 2417SOL    HW1 8150   3.036   2.733   1.735
 2417SOL    HW2 8151   3.033   2.587   1.808
 2418SOL     OW 8152   4.783   4.181   6.847
 2418SOL    HW1 8153   4.764   4.092   6.806
 2418SOL    HW2 8154   4.791   4.172   6.946
 2419SOL     OW 8155   2.748   6.882   3.417
 2419SOL    HW1 8156   2.797   6.923   3.341
 2419SOL    HW2 8157   2.790   6.795   3.441
 2420SOL     OW 8158   1.385   4.172   2.560
 2420SOL    HW1 8159   1.299   4.136   2.523
 2420SOL    HW2 8160   1.454   4.172   2.488
 2421SOL     OW 8161   2.686   6.695   3.925
 2421SOL    HW1 8162   2.596   6.694   3.969
 2421SOL    HW2 8163   2.730   6.783   3.941
 2422SOL     OW 8164   4.516   5.691   0.919
 2422SOL    HW1 8165   4.437   5.703   0.980
 2422SOL    HW2 8166   4.541   5.594   0.916
 2423SOL     OW 8167   2.514   5.435   3.048
 2423SOL    HW1 8168   2.601   5.388   3.059
 2423SOL    HW2 8169   2.483   5.428   2.954
 2424SOL     OW 8170   5.355   0.007   6.222
 2424SOL    HW1 8171   5.373   6.935   6.215
 2424SOL    HW2 8172   5.262   0.021   6.258
 2425SOL     OW 8173   5.267   5.404   4.686
 2425SOL    HW1 8174   5.258   5.389   4.784
 2425SOL    HW2 8175   5.337   5.473   4.669
 2426SOL     OW 8176   2.300   3.271   5.574
 2426SOL    HW1 8177   2.377   3.271   5.638
 2426SOL    HW2 8178   2.321   3.211   5.497
 2427SOL     OW 8179   5.399   0.371   0.195
 2427SOL    HW1 8180   5.355   0.334   0.113
 2427SOL    HW2 8181   5.416   0.469   0.183
 2428SOL     OW 8182   0.925   0.633   3.068
 2428SOL    HW1 8183   0.954   0.726   3.045
 2428SOL    HW2 8184   0.877   0.633   3.156
 2429SOL     OW 8185   5.564   4.774   1.467
 2429SOL    HW1 8186   5.602   4.865   1.451
 2429SOL    HW2 8187   5.464   4.779   1.465
 2430SOL     OW 8188   5.845   1.031   6.570
 2430SOL    HW1 8189   5.864   1.107   6.632
 2430SOL    HW2 8190   5.750   1.001   6.583
 2431SOL     OW 8191   0.653   2.826   1.995
 2431SOL    HW1 8192   0.576   2.842   1.933
 2431SOL    HW2 8193   0.738   2.856   1.952
 2432SOL     OW 8194   2.525   5.388   2.081
 2432SOL    HW1 8195   2.577   5.442   2.014
 2432SOL    HW2 8196   2.532   5.291   2.058
 2433SOL     OW 8197   6.543   4.065   5.583
 2433SOL    HW1 8198   6.598   3.982   5.576
 2433SOL    HW2 8199   6.600   4.144   5.564
 2434SOL     OW 8200   4.428   0.576   2.748
 2434SOL    HW1 8201   4.428   0.498   2.812
 2434SOL    HW2 8202   4.467   0.656   2.793
 2435SOL     OW 8203   6.564   6.927   0.065
 2435SOL    HW1 8204   6.511   6.849   0.032
 2435SOL    HW2 8205   6.656   6.924   0.025
 2436SOL     OW 8206   1.855   2.302   1.535
 2436SOL    HW1 8207   1.771   2.354   1.547
 2436SOL    HW2 8208   1.835   2.204   1.543
 2437SOL     OW 8209   0.096   4.193   2.821
 2437SOL    HW1 8210   0.075   4.097   2.839
 2437SOL    HW2 8211   0.058   4.250   2.895
 2438SOL     OW 8212   3.345   1.233   4.566
 2438SOL    HW1 8213   3.425   1.292   4.566
 2438SOL    HW2 8214   3.268   1.280   4.610
 2439SOL     OW 8215   1.886   6.671   1.281
 2439SOL    HW1 8216   1.875   6.640   1.187
 2439SOL    HW2 8217   1.796   6.675   1.325
 2440SOL     OW 8218   5.569   1.496   5.605
 2440SOL    HW1 8219   5.511   1.440   5.546
 2440SOL    HW2 8220   5.574   1.589   5.569
 2441SOL     OW 8221   6.288   0.014   0.484
 2441SOL    HW1 8222   6.356   7.023   0.412
 2441SOL    HW2 8223   6.199   0.028   0.442
 2442SOL     OW 8224   4.941   3.172   2.014
 2442SOL    HW1 8225   4.857   3.121   2.032
 2442SOL    HW2 8226   5.001   3.119   1.955
 2443SOL     OW 8227   1.068   2.748   1.960
 2443SOL    HW1 8228   1.148   2.807   1.961
 2443SOL    HW2 8229   0.997   2.788   1.902
 2444SOL     OW 8230   3.698   5.454   2.101
 2444SOL    HW1 8231   3.658   5.512   2.171
 2444SOL    HW2 8232   3.770   5.504   2.053
 2445SOL     OW 8233   0.507   2.739   1.332
 2445SOL    HW1 8234   0.573   2.671   1.366
 2445SOL    HW2 8235   0.482   2.801   1.407
 2446SOL     OW 8236   1.414   4.892   1.171
 2446SOL    HW1 8237   1.373   4.805   1.201
 2446SOL    HW2 8238   1.484   4.920   1.238
 2447SOL     OW 8239   2.219   6.759   0.020
 2447SOL    HW1 8240   2.151   6.795   6.982
 2447SOL    HW2 8241   2.195   6.666   0.047
 2448SOL     OW 8242   6.492   1.692   4.547
 2448SOL    HW1 8243   6.587   1.707   4.574
 2448SOL    HW2 8244   6.488   1.622   4.475
 2449SOL     OW 8245   1.934   4.021   1.957
 2449SOL    HW1 8246   2.001   3.985   1.893
 2449SOL    HW2 8247   1.897   3.946   2.012
 2450SOL     OW 8248   1.446   0.055   5.861
 2450SOL    HW1 8249   1.423   0.152   5.866
 2450SOL    HW2 8250   1.362   0.001   5.852
 2451SOL     OW 8251   0.839   6.813   4.536
 2451SOL    HW1 8252   0.755   6.764   4.557
 2451SOL    HW2 8253   0.854   6.885   4.604
 2452SOL     OW 8254   2.198   2.032   3.760
 2452SOL    HW1 8255   2.274   2.011   3.822
 2452SOL    HW2 8256   2.233   2.077   3.678
 2453SOL     OW 8257   0.527   1.338   6.635
 2453SOL    HW1 8258   0.558   1.250   6.670
 2453SOL    HW2 8259   0.464   1.380   6.701
 2454SOL     OW 8260   3.470   5.736   1.242
 2454SOL    HW1 8261   3.417   5.706   1.321
 2454SOL    HW2 8262   3.417   5.721   1.158
 2455SOL     OW 8263   4.116   2.800   0.944
 2455SOL    HW1 8264   4.098   2.801   0.845
 2455SOL    HW2 8265   4.030   2.802   0.994
 2456SOL     OW 8266   0.639   4.202   6.167
 2456SOL    HW1 8267   0.591   4.224   6.082
 2456SOL    HW2 8268   0.737   4.192   6.148
 2457SOL     OW 8269   4.706   2.170   5.043
 2457SOL    HW1 8270   4.644   2.174   4.965
 2457SOL    HW2 8271   4.798   2.195   5.013
 2458SOL     OW 8272   1.058   0.929   1.806
 2458SOL    HW1 8273   1.080   0.873   1.726
 2458SOL    HW2 8274   1.143   0.965   1.845
 2459SOL     OW 8275   2.780   6.729   0.549
 2459SOL    HW1 8276   2.849   6.774   0.606
 2459SOL    HW2 8277   2.708   6.795   0.526
 2460SOL     OW 8278   1.700   0.750   4.965
 2460SOL    HW1 8279   1.640   0.725   5.042
 2460SOL    HW2 8280   1.645   0.762   4.883
 2461SOL     OW 8281   4.380   0.430   3.731
 2461SOL    HW1 8282   4.381   0.530   3.726
 2461SOL    HW2 8283   4.345   0.393   3.644
 2462SOL     OW 8284   0.188   3.541   0.652
 2462SOL    HW1 8285   0.105   3.536   0.708
 2462SOL    HW2 8286   0.164   3.565   0.558
 2463SOL     OW 8287   6.854   0.631   6.989
 2463SOL    HW1 8288   6.801   0.603   0.044
 2463SOL    HW2 8289   6.830   0.725   6.964
 2464SOL     OW 8290   0.582   2.626   3.110
 2464SOL    HW1 8291   0.483   2.624   3.098
 2464SOL    HW2 8292   0.605   2.693   3.181
 2465SOL     OW 8293   6.864   5.903   5.443
 2465SOL    HW1 8294   6.933   5.830   5.444
 2465SOL    HW2 8295   6.863   5.947   5.353
 2466SOL     OW 8296   0.817   2.474   2.170
 2466SOL    HW1 8297   0.737   2.485   2.112
 2466SOL    HW2 8298   0.802   2.523   2.256
 2467SOL     OW 8299   5.935   2.083   5.435
 2467SOL    HW1 8300   5.908   2.007   5.377
 2467SOL    HW2 8301   5.962   2.160   5.378
 2468SOL     OW 8302   3.088   6.674   5.603
 2468SOL    HW1 8303   3.168   6.690   5.660
 2468SOL    HW2 8304   3.016   6.632   5.657
 2469SOL     OW 8305   3.472   2.554   5.936
 2469SOL    HW1 8306   3.493   2.643   5.895
 2469SOL    HW2 8307   3.419   2.500   5.870
 2470SOL     OW 8308   3.335   4.476   6.188
 2470SOL    HW1 8309   3.239   4.504   6.187
 2470SOL    HW2 8310   3.373   4.484   6.095
 2471SOL     OW 8311   3.508   5.729   1.920
 2471SOL    HW1 8312   3.541   5.710   2.012
 2471SOL    HW2 8313   3.531   5.652   1.859
 2472SOL     OW 8314   4.550   1.875   4.464
 2472SOL    HW1 8315   4.524   1.800   4.403
 2472SOL    HW2 8316   4.643   1.905   4.442
 2473SOL     OW 8317   0.502   4.660   4.857
 2473SOL    HW1 8318   0.501   4.570   4.815
 2473SOL    HW2 8319   0.409   4.687   4.882
 2474SOL     OW 8320   1.605   5.763   1.607
 2474SOL    HW1 8321   1.535   5.698   1.577
 2474SOL    HW2 8322   1.563   5.830   1.669
 2475SOL     OW 8323   5.018   0.674   0.675
 2475SOL    HW1 8324   4.976   0.691   0.765
 2475SOL    HW2 8325   5.029   0.576   0.662
 2476SOL     OW 8326   5.533   0.354   6.784
 2476SOL    HW1 8327   5.467   0.429   6.783
 2476SOL    HW2 8328   5.572   0.345   6.875
 2477SOL     OW 8329   3.667   0.051   3.434
 2477SOL    HW1 8330   3.633   0.069   3.342
 2477SOL    HW2 8331   3.691   0.138   3.478
 2478SOL     OW 8332   4.684   0.491   3.677
 2478SOL    HW1 8333   4.636   0.485   3.764
 2478SOL    HW2 8334   4.743   0.411   3.665
 2479SOL     OW 8335   0.335   3.712   0.277
 2479SOL    HW1 8336   0.282   3.788   0.314
 2479SOL    HW2 8337   0.389   3.744   0.199
 2480SOL     OW 8338   3.140   2.545   1.507
 2480SOL    HW1 8339   3.174   2.482   1.438
 2480SOL    HW2 8340   3.056   2.507   1.548
 2481SOL     OW 8341   3.235   0.128   1.121
 2481SOL    HW1 8342   3.207   0.076   1.202
 2481SOL    HW2 8343   3.173   0.107   1.045
 2482SOL     OW 8344   5.380   3.163   6.872
 2482SOL    HW1 8345   5.282   3.145   6.873
 2482SOL    HW2 8346   5.405   3.205   6.784
 2483SOL     OW 8347   0.953   2.158   0.974
 2483SOL    HW1 8348   0.930   2.120   0.885
 2483SOL    HW2 8349   0.898   2.239   0.991
 2484SOL     OW 8350   5.583   1.436   1.776
 2484SOL    HW1 8351   5.565   1.424   1.874
 2484SOL    HW2 8352   5.681   1.423   1.759
 2485SOL     OW 8353   5.585   2.389   6.338
 2485SOL    HW1 8354   5.655   2.447   6.381
 2485SOL    HW2 8355   5.625   2.342   6.260
 2486SOL     OW 8356   0.654   3.832   5.299
 2486SOL    HW1 8357   0.607   3.864   5.217
 2486SOL    HW2 8358   0.753   3.830   5.282
 2487SOL     OW 8359   4.463   5.922   0.488
 2487SOL    HW1 8360   4.442   5.880   0.576
 2487SOL    HW2 8361   4.562   5.936   0.480
 2488SOL     OW 8362   6.999   4.088   1.228
 2488SOL    HW1 8363   6.998   4.172   1.282
 2488SOL    HW2 8364   0.056   4.036   1.250
 2489SOL     OW 8365   0.184   6.345   4.092
 2489SOL    HW1 8366   0.169   6.401   4.173
 2489SOL    HW2 8367   0.282   6.333   4.078
 2490SOL     OW 8368   3.185   6.310   2.365
 2490SOL    HW1 8369   3.213   6.406   2.363
 2490SOL    HW2 8370   3.142   6.289   2.453
 2491SOL     OW 8371   4.050   4.637   1.464
 2491SOL    HW1 8372   4.127   4.643   1.528
 2491SOL    HW2 8373   4.084   4.629   1.371
 2492SOL     OW 8374   6.503   4.280   0.891
 2492SOL    HW1 8375   6.508   4.321   0.982
 2492SOL    HW2 8376   6.594   4.277   0.851
 2493SOL     OW 8377   0.032   6.264   1.972
 2493SOL    HW1 8378   0.074   6.329   2.035
 2493SOL    HW2 8379   0.096   6.190   1.951
 2494SOL     OW 8380   5.914   3.219   1.636
 2494SOL    HW1 8381   5.941   3.310   1.667
 2494SOL    HW2 8382   5.974   3.190   1.561
 2495SOL     OW 8383   6.417   4.986   3.931
 2495SOL    HW1 8384   6.396   4.992   4.029
 2495SOL    HW2 8385   6.491   5.049   3.909
 2496SOL     OW 8386   6.142   5.146   6.397
 2496SOL    HW1 8387   6.095   5.128   6.483
 2496SOL    HW2 8388   6.166   5.059   6.353
 2497SOL     OW 8389   0.464   6.953   1.966
 2497SOL    HW1 8390   0.535   7.000   1.914
 2497SOL    HW2 8391   0.494   6.941   2.061
 2498SOL     OW 8392   1.871   2.886   5.928
 2498SOL    HW1 8393   1.899   2.922   5.838
 2498SOL    HW2 8394   1.775   2.859   5.924
 2499SOL     OW 8395   6.646   3.281   1.266
 2499SOL    HW1 8396   6.718   3.334   1.310
 2499SOL    HW2 8397   6.578   3.343   1.228
 2500SOL     OW 8398   3.337   4.124   6.852
 2500SOL    HW1 8399   3.287   4.211   6.847
 2500SOL    HW2 8400   3.436   4.142   6.847
 2501SOL     OW 8401   6.105   5.382   0.417
 2501SOL    HW1 8402   6.153   5.296   0.399
 2501SOL    HW2 8403   6.028   5.366   0.479
 2502SOL     OW 8404   2.891   5.713   4.238
 2502SOL    HW1 8405   2.914   5.712   4.141
 2502SOL    HW2 8406   2.843   5.629   4.262
 2503SOL     OW 8407   2.688   6.913   5.159
 2503SOL    HW1 8408   2.766   6.901   5.098
 2503SOL    HW2 8409   2.719   6.945   5.248
 2504SOL     OW 8410   3.210   5.329   2.444
 2504SOL    HW1 8411   3.145   5.390   2.489
 2504SOL    HW2 8412   3.293   5.379   2.421
 2505SOL     OW 8413   6.805   5.939   2.968
 2505SOL    HW1 8414   6.891   5.984   2.945
 2505SOL    HW2 8415   6.814   5.840   2.955
 2506SOL     OW 8416   5.872   5.037   5.669
 2506SOL    HW1 8417   5.898   4.944   5.643
 2506SOL    HW2 8418   5.937   5.072   5.737
 2507SOL     OW 8419   0.001   3.063   0.492
 2507SOL    HW1 8420   0.071   3.018   0.547
 2507SOL    HW2 8421   6.937   3.053   0.536
 2508SOL     OW 8422   3.779   1.684   4.429
 2508SOL    HW1 8423   3.772   1.584   4.421
 2508SOL    HW2 8424   3.770   1.725   4.338
 2509SOL     OW 8425   6.698   3.729   6.081
 2509SOL    HW1 8426   6.777   3.733   6.019
 2509SOL    HW2 8427   6.622   3.684   6.034
 2510SOL     OW 8428   3.127   4.009   1.896
 2510SOL    HW1 8429   3.105   4.075   1.824
 2510SOL    HW2 8430   3.145   3.919   1.855
 2511SOL     OW 8431   3.042   1.156   5.256
 2511SOL    HW1 8432   3.094   1.239   5.274
 2511SOL    HW2 8433   2.945   1.178   5.247
 2512SOL     OW 8434   4.039   4.840   4.603
 2512SOL    HW1 8435   4.105   4.765   4.602
 2512SOL    HW2 8436   4.076   4.917   4.551
 2513SOL     OW 8437   2.474   6.046   6.316
 2513SOL    HW1 8438   2.530   6.108   6.372
 2513SOL    HW2 8439   2.381   6.042   6.353
 2514SOL     OW 8440   1.046   2.907   3.244
 2514SOL    HW1 8441   1.141   2.877   3.240
 2514SOL    HW2 8442   1.009   2.909   3.151
 2515SOL     OW 8443   2.288   1.291   1.065
 2515SOL    HW1 8444   2.333   1.359   1.124
 2515SOL    HW2 8445   2.330   1.202   1.079
 2516SOL     OW 8446   5.789   1.594   3.364
 2516SOL    HW1 8447   5.863   1.660   3.375
 2516SOL    HW2 8448   5.774   1.546   3.451
 2517SOL     OW 8449   0.975   0.708   4.539
 2517SOL    HW1 8450   1.008   0.735   4.448
 2517SOL    HW2 8451   0.876   0.694   4.536
 2518SOL     OW 8452   2.918   4.328   1.179
 2518SOL    HW1 8453   2.834   4.289   1.217
 2518SOL    HW2 8454   2.897   4.379   1.096
 2519SOL     OW 8455   2.530   1.426   0.890
 2519SOL    HW1 8456   2.439   1.384   0.900
 2519SOL    HW2 8457   2.600   1.356   0.899
 2520SOL     OW 8458   3.316   2.763   1.454
 2520SOL    HW1 8459   3.285   2.784   1.361
 2520SOL    HW2 8460   3.245   2.710   1.501
 2521SOL     OW 8461   4.325   1.598   5.135
 2521SOL    HW1 8462   4.241   1.546   5.142
 2521SOL    HW2 8463   4.403   1.539   5.157
 2522SOL     OW 8464   0.661   1.485   5.607
 2522SOL    HW1 8465   0.649   1.467   5.704
 2522SOL    HW2 8466   0.581   1.451   5.557
 2523SOL     OW 8467   2.168   4.485   0.163
 2523SOL    HW1 8468   2.196   4.530   0.079
 2523SOL    HW2 8469   2.128   4.396   0.141
 2524SOL     OW 8470   1.287   6.876   4.269
 2524SOL    HW1 8471   1.309   6.781   4.247
 2524SOL    HW2 8472   1.230   6.880   4.351
 2525SOL     OW 8473   0.687   2.729   4.291
 2525SOL    HW1 8474   0.777   2.764   4.265
 2525SOL    HW2 8475   0.688   2.629   4.291
 2526SOL     OW 8476   0.761   5.682   6.890
 2526SOL    HW1 8477   0.770   5.767   6.942
 2526SOL    HW2 8478   0.834   5.677   6.822
 2527SOL     OW 8479   5.008   5.549   6.641
 2527SOL    HW1 8480   4.988   5.550   6.543
 2527SOL    HW2 8481   4.990   5.639   6.680
 2528SOL     OW 8482   5.018   5.286   6.354
 2528SOL    HW1 8483   5.056   5.377   6.367
 2528SOL    HW2 8484   4.921   5.293   6.332
 2529SOL     OW 8485   0.563   6.776   5.993
 2529SOL    HW1 8486   0.629   6.781   6.067
 2529SOL    HW2 8487   0.533   6.869   5.969
 2530SOL     OW 8488   2.693   5.637   5.474
 2530SOL    HW1 8489   2.679   5.598   5.565
 2530SOL    HW2 8490   2.604   5.649   5.429
 2531SOL     OW 8491   6.701   5.690   5.919
 2531SOL    HW1 8492   6.625   5.723   5.863
 2531SOL    HW2 8493   6.774   5.758   5.920
 2532SOL     OW 8494   0.715   6.640   1.078
 2532SOL    HW1 8495   0.679   6.590   0.999
 2532SOL    HW2 8496   0.676   6.732   1.081
 2533SOL     OW 8497   5.457   0.784   3.011
 2533SOL    HW1 8498   5.540   0.767   2.957
 2533SOL    HW2 8499   5.483   0.809   3.104
 2534SOL     OW 8500   4.669   1.824   1.829
 2534SOL    HW1 8501   4.600   1.868   1.885
 2534SOL    HW2 8502   4.694   1.884   1.753
 2535SOL     OW 8503   3.496   2.696   6.201
 2535SOL    HW1 8504   3.528   2.712   6.294
 2535SOL    HW2 8505   3.556   2.630   6.156
 2536SOL     OW 8506   1.621   0.774   6.592
 2536SOL    HW1 8507   1.660   0.864   6.612
 2536SOL    HW2 8508   1.521   0.782   6.585
 2537SOL     OW 8509   4.399   1.032   0.192
 2537SOL    HW1 8510   4.340   0.980   0.253
 2537SOL    HW2 8511   4.351   1.048   0.105
 2538SOL     OW 8512   6.748   3.630   3.866
 2538SOL    HW1 8513   6.663   3.584   3.891
 2538SOL    HW2 8514   6.728   3.723   3.834
 2539SOL     OW 8515   6.004   1.385   4.404
 2539SOL    HW1 8516   6.015   1.310   4.469
 2539SOL    HW2 8517   6.084   1.389   4.344
 2540SOL     OW 8518   3.800   1.783   3.096
 2540SOL    HW1 8519   3.894   1.749   3.106
 2540SOL    HW2 8520   3.802   1.878   3.066
 2541SOL     OW 8521   3.174   0.255   5.260
 2541SOL    HW1 8522   3.076   0.246   5.282
 2541SOL    HW2 8523   3.219   0.167   5.273
 2542SOL     OW 8524   1.696   4.661   6.841
 2542SOL    HW1 8525   1.659   4.754   6.838
 2542SOL    HW2 8526   1.778   4.659   6.898
 2543SOL     OW 8527   0.965   2.193   4.175
 2543SOL    HW1 8528   1.001   2.265   4.235
 2543SOL    HW2 8529   0.903   2.233   4.108
 2544SOL     OW 8530   1.000   4.993   0.587
 2544SOL    HW1 8531   1.052   5.007   0.503
 2544SOL    HW2 8532   1.051   4.933   0.648
 2545SOL     OW 8533   1.701   6.512   2.646
 2545SOL    HW1 8534   1.671   6.457   2.724
 2545SOL    HW2 8535   1.713   6.607   2.675
 2546SOL     OW 8536   6.122   1.252   0.852
 2546SOL    HW1 8537   6.201   1.313   0.864
 2546SOL    HW2 8538   6.042   1.306   0.825
 2547SOL     OW 8539   6.895   3.805   5.873
 2547SOL    HW1 8540   6.930   3.882   5.819
 2547SOL    HW2 8541   6.964   3.732   5.876
 2548SOL     OW 8542   0.349   6.543   3.903
 2548SOL    HW1 8543   0.409   6.499   3.836
 2548SOL    HW2 8544   0.386   6.530   3.995
 2549SOL     OW 8545   0.708   0.193   1.673
 2549SOL    HW1 8546   0.748   0.203   1.764
 2549SOL    HW2 8547   0.653   0.109   1.670
 2550SOL     OW 8548   5.654   6.315   0.465
 2550SOL    HW1 8549   5.593   6.391   0.487
 2550SOL    HW2 8550   5.721   6.304   0.539
 2551SOL     OW 8551   2.223   4.279   6.656
 2551SOL    HW1 8552   2.131   4.267   6.694
 2551SOL    HW2 8553   2.288   4.224   6.709
 2552SOL     OW 8554   3.138   4.982   3.710
 2552SOL    HW1 8555   3.227   4.960   3.669
 2552SOL    HW2 8556   3.080   4.900   3.709
 2553SOL     OW 8557   4.211   4.010   6.127
 2553SOL    HW1 8558   4.163   4.092   6.095
 2553SOL    HW2 8559   4.260   3.969   6.050
 2554SOL     OW 8560   1.610   1.680   0.771
 2554SOL    HW1 8561   1.673   1.650   0.699
 2554SOL    HW2 8562   1.528   1.719   0.730
 2555SOL     OW 8563   5.141   2.787   5.115
 2555SOL    HW1 8564   5.073   2.784   5.187
 2555SOL    HW2 8565   5.164   2.694   5.086
 2556SOL     OW 8566   3.824   5.910   1.052
 2556SOL    HW1 8567   3.794   5.838   1.115
 2556SOL    HW2 8568   3.781   5.897   0.963
 2557SOL     OW 8569   2.143   4.070   6.371
 2557SOL    HW1 8570   2.100   4.067   6.281
 2557SOL    HW2 8571   2.151   4.165   6.401
 2558SOL     OW 8572   4.982   1.211   5.606
 2558SOL    HW1 8573   5.057   1.224   5.541
 2558SOL    HW2 8574   4.899   1.255   5.571
 2559SOL     OW 8575   0.149   5.042   5.665
 2559SOL    HW1 8576   0.168   4.945   5.682
 2559SOL    HW2 8577   0.070   5.051   5.605
 2560SOL     OW 8578   6.087   1.899   5.948
 2560SOL    HW1 8579   6.164   1.839   5.928
 2560SOL    HW2 8580   6.121   1.991   5.969
 2561SOL     OW 8581   3.003   5.304   4.716
 2561SOL    HW1 8582   2.945   5.239   4.766
 2561SOL    HW2 8583   3.043   5.370   4.780
 2562SOL     OW 8584   1.857   3.494   0.217
 2562SOL    HW1 8585   1.771   3.545   0.213
 2562SOL    HW2 8586   1.917   3.537   0.285
 2563SOL     OW 8587   2.446   1.425   6.845
 2563SOL    HW1 8588   2.536   1.432   6.801
 2563SOL    HW2 8589   2.400   1.341   6.814
 2564SOL     OW 8590   2.143   5.320   1.480
 2564SOL    HW1 8591   2.213   5.280   1.539
 2564SOL    HW2 8592   2.175   5.408   1.446
 2565SOL     OW 8593   1.391   0.830   1.122
 2565SOL    HW1 8594   1.416   0.841   1.218
 2565SOL    HW2 8595   1.463   0.870   1.064
 2566SOL     OW 8596   2.137   6.496   0.037
 2566SOL    HW1 8597   2.151   6.498   6.964
 2566SOL    HW2 8598   2.147   6.402   0.070
 2567SOL     OW 8599   1.913   0.052   0.784
 2567SOL    HW1 8600   1.831   0.098   0.747
 2567SOL    HW2 8601   1.994   0.107   0.764
 2568SOL     OW 8602   4.561   1.907   6.904
 2568SOL    HW1 8603   4.509   1.974   6.956
 2568SOL    HW2 8604   4.507   1.877   6.825
 2569SOL     OW 8605   3.577   0.510   4.233
 2569SOL    HW1 8606   3.573   0.419   4.192
 2569SOL    HW2 8607   3.519   0.572   4.180
 2570SOL     OW 8608   5.800   1.664   5.903
 2570SOL    HW1 8609   5.800   1.764   5.912
 2570SOL    HW2 8610   5.731   1.636   5.836
 2571SOL     OW 8611   1.326   4.902   3.802
 2571SOL    HW1 8612   1.356   4.807   3.790
 2571SOL    HW2 8613   1.299   4.916   3.897
 2572SOL     OW 8614   2.996   5.101   2.727
 2572SOL    HW1 8615   3.030   5.080   2.635
 2572SOL    HW2 8616   2.896   5.104   2.725
 2573SOL     OW 8617   6.990   0.877   1.315
 2573SOL    HW1 8618   7.003   0.917   1.406
 2573SOL    HW2 8619   6.894   0.854   1.303
 2574SOL     OW 8620   5.968   3.567   0.617
 2574SOL    HW1 8621   5.971   3.660   0.653
 2574SOL    HW2 8622   5.948   3.569   0.519
 2575SOL     OW 8623   0.026   5.902   6.832
 2575SOL    HW1 8624   0.028   5.991   6.789
 2575SOL    HW2 8625   0.084   5.902   6.914
 2576SOL     OW 8626   4.965   6.091   3.624
 2576SOL    HW1 8627   4.960   6.162   3.693
 2576SOL    HW2 8628   4.914   6.011   3.655
 2577SOL     OW 8629   2.897   4.819   2.358
 2577SOL    HW1 8630   2.979   4.809   2.302
 2577SOL    HW2 8631   2.896   4.911   2.398
 2578SOL     OW 8632   3.726   1.871   3.910
 2578SOL    HW1 8633   3.643   1.820   3.888
 2578SOL    HW2 8634   3.805   1.828   3.865
 2579SOL     OW 8635   0.855   6.996   3.717
 2579SOL    HW1 8636   0.921   0.014   3.778
 2579SOL    HW2 8637   0.762   7.023   3.743
 2580SOL     OW 8638   2.510   2.968   0.041
 2580SOL    HW1 8639   2.481   3.060   0.016
 2580SOL    HW2 8640   2.468   2.901   7.004
 2581SOL     OW 8641   2.567   7.013   5.630
 2581SOL    HW1 8642   2.527   6.977   5.715
 2581SOL    HW2 8643   2.537   0.082   5.617
 2582SOL     OW 8644   6.839   3.470   1.365
 2582SOL    HW1 8645   6.820   3.567   1.346
 2582SOL    HW2 8646   6.937   3.458   1.381
 2583SOL     OW 8647   6.175   6.706   1.037
 2583SOL    HW1 8648   6.253   6.643   1.033
 2583SOL    HW2 8649   6.096   6.657   1.073
 2584SOL     OW 8650   4.530   4.644   5.631
 2584SOL    HW1 8651   4.577   4.701   5.698
 2584SOL    HW2 8652   4.509   4.555   5.672
 2585SOL     OW 8653   3.501   5.619   6.734
 2585SOL    HW1 8654   3.404   5.625   6.711
 2585SOL    HW2 8655   3.513   5.558   6.812
 2586SOL     OW 8656   1.899   0.389   5.262
 2586SOL    HW1 8657   1.886   0.460   5.331
 2586SOL    HW2 8658   1.814   0.378   5.210
 2587SOL     OW 8659   0.107   1.640   2.725
 2587SOL    HW1 8660   0.050   1.660   2.805
 2587SOL    HW2 8661   0.200   1.616   2.755
 2588SOL     OW 8662   4.181   1.805   5.034
 2588SOL    HW1 8663   4.243   1.875   4.999
 2588SOL    HW2 8664   4.233   1.733   5.079
 2589SOL     OW 8665   1.516   6.883   6.994
 2589SOL    HW1 8666   1.558   6.971   6.973
 2589SOL    HW2 8667   1.537   6.818   6.921
 2590SOL     OW 8668   2.529   5.247   6.736
 2590SOL    HW1 8669   2.610   5.305   6.745
 2590SOL    HW2 8670   2.451   5.302   6.709
 2591SOL     OW 8671   5.858   5.374   4.592
 2591SOL    HW1 8672   5.876   5.408   4.684
 2591SOL    HW2 8673   5.869   5.274   4.590
 2592SOL     OW 8674   2.828   4.412   6.464
 2592SOL    HW1 8675   2.792   4.366   6.383
 2592SOL    HW2 8676   2.753   4.446   6.520
 2593SOL     OW 8677   2.538   5.157   0.571
 2593SOL    HW1 8678   2.476   5.189   0.643
 2593SOL    HW2 8679   2.630   5.191   0.589
 2594SOL     OW 8680   1.539   4.294   4.478
 2594SOL    HW1 8681   1.456   4.334   4.516
 2594SOL    HW2 8682   1.597   4.367   4.441
 2595SOL     OW 8683   1.752   0.795   3.984
 2595SOL    HW1 8684   1.847   0.767   3.972
 2595SOL    HW2 8685   1.744   0.893   3.971
 2596SOL     OW 8686   0.870   2.238   0.487
 2596SOL    HW1 8687   0.959   2.280   0.466
 2596SOL    HW2 8688   0.816   2.301   0.543
 2597SOL     OW 8689   0.464   6.338   6.176
 2597SOL    HW1 8690   0.380   6.300   6.212
 2597SOL    HW2 8691   0.472   6.315   6.079
 2598SOL     OW 8692   5.308   2.454   2.620
 2598SOL    HW1 8693   5.215   2.458   2.585
 2598SOL    HW2 8694   5.369   2.419   2.549
 2599SOL     OW 8695   2.560   0.186   2.544
 2599SOL    HW1 8696   2.598   0.133   2.468
 2599SOL    HW2 8697   2.477   0.233   2.513
 2600SOL     OW 8698   6.416   3.883   4.560
 2600SOL    HW1 8699   6.321   3.853   4.557
 2600SOL    HW2 8700   6.461   3.859   4.474
 2601SOL     OW 8701   1.062   1.892   2.576
 2601SOL    HW1 8702   1.015   1.941   2.502
 2601SOL    HW2 8703   1.111   1.957   2.633
 2602SOL     OW 8704   1.757   5.351   4.030
 2602SOL    HW1 8705   1.744   5.318   4.124
 2602SOL    HW2 8706   1.681   5.411   4.005
 2603SOL     OW 8707   2.871   1.029   2.968
 2603SOL    HW1 8708   2.839   1.028   2.873
 2603SOL    HW2 8709   2.971   1.034   2.970
 2604SOL     OW 8710   5.203   2.281   2.994
 2604SOL    HW1 8711   5.141   2.232   3.054
 2604SOL    HW2 8712   5.214   2.231   2.908
 2605SOL     OW 8713   1.069   3.697   2.087
 2605SOL    HW1 8714   1.148   3.672   2.031
 2605SOL    HW2 8715   1.049   3.794   2.075
 2606SOL     OW 8716   4.127   3.872   1.101
 2606SOL    HW1 8717   4.119   3.883   1.200
 2606SOL    HW2 8718   4.109   3.960   1.057
 2607SOL     OW 8719   2.500   1.843   0.620
 2607SOL    HW1 8720   2.482   1.811   0.713
 2607SOL    HW2 8721   2.420   1.891   0.585
 2608SOL     OW 8722   3.100   5.388   6.492
 2608SOL    HW1 8723   3.085   5.405   6.395
 2608SOL    HW2 8724   3.065   5.297   6.516
 2609SOL     OW 8725   0.336   0.472   1.356
 2609SOL    HW1 8726   0.289   0.514   1.434
 2609SOL    HW2 8727   0.410   0.533   1.326
 2610SOL     OW 8728   1.585   4.874   4.279
 2610SOL    HW1 8729   1.537   4.796   4.238
 2610SOL    HW2 8730   1.647   4.842   4.350
 2611SOL     OW 8731   5.160   6.396   6.460
 2611SOL    HW1 8732   5.205   6.373   6.546
 2611SOL    HW2 8733   5.094   6.470   6.475
 2612SOL     OW 8734   5.576   0.312   5.596
 2612SOL    HW1 8735   5.573   0.374   5.675
 2612SOL    HW2 8736   5.671   0.290   5.575
 2613SOL     OW 8737   0.994   5.835   6.754
 2613SOL    HW1 8738   0.978   5.926   6.792
 2613SOL    HW2 8739   0.951   5.828   6.664
 2614SOL     OW 8740   6.678   1.034   6.555
 2614SOL    HW1 8741   6.648   1.063   6.646
 2614SOL    HW2 8742   6.684   1.113   6.495
 2615SOL     OW 8743   1.207   2.937   0.340
 2615SOL    HW1 8744   1.136   2.903   0.402
 2615SOL    HW2 8745   1.218   2.872   0.264
 2616SOL     OW 8746   1.613   0.464   5.509
 2616SOL    HW1 8747   1.577   0.371   5.516
 2616SOL    HW2 8748   1.711   0.463   5.528
 2617SOL     OW 8749   5.240   7.005   0.914
 2617SOL    HW1 8750   5.186   6.942   0.971
 2617SOL    HW2 8751   5.319   0.012   0.967
 2618SOL     OW 8752   2.135   6.262   6.297
 2618SOL    HW1 8753   2.141   6.265   6.197
 2618SOL    HW2 8754   2.212   6.312   6.336
 2619SOL     OW 8755   4.976   1.087   2.477
 2619SOL    HW1 8756   5.020   1.157   2.533
 2619SOL    HW2 8757   5.026   1.077   2.391
 2620SOL     OW 8758   6.692   6.712   1.568
 2620SOL    HW1 8759   6.620   6.691   1.502
 2620SOL    HW2 8760   6.752   6.632   1.579
 2621SOL     OW 8761   1.747   5.884   2.476
 2621SOL    HW1 8762   1.774   5.874   2.572
 2621SOL    HW2 8763   1.747   5.794   2.432
 2622SOL     OW 8764   3.562   3.525   6.104
 2622SOL    HW1 8765   3.486   3.580   6.071
 2622SOL    HW2 8766   3.632   3.586   6.144
 2623SOL     OW 8767   1.009   6.682   3.939
 2623SOL    HW1 8768   0.998   6.776   3.906
 2623SOL    HW2 8769   1.056   6.682   4.027
 2624SOL     OW 8770   0.223   2.535   4.499
 2624SOL    HW1 8771   0.164   2.606   4.538
 2624SOL    HW2 8772   0.275   2.574   4.423
 2625SOL     OW 8773   1.532   5.151   5.229
 2625SOL    HW1 8774   1.511   5.066   5.181
 2625SOL    HW2 8775   1.449   5.207   5.236
 2626SOL     OW 8776   6.772   5.058   6.214
 2626SOL    HW1 8777   6.699   5.090   6.273
 2626SOL    HW2 8778   6.816   5.137   6.169
 2627SOL     OW 8779   1.877   0.005   5.674
 2627SOL    HW1 8780   1.839   0.034   5.586
 2627SOL    HW2 8781   1.963   6.982   5.658
 2628SOL     OW 8782   1.575   4.577   2.084
 2628SOL    HW1 8783   1.559   4.673   2.107
 2628SOL    HW2 8784   1.664   4.568   2.040
 2629SOL     OW 8785   3.040   3.908   3.681
 2629SOL    HW1 8786   3.060   3.810   3.669
 2629SOL    HW2 8787   2.970   3.936   3.615
 2630SOL     OW 8788   4.319   0.477   4.303
 2630SOL    HW1 8789   4.266   0.558   4.283
 2630SOL    HW2 8790   4.414   0.502   4.321
 2631SOL     OW 8791   5.938   0.910   0.473
 2631SOL    HW1 8792   5.938   0.819   0.432
 2631SOL    HW2 8793   5.846   0.932   0.505
 2632SOL     OW 8794   5.693   4.382   2.150
 2632SOL    HW1 8795   5.776   4.334   2.179
 2632SOL    HW2 8796   5.636   4.400   2.230
 2633SOL     OW 8797   0.105   2.951   6.209
 2633SOL    HW1 8798   0.191   2.901   6.205
 2633SOL    HW2 8799   0.048   2.914   6.283
 2634SOL     OW 8800   6.093   0.439   5.593
 2634SOL    HW1 8801   6.090   0.465   5.496
 2634SOL    HW2 8802   6.184   0.459   5.630
 2635SOL     OW 8803   5.622   5.025   3.695
 2635SOL    HW1 8804   5.678   4.945   3.673
 2635SOL    HW2 8805   5.663   5.106   3.653
 2636SOL     OW 8806   4.033   6.881   5.772
 2636SOL    HW1 8807   4.110   6.889   5.836
 2636SOL    HW2 8808   4.023   6.785   5.744
 2637SOL     OW 8809   1.453   1.979   3.175
 2637SOL    HW1 8810   1.400   2.011   3.096
 2637SOL    HW2 8811   1.408   1.899   3.215
 2638SOL     OW 8812   1.050   6.719   4.363
 2638SOL    HW1 8813   1.103   6.654   4.418
 2638SOL    HW2 8814   0.959   6.731   4.403
 2639SOL     OW 8815   4.098   4.655   5.348
 2639SOL    HW1 8816   4.028   4.720   5.320
 2639SOL    HW2 8817   4.079   4.623   5.440
 2640SOL     OW 8818   1.322   6.402   4.687
 2640SOL    HW1 8819   1.300   6.499   4.678
 2640SOL    HW2 8820   1.362   6.368   4.602
 2641SOL     OW 8821   5.730   2.647   6.896
 2641SOL    HW1 8822   5.805   2.713   6.888
 2641SOL    HW2 8823   5.675   2.648   6.813
 2642SOL     OW 8824   6.305   1.602   3.584
 2642SOL    HW1 8825   6.340   1.548   3.507
 2642SOL    HW2 8826   6.293   1.697   3.556
 2643SOL     OW 8827   1.902   5.013   3.582
 2643SOL    HW1 8828   1.932   4.988   3.674
 2643SOL    HW2 8829   1.889   4.930   3.528
 2644SOL     OW 8830   5.376   5.150   4.511
 2644SOL    HW1 8831   5.343   5.064   4.473
 2644SOL    HW2 8832   5.298   5.208   4.535
 2645SOL     OW 8833   5.213   5.411   2.892
 2645SOL    HW1 8834   5.206   5.444   2.798
 2645SOL    HW2 8835   5.126   5.370   2.920
 2646SOL     OW 8836   0.120   3.211   6.149
 2646SOL    HW1 8837   0.130   3.114   6.171
 2646SOL    HW2 8838   0.187   3.236   6.080
 2647SOL     OW 8839   5.483   0.738   1.457
 2647SOL    HW1 8840   5.427   0.785   1.524
 2647SOL    HW2 8841   5.559   0.797   1.429
 2648SOL     OW 8842   0.929   6.903   5.666
 2648SOL    HW1 8843   0.998   6.945   5.724
 2648SOL    HW2 8844   0.885   6.828   5.716
 2649SOL     OW 8845   5.540   2.469   1.971
 2649SOL    HW1 8846   5.615   2.517   1.926
 2649SOL    HW2 8847   5.523   2.383   1.924
 2650SOL     OW 8848   3.368   6.232   4.259
 2650SOL    HW1 8849   3.277   6.194   4.237
 2650SOL    HW2 8850   3.374   6.247   4.357
 2651SOL     OW 8851   3.910   2.100   4.970
 2651SOL    HW1 8852   4.010   2.106   4.973
 2651SOL    HW2 8853   3.879   2.115   4.876
 2652SOL     OW 8854   4.906   4.755   5.830
 2652SOL    HW1 8855   4.938   4.803   5.748
 2652SOL    HW2 8856   4.806   4.754   5.830
 2653SOL     OW 8857   2.583   5.656   0.291
 2653SOL    HW1 8858   2.604   5.740   0.240
 2653SOL    HW2 8859   2.578   5.579   0.227
 2654SOL     OW 8860   6.129   0.497   0.938
 2654SOL    HW1 8861   6.185   0.578   0.921
 2654SOL    HW2 8862   6.104   0.494   1.035
 2655SOL     OW 8863   4.745   6.067   2.700
 2655SOL    HW1 8864   4.773   6.137   2.766
 2655SOL    HW2 8865   4.748   6.105   2.608
 2656SOL     OW 8866   4.143   6.112   3.140
 2656SOL    HW1 8867   4.105   6.029   3.098
 2656SOL    HW2 8868   4.174   6.174   3.068
 2657SOL     OW 8869   1.147   3.983   6.882
 2657SOL    HW1 8870   1.242   3.985   6.913
 2657SOL    HW2 8871   1.088   3.959   6.959
 2658SOL     OW 8872   4.359   5.283   6.773
 2658SOL    HW1 8873   4.394   5.231   6.851
 2658SOL    HW2 8874   4.326   5.219   6.703
 2659SOL     OW 8875   0.335   1.910   4.582
 2659SOL    HW1 8876   0.298   1.963   4.658
 2659SOL    HW2 8877   0.379   1.827   4.617
 2660SOL     OW 8878   1.007   2.025   1.917
 2660SOL    HW1 8879   1.041   2.034   2.011
 2660SOL    HW2 8880   0.941   1.951   1.912
 2661SOL     OW 8881   1.605   1.167   0.201
 2661SOL    HW1 8882   1.700   1.172   0.233
 2661SOL    HW2 8883   1.576   1.072   0.197
 2662SOL     OW 8884   2.594   0.911   2.089
 2662SOL    HW1 8885   2.689   0.900   2.117
 2662SOL    HW2 8886   2.586   0.893   1.991
 2663SOL     OW 8887   4.401   6.595   0.496
 2663SOL    HW1 8888   4.451   6.667   0.449
 2663SOL    HW2 8889   4.438   6.506   0.469
 2664SOL     OW 8890   4.556   3.597   5.846
 2664SOL    HW1 8891   4.553   3.697   5.848
 2664SOL    HW2 8892   4.501   3.564   5.769
 2665SOL     OW 8893   2.133   3.590   4.432
 2665SOL    HW1 8894   2.188   3.670   4.457
 2665SOL    HW2 8895   2.112   3.537   4.513
 2666SOL     OW 8896   1.827   3.714   1.786
 2666SOL    HW1 8897   1.927   3.717   1.776
 2666SOL    HW2 8898   1.793   3.627   1.749
 2667SOL     OW 8899   6.321   3.434   4.792
 2667SOL    HW1 8900   6.339   3.355   4.734
 2667SOL    HW2 8901   6.381   3.509   4.767
 2668SOL     OW 8902   6.429   1.024   3.867
 2668SOL    HW1 8903   6.373   1.008   3.786
 2668SOL    HW2 8904   6.525   1.007   3.844
 2669SOL     OW 8905   2.487   0.579   0.360
 2669SOL    HW1 8906   2.579   0.539   0.367
 2669SOL    HW2 8907   2.439   0.568   0.447
 2670SOL     OW 8908   0.053   7.017   6.671
 2670SOL    HW1 8909   0.044   6.930   6.623
 2670SOL    HW2 8910   0.011   7.010   6.761
 2671SOL     OW 8911   4.786   4.471   6.303
 2671SOL    HW1 8912   4.883   4.453   6.320
 2671SOL    HW2 8913   4.731   4.420   6.369
 2672SOL     OW 8914   3.325   0.557   1.859
 2672SOL    HW1 8915   3.392   0.607   1.804
 2672SOL    HW2 8916   3.325   0.461   1.832
 2673SOL     OW 8917   4.324   0.337   2.883
 2673SOL    HW1 8918   4.227   0.325   2.860
 2673SOL    HW2 8919   4.337   0.324   2.981
 2674SOL     OW 8920   6.976   4.989   2.090
 2674SOL    HW1 8921   6.993   4.929   2.168
 2674SOL    HW2 8922   6.878   4.996   2.074
 2675SOL     OW 8923   5.570   0.083   3.823
 2675SOL    HW1 8924   5.624   0.000   3.839
 2675SOL    HW2 8925   5.573   0.141   3.904
 2676SOL     OW 8926   3.750   4.068   2.853
 2676SOL    HW1 8927   3.765   4.166   2.847
 2676SOL    HW2 8928   3.805   4.021   2.783
 2677SOL     OW 8929   2.255   4.933   1.301
 2677SOL    HW1 8930   2.174   4.979   1.337
 2677SOL    HW2 8931   2.337   4.973   1.340
 2678SOL     OW 8932   5.098   1.979   2.973
 2678SOL    HW1 8933   5.063   1.907   3.033
 2678SOL    HW2 8934   5.179   1.946   2.924
 2679SOL     OW 8935   2.170   4.263   3.335
 2679SOL    HW1 8936   2.122   4.193   3.283
 2679SOL    HW2 8937   2.134   4.353   3.311
 2680SOL     OW 8938   6.580   1.138   0.230
 2680SOL    HW1 8939   6.614   1.173   0.317
 2680SOL    HW2 8940   6.650   1.152   0.159
 2681SOL     OW 8941   2.068   1.982   5.028
 2681SOL    HW1 8942   1.990   1.952   4.972
 2681SOL    HW2 8943   2.063   2.081   5.041
 2682SOL     OW 8944   4.062   3.949   1.794
 2682SOL    HW1 8945   4.075   3.946   1.893
 2682SOL    HW2 8946   3.970   3.983   1.773
 2683SOL     OW 8947   2.588   4.560   2.362
 2683SOL    HW1 8948   2.637   4.593   2.443
 2683SOL    HW2 8949   2.646   4.570   2.281
 2684SOL     OW 8950   6.240   6.436   3.211
 2684SOL    HW1 8951   6.245   6.346   3.254
 2684SOL    HW2 8952   6.197   6.427   3.121
 2685SOL     OW 8953   1.695   5.582   5.632
 2685SOL    HW1 8954   1.739   5.666   5.602
 2685SOL    HW2 8955   1.737   5.504   5.585
 2686SOL     OW 8956   0.629   1.668   4.985
 2686SOL    HW1 8957   0.663   1.680   5.078
 2686SOL    HW2 8958   0.593   1.575   4.975
 2687SOL     OW 8959   3.955   1.388   1.496
 2687SOL    HW1 8960   4.042   1.341   1.512
 2687SOL    HW2 8961   3.925   1.433   1.580
 2688SOL     OW 8962   3.694   3.093   6.130
 2688SOL    HW1 8963   3.706   3.151   6.050
 2688SOL    HW2 8964   3.761   3.018   6.127
 2689SOL     OW 8965   1.048   3.216   2.975
 2689SOL    HW1 8966   0.950   3.230   2.962
 2689SOL    HW2 8967   1.081   3.281   3.044
 2690SOL     OW 8968   4.254   1.973   5.667
 2690SOL    HW1 8969   4.176   2.034   5.683
 2690SOL    HW2 8970   4.238   1.920   5.585
 2691SOL     OW 8971   6.675   4.543   3.759
 2691SOL    HW1 8972   6.747   4.561   3.693
 2691SOL    HW2 8973   6.650   4.628   3.805
 2692SOL     OW 8974   2.821   5.425   2.632
 2692SOL    HW1 8975   2.801   5.330   2.658
 2692SOL    HW2 8976   2.850   5.427   2.536
 2693SOL     OW 8977   2.155   5.442   3.373
 2693SOL    HW1 8978   2.073   5.444   3.316
 2693SOL    HW2 8979   2.209   5.361   3.352
 2694SOL     OW 8980   2.884   0.159   3.476
 2694SOL    HW1 8981   2.951   0.116   3.416
 2694SOL    HW2 8982   2.797   0.109   3.472
 2695SOL     OW 8983   0.314   5.634   3.392
 2695SOL    HW1 8984   0.413   5.652   3.389
 2695SOL    HW2 8985   0.280   5.645   3.485
 2696SOL     OW 8986   5.254   4.270   6.783
 2696SOL    HW1 8987   5.313   4.250   6.704
 2696SOL    HW2 8988   5.280   4.358   6.822
 2697SOL     OW 8989   4.134   2.014   6.984
 2697SOL    HW1 8990   4.156   2.044   6.891
 2697SOL    HW2 8991   4.049   1.961   6.983
 2698SOL     OW 8992   1.724   4.366   6.373
 2698SOL    HW1 8993   1.641   4.396   6.327
 2698SOL    HW2 8994   1.765   4.289   6.323
 2699SOL     OW 8995   3.307   6.675   1.966
 2699SOL    HW1 8996   3.357   6.589   1.956
 2699SOL    HW2 8997   3.213   6.655   1.994
 2700SOL     OW 8998   3.807   1.665   1.936
 2700SOL    HW1 8999   3.851   1.734   1.995
 2700SOL    HW2 9000   3.729   1.707   1.889
 2701SOL     OW 9001   5.574   3.071   5.499
 2701SOL    HW1 9002   5.580   3.110   5.591
 2701SOL    HW2 9003   5.618   2.981   5.497
 2702SOL     OW 9004   2.657   1.184   4.592
 2702SOL    HW1 9005   2.688   1.279   4.605
 2702SOL    HW2 9006   2.643   1.142   4.682
 2703SOL     OW 9007   1.558   6.743   2.205
 2703SOL    HW1 9008   1.543   6.751   2.107
 2703SOL    HW2 9009   1.607   6.823   2.239
 2704SOL     OW 9010   5.013   0.179   4.013
 2704SOL    HW1 9011   5.051   0.180   4.105
 2704SOL    HW2 9012   4.964   0.265   3.996
 2705SOL     OW 9013   0.126   0.237   5.274
 2705SOL    HW1 9014   0.220   0.262   5.250
 2705SOL    HW2 9015   0.119   0.138   5.281
 2706SOL     OW 9016   6.930   3.793   3.260
 2706SOL    HW1 9017   6.906   3.890   3.270
 2706SOL    HW2 9018   7.024   3.780   3.292
 2707SOL     OW 9019   3.417   0.557   3.198
 2707SOL    HW1 9020   3.323   0.531   3.177
 2707SOL    HW2 9021   3.478   0.527   3.124
 2708SOL     OW 9022   6.032   3.290   6.916
 2708SOL    HW1 9023   5.936   3.318   6.906
 2708SOL    HW2 9024   6.066   3.322   7.004
 2709SOL     OW 9025   4.692   1.241   4.664
 2709SOL    HW1 9026   4.603   1.273   4.697
 2709SOL    HW2 9027   4.686   1.145   4.638
 2710SOL     OW 9028   1.470   3.157   4.254
 2710SOL    HW1 9029   1.451   3.142   4.156
 2710SOL    HW2 9030   1.561   3.122   4.276
 2711SOL     OW 9031   3.694   1.845   2.239
 2711SOL    HW1 9032   3.674   1.935   2.277
 2711SOL    HW2 9033   3.634   1.826   2.162
 2712SOL     OW 9034   3.900   5.612   1.994
 2712SOL    HW1 9035   3.993   5.582   1.973
 2712SOL    HW2 9036   3.862   5.660   1.915
 2713SOL     OW 9037   3.643   4.887   6.572
 2713SOL    HW1 9038   3.612   4.865   6.479
 2713SOL    HW2 9039   3.626   4.808   6.632
 2714SOL     OW 9040   2.997   4.631   6.205
 2714SOL    HW1 9041   2.900   4.614   6.221
 2714SOL    HW2 9042   3.008   4.688   6.123
 2715SOL     OW 9043   4.242   0.897   0.375
 2715SOL    HW1 9044   4.147   0.909   0.403
 2715SOL    HW2 9045   4.247   0.821   0.310
 2716SOL     OW 9046   3.837   1.488   3.498
 2716SOL    HW1 9047   3.883   1.442   3.422
 2716SOL    HW2 9048   3.756   1.436   3.525
 2717SOL     OW 9049   0.844   0.642   2.811
 2717SOL    HW1 9050   0.860   0.629   2.909
 2717SOL    HW2 9051   0.866   0.736   2.785
 2718SOL     OW 9052   0.197   0.993   5.884
 2718SOL    HW1 9053   0.180   1.048   5.966
 2718SOL    HW2 9054   0.273   1.033   5.833
 2719SOL     OW 9055   2.176   3.817   2.037
 2719SOL    HW1 9056   2.180   3.899   1.979
 2719SOL    HW2 9057   2.227   3.743   1.993
 2720SOL     OW 9058   2.327   6.439   6.383
 2720SOL    HW1 9059   2.407   6.479   6.340
 2720SOL    HW2 9060   2.340   6.437   6.482
 2721SOL     OW 9061   3.291   5.840   1.777
 2721SOL    HW1 9062   3.323   5.909   1.713
 2721SOL    HW2 9063   3.366   5.813   1.838
 2722SOL     OW 9064   4.574   6.446   0.113
 2722SOL    HW1 9065   4.651   6.384   0.127
 2722SOL    HW2 9066   4.493   6.393   0.087
 2723SOL     OW 9067   3.386   6.304   6.503
 2723SOL    HW1 9068   3.480   6.275   6.518
 2723SOL    HW2 9069   3.365   6.383   6.559
 2724SOL     OW 9070   0.682   6.088   0.605
 2724SOL    HW1 9071   0.670   6.030   0.523
 2724SOL    HW2 9072   0.776   6.082   0.636
 2725SOL     OW 9073   6.112   4.106   5.077
 2725SOL    HW1 9074   6.109   4.057   4.991
 2725SOL    HW2 9075   6.204   4.144   5.091
 2726SOL     OW 9076   6.776   1.621   1.988
 2726SOL    HW1 9077   6.846   1.676   2.034
 2726SOL    HW2 9078   6.687   1.637   2.031
 2727SOL     OW 9079   1.986   4.634   4.210
 2727SOL    HW1 9080   1.950   4.720   4.246
 2727SOL    HW2 9081   2.077   4.650   4.171
 2728SOL     OW 9082   4.933   5.579   5.939
 2728SOL    HW1 9083   4.959   5.483   5.928
 2728SOL    HW2 9084   4.999   5.624   5.999
 2729SOL     OW 9085   5.275   6.472   6.222
 2729SOL    HW1 9086   5.243   6.565   6.202
 2729SOL    HW2 9087   5.234   6.439   6.306
 2730SOL     OW 9088   0.834   6.169   2.376
 2730SOL    HW1 9089   0.880   6.256   2.357
 2730SOL    HW2 9090   0.895   6.093   2.353
 2731SOL     OW 9091   3.740   3.635   4.088
 2731SOL    HW1 9092   3.671   3.607   4.021
 2731SOL    HW2 9093   3.831   3.620   4.049
 2732SOL     OW 9094   5.692   0.931   2.024
 2732SOL    HW1 9095   5.725   1.010   1.972
 2732SOL    HW2 9096   5.767   0.891   2.077
 2733SOL     OW 9097   1.230   6.655   6.599
 2733SOL    HW1 9098   1.210   6.639   6.696
 2733SOL    HW2 9099   1.160   6.714   6.560
 2734SOL     OW 9100   3.677   6.362   1.441
 2734SOL    HW1 9101   3.633   6.302   1.508
 2734SOL    HW2 9102   3.657   6.457   1.463
 2735SOL     OW 9103   0.796   1.480   1.857
 2735SOL    HW1 9104   0.809   1.462   1.760
 2735SOL    HW2 9105   0.699   1.483   1.879
 2736SOL     OW 9106   5.437   4.566   2.914
 2736SOL    HW1 9107   5.362   4.627   2.938
 2736SOL    HW2 9108   5.515   4.619   2.882
 2737SOL     OW 9109   2.327   1.538   6.002
 2737SOL    HW1 9110   2.385   1.597   6.059
 2737SOL    HW2 9111   2.242   1.586   5.980
 2738SOL     OW 9112   5.716   6.432   1.836
 2738SOL    HW1 9113   5.640   6.497   1.840
 2738SOL    HW2 9114   5.767   6.446   1.751
 2739SOL     OW 9115   0.152   5.674   1.774
 2739SOL    HW1 9116   0.161   5.748   1.841
 2739SOL    HW2 9117   0.062   5.677   1.732
 2740SOL     OW 9118   6.629   5.472   3.747
 2740SOL    HW1 9119   6.705   5.411   3.768
 2740SOL    HW2 9120   6.626   5.546   3.814
 2741SOL     OW 9121   1.412   1.432   4.814
 2741SOL    HW1 9122   1.412   1.505   4.883
 2741SOL    HW2 9123   1.375   1.468   4.728
 2742SOL     OW 9124   2.885   5.451   1.706
 2742SOL    HW1 9125   2.980   5.477   1.685
 2742SOL    HW2 9126   2.872   5.354   1.684
 2743SOL     OW 9127   5.207   3.722   2.752
 2743SOL    HW1 9128   5.191   3.624   2.746
 2743SOL    HW2 9129   5.164   3.768   2.674
 2744SOL     OW 9130   3.421   3.819   3.224
 2744SOL    HW1 9131   3.397   3.916   3.220
 2744SOL    HW2 9132   3.452   3.796   3.317
 2745SOL     OW 9133   0.432   6.840   6.642
 2745SOL    HW1 9134   0.412   6.760   6.698
 2745SOL    HW2 9135   0.417   6.923   6.697
 2746SOL     OW 9136   1.772   1.032   3.163
 2746SOL    HW1 9137   1.764   1.132   3.165
 2746SOL    HW2 9138   1.729   0.994   3.245
 2747SOL     OW 9139   3.738   5.284   1.075
 2747SOL    HW1 9140   3.763   5.193   1.109
 2747SOL    HW2 9141   3.668   5.275   1.004
 2748SOL     OW 9142   4.418   6.851   1.713
 2748SOL    HW1 9143   4.408   6.845   1.614
 2748SOL    HW2 9144   4.516   6.855   1.737
 2749SOL     OW 9145   2.788   3.403   0.020
 2749SOL    HW1 9146   2.866   3.344   0.040
 2749SOL    HW2 9147   2.713   3.380   0.082
 2750SOL     OW 9148   1.973   6.217   2.179
 2750SOL    HW1 9149   1.987   6.284   2.252
 2750SOL    HW2 9150   2.055   6.214   2.121
 2751SOL     OW 9151   5.965   3.259   0.575
 2751SOL    HW1 9152   5.959   3.351   0.614
 2751SOL    HW2 9153   6.018   3.263   0.490
 2752SOL     OW 9154   3.910   5.108   6.702
 2752SOL    HW1 9155   3.921   5.009   6.691
 2752SOL    HW2 9156   3.835   5.140   6.644
 2753SOL     OW 9157   6.283   5.962   5.472
 2753SOL    HW1 9158   6.247   6.033   5.533
 2753SOL    HW2 9159   6.281   5.996   5.378
 2754SOL     OW 9160   0.762   0.261   6.074
 2754SOL    HW1 9161   0.709   0.292   5.995
 2754SOL    HW2 9162   0.858   0.251   6.048
 2755SOL     OW 9163   2.368   0.249   2.075
 2755SOL    HW1 9164   2.361   0.272   1.978
 2755SOL    HW2 9165   2.429   0.171   2.087
 2756SOL     OW 9166   5.006   6.367   0.302
 2756SOL    HW1 9167   5.050   6.444   0.257
 2756SOL    HW2 9168   5.068   6.289   0.304
 2757SOL     OW 9169   0.824   5.150   1.502
 2757SOL    HW1 9170   0.865   5.219   1.443
 2757SOL    HW2 9171   0.815   5.185   1.595
 2758SOL     OW 9172   5.010   0.509   5.392
 2758SOL    HW1 9173   4.938   0.570   5.358
 2758SOL    HW2 9174   5.099   0.553   5.378
 2759SOL     OW 9175   5.706   5.679   5.074
 2759SOL    HW1 9176   5.615   5.686   5.113
 2759SOL    HW2 9177   5.745   5.770   5.063
 2760SOL     OW 9178   2.781   5.347   3.040
 2760SOL    HW1 9179   2.818   5.255   3.030
 2760SOL    HW2 9180   2.851   5.413   3.013
 2761SOL     OW 9181   2.351   6.043   2.983
 2761SOL    HW1 9182   2.404   6.127   2.994
 2761SOL    HW2 9183   2.347   5.994   3.070
 2762SOL     OW 9184   0.888   6.889   5.065
 2762SOL    HW1 9185   0.939   6.974   5.077
 2762SOL    HW2 9186   0.839   6.891   4.977
 2763SOL     OW 9187   5.806   1.756   2.724
 2763SOL    HW1 9188   5.747   1.757   2.805
 2763SOL    HW2 9189   5.863   1.839   2.724
 2764SOL     OW 9190   6.904   0.987   2.020
 2764SOL    HW1 9191   6.959   0.964   2.100
 2764SOL    HW2 9192   6.916   0.916   1.950
 2765SOL     OW 9193   6.449   1.234   1.979
 2765SOL    HW1 9194   6.386   1.166   2.017
 2765SOL    HW2 9195   6.538   1.192   1.963
 2766SOL     OW 9196   5.838   1.039   2.304
 2766SOL    HW1 9197   5.851   0.945   2.274
 2766SOL    HW2 9198   5.927   1.085   2.312
 2767SOL     OW 9199   5.759   4.136   6.356
 2767SOL    HW1 9200   5.788   4.231   6.367
 2767SOL    HW2 9201   5.710   4.126   6.269
 2768SOL     OW 9202   5.379   1.058   7.009
 2768SOL    HW1 9203   5.417   1.116   6.938
 2768SOL    HW2 9204   5.381   1.107   0.071
 2769SOL     OW 9205   0.420   4.048   1.645
 2769SOL    HW1 9206   0.364   4.111   1.592
 2769SOL    HW2 9207   0.432   3.962   1.595
 2770SOL     OW 9208   0.382   5.544   1.649
 2770SOL    HW1 9209   0.359   5.504   1.560
 2770SOL    HW2 9210   0.299   5.547   1.706
 2771SOL     OW 9211   5.009   1.151   1.450
 2771SOL    HW1 9212   5.059   1.120   1.531
 2771SOL    HW2 9213   4.955   1.075   1.413
 2772SOL     OW 9214   3.310   2.474   6.634
 2772SOL    HW1 9215   3.237   2.510   6.577
 2772SOL    HW2 9216   3.384   2.541   6.641
 2773SOL     OW 9217   3.787   3.864   6.519
 2773SOL    HW1 9218   3.845   3.829   6.446
 2773SOL    HW2 9219   3.802   3.962   6.530
 2774SOL     OW 9220   5.658   3.413   1.932
 2774SOL    HW1 9221   5.626   3.321   1.955
 2774SOL    HW2 9222   5.580   3.468   1.901
 2775SOL     OW 9223   6.931   5.723   1.642
 2775SOL    HW1 9224   6.961   5.669   1.564
 2775SOL    HW2 9225   6.898   5.812   1.610
 2776SOL     OW 9226   2.765   6.363   6.383
 2776SOL    HW1 9227   2.733   6.333   6.293
 2776SOL    HW2 9228   2.711   6.442   6.413
 2777SOL     OW 9229   3.214   1.554   2.635
 2777SOL    HW1 9230   3.167   1.588   2.716
 2777SOL    HW2 9231   3.312   1.573   2.643
 2778SOL     OW 9232   2.145   2.188   5.665
 2778SOL    HW1 9233   2.188   2.135   5.739
 2778SOL    HW2 9234   2.190   2.277   5.658
 2779SOL     OW 9235   5.648   0.350   0.004
 2779SOL    HW1 9236   5.606   0.378   0.091
 2779SOL    HW2 9237   5.737   0.396   7.019
 2780SOL     OW 9238   4.905   5.411   6.838
 2780SOL    HW1 9239   4.833   5.343   6.821
 2780SOL    HW2 9240   4.943   5.442   6.751
 2781SOL     OW 9241   5.638   4.419   0.958
 2781SOL    HW1 9242   5.611   4.474   0.878
 2781SOL    HW2 9243   5.558   4.373   0.996
 2782SOL     OW 9244   2.469   2.693   6.297
 2782SOL    HW1 9245   2.502   2.719   6.388
 2782SOL    HW2 9246   2.547   2.682   6.235
 2783SOL     OW 9247   0.086   4.942   5.250
 2783SOL    HW1 9248   0.177   4.982   5.247
 2783SOL    HW2 9249   0.038   4.963   5.165
 2784SOL     OW 9250   2.327   1.799   1.395
 2784SOL    HW1 9251   2.306   1.839   1.306
 2784SOL    HW2 9252   2.320   1.869   1.466
 2785SOL     OW 9253   6.343   0.678   0.917
 2785SOL    HW1 9254   6.404   0.718   0.847
 2785SOL    HW2 9255   6.356   0.726   1.003
 2786SOL     OW 9256   4.145   6.604   1.378
 2786SOL    HW1 9257   4.155   6.647   1.288
 2786SOL    HW2 9258   4.071   6.649   1.428
 2787SOL     OW 9259   2.623   3.070   5.662
 2787SOL    HW1 9260   2.543   3.018   5.691
 2787SOL    HW2 9261   2.693   3.007   5.628
 2788SOL     OW 9262   1.478   3.727   0.704
 2788SOL    HW1 9263   1.560   3.705   0.757
 2788SOL    HW2 9264   1.503   3.785   0.627
 2789SOL     OW 9265   0.592   2.225   4.187
 2789SOL    HW1 9266   0.582   2.129   4.213
 2789SOL    HW2 9267   0.636   2.230   4.098
 2790SOL     OW 9268   4.141   5.290   2.856
 2790SOL    HW1 9269   4.066   5.289   2.921
 2790SOL    HW2 9270   4.109   5.323   2.767
 2791SOL     OW 9271   1.773   3.220   4.941
 2791SOL    HW1 9272   1.869   3.247   4.946
 2791SOL    HW2 9273   1.761   3.151   4.870
 2792SOL     OW 9274   0.676   1.784   5.614
 2792SOL    HW1 9275   0.694   1.687   5.596
 2792SOL    HW2 9276   0.740   1.840   5.562
 2793SOL     OW 9277   4.555   1.271   3.275
 2793SOL    HW1 9278   4.595   1.211   3.344
 2793SOL    HW2 9279   4.625   1.294   3.207
 2794SOL     OW 9280   0.932   0.521   0.803
 2794SOL    HW1 9281   0.848   0.569   0.826
 2794SOL    HW2 9282   0.940   0.439   0.860
 2795SOL     OW 9283   2.518   3.904   1.097
 2795SOL    HW1 9284   2.534   3.906   0.998
 2795SOL    HW2 9285   2.604   3.887   1.145
 2796SOL     OW 9286   5.237   4.012   2.500
 2796SOL    HW1 9287   5.230   4.089   2.436
 2796SOL    HW2 9288   5.240   4.046   2.594
 2797SOL     OW 9289   4.759   4.854   4.814
 2797SOL    HW1 9290   4.701   4.901   4.881
 2797SOL    HW2 9291   4.725   4.871   4.722
 2798SOL     OW 9292   0.764   3.328   4.281
 2798SOL    HW1 9293   0.720   3.305   4.195
 2798SOL    HW2 9294   0.700   3.375   4.341
 2799SOL     OW 9295   6.332   4.676   6.176
 2799SOL    HW1 9296   6.413   4.684   6.235
 2799SOL    HW2 9297   6.319   4.581   6.150
 2800SOL     OW 9298   3.081   4.626   6.715
 2800SOL    HW1 9299   3.049   4.690   6.784
 2800SOL    HW2 9300   3.031   4.540   6.724
 2801SOL     OW 9301   5.821   5.735   1.883
 2801SOL    HW1 9302   5.906   5.689   1.907
 2801SOL    HW2 9303   5.744   5.689   1.928
 2802SOL     OW 9304   4.524   1.384   5.790
 2802SOL    HW1 9305   4.539   1.480   5.767
 2802SOL    HW2 9306   4.430   1.372   5.821
 2803SOL     OW 9307   3.253   6.478   6.669
 2803SOL    HW1 9308   3.168   6.442   6.630
 2803SOL    HW2 9309   3.233   6.564   6.716
 2804SOL     OW 9310   6.899   4.392   3.457
 2804SOL    HW1 9311   6.902   4.466   3.525
 2804SOL    HW2 9312   6.957   4.316   3.488
 2805SOL     OW 9313   5.304   3.127   0.331
 2805SOL    HW1 9314   5.240   3.140   0.255
 2805SOL    HW2 9315   5.396   3.110   0.295
 2806SOL     OW 9316   6.637   5.336   3.333
 2806SOL    HW1 9317   6.662   5.247   3.371
 2806SOL    HW2 9318   6.717   5.396   3.334
 2807SOL     OW 9319   4.490   4.965   3.252
 2807SOL    HW1 9320   4.462   4.969   3.348
 2807SOL    HW2 9321   4.540   4.880   3.235
 2808SOL     OW 9322   5.361   1.055   4.098
 2808SOL    HW1 9323   5.359   1.155   4.093
 2808SOL    HW2 9324   5.308   1.017   4.022
 2809SOL     OW 9325   5.226   2.439   1.013
 2809SOL    HW1 9326   5.202   2.419   0.918
 2809SOL    HW2 9327   5.146   2.477   1.061
 2810SOL     OW 9328   2.342   6.627   4.969
 2810SOL    HW1 9329   2.263   6.579   5.008
 2810SOL    HW2 9330   2.365   6.705   5.027
 2811SOL     OW 9331   0.112   1.962   3.454
 2811SOL    HW1 9332   0.212   1.960   3.459
 2811SOL    HW2 9333   0.078   2.044   3.499
 2812SOL     OW 9334   4.894   3.917   1.881
 2812SOL    HW1 9335   4.986   3.910   1.843
 2812SOL    HW2 9336   4.882   4.007   1.923
 2813SOL     OW 9337   5.968   0.571   6.609
 2813SOL    HW1 9338   5.994   0.483   6.649
 2813SOL    HW2 9339   5.901   0.556   6.536
 2814SOL     OW 9340   4.788   3.986   5.543
 2814SOL    HW1 9341   4.824   4.074   5.511
 2814SOL    HW2 9342   4.864   3.924   5.563
 2815SOL     OW 9343   0.313   1.136   5.058
 2815SOL    HW1 9344   0.268   1.097   4.978
 2815SOL    HW2 9345   0.268   1.222   5.084
 2816SOL     OW 9346   5.601   6.806   4.114
 2816SOL    HW1 9347   5.666   6.767   4.050
 2816SOL    HW2 9348   5.518   6.833   4.065
 2817SOL     OW 9349   1.160   1.546   1.508
 2817SOL    HW1 9350   1.257   1.557   1.483
 2817SOL    HW2 9351   1.116   1.636   1.510
 2818SOL     OW 9352   6.584   4.721   5.606
 2818SOL    HW1 9353   6.667   4.715   5.551
 2818SOL    HW2 9354   6.598   4.674   5.693
 2819SOL     OW 9355   6.975   2.809   1.224
 2819SOL    HW1 9356   0.048   2.819   1.210
 2819SOL    HW2 9357   6.948   2.714   1.206
 2820SOL     OW 9358   6.760   3.266   3.549
 2820SOL    HW1 9359   6.835   3.319   3.588
 2820SOL    HW2 9360   6.756   3.282   3.450
 2821SOL     OW 9361   1.045   4.091   4.966
 2821SOL    HW1 9362   1.074   4.161   5.032
 2821SOL    HW2 9363   1.100   4.008   4.980
 2822SOL     OW 9364   4.808   2.158   0.047
 2822SOL    HW1 9365   4.749   2.220   0.099
 2822SOL    HW2 9366   4.814   2.071   0.095
 2823SOL     OW 9367   1.680   6.329   2.898
 2823SOL    HW1 9368   1.765   6.306   2.946
 2823SOL    HW2 9369   1.628   6.246   2.881
 2824SOL     OW 9370   2.950   1.633   5.690
 2824SOL    HW1 9371   2.880   1.660   5.623
 2824SOL    HW2 9372   3.036   1.615   5.642
 2825SOL     OW 9373   6.706   6.396   1.244
 2825SOL    HW1 9374   6.647   6.317   1.257
 2825SOL    HW2 9375   6.696   6.430   1.150
 2826SOL     OW 9376   4.891   1.443   4.699
 2826SOL    HW1 9377   4.865   1.492   4.783
 2826SOL    HW2 9378   4.822   1.373   4.679
 2827SOL     OW 9379   5.746   1.391   5.326
 2827SOL    HW1 9380   5.688   1.453   5.273
 2827SOL    HW2 9381   5.688   1.334   5.385
 2828SOL     OW 9382   4.030   1.394   5.690
 2828SOL    HW1 9383   3.947   1.390   5.635
 2828SOL    HW2 9384   4.025   1.472   5.753
 2829SOL     OW 9385   2.885   6.980   5.919
 2829SOL    HW1 9386   2.845   6.919   5.987
 2829SOL    HW2 9387   2.862   6.946   5.827
 2830SOL     OW 9388   4.257   3.453   6.993
 2830SOL    HW1 9389   4.173   3.450   6.939
 2830SOL    HW2 9390   4.240   3.411   0.057
 2831SOL     OW 9391   5.774   6.092   4.362
 2831SOL    HW1 9392   5.854   6.114   4.305
 2831SOL    HW2 9393   5.704   6.161   4.349
 2832SOL     OW 9394   0.689   1.140   2.273
 2832SOL    HW1 9395   0.685   1.175   2.180
 2832SOL    HW2 9396   0.620   1.185   2.330
 2833SOL     OW 9397   6.070   2.994   1.834
 2833SOL    HW1 9398   6.073   2.906   1.880
 2833SOL    HW2 9399   6.150   3.004   1.775
 2834SOL     OW 9400   3.606   1.457   5.089
 2834SOL    HW1 9401   3.691   1.405   5.083
 2834SOL    HW2 9402   3.613   1.525   5.162
 2835SOL     OW 9403   0.534   0.087   2.495
 2835SOL    HW1 9404   0.553   0.021   2.568
 2835SOL    HW2 9405   0.572   0.176   2.519
 2836SOL     OW 9406   6.994   0.275   1.416
 2836SOL    HW1 9407   6.924   0.309   1.352
 2836SOL    HW2 9408   6.991   0.175   1.419
 2837SOL     OW 9409   5.363   3.919   3.959
 2837SOL    HW1 9410   5.361   3.923   3.859
 2837SOL    HW2 9411   5.280   3.959   3.996
 2838SOL     OW 9412   3.241   4.854   2.614
 2838SOL    HW1 9413   3.333   4.869   2.578
 2838SOL    HW2 9414   3.177   4.917   2.570
 2839SOL     OW 9415   5.409   1.935   1.389
 2839SOL    HW1 9416   5.332   1.924   1.325
 2839SOL    HW2 9417   5.396   1.875   1.467
 2840SOL     OW 9418   6.499   1.134   5.446
 2840SOL    HW1 9419   6.469   1.203   5.380
 2840SOL    HW2 9420   6.576   1.169   5.499
 2841SOL     OW 9421   0.558   6.096   0.853
 2841SOL    HW1 9422   0.601   6.135   0.771
 2841SOL    HW2 9423   0.629   6.061   0.914
 2842SOL     OW 9424   6.676   3.655   3.220
 2842SOL    HW1 9425   6.767   3.690   3.242
 2842SOL    HW2 9426   6.667   3.562   3.254
 2843SOL     OW 9427   4.068   0.873   4.475
 2843SOL    HW1 9428   4.034   0.912   4.561
 2843SOL    HW2 9429   3.991   0.853   4.415
 2844SOL     OW 9430   0.473   4.056   6.391
 2844SOL    HW1 9431   0.409   4.128   6.418
 2844SOL    HW2 9432   0.472   4.046   6.291
 2845SOL     OW 9433   0.027   4.611   6.155
 2845SOL    HW1 9434   0.051   4.677   6.083
 2845SOL    HW2 9435   0.095   4.617   6.228
 2846SOL     OW 9436   4.868   1.665   6.357
 2846SOL    HW1 9437   4.777   1.681   6.318
 2846SOL    HW2 9438   4.861   1.666   6.457
 2847SOL     OW 9439   5.859   4.450   4.233
 2847SOL    HW1 9440   5.868   4.354   4.260
 2847SOL    HW2 9441   5.816   4.455   4.143
 2848SOL     OW 9442   1.097   5.014   4.750
 2848SOL    HW1 9443   1.078   5.082   4.821
 2848SOL    HW2 9444   1.060   4.926   4.779
 2849SOL     OW 9445   2.924   1.905   1.092
 2849SOL    HW1 9446   2.947   1.982   1.033
 2849SOL    HW2 9447   2.890   1.829   1.037
 2850SOL     OW 9448   3.511   0.177   0.425
 2850SOL    HW1 9449   3.602   0.192   0.385
 2850SOL    HW2 9450   3.506   0.221   0.515
 2851SOL     OW 9451   1.202   4.524   5.558
 2851SOL    HW1 9452   1.109   4.559   5.548
 2851SOL    HW2 9453   1.250   4.578   5.628
 2852SOL     OW 9454   6.964   3.263   6.727
 2852SOL    HW1 9455   6.872   3.225   6.737
 2852SOL    HW2 9456   6.996   3.247   6.633
 2853SOL     OW 9457   3.304   3.359   0.866
 2853SOL    HW1 9458   3.401   3.370   0.890
 2853SOL    HW2 9459   3.250   3.345   0.948
 2854SOL     OW 9460   2.507   0.935   3.531
 2854SOL    HW1 9461   2.444   0.909   3.458
 2854SOL    HW2 9462   2.529   1.032   3.522
 2855SOL     OW 9463   2.024   0.825   5.154
 2855SOL    HW1 9464   2.034   0.890   5.079
 2855SOL    HW2 9465   1.960   0.861   5.222
 2856SOL     OW 9466   2.332   2.766   5.224
 2856SOL    HW1 9467   2.247   2.777   5.275
 2856SOL    HW2 9468   2.369   2.856   5.200
 2857SOL     OW 9469   2.938   2.720   1.374
 2857SOL    HW1 9470   2.925   2.658   1.295
 2857SOL    HW2 9471   3.016   2.689   1.428
 2858SOL     OW 9472   6.417   3.166   2.936
 2858SOL    HW1 9473   6.321   3.193   2.930
 2858SOL    HW2 9474   6.473   3.225   2.878
 2859SOL     OW 9475   5.559   0.386   0.918
 2859SOL    HW1 9476   5.626   0.456   0.940
 2859SOL    HW2 9477   5.541   0.331   1.000
 2860SOL     OW 9478   4.047   1.470   2.078
 2860SOL    HW1 9479   4.048   1.518   2.166
 2860SOL    HW2 9480   3.988   1.520   2.014
 2861SOL     OW 9481   3.383   5.428   5.437
 2861SOL    HW1 9482   3.418   5.417   5.530
 2861SOL    HW2 9483   3.389   5.525   5.411
 2862SOL     OW 9484   5.876   1.023   4.101
 2862SOL    HW1 9485   5.937   1.063   4.032
 2862SOL    HW2 9486   5.788   1.000   4.058
 2863SOL     OW 9487   6.816   1.993   6.666
 2863SOL    HW1 9488   6.911   1.975   6.641
 2863SOL    HW2 9489   6.756   1.930   6.618
 2864SOL     OW 9490   3.915   1.077   0.550
 2864SOL    HW1 9491   3.897   1.069   0.648
 2864SOL    HW2 9492   3.921   0.985   0.510
 2865SOL     OW 9493   4.549   4.563   5.270
 2865SOL    HW1 9494   4.563   4.495   5.198
 2865SOL    HW2 9495   4.580   4.526   5.357
 2866SOL     OW 9496   0.206   6.226   6.233
 2866SOL    HW1 9497   0.139   6.233   6.307
 2866SOL    HW2 9498   0.175   6.280   6.155
 2867SOL     OW 9499   5.996   4.429   3.933
 2867SOL    HW1 9500   5.907   4.465   3.962
 2867SOL    HW2 9501   6.062   4.504   3.930
 2868SOL     OW 9502   1.308   3.807   5.279
 2868SOL    HW1 9503   1.264   3.854   5.356
 2868SOL    HW2 9504   1.250   3.733   5.247
 2869SOL     OW 9505   6.087   1.153   1.793
 2869SOL    HW1 9506   6.056   1.175   1.701
 2869SOL    HW2 9507   6.014   1.108   1.844
 2870SOL     OW 9508   6.069   2.503   2.985
 2870SOL    HW1 9509   6.046   2.441   2.910
 2870SOL    HW2 9510   5.986   2.530   3.033
 2871SOL     OW 9511   1.715   2.171   6.305
 2871SOL    HW1 9512   1.636   2.165   6.366
 2871SOL    HW2 9513   1.751   2.264   6.307
 2872SOL     OW 9514   2.504   0.596   3.395
 2872SOL    HW1 9515   2.462   0.629   3.479
 2872SOL    HW2 9516   2.521   0.498   3.402
 2873SOL     OW 9517   0.342   5.282   2.173
 2873SOL    HW1 9518   0.313   5.238   2.257
 2873SOL    HW2 9519   0.279   5.260   2.099
 2874SOL     OW 9520   5.594   2.979   2.136
 2874SOL    HW1 9521   5.542   2.952   2.056
 2874SOL    HW2 9522   5.570   3.073   2.162
 2875SOL     OW 9523   3.619   5.503   6.389
 2875SOL    HW1 9524   3.647   5.515   6.485
 2875SOL    HW2 9525   3.520   5.516   6.382
 2876SOL     OW 9526   0.200   0.885   1.754
 2876SOL    HW1 9527   0.123   0.837   1.794
 2876SOL    HW2 9528   0.238   0.949   1.822
 2877SOL     OW 9529   3.016   2.789   5.329
 2877SOL    HW1 9530   2.919   2.811   5.341
 2877SOL    HW2 9531   3.071   2.872   5.337
 2878SOL     OW 9532   2.525   4.683   5.334
 2878SOL    HW1 9533   2.469   4.660   5.255
 2878SOL    HW2 9534   2.518   4.782   5.352
 2879SOL     OW 9535   4.751   4.516   0.690
 2879SOL    HW1 9536   4.823   4.461   0.648
 2879SOL    HW2 9537   4.735   4.483   0.783
 2880SOL     OW 9538   1.084   6.263   1.655
 2880SOL    HW1 9539   0.990   6.284   1.626
 2880SOL    HW2 9540   1.136   6.230   1.577
 2881SOL     OW 9541   6.748   6.136   0.722
 2881SOL    HW1 9542   6.777   6.229   0.744
 2881SOL    HW2 9543   6.671   6.138   0.659
 2882SOL     OW 9544   0.383   3.250   3.025
 2882SOL    HW1 9545   0.339   3.226   2.938
 2882SOL    HW2 9546   0.313   3.262   3.095
 2883SOL     OW 9547   3.701   0.144   2.220
 2883SOL    HW1 9548   3.797   0.140   2.247
 2883SOL    HW2 9549   3.682   0.073   2.152
 2884SOL     OW 9550   1.062   5.705   3.192
 2884SOL    HW1 9551   1.158   5.730   3.200
 2884SOL    HW2 9552   1.054   5.606   3.180
 2885SOL     OW 9553   0.820   2.550   2.689
 2885SOL    HW1 9554   0.915   2.524   2.706
 2885SOL    HW2 9555   0.762   2.509   2.759
 2886SOL     OW 9556   2.440   1.977   6.397
 2886SOL    HW1 9557   2.408   1.994   6.303
 2886SOL    HW2 9558   2.386   1.904   6.438
 2887SOL     OW 9559   1.352   0.568   5.198
 2887SOL    HW1 9560   1.305   0.577   5.286
 2887SOL    HW2 9561   1.291   0.524   5.133
 2888SOL     OW 9562   5.744   4.885   7.016
 2888SOL    HW1 9563   5.758   4.964   6.957
 2888SOL    HW2 9564   5.832   4.855   0.028
 2889SOL     OW 9565   0.425   0.095   1.640
 2889SOL    HW1 9566   0.393   0.163   1.706
 2889SOL    HW2 9567   0.425   0.134   1.548
 2890SOL     OW 9568   4.252   0.727   2.167
 2890SOL    HW1 9569   4.338   0.733   2.116
 2890SOL    HW2 9570   4.228   0.631   2.182
 2891SOL     OW 9571   2.516   4.499   3.878
 2891SOL    HW1 9572   2.484   4.421   3.931
 2891SOL    HW2 9573   2.513   4.582   3.934
 2892SOL     OW 9574   4.312   3.740   6.975
 2892SOL    HW1 9575   4.355   3.766   6.889
 2892SOL    HW2 9576   4.300   3.640   6.978
 2893SOL     OW 9577   2.128   0.199   4.959
 2893SOL    HW1 9578   2.060   0.135   4.925
 2893SOL    HW2 9579   2.141   0.186   5.057
 2894SOL     OW 9580   3.455   2.749   6.992
 2894SOL    HW1 9581   3.540   2.700   7.008
 2894SOL    HW2 9582   3.474   2.847   6.982
 2895SOL     OW 9583   3.723   3.690   6.244
 2895SOL    HW1 9584   3.817   3.657   6.232
 2895SOL    HW2 9585   3.696   3.679   6.339
 2896SOL     OW 9586   2.111   5.010   0.502
 2896SOL    HW1 9587   2.137   4.980   0.593
 2896SOL    HW2 9588   2.194   5.032   0.450
 2897SOL     OW 9589   2.581   6.131   3.541
 2897SOL    HW1 9590   2.681   6.133   3.549
 2897SOL    HW2 9591   2.540   6.175   3.621
 2898SOL     OW 9592   3.525   5.240   1.887
 2898SOL    HW1 9593   3.537   5.268   1.982
 2898SOL    HW2 9594   3.500   5.143   1.883
 2899SOL     OW 9595   6.863   6.965   0.075
 2899SOL    HW1 9596   6.828   0.029   0.046
 2899SOL    HW2 9597   6.913   6.975   0.161
 2900SOL     OW 9598   1.431   5.076   5.921
 2900SOL    HW1 9599   1.503   5.135   5.885
 2900SOL    HW2 9600   1.383   5.123   5.996
 2901SOL     OW 9601   2.761   0.525   1.809
 2901SOL    HW1 9602   2.664   0.550   1.816
 2901SOL    HW2 9603   2.807   0.547   1.895
 2902SOL     OW 9604   5.667   6.286   0.860
 2902SOL    HW1 9605   5.575   6.310   0.827
 2902SOL    HW2 9606   5.733   6.302   0.787
 2903SOL     OW 9607   2.641   1.370   2.208
 2903SOL    HW1 9608   2.614   1.466   2.212
 2903SOL    HW2 9609   2.561   1.313   2.191
 2904SOL     OW 9610   1.881   2.722   5.473
 2904SOL    HW1 9611   1.949   2.793   5.491
 2904SOL    HW2 9612   1.886   2.652   5.545
 2905SOL     OW 9613   1.624   1.790   1.728
 2905SOL    HW1 9614   1.524   1.787   1.735
 2905SOL    HW2 9615   1.659   1.696   1.723
 2906SOL     OW 9616   5.815   5.275   2.318
 2906SOL    HW1 9617   5.724   5.287   2.279
 2906SOL    HW2 9618   5.870   5.216   2.258
 2907SOL     OW 9619   6.791   1.411   4.515
 2907SOL    HW1 9620   6.821   1.450   4.428
 2907SOL    HW2 9621   6.768   1.485   4.579
 2908SOL     OW 9622   3.517   5.816   4.037
 2908SOL    HW1 9623   3.561   5.891   4.086
 2908SOL    HW2 9624   3.420   5.838   4.023
 2909SOL     OW 9625   1.379   5.314   4.725
 2909SOL    HW1 9626   1.462   5.354   4.685
 2909SOL    HW2 9627   1.352   5.234   4.673
 2910SOL     OW 9628   4.319   6.398   5.922
 2910SOL    HW1 9629   4.271   6.323   5.877
 2910SOL    HW2 9630   4.293   6.400   6.019
 2911SOL     OW 9631   1.839   4.973   3.064
 2911SOL    HW1 9632   1.753   4.930   3.091
 2911SOL    HW2 9633   1.853   5.056   3.118
 2912SOL     OW 9634   2.451   6.099   0.598
 2912SOL    HW1 9635   2.431   6.184   0.646
 2912SOL    HW2 9636   2.548   6.078   0.606
 2913SOL     OW 9637   1.740   3.628   2.690
 2913SOL    HW1 9638   1.652   3.649   2.732
 2913SOL    HW2 9639   1.726   3.562   2.615
 2914SOL     OW 9640   5.594   5.319   5.904
 2914SOL    HW1 9641   5.581   5.393   5.970
 2914SOL    HW2 9642   5.564   5.233   5.944
 2915SOL     OW 9643   4.112   1.581   4.037
 2915SOL    HW1 9644   4.182   1.643   4.000
 2915SOL    HW2 9645   4.155   1.495   4.065
 2916SOL     OW 9646   6.000   5.202   5.360
 2916SOL    HW1 9647   5.909   5.188   5.400
 2916SOL    HW2 9648   6.006   5.156   5.272
 2917SOL     OW 9649   4.485   0.736   2.057
 2917SOL    HW1 9650   4.554   0.678   2.102
 2917SOL    HW2 9651   4.479   0.710   1.960
 2918SOL     OW 9652   0.578   3.672   3.786
 2918SOL    HW1 9653   0.556   3.695   3.691
 2918SOL    HW2 9654   0.510   3.713   3.847
 2919SOL     OW 9655   6.147   6.057   0.543
 2919SOL    HW1 9656   6.205   5.980   0.571
 2919SOL    HW2 9657   6.052   6.028   0.545
 2920SOL     OW 9658   4.235   2.066   2.593
 2920SOL    HW1 9659   4.241   1.997   2.666
 2920SOL    HW2 9660   4.292   2.038   2.516
 2921SOL     OW 9661   0.284   0.967   2.416
 2921SOL    HW1 9662   0.323   1.055   2.391
 2921SOL    HW2 9663   0.336   0.927   2.491
 2922SOL     OW 9664   4.798   6.966   5.432
 2922SOL    HW1 9665   4.896   6.945   5.440
 2922SOL    HW2 9666   4.767   7.009   5.517
 2923SOL     OW 9667   6.564   4.756   2.603
 2923SOL    HW1 9668   6.484   4.815   2.613
 2923SOL    HW2 9669   6.574   4.698   2.684
 2924SOL     OW 9670   0.511   1.530   5.233
 2924SOL    HW1 9671   0.545   1.624   5.235
 2924SOL    HW2 9672   0.551   1.482   5.155
 2925SOL     OW 9673   5.586   3.456   1.429
 2925SOL    HW1 9674   5.520   3.503   1.370
 2925SOL    HW2 9675   5.667   3.513   1.439
 2926SOL     OW 9676   6.942   2.196   4.939
 2926SOL    HW1 9677   6.975   2.134   5.010
 2926SOL    HW2 9678   6.990   2.176   4.853
 2927SOL     OW 9679   1.148   2.985   2.342
 2927SOL    HW1 9680   1.166   2.900   2.293
 2927SOL    HW2 9681   1.050   2.991   2.364
 2928SOL     OW 9682   6.186   0.304   0.274
 2928SOL    HW1 9683   6.164   0.332   0.368
 2928SOL    HW2 9684   6.102   0.284   0.225
 2929SOL     OW 9685   0.026   0.205   6.206
 2929SOL    HW1 9686   0.003   0.118   6.251
 2929SOL    HW2 9687   7.025   0.280   6.266
 2930SOL     OW 9688   4.649   0.118   4.200
 2930SOL    HW1 9689   4.733   0.075   4.168
 2930SOL    HW2 9690   4.570   0.072   4.159
 2931SOL     OW 9691   4.444   6.606   6.618
 2931SOL    HW1 9692   4.346   6.598   6.635
 2931SOL    HW2 9693   4.494   6.598   6.704
 2932SOL     OW 9694   1.123   3.773   1.174
 2932SOL    HW1 9695   1.210   3.797   1.217
 2932SOL    HW2 9696   1.128   3.793   1.076
 2933SOL     OW 9697   5.100   2.411   3.754
 2933SOL    HW1 9698   5.161   2.483   3.788
 2933SOL    HW2 9699   5.007   2.447   3.746
 2934SOL     OW 9700   2.647   0.713   0.155
 2934SOL    HW1 9701   2.583   0.767   0.101
 2934SOL    HW2 9702   2.614   0.706   0.249
 2935SOL     OW 9703   5.852   2.598   1.007
 2935SOL    HW1 9704   5.850   2.498   1.006
 2935SOL    HW2 9705   5.836   2.633   0.915
 2936SOL     OW 9706   4.827   5.970   0.289
 2936SOL    HW1 9707   4.784   5.900   0.346
 2936SOL    HW2 9708   4.757   6.036   0.260
 2937SOL     OW 9709   3.355   5.769   0.149
 2937SOL    HW1 9710   3.267   5.725   0.166
 2937SOL    HW2 9711   3.379   5.827   0.226
 2938SOL     OW 9712   5.129   5.691   5.397
 2938SOL    HW1 9713   5.179   5.770   5.361
 2938SOL    HW2 9714   5.035   5.693   5.363
 2939SOL     OW 9715   6.753   6.388   5.570
 2939SOL    HW1 9716   6.705   6.391   5.657
 2939SOL    HW2 9717   6.814   6.467   5.562
 2940SOL     OW 9718   5.121   0.044   5.207
 2940SOL    HW1 9719   5.089   0.088   5.291
 2940SOL    HW2 9720   5.209   0.083   5.180
 2941SOL     OW 9721   1.073   1.974   5.440
 2941SOL    HW1 9722   1.106   1.984   5.346
 2941SOL    HW2 9723   1.123   2.038   5.500
 2942SOL     OW 9724   3.419   6.684   2.328
 2942SOL    HW1 9725   3.324   6.654   2.336
 2942SOL    HW2 9726   3.422   6.778   2.293
 2943SOL     OW 9727   5.999   3.562   3.654
 2943SOL    HW1 9728   5.997   3.462   3.653
 2943SOL    HW2 9729   6.093   3.594   3.644
 2944SOL     OW 9730   4.039   5.583   5.179
 2944SOL    HW1 9731   4.082   5.562   5.267
 2944SOL    HW2 9732   3.981   5.506   5.151
 2945SOL     OW 9733   3.118   3.068   3.231
 2945SOL    HW1 9734   3.149   3.121   3.152
 2945SOL    HW2 9735   3.037   3.111   3.270
 2946SOL     OW 9736   6.734   6.132   6.198
 2946SOL    HW1 9737   6.755   6.229   6.188
 2946SOL    HW2 9738   6.809   6.078   6.160
 2947SOL     OW 9739   6.445   4.221   0.266
 2947SOL    HW1 9740   6.500   4.188   0.189
 2947SOL    HW2 9741   6.456   4.320   0.274
 2948SOL     OW 9742   5.863   4.197   4.436
 2948SOL    HW1 9743   5.803   4.274   4.457
 2948SOL    HW2 9744   5.833   4.117   4.488
 2949SOL     OW 9745   1.406   6.770   0.324
 2949SOL    HW1 9746   1.343   6.824   0.267
 2949SOL    HW2 9747   1.368   6.679   0.336
 2950SOL     OW 9748   5.218   3.459   4.456
 2950SOL    HW1 9749   5.246   3.393   4.527
 2950SOL    HW2 9750   5.175   3.410   4.380
 2951SOL     OW 9751   0.689   1.532   1.021
 2951SOL    HW1 9752   0.775   1.498   1.059
 2951SOL    HW2 9753   0.631   1.455   0.995
 2952SOL     OW 9754   1.720   3.903   2.541
 2952SOL    HW1 9755   1.673   3.817   2.525
 2952SOL    HW2 9756   1.710   3.930   2.637
 2953SOL     OW 9757   4.512   2.597   1.842
 2953SOL    HW1 9758   4.556   2.619   1.754
 2953SOL    HW2 9759   4.553   2.652   1.914
 2954SOL     OW 9760   6.734   6.712   3.249
 2954SOL    HW1 9761   6.746   6.625   3.202
 2954SOL    HW2 9762   6.769   6.704   3.343
 2955SOL     OW 9763   0.980   2.863   0.518
 2955SOL    HW1 9764   0.979   2.800   0.596
 2955SOL    HW2 9765   0.956   2.955   0.550
 2956SOL     OW 9766   0.209   4.857   3.055
 2956SOL    HW1 9767   0.153   4.776   3.075
 2956SOL    HW2 9768   0.266   4.840   2.975
 2957SOL     OW 9769   0.674   3.814   1.927
 2957SOL    HW1 9770   0.760   3.866   1.929
 2957SOL    HW2 9771   0.673   3.755   1.847
 2958SOL     OW 9772   1.730   4.125   5.923
 2958SOL    HW1 9773   1.633   4.128   5.897
 2958SOL    HW2 9774   1.742   4.177   6.008
 2959SOL     OW 9775   4.428   5.811   6.344
 2959SOL    HW1 9776   4.441   5.870   6.264
 2959SOL    HW2 9777   4.335   5.776   6.345
 2960SOL     OW 9778   1.970   1.416   6.925
 2960SOL    HW1 9779   2.024   1.445   6.846
 2960SOL    HW2 9780   2.022   1.433   7.009
 2961SOL     OW 9781   5.554   3.599   3.780
 2961SOL    HW1 9782   5.594   3.516   3.740
 2961SOL    HW2 9783   5.477   3.629   3.724
 2962SOL     OW 9784   4.721   0.741   3.420
 2962SOL    HW1 9785   4.666   0.658   3.418
 2962SOL    HW2 9786   4.751   0.763   3.327
 2963SOL     OW 9787   2.457   1.721   5.141
 2963SOL    HW1 9788   2.401   1.768   5.073
 2963SOL    HW2 9789   2.404   1.711   5.226
 2964SOL     OW 9790   2.660   6.409   1.132
 2964SOL    HW1 9791   2.700   6.500   1.123
 2964SOL    HW2 9792   2.587   6.412   1.201
 2965SOL     OW 9793   0.341   1.411   5.958
 2965SOL    HW1 9794   0.261   1.382   5.905
 2965SOL    HW2 9795   0.353   1.510   5.948
 2966SOL     OW 9796   5.222   5.019   4.111
 2966SOL    HW1 9797   5.124   5.033   4.099
 2966SOL    HW2 9798   5.271   5.104   4.093
 2967SOL     OW 9799   6.007   3.083   3.164
 2967SOL    HW1 9800   6.056   3.169   3.179
 2967SOL    HW2 9801   5.910   3.102   3.147
 2968SOL     OW 9802   0.656   4.034   4.255
 2968SOL    HW1 9803   0.690   4.032   4.160
 2968SOL    HW2 9804   0.602   3.951   4.272
 2969SOL     OW 9805   4.570   2.223   4.815
 2969SOL    HW1 9806   4.549   2.138   4.768
 2969SOL    HW2 9807   4.486   2.274   4.831
 2970SOL     OW 9808   0.659   4.608   6.027
 2970SOL    HW1 9809   0.754   4.579   6.019
 2970SOL    HW2 9810   0.599   4.539   5.987
 2971SOL     OW 9811   5.818   2.460   3.081
 2971SOL    HW1 9812   5.762   2.472   2.999
 2971SOL    HW2 9813   5.774   2.395   3.142
 2972SOL     OW 9814   6.547   3.468   5.997
 2972SOL    HW1 9815   6.520   3.372   5.999
 2972SOL    HW2 9816   6.493   3.519   6.064
 2973SOL     OW 9817   4.597   6.376   3.918
 2973SOL    HW1 9818   4.697   6.379   3.922
 2973SOL    HW2 9819   4.562   6.462   3.881
 2974SOL     OW 9820   6.999   4.340   3.016
 2974SOL    HW1 9821   6.912   4.386   2.999
 2974SOL    HW2 9822   6.995   4.292   3.103
 2975SOL     OW 9823   0.206   0.648   5.149
 2975SOL    HW1 9824   0.262   0.566   5.158
 2975SOL    HW2 9825   0.256   0.727   5.186
 2976SOL     OW 9826   3.706   1.087   2.783
 2976SOL    HW1 9827   3.678   1.138   2.702
 2976SOL    HW2 9828   3.747   1.000   2.756
 2977SOL     OW 9829   3.101   6.613   3.954
 2977SOL    HW1 9830   3.158   6.534   3.978
 2977SOL    HW2 9831   3.097   6.676   4.032
 2978SOL     OW 9832   5.275   4.748   0.028
 2978SOL    HW1 9833   5.349   4.791   7.002
 2978SOL    HW2 9834   5.187   4.784   7.022
 2979SOL     OW 9835   3.596   0.521   2.963
 2979SOL    HW1 9836   3.634   0.614   2.958
 2979SOL    HW2 9837   3.644   0.468   3.032
 2980SOL     OW 9838   0.464   5.846   4.434
 2980SOL    HW1 9839   0.389   5.786   4.407
 2980SOL    HW2 9840   0.538   5.840   4.366
 2981SOL     OW 9841   1.811   0.885   5.458
 2981SOL    HW1 9842   1.812   0.785   5.456
 2981SOL    HW2 9843   1.896   0.919   5.498
 2982SOL     OW 9844   4.823   5.969   2.162
 2982SOL    HW1 9845   4.908   5.917   2.155
 2982SOL    HW2 9846   4.812   6.026   2.080
 2983SOL     OW 9847   6.812   1.151   4.017
 2983SOL    HW1 9848   6.785   1.058   3.993
 2983SOL    HW2 9849   6.884   1.182   3.955
 2984SOL     OW 9850   5.923   5.411   1.622
 2984SOL    HW1 9851   5.847   5.361   1.662
 2984SOL    HW2 9852   5.887   5.490   1.571
 2985SOL     OW 9853   6.806   2.216   3.291
 2985SOL    HW1 9854   6.819   2.142   3.357
 2985SOL    HW2 9855   6.737   2.188   3.224
 2986SOL     OW 9856   1.542   3.424   5.258
 2986SOL    HW1 9857   1.640   3.409   5.245
 2986SOL    HW2 9858   1.515   3.511   5.218
 2987SOL     OW 9859   4.507   2.152   4.350
 2987SOL    HW1 9860   4.544   2.067   4.388
 2987SOL    HW2 9861   4.408   2.153   4.363
 2988SOL     OW 9862   1.252   0.194   1.638
 2988SOL    HW1 9863   1.219   0.285   1.614
 2988SOL    HW2 9864   1.175   0.138   1.667
 2989SOL     OW 9865   0.242   4.924   1.142
 2989SOL    HW1 9866   0.183   5.005   1.142
 2989SOL    HW2 9867   0.231   4.875   1.056
 2990SOL     OW 9868   3.911   1.509   1.284
 2990SOL    HW1 9869   3.927   1.461   1.370
 2990SOL    HW2 9870   3.915   1.608   1.299
 2991SOL     OW 9871   7.021   3.697   0.513
 2991SOL    HW1 9872   6.962   3.662   0.586
 2991SOL    HW2 9873   0.009   3.796   0.525
 2992SOL     OW 9874   3.580   5.166   6.300
 2992SOL    HW1 9875   3.485   5.186   6.274
 2992SOL    HW2 9876   3.590   5.067   6.313
 2993SOL     OW 9877   1.212   5.442   1.269
 2993SOL    HW1 9878   1.144   5.483   1.208
 2993SOL    HW2 9879   1.297   5.495   1.265
 2994SOL     OW 9880   5.001   6.712   6.965
 2994SOL    HW1 9881   5.023   6.622   6.928
 2994SOL    HW2 9882   5.085   6.759   6.991
 2995SOL     OW 9883   1.398   1.884   6.428
 2995SOL    HW1 9884   1.447   1.960   6.472
 2995SOL    HW2 9885   1.302   1.908   6.418
 2996SOL     OW 9886   4.301   5.320   6.050
 2996SOL    HW1 9887   4.347   5.281   5.971
 2996SOL    HW2 9888   4.205   5.291   6.050
 2997SOL     OW 9889   5.741   6.709   0.971
 2997SOL    HW1 9890   5.650   6.667   0.973
 2997SOL    HW2 9891   5.735   6.800   0.929
 2998SOL     OW 9892   6.166   5.561   4.223
 2998SOL    HW1 9893   6.103   5.602   4.156
 2998SOL    HW2 9894   6.115   5.500   4.284
 2999SOL     OW 9895   3.245   6.758   2.997
 2999SOL    HW1 9896   3.256   6.661   2.975
 2999SOL    HW2 9897   3.160   6.791   2.958
 3000SOL     OW 9898   1.252   2.990   5.707
 3000SOL    HW1 9899   1.220   2.985   5.802
 3000SOL    HW2 9900   1.342   3.033   5.705
 3001SOL     OW 9901   5.117   0.691   5.931
 3001SOL    HW1 9902   5.022   0.723   5.933
 3001SOL    HW2 9903   5.119   0.591   5.938
 3002SOL     OW 9904   4.091   0.128   5.677
 3002SOL    HW1 9905   4.039   0.121   5.592
 3002SOL    HW2 9906   4.108   0.037   5.714
 3003SOL     OW 9907   2.944   6.540   5.781
 3003SOL    HW1 9908   2.954   6.468   5.850
 3003SOL    HW2 9909   2.862   6.594   5.802
 3004SOL     OW 9910   6.007   3.223   4.180
 3004SOL    HW1 9911   6.012   3.229   4.280
 3004SOL    HW2 9912   6.083   3.166   4.147
 3005SOL     OW 9913   3.894   2.829   1.084
 3005SOL    HW1 9914   3.924   2.853   1.177
 3005SOL    HW2 9915   3.810   2.879   1.063
 3006SOL     OW 9916   5.320   0.730   1.064
 3006SOL    HW1 9917   5.415   0.753   1.045
 3006SOL    HW2 9918   5.296   0.763   1.155
 3007SOL     OW 9919   6.137   4.791   3.180
 3007SOL    HW1 9920   6.100   4.845   3.105
 3007SOL    HW2 9921   6.217   4.837   3.219
 3008SOL     OW 9922   3.356   6.631   5.632
 3008SOL    HW1 9923   3.428   6.582   5.583
 3008SOL    HW2 9924   3.366   6.615   5.730
 3009SOL     OW 9925   1.188   6.764   2.814
 3009SOL    HW1 9926   1.272   6.762   2.761
 3009SOL    HW2 9927   1.209   6.783   2.910
 3010SOL     OW 9928   3.715   6.019   2.546
 3010SOL    HW1 9929   3.657   6.095   2.516
 3010SOL    HW2 9930   3.694   5.997   2.641
 3011SOL     OW 9931   5.921   6.950   7.003
 3011SOL    HW1 9932   5.997   7.011   0.002
 3011SOL    HW2 9933   5.957   6.869   6.957
 3012SOL     OW 9934   0.121   3.860   3.777
 3012SOL    HW1 9935   0.030   3.855   3.737
 3012SOL    HW2 9936   0.188   3.820   3.713
 3013SOL     OW 9937   6.112   5.294   1.997
 3013SOL    HW1 9938   6.186   5.269   2.061
 3013SOL    HW2 9939   6.036   5.231   2.009
 3014SOL     OW 9940   4.650   0.999   3.862
 3014SOL    HW1 9941   4.558   1.007   3.825
 3014SOL    HW2 9942   4.702   0.930   3.811
 3015SOL     OW 9943   3.010   2.347   0.499
 3015SOL    HW1 9944   3.052   2.402   0.427
 3015SOL    HW2 9945   3.049   2.255   0.498
 3016SOL     OW 9946   3.744   6.726   3.674
 3016SOL    HW1 9947   3.832   6.688   3.704
 3016SOL    HW2 9948   3.722   6.805   3.731
 3017SOL     OW 9949   0.774   5.894   1.281
 3017SOL    HW1 9950   0.746   5.798   1.289
 3017SOL    HW2 9951   0.698   5.953   1.304
 3018SOL     OW 9952   3.834   6.620   6.733
 3018SOL    HW1 9953   3.888   6.688   6.784
 3018SOL    HW2 9954   3.755   6.593   6.789
 3019SOL     OW 9955   3.851   0.078   1.077
 3019SOL    HW1 9956   3.836   0.119   1.167
 3019SOL    HW2 9957   3.886   7.010   1.088
 3020SOL     OW 9958   2.609   3.111   1.462
 3020SOL    HW1 9959   2.667   3.034   1.435
 3020SOL    HW2 9960   2.621   3.186   1.397
 3021SOL     OW 9961   2.087   2.397   0.124
 3021SOL    HW1 9962   2.041   2.347   0.050
 3021SOL    HW2 9963   2.186   2.396   0.107
 3022SOL     OW 9964   5.069   6.726   2.932
 3022SOL    HW1 9965   5.155   6.776   2.945
 3022SOL    HW2 9966   5.006   6.782   2.877
 3023SOL     OW 9967   4.937   5.659   2.821
 3023SOL    HW1 9968   4.921   5.611   2.908
 3023SOL    HW2 9969   4.939   5.592   2.747
 3024SOL     OW 9970   3.064   0.994   0.185
 3024SOL    HW1 9971   3.046   0.948   0.098
 3024SOL    HW2 9972   2.982   1.044   0.213
 3025SOL     OW 9973   2.336   2.920   1.178
 3025SOL    HW1 9974   2.311   2.839   1.126
 3025SOL    HW2 9975   2.382   2.985   1.118
 3026SOL     OW 9976   1.855   3.245   0.876
 3026SOL    HW1 9977   1.862   3.273   0.971
 3026SOL    HW2 9978   1.940   3.269   0.828
 3027SOL     OW 9979   1.721   1.893   3.511
 3027SOL    HW1 9980   1.785   1.949   3.564
 3027SOL    HW2 9981   1.665   1.952   3.452
 3028SOL     OW 9982   1.650   5.874   6.038
 3028SOL    HW1 9983   1.612   5.837   6.123
 3028SOL    HW2 9984   1.638   5.807   5.964
 3029SOL     OW 9985   6.290   5.645   5.174
 3029SOL    HW1 9986   6.337   5.641   5.263
 3029SOL    HW2 9987   6.225   5.721   5.175
 3030SOL     OW 9988   1.327   1.791   5.408
 3030SOL    HW1 9989   1.234   1.820   5.385
 3030SOL    HW2 9990   1.347   1.704   5.364
 3031SOL     OW 9991   6.990   4.151   6.017
 3031SOL    HW1 9992   7.002   4.166   5.919
 3031SOL    HW2 9993   7.014   4.057   6.039
 3032SOL     OW 9994   5.247   0.783   5.683
 3032SOL    HW1 9995   5.218   0.758   5.776
 3032SOL    HW2 9996   5.347   0.773   5.676
 3033SOL     OW 9997   0.343   3.805   6.668
 3033SOL    HW1 9998   0.303   3.862   6.595
 3033SOL    HW2 9999   0.327   3.708   6.647
 3034SOL     OW10000   3.137   5.903   4.270
 3034SOL    HW110001   3.199   5.891   4.347
 3034SOL    HW210002   3.053   5.852   4.287
 3035SOL     OW10003   5.480   1.388   0.108
 3035SOL    HW110004   5.537   1.353   0.181
 3035SOL    HW210005   5.537   1.413   0.029
 3036SOL     OW10006   0.932   4.230   6.542
 3036SOL    HW110007   0.924   4.133   6.564
 3036SOL    HW210008   0.847   4.262   6.500
 3037SOL     OW10009   6.825   6.201   5.383
 3037SOL    HW110010   6.740   6.151   5.363
 3037SOL    HW210011   6.806   6.271   5.451
 3038SOL     OW10012   5.116   6.683   5.700
 3038SOL    HW110013   5.197   6.695   5.642
 3038SOL    HW210014   5.137   6.712   5.793
 3039SOL     OW10015   0.533   4.049   1.926
 3039SOL    HW110016   0.572   3.964   1.961
 3039SOL    HW210017   0.579   4.075   1.841
 3040SOL     OW10018   2.846   3.789   6.712
 3040SOL    HW110019   2.880   3.731   6.639
 3040SOL    HW210020   2.753   3.820   6.690
 3041SOL     OW10021   1.678   2.148   5.870
 3041SOL    HW110022   1.762   2.103   5.841
 3041SOL    HW210023   1.698   2.207   5.949
 3042SOL     OW10024   4.721   0.574   2.133
 3042SOL    HW110025   4.657   0.513   2.179
 3042SOL    HW210026   4.777   0.521   2.069
 3043SOL     OW10027   1.141   5.649   0.457
 3043SOL    HW110028   1.166   5.556   0.482
 3043SOL    HW210029   1.081   5.647   0.376
 3044SOL     OW10030   3.552   4.535   6.328
 3044SOL    HW110031   3.575   4.630   6.306
 3044SOL    HW210032   3.471   4.507   6.278
 3045SOL     OW10033   5.320   1.918   2.820
 3045SOL    HW110034   5.325   2.005   2.771
 3045SOL    HW210035   5.287   1.847   2.758
 3046SOL     OW10036   1.616   2.522   5.764
 3046SOL    HW110037   1.609   2.470   5.849
 3046SOL    HW210038   1.525   2.551   5.736
 3047SOL     OW10039   6.230   5.317   2.501
 3047SOL    HW110040   6.279   5.303   2.587
 3047SOL    HW210041   6.158   5.385   2.514
 3048SOL     OW10042   3.354   3.148   1.132
 3048SOL    HW110043   3.332   3.052   1.116
 3048SOL    HW210044   3.327   3.173   1.225
 3049SOL     OW10045   0.748   0.678   1.787
 3049SOL    HW110046   0.710   0.586   1.780
 3049SOL    HW210047   0.673   0.744   1.799
 3050SOL     OW10048   4.524   5.832   3.695
 3050SOL    HW110049   4.572   5.902   3.749
 3050SOL    HW210050   4.511   5.865   3.602
 3051SOL     OW10051   2.864   5.086   6.850
 3051SOL    HW110052   2.957   5.081   6.886
 3051SOL    HW210053   2.802   5.115   6.923
 3052SOL     OW10054   3.714   6.863   3.007
 3052SOL    HW110055   3.671   6.772   3.015
 3052SOL    HW210056   3.782   6.874   3.079
 3053SOL     OW10057   5.687   6.139   0.261
 3053SOL    HW110058   5.673   6.210   0.330
 3053SOL    HW210059   5.785   6.122   0.249
 3054SOL     OW10060   0.623   3.415   0.249
 3054SOL    HW110061   0.575   3.332   0.220
 3054SOL    HW210062   0.611   3.485   0.179
 3055SOL     OW10063   6.132   6.050   3.616
 3055SOL    HW110064   6.209   6.001   3.574
 3055SOL    HW210065   6.092   5.993   3.687
 3056SOL     OW10066   6.564   0.530   0.753
 3056SOL    HW110067   6.597   0.443   0.790
 3056SOL    HW210068   6.608   0.549   0.666
 3057SOL     OW10069   5.930   4.902   2.973
 3057SOL    HW110070   5.885   4.976   2.923
 3057SOL    HW210071   5.871   4.873   3.049
 3058SOL     OW10072   6.237   5.555   0.916
 3058SOL    HW110073   6.147   5.511   0.920
 3058SOL    HW210074   6.286   5.523   0.834
 3059SOL     OW10075   1.290   2.547   5.157
 3059SOL    HW110076   1.283   2.605   5.076
 3059SOL    HW210077   1.337   2.462   5.134
 3060SOL     OW10078   0.058   6.378   1.537
 3060SOL    HW110079   0.008   6.358   1.621
 3060SOL    HW210080   0.084   6.292   1.493
 3061SOL     OW10081   0.397   0.447   5.209
 3061SOL    HW110082   0.396   0.414   5.303
 3061SOL    HW210083   0.466   0.518   5.199
 3062SOL     OW10084   2.608   6.173   0.997
 3062SOL    HW110085   2.662   6.167   0.913
 3062SOL    HW210086   2.634   6.256   1.047
 3063SOL     OW10087   1.566   5.008   1.369
 3063SOL    HW110088   1.538   4.998   1.464
 3063SOL    HW210089   1.654   5.055   1.364
 3064SOL     OW10090   6.273   3.939   3.230
 3064SOL    HW110091   6.356   3.970   3.184
 3064SOL    HW210092   6.227   3.871   3.172
 3065SOL     OW10093   1.502   0.765   6.923
 3065SOL    HW110094   1.480   0.841   6.862
 3065SOL    HW210095   1.430   0.696   6.918
 3066SOL     OW10096   6.228   4.881   1.224
 3066SOL    HW110097   6.304   4.828   1.186
 3066SOL    HW210098   6.264   4.952   1.284
 3067SOL     OW10099   4.807   6.924   3.995
 3067SOL    HW110100   4.849   6.874   3.919
 3067SOL    HW210101   4.767   7.009   3.961
 3068SOL     OW10102   5.835   5.129   1.229
 3068SOL    HW110103   5.889   5.054   1.191
 3068SOL    HW210104   5.857   5.214   1.181
 3069SOL     OW10105   0.332   5.551   2.219
 3069SOL    HW110106   0.262   5.620   2.199
 3069SOL    HW210107   0.290   5.460   2.218
 3070SOL     OW10108   2.712   1.283   3.567
 3070SOL    HW110109   2.764   1.198   3.568
 3070SOL    HW210110   2.640   1.278   3.498
 3071SOL     OW10111   5.858   6.966   3.758
 3071SOL    HW110112   5.863   6.889   3.821
 3071SOL    HW210113   5.869   6.934   3.664
 3072SOL     OW10114   0.519   6.911   2.219
 3072SOL    HW110115   0.444   6.948   2.275
 3072SOL    HW210116   0.569   6.843   2.272
 3073SOL     OW10117   1.119   3.622   5.178
 3073SOL    HW110118   1.100   3.547   5.114
 3073SOL    HW210119   1.069   3.605   5.264
 3074SOL     OW10120   4.050   3.387   6.449
 3074SOL    HW110121   4.114   3.353   6.518
 3074SOL    HW210122   4.008   3.310   6.402
 3075SOL     OW10123   1.537   5.744   1.112
 3075SOL    HW110124   1.529   5.773   1.208
 3075SOL    HW210125   1.590   5.810   1.061
 3076SOL     OW10126   6.553   0.453   4.831
 3076SOL    HW110127   6.618   0.410   4.769
 3076SOL    HW210128   6.536   0.392   4.909
 3077SOL     OW10129   5.503   4.729   4.447
 3077SOL    HW110130   5.457   4.703   4.532
 3077SOL    HW210131   5.600   4.748   4.465
 3078SOL     OW10132   1.809   3.747   2.047
 3078SOL    HW110133   1.817   3.713   1.953
 3078SOL    HW210134   1.716   3.779   2.063
 3079SOL     OW10135   6.932   2.186   5.232
 3079SOL    HW110136   6.863   2.244   5.189
 3079SOL    HW210137   6.928   2.197   5.332
 3080SOL     OW10138   6.312   5.214   0.800
 3080SOL    HW110139   6.363   5.135   0.765
 3080SOL    HW210140   6.234   5.182   0.854
 3081SOL     OW10141   0.597   4.325   5.389
 3081SOL    HW110142   0.628   4.374   5.471
 3081SOL    HW210143   0.646   4.360   5.309
 3082SOL     OW10144   3.334   0.039   2.504
 3082SOL    HW110145   3.340   0.084   2.593
 3082SOL    HW210146   3.377   0.098   2.435
 3083SOL     OW10147   3.474   0.607   2.137
 3083SOL    HW110148   3.462   0.578   2.043
 3083SOL    HW210149   3.546   0.553   2.181
 3084SOL     OW10150   5.529   5.554   4.510
 3084SOL    HW110151   5.604   5.497   4.476
 3084SOL    HW210152   5.523   5.545   4.610
 3085SOL     OW10153   6.870   5.667   2.891
 3085SOL    HW110154   6.924   5.741   2.852
 3085SOL    HW210155   6.830   5.613   2.817
 3086SOL     OW10156   4.734   1.722   3.198
 3086SOL    HW110157   4.641   1.686   3.208
 3086SOL    HW210158   4.732   1.822   3.199
 3087SOL     OW10159   6.146   3.716   3.062
 3087SOL    HW110160   6.084   3.708   2.983
 3087SOL    HW210161   6.099   3.684   3.144
 3088SOL     OW10162   2.410   4.459   5.458
 3088SOL    HW110163   2.443   4.541   5.411
 3088SOL    HW210164   2.385   4.390   5.390
 3089SOL     OW10165   1.415   2.683   0.323
 3089SOL    HW110166   1.346   2.711   0.257
 3089SOL    HW210167   1.482   2.756   0.334
 3090SOL     OW10168   1.533   1.851   1.186
 3090SOL    HW110169   1.596   1.867   1.262
 3090SOL    HW210170   1.465   1.783   1.212
 3091SOL     OW10171   2.430   6.796   0.671
 3091SOL    HW110172   2.401   6.703   0.648
 3091SOL    HW210173   2.501   6.825   0.606
 3092SOL     OW10174   6.003   6.934   1.222
 3092SOL    HW110175   6.090   6.906   1.262
 3092SOL    HW210176   5.969   6.862   1.162
 3093SOL     OW10177   6.203   5.593   5.671
 3093SOL    HW110178   6.212   5.498   5.700
 3093SOL    HW210179   6.117   5.630   5.707
 3094SOL     OW10180   3.064   5.980   5.391
 3094SOL    HW110181   3.036   6.063   5.343
 3094SOL    HW210182   3.000   5.906   5.368
 3095SOL     OW10183   2.984   4.854   4.649
 3095SOL    HW110184   2.939   4.804   4.576
 3095SOL    HW210185   2.928   4.849   4.732
 3096SOL     OW10186   0.666   0.471   4.704
 3096SOL    HW110187   0.598   0.542   4.685
 3096SOL    HW210188   0.620   0.389   4.739
 3097SOL     OW10189   0.787   2.746   0.356
 3097SOL    HW110190   0.853   2.795   0.413
 3097SOL    HW210191   0.729   2.812   0.308
 3098SOL     OW10192   2.609   2.969   0.562
 3098SOL    HW110193   2.533   3.020   0.602
 3098SOL    HW210194   2.602   2.971   0.463
 3099SOL     OW10195   0.775   5.782   5.771
 3099SOL    HW110196   0.827   5.841   5.833
 3099SOL    HW210197   0.833   5.706   5.741
 3100SOL     OW10198   6.685   6.719   6.654
 3100SOL    HW110199   6.586   6.728   6.667
 3100SOL    HW210200   6.724   6.809   6.636
 3101SOL     OW10201   5.116   0.063   6.344
 3101SOL    HW110202   5.060   0.100   6.418
 3101SOL    HW210203   5.086   6.995   6.323
 3102SOL     OW10204   1.837   3.863   0.598
 3102SOL    HW110205   1.835   3.802   0.677
 3102SOL    HW210206   1.747   3.866   0.556
 3103SOL     OW10207   4.159   2.797   1.679
 3103SOL    HW110208   4.209   2.818   1.595
 3103SOL    HW210209   4.154   2.698   1.691
 3104SOL     OW10210   5.571   6.003   4.144
 3104SOL    HW110211   5.653   6.035   4.192
 3104SOL    HW210212   5.496   6.066   4.160
 3105SOL     OW10213   5.815   6.544   4.316
 3105SOL    HW110214   5.837   6.535   4.219
 3105SOL    HW210215   5.774   6.459   4.349
 3106SOL     OW10216   6.929   2.602   2.672
 3106SOL    HW110217   6.994   2.638   2.739
 3106SOL    HW210218   6.856   2.553   2.720
 3107SOL     OW10219   2.914   0.280   3.915
 3107SOL    HW110220   2.988   0.231   3.959
 3107SOL    HW210221   2.827   0.234   3.934
 3108SOL     OW10222   2.148   0.879   3.658
 3108SOL    HW110223   2.053   0.891   3.630
 3108SOL    HW210224   2.196   0.967   3.653
 3109SOL     OW10225   5.260   6.059   3.283
 3109SOL    HW110226   5.229   5.970   3.318
 3109SOL    HW210227   5.229   6.070   3.189
 3110SOL     OW10228   1.398   3.029   2.688
 3110SOL    HW110229   1.355   3.034   2.778
 3110SOL    HW210230   1.335   3.066   2.619
 3111SOL     OW10231   0.340   4.867   3.797
 3111SOL    HW110232   0.359   4.903   3.706
 3111SOL    HW210233   0.380   4.927   3.866
 3112SOL     OW10234   4.685   3.941   6.770
 3112SOL    HW110235   4.723   3.888   6.694
 3112SOL    HW210236   4.610   3.998   6.736
 3113SOL     OW10237   2.461   6.739   3.240
 3113SOL    HW110238   2.475   6.775   3.148
 3113SOL    HW210239   2.549   6.735   3.288
 3114SOL     OW10240   6.258   4.601   1.006
 3114SOL    HW110241   6.164   4.629   0.989
 3114SOL    HW210242   6.317   4.682   1.003
 3115SOL     OW10243   3.499   4.311   0.662
 3115SOL    HW110244   3.483   4.243   0.591
 3115SOL    HW210245   3.475   4.274   0.751
 3116SOL     OW10246   6.433   2.259   0.356
 3116SOL    HW110247   6.435   2.262   0.256
 3116SOL    HW210248   6.420   2.164   0.386
 3117SOL     OW10249   4.039   3.200   5.059
 3117SOL    HW110250   3.960   3.145   5.031
 3117SOL    HW210251   4.069   3.171   5.150
 3118SOL     OW10252   6.195   4.139   0.619
 3118SOL    HW110253   6.249   4.101   0.544
 3118SOL    HW210254   6.172   4.234   0.598
 3119SOL     OW10255   2.008   4.454   5.198
 3119SOL    HW110256   2.019   4.453   5.297
 3119SOL    HW210257   1.959   4.372   5.168
 3120SOL     OW10258   2.923   5.643   4.808
 3120SOL    HW110259   2.842   5.585   4.815
 3120SOL    HW210260   3.000   5.598   4.854
 3121SOL     OW10261   6.638   0.997   2.534
 3121SOL    HW110262   6.721   0.978   2.586
 3121SOL    HW210263   6.559   0.996   2.595
 3122SOL     OW10264   3.185   5.533   6.696
 3122SOL    HW110265   3.145   5.484   6.619
 3122SOL    HW210266   3.123   5.526   6.775
 3123SOL     OW10267   3.754   6.277   3.710
 3123SOL    HW110268   3.679   6.344   3.716
 3123SOL    HW210269   3.836   6.323   3.677
 3124SOL     OW10270   4.438   1.218   5.566
 3124SOL    HW110271   4.348   1.228   5.523
 3124SOL    HW210272   4.440   1.271   5.650
 3125SOL     OW10273   6.560   1.821   6.166
 3125SOL    HW110274   6.563   1.921   6.164
 3125SOL    HW210275   6.551   1.787   6.072
 3126SOL     OW10276   4.313   6.030   0.175
 3126SOL    HW110277   4.310   5.931   0.192
 3126SOL    HW210278   4.296   6.079   0.261
 3127SOL     OW10279   0.774   1.653   4.256
 3127SOL    HW110280   0.753   1.750   4.267
 3127SOL    HW210281   0.817   1.637   4.168
 3128SOL     OW10282   2.081   1.200   0.553
 3128SOL    HW110283   2.147   1.167   0.621
 3128SOL    HW210284   2.006   1.134   0.546
 3129SOL     OW10285   6.687   3.740   5.275
 3129SOL    HW110286   6.751   3.813   5.299
 3129SOL    HW210287   6.643   3.705   5.358
 3130SOL     OW10288   2.154   4.309   1.894
 3130SOL    HW110289   2.113   4.355   1.973
 3130SOL    HW210290   2.095   4.322   1.814
 3131SOL     OW10291   6.982   3.394   2.679
 3131SOL    HW110292   6.896   3.445   2.671
 3131SOL    HW210293   6.982   3.319   2.614
 3132SOL     OW10294   5.578   6.280   5.383
 3132SOL    HW110295   5.556   6.185   5.362
 3132SOL    HW210296   5.646   6.313   5.318
 3133SOL     OW10297   3.210   1.783   3.076
 3133SOL    HW110298   3.201   1.721   2.998
 3133SOL    HW210299   3.150   1.751   3.150
 3134SOL     OW10300   4.716   3.476   1.764
 3134SOL    HW110301   4.701   3.387   1.722
 3134SOL    HW210302   4.786   3.469   1.835
 3135SOL     OW10303   3.538   2.074   3.716
 3135SOL    HW110304   3.439   2.083   3.710
 3135SOL    HW210305   3.568   2.088   3.811
 3136SOL     OW10306   6.140   6.355   5.288
 3136SOL    HW110307   6.216   6.386   5.231
 3136SOL    HW210308   6.149   6.393   5.380
 3137SOL     OW10309   5.833   1.985   3.959
 3137SOL    HW110310   5.734   1.977   3.956
 3137SOL    HW210311   5.873   1.899   3.991
 3138SOL     OW10312   6.291   1.451   4.973
 3138SOL    HW110313   6.305   1.506   4.890
 3138SOL    HW210314   6.247   1.507   5.043
 3139SOL     OW10315   4.899   6.069   5.171
 3139SOL    HW110316   4.811   6.031   5.143
 3139SOL    HW210317   4.925   6.143   5.109
 3140SOL     OW10318   6.703   6.335   6.646
 3140SOL    HW110319   6.772   6.289   6.703
 3140SOL    HW210320   6.685   6.426   6.684
 3141SOL     OW10321   1.261   5.356   0.472
 3141SOL    HW110322   1.342   5.401   0.436
 3141SOL    HW210323   1.284   5.262   0.500
 3142SOL     OW10324   4.550   6.431   6.441
 3142SOL    HW110325   4.485   6.356   6.425
 3142SOL    HW210326   4.513   6.493   6.511
 3143SOL     OW10327   6.533   1.545   0.249
 3143SOL    HW110328   6.519   1.501   0.338
 3143SOL    HW210329   6.568   1.638   0.263
 3144SOL     OW10330   2.000   3.187   6.413
 3144SOL    HW110331   2.080   3.129   6.395
 3144SOL    HW210332   1.968   3.171   6.506
 3145SOL     OW10333   3.217   5.475   2.741
 3145SOL    HW110334   3.194   5.536   2.666
 3145SOL    HW210335   3.284   5.518   2.800
 3146SOL     OW10336   1.086   0.080   3.288
 3146SOL    HW110337   1.127   0.053   3.201
 3146SOL    HW210338   1.076   0.180   3.291
 3147SOL     OW10339   5.006   3.958   0.259
 3147SOL    HW110340   4.967   4.043   0.224
 3147SOL    HW210341   4.933   3.893   0.280
 3148SOL     OW10342   3.876   5.265   4.686
 3148SOL    HW110343   3.859   5.197   4.758
 3148SOL    HW210344   3.802   5.261   4.619
 3149SOL     OW10345   3.396   0.668   5.772
 3149SOL    HW110346   3.346   0.741   5.820
 3149SOL    HW210347   3.332   0.619   5.713
 3150SOL     OW10348   5.784   6.423   4.629
 3150SOL    HW110349   5.713   6.404   4.697
 3150SOL    HW210350   5.805   6.521   4.630
 3151SOL     OW10351   4.392   1.390   6.252
 3151SOL    HW110352   4.451   1.465   6.225
 3151SOL    HW210353   4.445   1.305   6.256
 3152SOL     OW10354   0.763   5.968   1.011
 3152SOL    HW110355   0.754   5.975   1.110
 3152SOL    HW210356   0.854   5.935   0.988
 3153SOL     OW10357   6.887   4.339   2.218
 3153SOL    HW110358   6.930   4.281   2.148
 3153SOL    HW210359   6.788   4.328   2.213
 3154SOL     OW10360   5.674   2.249   6.108
 3154SOL    HW110361   5.730   2.167   6.093
 3154SOL    HW210362   5.710   2.324   6.054
 3155SOL     OW10363   5.922   5.689   1.022
 3155SOL    HW110364   5.829   5.727   1.024
 3155SOL    HW210365   5.949   5.672   0.927
 3156SOL     OW10366   3.536   3.663   3.429
 3156SOL    HW110367   3.634   3.651   3.449
 3156SOL    HW210368   3.487   3.681   3.515
 3157SOL     OW10369   2.182   4.075   3.981
 3157SOL    HW110370   2.169   3.976   3.985
 3157SOL    HW210371   2.155   4.109   3.891
 3158SOL     OW10372   4.716   6.793   1.272
 3158SOL    HW110373   4.778   6.821   1.346
 3158SOL    HW210374   4.758   6.812   1.184
 3159SOL     OW10375   5.193   5.316   0.186
 3159SOL    HW110376   5.169   5.243   0.121
 3159SOL    HW210377   5.113   5.339   0.241
 3160SOL     OW10378   4.817   4.161   0.136
 3160SOL    HW110379   4.766   4.125   0.214
 3160SOL    HW210380   4.856   4.250   0.160
 3161SOL     OW10381   1.243   1.547   2.981
 3161SOL    HW110382   1.295   1.501   2.909
 3161SOL    HW210383   1.225   1.642   2.954
 3162SOL     OW10384   0.628   5.396   6.248
 3162SOL    HW110385   0.651   5.433   6.338
 3162SOL    HW210386   0.548   5.336   6.257
 3163SOL     OW10387   2.901   4.016   6.409
 3163SOL    HW110388   2.959   4.074   6.352
 3163SOL    HW210389   2.958   3.959   6.467
 3164SOL     OW10390   4.981   4.666   0.183
 3164SOL    HW110391   4.899   4.625   0.142
 3164SOL    HW210392   5.026   4.724   0.116
 3165SOL     OW10393   0.073   0.996   1.539
 3165SOL    HW110394   0.115   0.935   1.607
 3165SOL    HW210395   0.049   1.082   1.584
 3166SOL     OW10396   5.475   3.160   6.421
 3166SOL    HW110397   5.520   3.109   6.495
 3166SOL    HW210398   5.541   3.176   6.347
 3167SOL     OW10399   0.264   5.091   1.709
 3167SOL    HW110400   0.167   5.071   1.697
 3167SOL    HW210401   0.279   5.190   1.700
 3168SOL     OW10402   5.402   3.558   1.220
 3168SOL    HW110403   5.307   3.551   1.190
 3168SOL    HW210404   5.462   3.566   1.141
 3169SOL     OW10405   1.070   2.283   5.616
 3169SOL    HW110406   1.105   2.333   5.536
 3169SOL    HW210407   0.990   2.230   5.589
 3170SOL     OW10408   4.269   0.663   0.198
 3170SOL    HW110409   4.328   0.703   0.128
 3170SOL    HW210410   4.204   0.600   0.155
 3171SOL     OW10411   5.873   6.306   3.185
 3171SOL    HW110412   5.779   6.337   3.194
 3171SOL    HW210413   5.905   6.269   3.272
 3172SOL     OW10414   6.318   0.396   4.694
 3172SOL    HW110415   6.392   0.428   4.754
 3172SOL    HW210416   6.235   0.448   4.714
 3173SOL     OW10417   2.485   0.555   1.266
 3173SOL    HW110418   2.389   0.534   1.252
 3173SOL    HW210419   2.526   0.584   1.179
 3174SOL     OW10420   2.092   2.792   6.309
 3174SOL    HW110421   2.010   2.748   6.346
 3174SOL    HW210422   2.066   2.882   6.272
 3175SOL     OW10423   0.563   6.626   0.754
 3175SOL    HW110424   0.561   6.587   0.846
 3175SOL    HW210425   0.649   6.600   0.708
 3176SOL     OW10426   0.634   4.568   6.825
 3176SOL    HW110427   0.725   4.570   6.868
 3176SOL    HW210428   0.631   4.635   6.750
 3177SOL     OW10429   5.835   5.937   5.781
 3177SOL    HW110430   5.778   5.862   5.815
 3177SOL    HW210431   5.839   5.934   5.681
 3178SOL     OW10432   0.987   3.202   1.428
 3178SOL    HW110433   1.068   3.260   1.436
 3178SOL    HW210434   0.961   3.167   1.518
 3179SOL     OW10435   1.672   1.408   2.902
 3179SOL    HW110436   1.732   1.475   2.945
 3179SOL    HW210437   1.681   1.412   2.803
 3180SOL     OW10438   5.571   0.688   5.958
 3180SOL    HW110439   5.625   0.772   5.963
 3180SOL    HW210440   5.554   0.653   6.050
 3181SOL     OW10441   0.849   1.085   2.996
 3181SOL    HW110442   0.913   1.162   3.000
 3181SOL    HW210443   0.899   1.002   2.971
 3182SOL     OW10444   2.110   5.469   5.354
 3182SOL    HW110445   2.127   5.371   5.356
 3182SOL    HW210446   2.016   5.488   5.383
 3183SOL     OW10447   3.484   3.129   1.578
 3183SOL    HW110448   3.491   3.200   1.648
 3183SOL    HW210449   3.421   3.058   1.609
 3184SOL     OW10450   2.538   1.984   1.729
 3184SOL    HW110451   2.474   1.984   1.652
 3184SOL    HW210452   2.529   2.070   1.780
 3185SOL     OW10453   6.782   0.120   5.578
 3185SOL    HW110454   6.718   0.075   5.640
 3185SOL    HW210455   6.865   0.144   5.628
 3186SOL     OW10456   2.886   1.218   2.248
 3186SOL    HW110457   2.801   1.269   2.260
 3186SOL    HW210458   2.960   1.281   2.225
 3187SOL     OW10459   3.550   4.850   0.094
 3187SOL    HW110460   3.646   4.856   0.068
 3187SOL    HW210461   3.540   4.867   0.192
 3188SOL     OW10462   4.203   6.486   3.086
 3188SOL    HW110463   4.219   6.577   3.124
 3188SOL    HW210464   4.119   6.448   3.124
 3189SOL     OW10465   0.989   6.381   2.633
 3189SOL    HW110466   0.904   6.328   2.636
 3189SOL    HW210467   1.017   6.393   2.538
 3190SOL     OW10468   0.706   5.696   2.220
 3190SOL    HW110469   0.673   5.604   2.242
 3190SOL    HW210470   0.638   5.743   2.163
 3191SOL     OW10471   4.212   0.854   1.275
 3191SOL    HW110472   4.144   0.782   1.273
 3191SOL    HW210473   4.217   0.898   1.186
 3192SOL     OW10474   0.294   3.199   2.770
 3192SOL    HW110475   0.250   3.277   2.725
 3192SOL    HW210476   0.373   3.170   2.716
 3193SOL     OW10477   4.398   3.187   6.341
 3193SOL    HW110478   4.367   3.113   6.401
 3193SOL    HW210479   4.434   3.262   6.397
 3194SOL     OW10480   6.874   3.235   6.163
 3194SOL    HW110481   6.967   3.201   6.154
 3194SOL    HW210482   6.809   3.161   6.146
 3195SOL     OW10483   0.952   3.342   3.523
 3195SOL    HW110484   0.979   3.304   3.435
 3195SOL    HW210485   1.033   3.359   3.579
 3196SOL     OW10486   6.330   0.119   5.492
 3196SOL    HW110487   6.356   0.215   5.493
 3196SOL    HW210488   6.298   0.093   5.583
 3197SOL     OW10489   1.248   4.428   3.804
 3197SOL    HW110490   1.181   4.460   3.870
 3197SOL    HW210491   1.252   4.328   3.805
 3198SOL     OW10492   6.544   1.522   6.951
 3198SOL    HW110493   6.597   1.475   7.022
 3198SOL    HW210494   6.537   1.619   6.972
 3199SOL     OW10495   4.645   2.244   2.422
 3199SOL    HW110496   4.636   2.264   2.324
 3199SOL    HW210497   4.559   2.265   2.468
 3200SOL     OW10498   6.978   1.696   1.502
 3200SOL    HW110499   6.960   1.691   1.601
 3200SOL    HW210500   6.993   1.604   1.466
 3201SOL     OW10501   4.471   4.483   2.662
 3201SOL    HW110502   4.411   4.495   2.583
 3201SOL    HW210503   4.532   4.406   2.647
 3202SOL     OW10504   1.783   6.050   1.929
 3202SOL    HW110505   1.763   6.040   2.026
 3202SOL    HW210506   1.871   6.006   1.909
 3203SOL     OW10507   6.445   6.709   2.044
 3203SOL    HW110508   6.504   6.737   2.120
 3203SOL    HW210509   6.395   6.789   2.010
 3204SOL     OW10510   6.394   5.361   1.729
 3204SOL    HW110511   6.397   5.450   1.684
 3204SOL    HW210512   6.299   5.328   1.732
 3205SOL     OW10513   0.584   3.835   3.551
 3205SOL    HW110514   0.660   3.770   3.550
 3205SOL    HW210515   0.533   3.828   3.465
 3206SOL     OW10516   0.919   0.036   6.496
 3206SOL    HW110517   0.978   6.988   6.461
 3206SOL    HW210518   0.833   0.037   6.445
 3207SOL     OW10519   0.270   1.473   4.287
 3207SOL    HW110520   0.366   1.493   4.265
 3207SOL    HW210521   0.211   1.520   4.222
 3208SOL     OW10522   5.530   6.743   5.102
 3208SOL    HW110523   5.586   6.826   5.102
 3208SOL    HW210524   5.441   6.762   5.062
 3209SOL     OW10525   2.174   0.715   3.425
 3209SOL    HW110526   2.208   0.770   3.349
 3209SOL    HW210527   2.174   0.770   3.509
 3210SOL     OW10528   0.242   4.395   3.359
 3210SOL    HW110529   0.319   4.402   3.295
 3210SOL    HW210530   0.193   4.482   3.362
 3211SOL     OW10531   1.814   4.582   1.915
 3211SOL    HW110532   1.913   4.593   1.924
 3211SOL    HW210533   1.771   4.672   1.907
 3212SOL     OW10534   4.734   2.282   5.809
 3212SOL    HW110535   4.784   2.258   5.726
 3212SOL    HW210536   4.751   2.378   5.832
 3213SOL     OW10537   6.581   6.285   1.934
 3213SOL    HW110538   6.577   6.280   2.034
 3213SOL    HW210539   6.582   6.381   1.906
 3214SOL     OW10540   4.501   5.527   6.305
 3214SOL    HW110541   4.463   5.619   6.316
 3214SOL    HW210542   4.600   5.533   6.291
 3215SOL     OW10543   6.026   1.298   6.612
 3215SOL    HW110544   6.033   1.358   6.691
 3215SOL    HW210545   6.058   1.207   6.636
 3216SOL     OW10546   5.420   6.454   4.432
 3216SOL    HW110547   5.473   6.537   4.413
 3216SOL    HW210548   5.324   6.471   4.413
 3217SOL     OW10549   6.804   4.020   1.589
 3217SOL    HW110550   6.797   4.018   1.688
 3217SOL    HW210551   6.890   4.064   1.562
 3218SOL     OW10552   2.867   0.538   2.262
 3218SOL    HW110553   2.933   0.477   2.306
 3218SOL    HW210554   2.866   0.626   2.310
 3219SOL     OW10555   6.560   0.246   3.841
 3219SOL    HW110556   6.628   0.308   3.881
 3219SOL    HW210557   6.589   0.219   3.750
 3220SOL     OW10558   6.006   3.087   5.311
 3220SOL    HW110559   5.946   3.166   5.318
 3220SOL    HW210560   6.101   3.116   5.317
 3221SOL     OW10561   2.865   0.015   3.219
 3221SOL    HW110562   2.885   0.112   3.209
 3221SOL    HW210563   2.866   6.996   3.130
 3222SOL     OW10564   5.871   2.801   2.848
 3222SOL    HW110565   5.805   2.874   2.830
 3222SOL    HW210566   5.875   2.783   2.946
 3223SOL     OW10567   2.569   5.026   5.219
 3223SOL    HW110568   2.539   4.968   5.143
 3223SOL    HW210569   2.658   4.995   5.252
 3224SOL     OW10570   4.106   5.244   0.503
 3224SOL    HW110571   4.200   5.247   0.538
 3224SOL    HW210572   4.105   5.275   0.409
 3225SOL     OW10573   2.661   3.830   0.204
 3225SOL    HW110574   2.725   3.762   0.168
 3225SOL    HW210575   2.674   3.917   0.158
 3226SOL     OW10576   1.147   0.453   4.068
 3226SOL    HW110577   1.086   0.515   4.018
 3226SOL    HW210578   1.191   0.390   4.005
 3227SOL     OW10579   2.479   1.429   6.287
 3227SOL    HW110580   2.400   1.402   6.342
 3227SOL    HW210581   2.548   1.473   6.346
 3228SOL     OW10582   5.370   3.352   5.180
 3228SOL    HW110583   5.364   3.399   5.268
 3228SOL    HW210584   5.317   3.402   5.112
 3229SOL     OW10585   4.049   2.341   5.342
 3229SOL    HW110586   4.085   2.414   5.283
 3229SOL    HW210587   4.118   2.316   5.409
 3230SOL     OW10588   1.000   0.449   3.661
 3230SOL    HW110589   1.018   0.499   3.576
 3230SOL    HW210590   0.928   0.380   3.645
 3231SOL     OW10591   6.102   5.825   1.203
 3231SOL    HW110592   6.189   5.804   1.158
 3231SOL    HW210593   6.029   5.773   1.159
 3232SOL     OW10594   2.203   4.550   3.575
 3232SOL    HW110595   2.157   4.517   3.492
 3232SOL    HW210596   2.300   4.527   3.570
 3233SOL     OW10597   0.691   4.133   1.706
 3233SOL    HW110598   0.743   4.180   1.635
 3233SOL    HW210599   0.597   4.120   1.676
 3234SOL     OW10600   6.881   1.653   5.236
 3234SOL    HW110601   6.805   1.588   5.225
 3234SOL    HW210602   6.939   1.651   5.155
 3235SOL     OW10603   5.463   0.331   2.537
 3235SOL    HW110604   5.560   0.358   2.541
 3235SOL    HW210605   5.453   0.238   2.571
 3236SOL     OW10606   0.880   2.962   1.918
 3236SOL    HW110607   0.884   2.992   2.013
 3236SOL    HW210608   0.881   3.043   1.858
 3237SOL     OW10609   3.726   0.199   4.654
 3237SOL    HW110610   3.688   0.292   4.659
 3237SOL    HW210611   3.701   0.148   4.736
 3238SOL     OW10612   6.810   6.649   6.918
 3238SOL    HW110613   6.884   6.716   6.920
 3238SOL    HW210614   6.771   6.645   6.826
 3239SOL     OW10615   0.243   6.447   5.425
 3239SOL    HW110616   0.178   6.447   5.501
 3239SOL    HW210617   0.251   6.539   5.387
 3240SOL     OW10618   1.077   1.467   4.347
 3240SOL    HW110619   1.144   1.487   4.418
 3240SOL    HW210620   1.058   1.549   4.294
 3241SOL     OW10621   5.514   0.970   4.309
 3241SOL    HW110622   5.603   1.014   4.299
 3241SOL    HW210623   5.455   0.995   4.233
 3242SOL     OW10624   3.406   6.603   0.089
 3242SOL    HW110625   3.350   6.651   0.156
 3242SOL    HW210626   3.502   6.609   0.115
 3243SOL     OW10627   3.410   5.625   0.483
 3243SOL    HW110628   3.320   5.629   0.441
 3243SOL    HW210629   3.413   5.686   0.562
 3244SOL     OW10630   2.685   6.243   6.146
 3244SOL    HW110631   2.598   6.209   6.182
 3244SOL    HW210632   2.693   6.219   6.049
 3245SOL     OW10633   3.529   2.412   6.282
 3245SOL    HW110634   3.597   2.441   6.215
 3245SOL    HW210635   3.484   2.492   6.322
 3246SOL     OW10636   5.124   6.265   3.490
 3246SOL    HW110637   5.170   6.222   3.412
 3246SOL    HW210638   5.067   6.198   3.537
 3247SOL     OW10639   0.299   2.103   4.774
 3247SOL    HW110640   0.306   2.194   4.733
 3247SOL    HW210641   0.367   2.093   4.846
 3248SOL     OW10642   5.754   4.022   2.323
 3248SOL    HW110643   5.795   4.099   2.274
 3248SOL    HW210644   5.655   4.036   2.332
 3249SOL     OW10645   2.407   4.309   5.172
 3249SOL    HW110646   2.366   4.250   5.103
 3249SOL    HW210647   2.421   4.257   5.256
 3250SOL     OW10648   4.081   6.533   1.800
 3250SOL    HW110649   4.013   6.561   1.732
 3250SOL    HW210650   4.145   6.468   1.759
 3251SOL     OW10651   3.219   1.199   3.277
 3251SOL    HW110652   3.309   1.242   3.288
 3251SOL    HW210653   3.229   1.100   3.270
 3252SOL     OW10654   3.288   2.049   3.132
 3252SOL    HW110655   3.246   1.958   3.134
 3252SOL    HW210656   3.216   2.119   3.130
 3253SOL     OW10657   4.914   3.401   1.225
 3253SOL    HW110658   4.862   3.431   1.145
 3253SOL    HW210659   4.872   3.318   1.261
 3254SOL     OW10660   6.026   5.105   2.519
 3254SOL    HW110661   6.115   5.149   2.516
 3254SOL    HW210662   5.956   5.173   2.542
 3255SOL     OW10663   3.737   4.576   0.744
 3255SOL    HW110664   3.766   4.480   0.744
 3255SOL    HW210665   3.637   4.580   0.752
 3256SOL     OW10666   6.599   6.062   5.254
 3256SOL    HW110667   6.506   6.065   5.291
 3256SOL    HW210668   6.597   6.023   5.162
 3257SOL     OW10669   2.154   2.027   0.914
 3257SOL    HW110670   2.076   2.059   0.860
 3257SOL    HW210671   2.239   2.051   0.868
 3258SOL     OW10672   5.648   6.843   1.492
 3258SOL    HW110673   5.612   6.853   1.399
 3258SOL    HW210674   5.737   6.888   1.498
 3259SOL     OW10675   6.011   6.103   3.361
 3259SOL    HW110676   6.060   6.064   3.439
 3259SOL    HW210677   6.016   6.040   3.283
 3260SOL     OW10678   1.009   2.741   7.009
 3260SOL    HW110679   1.022   2.840   7.009
 3260SOL    HW210680   1.027   2.705   6.917
 3261SOL     OW10681   4.295   0.091   3.130
 3261SOL    HW110682   4.347   0.174   3.143
 3261SOL    HW210683   4.235   0.076   3.209
 3262SOL     OW10684   3.706   1.692   3.617
 3262SOL    HW110685   3.747   1.609   3.577
 3262SOL    HW210686   3.657   1.668   3.701
 3263SOL     OW10687   3.104   5.647   2.258
 3263SOL    HW110688   3.083   5.674   2.165
 3263SOL    HW210689   3.170   5.572   2.258
 3264SOL     OW10690   5.185   5.074   6.370
 3264SOL    HW110691   5.134   4.989   6.364
 3264SOL    HW210692   5.122   5.150   6.388
 3265SOL     OW10693   4.325   0.571   6.907
 3265SOL    HW110694   4.303   0.505   6.979
 3265SOL    HW210695   4.383   0.643   6.945
 3266SOL     OW10696   0.754   1.696   6.023
 3266SOL    HW110697   0.765   1.626   5.952
 3266SOL    HW210698   0.657   1.703   6.048
 3267SOL     OW10699   3.890   2.302   1.470
 3267SOL    HW110700   3.796   2.316   1.503
 3267SOL    HW210701   3.905   2.357   1.388
 3268SOL     OW10702   0.532   4.570   6.510
 3268SOL    HW110703   0.529   4.649   6.572
 3268SOL    HW210704   0.469   4.587   6.433
 3269SOL     OW10705   4.444   3.513   0.806
 3269SOL    HW110706   4.533   3.475   0.832
 3269SOL    HW210707   4.433   3.603   0.848
 3270SOL     OW10708   0.839   6.003   4.596
 3270SOL    HW110709   0.812   5.925   4.540
 3270SOL    HW210710   0.883   5.971   4.680
 3271SOL     OW10711   5.838   1.839   1.069
 3271SOL    HW110712   5.777   1.822   1.147
 3271SOL    HW210713   5.923   1.788   1.082
 3272SOL     OW10714   5.782   6.758   0.205
 3272SOL    HW110715   5.721   6.811   0.264
 3272SOL    HW210716   5.799   6.810   0.121
 3273SOL     OW10717   6.897   0.032   2.575
 3273SOL    HW110718   6.821   0.003   2.516
 3273SOL    HW210719   6.862   0.053   2.666
 3274SOL     OW10720   3.959   1.783   6.254
 3274SOL    HW110721   3.901   1.760   6.332
 3274SOL    HW210722   4.054   1.786   6.284
 3275SOL     OW10723   3.358   0.821   0.017
 3275SOL    HW110724   3.288   0.841   6.973
 3275SOL    HW210725   3.447   0.814   6.999
 3276SOL     OW10726   3.261   6.419   6.986
 3276SOL    HW110727   3.186   6.458   6.931
 3276SOL    HW210728   3.309   6.493   0.006
 3277SOL     OW10729   6.980   6.618   5.187
 3277SOL    HW110730   6.940   6.533   5.152
 3277SOL    HW210731   0.051   6.604   5.207
 3278SOL     OW10732   1.110   0.999   0.077
 3278SOL    HW110733   1.185   1.064   0.065
 3278SOL    HW210734   1.024   1.043   0.049
 3279SOL     OW10735   2.160   0.444   0.855
 3279SOL    HW110736   2.236   0.501   0.887
 3279SOL    HW210737   2.076   0.472   0.901
 3280SOL     OW10738   1.547   5.350   5.977
 3280SOL    HW110739   1.616   5.280   5.954
 3280SOL    HW210740   1.558   5.377   6.072
 3281SOL     OW10741   3.155   5.981   0.169
 3281SOL    HW110742   3.160   5.909   0.101
 3281SOL    HW210743   3.155   6.070   0.123
 3282SOL     OW10744   1.990   5.511   2.835
 3282SOL    HW110745   1.956   5.598   2.872
 3282SOL    HW210746   2.070   5.528   2.778
 3283SOL     OW10747   2.036   0.233   3.430
 3283SOL    HW110748   2.083   0.173   3.365
 3283SOL    HW210749   1.960   0.183   3.472
 3284SOL     OW10750   0.243   3.908   6.923
 3284SOL    HW110751   0.156   3.875   6.962
 3284SOL    HW210752   0.271   3.848   6.849
 3285SOL     OW10753   6.362   2.270   4.079
 3285SOL    HW110754   6.387   2.359   4.116
 3285SOL    HW210755   6.276   2.239   4.120
 3286SOL     OW10756   3.827   4.829   5.353
 3286SOL    HW110757   3.893   4.860   5.422
 3286SOL    HW210758   3.745   4.886   5.358
 3287SOL     OW10759   0.925   5.186   1.118
 3287SOL    HW110760   0.909   5.203   1.021
 3287SOL    HW210761   0.879   5.101   1.144
 3288SOL     OW10762   1.004   6.734   0.236
 3288SOL    HW110763   0.935   6.772   0.297
 3288SOL    HW210764   0.996   6.775   0.145
 3289SOL     OW10765   1.090   5.837   4.306
 3289SOL    HW110766   1.176   5.786   4.304
 3289SOL    HW210767   1.100   5.916   4.367
 3290SOL     OW10768   6.779   5.398   1.893
 3290SOL    HW110769   6.719   5.318   1.889
 3290SOL    HW210770   6.873   5.368   1.907
 3291SOL     OW10771   2.382   0.017   1.173
 3291SOL    HW110772   2.293   7.000   1.155
 3291SOL    HW210773   2.373   0.117   1.168
 3292SOL     OW10774   0.934   6.009   5.769
 3292SOL    HW110775   0.880   6.060   5.702
 3292SOL    HW210776   1.012   5.967   5.723
 3293SOL     OW10777   6.630   0.665   3.073
 3293SOL    HW110778   6.620   0.594   3.142
 3293SOL    HW210779   6.727   0.682   3.056
 3294SOL     OW10780   0.320   0.053   7.010
 3294SOL    HW110781   0.307   0.048   6.911
 3294SOL    HW210782   0.256   0.120   0.023
 3295SOL     OW10783   1.075   2.326   6.622
 3295SOL    HW110784   0.996   2.362   6.574
 3295SOL    HW210785   1.083   2.369   6.712
 3296SOL     OW10786   0.560   6.303   2.178
 3296SOL    HW110787   0.656   6.319   2.153
 3296SOL    HW210788   0.557   6.254   2.265
 3297SOL     OW10789   2.950   2.420   5.788
 3297SOL    HW110790   2.878   2.362   5.826
 3297SOL    HW210791   3.039   2.375   5.802
 3298SOL     OW10792   5.767   3.249   3.430
 3298SOL    HW110793   5.694   3.307   3.394
 3298SOL    HW210794   5.730   3.157   3.449
 3299SOL     OW10795   1.515   0.467   4.885
 3299SOL    HW110796   1.442   0.528   4.853
 3299SOL    HW210797   1.483   0.372   4.880
 3300SOL     OW10798   6.673   0.104   4.414
 3300SOL    HW110799   6.630   0.020   4.379
 3300SOL    HW210800   6.676   0.172   4.341
 3301SOL     OW10801   0.530   3.755   3.067
 3301SOL    HW110802   0.526   3.852   3.044
 3301SOL    HW210803   0.617   3.736   3.112
 3302SOL     OW10804   0.790   4.991   3.770
 3302SOL    HW110805   0.727   5.001   3.693
 3302SOL    HW210806   0.873   4.945   3.739
 3303SOL     OW10807   3.698   3.974   3.417
 3303SOL    HW110808   3.698   3.889   3.469
 3303SOL    HW210809   3.761   3.965   3.340
 3304SOL     OW10810   0.641   6.527   4.153
 3304SOL    HW110811   0.652   6.615   4.198
 3304SOL    HW210812   0.703   6.521   4.074
 3305SOL     OW10813   1.527   1.215   1.906
 3305SOL    HW110814   1.585   1.140   1.875
 3305SOL    HW210815   1.525   1.217   2.006
 3306SOL     OW10816   1.199   3.602   2.500
 3306SOL    HW110817   1.123   3.628   2.559
 3306SOL    HW210818   1.194   3.505   2.479
 3307SOL     OW10819   0.275   5.924   0.529
 3307SOL    HW110820   0.346   5.897   0.594
 3307SOL    HW210821   0.246   6.018   0.549
 3308SOL     OW10822   4.362   5.776   0.723
 3308SOL    HW110823   4.285   5.833   0.753
 3308SOL    HW210824   4.421   5.756   0.801
 3309SOL     OW10825   0.654   5.293   2.654
 3309SOL    HW110826   0.600   5.295   2.570
 3309SOL    HW210827   0.671   5.386   2.685
 3310SOL     OW10828   1.559   6.608   1.287
 3310SOL    HW110829   1.567   6.519   1.242
 3310SOL    HW210830   1.500   6.667   1.232
 3311SOL     OW10831   3.724   5.799   0.541
 3311SOL    HW110832   3.785   5.820   0.464
 3311SOL    HW210833   3.730   5.701   0.561
 3312SOL     OW10834   2.284   3.745   6.916
 3312SOL    HW110835   2.270   3.677   6.988
 3312SOL    HW210836   2.382   3.764   6.906
 3313SOL     OW10837   6.932   5.721   4.457
 3313SOL    HW110838   6.960   5.724   4.361
 3313SOL    HW210839   6.950   5.629   4.494
 3314SOL     OW10840   0.715   3.270   6.254
 3314SOL    HW110841   0.664   3.233   6.177
 3314SOL    HW210842   0.811   3.284   6.227
 3315SOL     OW10843   6.760   2.934   2.810
 3315SOL    HW110844   6.745   3.020   2.858
 3315SOL    HW210845   6.776   2.861   2.876
 3316SOL     OW10846   4.222   0.455   0.589
 3316SOL    HW110847   4.175   0.437   0.675
 3316SOL    HW210848   4.170   0.521   0.535
 3317SOL     OW10849   4.619   2.255   1.600
 3317SOL    HW110850   4.638   2.339   1.548
 3317SOL    HW210851   4.582   2.279   1.690
 3318SOL     OW10852   2.592   5.547   4.925
 3318SOL    HW110853   2.572   5.532   4.829
 3318SOL    HW210854   2.594   5.459   4.973
 3319SOL     OW10855   0.239   5.481   5.602
 3319SOL    HW110856   0.286   5.467   5.515
 3319SOL    HW210857   0.288   5.549   5.656
 3320SOL     OW10858   0.028   1.843   6.130
 3320SOL    HW110859   7.013   1.794   6.207
 3320SOL    HW210860   7.007   1.931   6.119
 3321SOL     OW10861   3.133   4.011   3.952
 3321SOL    HW110862   3.079   3.960   3.885
 3321SOL    HW210863   3.080   4.022   4.036
 3322SOL     OW10864   4.375   1.947   1.609
 3322SOL    HW110865   4.327   2.026   1.649
 3322SOL    HW210866   4.337   1.928   1.519
 3323SOL     OW10867   2.511   5.243   0.226
 3323SOL    HW110868   2.562   5.262   0.310
 3323SOL    HW210869   2.547   5.299   0.152
 3324SOL     OW10870   0.550   2.581   0.687
 3324SOL    HW110871   0.628   2.520   0.677
 3324SOL    HW210872   0.546   2.616   0.780
 3325SOL     OW10873   2.025   3.202   0.504
 3325SOL    HW110874   1.936   3.240   0.480
 3325SOL    HW210875   2.049   3.129   0.439
 3326SOL     OW10876   6.431   0.222   2.302
 3326SOL    HW110877   6.475   0.271   2.378
 3326SOL    HW210878   6.501   0.186   2.241
 3327SOL     OW10879   3.118   6.949   1.691
 3327SOL    HW110880   3.078   7.015   1.754
 3327SOL    HW210881   3.212   6.929   1.719
 3328SOL     OW10882   4.534   1.038   3.048
 3328SOL    HW110883   4.627   1.038   3.009
 3328SOL    HW210884   4.493   1.129   3.035
 3329SOL     OW10885   4.722   0.988   5.171
 3329SOL    HW110886   4.784   1.025   5.239
 3329SOL    HW210887   4.627   1.005   5.198
 3330SOL     OW10888   6.746   5.085   3.409
 3330SOL    HW110889   6.771   5.039   3.493
 3330SOL    HW210890   6.778   5.032   3.330
 3331SOL     OW10891   1.997   3.572   2.728
 3331SOL    HW110892   2.023   3.551   2.634
 3331SOL    HW210893   1.899   3.590   2.733
 3332SOL     OW10894   3.259   5.014   1.086
 3332SOL    HW110895   3.217   5.105   1.086
 3332SOL    HW210896   3.351   5.019   1.048
 3333SOL     OW10897   2.610   3.083   1.722
 3333SOL    HW110898   2.610   3.086   1.622
 3333SOL    HW210899   2.580   2.993   1.752
 3334SOL     OW10900   2.240   2.236   1.692
 3334SOL    HW110901   2.205   2.163   1.751
 3334SOL    HW210902   2.191   2.321   1.712
 3335SOL     OW10903   3.791   4.520   5.688
 3335SOL    HW110904   3.820   4.534   5.783
 3335SOL    HW210905   3.746   4.602   5.654
 3336SOL     OW10906   5.087   5.292   4.418
 3336SOL    HW110907   5.048   5.331   4.334
 3336SOL    HW210908   5.181   5.327   4.430
 3337SOL     OW10909   3.231   3.258   3.083
 3337SOL    HW110910   3.235   3.351   3.119
 3337SOL    HW210911   3.310   3.243   3.023
 3338SOL     OW10912   2.715   2.850   1.466
 3338SOL    HW110913   2.628   2.810   1.438
 3338SOL    HW210914   2.790   2.802   1.422
 3339SOL     OW10915   2.156   0.010   6.330
 3339SOL    HW110916   2.126   0.093   6.377
 3339SOL    HW210917   2.209   6.978   6.393
 3340SOL     OW10918   3.980   0.563   3.967
 3340SOL    HW110919   3.904   0.521   3.917
 3340SOL    HW210920   3.945   0.630   4.032
 3341SOL     OW10921   1.103   3.998   2.779
 3341SOL    HW110922   1.182   3.955   2.823
 3341SOL    HW210923   1.110   3.988   2.680
 3342SOL     OW10924   0.060   1.074   2.568
 3342SOL    HW110925   0.021   1.010   2.634
 3342SOL    HW210926   0.149   1.040   2.537
 3343SOL     OW10927   4.516   5.225   0.198
 3343SOL    HW110928   4.417   5.238   0.206
 3343SOL    HW210929   4.563   5.302   0.242
 3344SOL     OW10930   0.984   3.235   2.104
 3344SOL    HW110931   0.889   3.265   2.099
 3344SOL    HW210932   1.006   3.211   2.199
 3345SOL     OW10933   6.079   5.438   6.610
 3345SOL    HW110934   6.102   5.522   6.659
 3345SOL    HW210935   6.078   5.455   6.512
 3346SOL     OW10936   1.298   1.184   0.022
 3346SOL    HW110937   1.226   1.235   7.000
 3346SOL    HW210938   1.362   1.248   0.064
 3347SOL     OW10939   0.175   3.894   5.909
 3347SOL    HW110940   0.224   3.897   5.996
 3347SOL    HW210941   0.151   3.799   5.888
 3348SOL     OW10942   3.043   4.019   5.877
 3348SOL    HW110943   3.054   3.931   5.925
 3348SOL    HW210944   2.965   4.068   5.916
 3349SOL     OW10945   1.838   5.260   3.476
 3349SOL    HW110946   1.847   5.191   3.548
 3349SOL    HW210947   1.856   5.217   3.387
 3350SOL     OW10948   1.728   4.499   4.308
 3350SOL    HW110949   1.684   4.449   4.233
 3350SOL    HW210950   1.827   4.486   4.303
 3351SOL     OW10951   5.400   0.993   1.671
 3351SOL    HW110952   5.423   1.068   1.608
 3351SOL    HW210953   5.482   0.966   1.721
 3352SOL     OW10954   5.864   0.905   6.915
 3352SOL    HW110955   5.943   0.851   6.946
 3352SOL    HW210956   5.821   0.860   6.837
 3353SOL     OW10957   4.089   0.596   1.279
 3353SOL    HW110958   4.039   0.575   1.194
 3353SOL    HW210959   4.070   0.525   1.347
 3354SOL     OW10960   3.026   4.233   6.162
 3354SOL    HW110961   3.112   4.215   6.211
 3354SOL    HW210962   3.046   4.283   6.078
 3355SOL     OW10963   1.801   0.538   4.785
 3355SOL    HW110964   1.763   0.578   4.868
 3355SOL    HW210965   1.759   0.449   4.769
 3356SOL     OW10966   1.415   0.968   6.168
 3356SOL    HW110967   1.424   1.049   6.226
 3356SOL    HW210968   1.491   0.905   6.187
 3357SOL     OW10969   3.020   3.142   2.221
 3357SOL    HW110970   3.100   3.159   2.278
 3357SOL    HW210971   2.947   3.103   2.277
 3358SOL     OW10972   6.930   0.866   1.778
 3358SOL    HW110973   6.866   0.808   1.728
 3358SOL    HW210974   6.941   0.954   1.731
 3359SOL     OW10975   0.604   0.060   4.647
 3359SOL    HW110976   0.534   0.117   4.689
 3359SOL    HW210977   0.560   7.005   4.606
 3360SOL     OW10978   1.488   3.607   4.525
 3360SOL    HW110979   1.544   3.689   4.539
 3360SOL    HW210980   1.400   3.633   4.485
 3361SOL     OW10981   6.201   6.888   4.826
 3361SOL    HW110982   6.204   6.926   4.919
 3361SOL    HW210983   6.294   6.874   4.793
 3362SOL     OW10984   3.801   0.431   3.815
 3362SOL    HW110985   3.725   0.421   3.750
 3362SOL    HW210986   3.886   0.443   3.764
 3363SOL     OW10987   5.455   3.768   0.155
 3363SOL    HW110988   5.453   3.687   0.213
 3363SOL    HW210989   5.423   3.847   0.207
 3364SOL     OW10990   1.913   3.568   3.628
 3364SOL    HW110991   1.868   3.548   3.541
 3364SOL    HW210992   1.987   3.633   3.613
 3365SOL     OW10993   1.777   3.849   3.477
 3365SOL    HW110994   1.787   3.894   3.565
 3365SOL    HW210995   1.681   3.825   3.462
 3366SOL     OW10996   6.127   3.814   4.558
 3366SOL    HW110997   6.045   3.818   4.500
 3366SOL    HW210998   6.121   3.736   4.620
 3367SOL     OW10999   3.810   4.049   3.763
 3367SOL    HW111000   3.741   3.982   3.791
 3367SOL    HW211001   3.822   4.046   3.664
 3368SOL     OW11002   1.881   0.890   1.961
 3368SOL    HW111003   1.928   0.805   1.939
 3368SOL    HW211004   1.941   0.949   2.016
 3369SOL     OW11005   5.097   2.145   1.120
 3369SOL    HW111006   5.077   2.142   1.022
 3369SOL    HW211007   5.012   2.137   1.172
 3370SOL     OW11008   0.365   5.606   2.626
 3370SOL    HW111009   0.380   5.676   2.696
 3370SOL    HW211010   0.446   5.600   2.568
 3371SOL     OW11011   2.254   2.806   2.213
 3371SOL    HW111012   2.335   2.747   2.220
 3371SOL    HW211013   2.246   2.841   2.120
 3372SOL     OW11014   6.431   3.908   2.628
 3372SOL    HW111015   6.414   3.816   2.592
 3372SOL    HW211016   6.529   3.922   2.640
 3373SOL     OW11017   7.016   3.474   1.837
 3373SOL    HW111018   7.016   3.408   1.912
 3373SOL    HW211019   6.960   3.440   1.762
 3374SOL     OW11020   0.466   6.326   4.088
 3374SOL    HW111021   0.529   6.399   4.115
 3374SOL    HW211022   0.496   6.240   4.129
 3375SOL     OW11023   0.336   5.794   5.967
 3375SOL    HW111024   0.433   5.775   5.984
 3375SOL    HW211025   0.322   5.810   5.869
 3376SOL     OW11026   3.207   3.122   3.882
 3376SOL    HW111027   3.161   3.084   3.962
 3376SOL    HW211028   3.299   3.084   3.876
 3377SOL     OW11029   6.722   4.815   3.615
 3377SOL    HW111030   6.762   4.904   3.637
 3377SOL    HW211031   6.628   4.827   3.584
 3378SOL     OW11032   1.065   6.479   0.293
 3378SOL    HW111033   1.077   6.573   0.262
 3378SOL    HW211034   1.150   6.446   0.334
 3379SOL     OW11035   6.378   4.165   3.581
 3379SOL    HW111036   6.284   4.200   3.585
 3379SOL    HW211037   6.381   4.072   3.616
 3380SOL     OW11038   2.459   4.854   0.337
 3380SOL    HW111039   2.380   4.914   0.351
 3380SOL    HW211040   2.453   4.812   0.246
 3381SOL     OW11041   2.000   3.661   6.342
 3381SOL    HW111042   1.945   3.586   6.305
 3381SOL    HW211043   2.090   3.660   6.300
 3382SOL     OW11044   6.619   3.604   0.891
 3382SOL    HW111045   6.700   3.647   0.929
 3382SOL    HW211046   6.563   3.674   0.846
 3383SOL     OW11047   4.299   5.013   0.487
 3383SOL    HW111048   4.209   5.019   0.442
 3383SOL    HW211049   4.326   5.104   0.520
 3384SOL     OW11050   3.090   3.912   6.563
 3384SOL    HW111051   3.172   3.866   6.529
 3384SOL    HW211052   3.027   3.843   6.600
 3385SOL     OW11053   6.710   2.247   4.247
 3385SOL    HW111054   6.782   2.184   4.276
 3385SOL    HW211055   6.625   2.196   4.231
 3386SOL     OW11056   0.210   5.011   4.963
 3386SOL    HW111057   0.111   5.012   4.954
 3386SOL    HW211058   0.251   5.005   4.872
 3387SOL     OW11059   6.256   0.829   3.069
 3387SOL    HW111060   6.327   0.797   3.005
 3387SOL    HW211061   6.297   0.892   3.135
 3388SOL     OW11062   6.864   3.679   1.012
 3388SOL    HW111063   6.948   3.631   0.988
 3388SOL    HW211064   6.864   3.700   1.110
 3389SOL     OW11065   5.742   6.199   6.997
 3389SOL    HW111066   5.750   6.099   6.999
 3389SOL    HW211067   5.743   6.235   0.064
 3390SOL     OW11068   2.911   6.049   6.321
 3390SOL    HW111069   2.859   6.123   6.363
 3390SOL    HW211070   2.853   5.967   6.318
 3391SOL     OW11071   5.709   3.815   3.841
 3391SOL    HW111072   5.649   3.737   3.821
 3391SOL    HW211073   5.686   3.852   3.931
 3392SOL     OW11074   4.850   0.345   5.860
 3392SOL    HW111075   4.806   0.432   5.837
 3392SOL    HW211076   4.907   0.315   5.784
 3393SOL     OW11077   4.317   6.140   0.425
 3393SOL    HW111078   4.360   6.053   0.448
 3393SOL    HW211079   4.256   6.168   0.500
 3394SOL     OW11080   2.499   5.023   1.488
 3394SOL    HW111081   2.590   5.005   1.525
 3394SOL    HW211082   2.501   5.107   1.434
 3395SOL     OW11083   2.376   6.789   3.498
 3395SOL    HW111084   2.403   6.742   3.414
 3395SOL    HW211085   2.442   6.769   3.570
 3396SOL     OW11086   4.438   0.687   3.850
 3396SOL    HW111087   4.365   0.743   3.891
 3396SOL    HW211088   4.474   0.624   3.919
 3397SOL     OW11089   2.323   5.809   6.807
 3397SOL    HW111090   2.314   5.750   6.727
 3397SOL    HW211091   2.311   5.905   6.779
 3398SOL     OW11092   6.276   2.492   4.744
 3398SOL    HW111093   6.211   2.441   4.687
 3398SOL    HW211094   6.324   2.559   4.688
 3399SOL     OW11095   6.734   6.102   1.789
 3399SOL    HW111096   6.661   6.155   1.833
 3399SOL    HW211097   6.751   6.020   1.843
 3400SOL     OW11098   4.241   2.752   5.786
 3400SOL    HW111099   4.210   2.825   5.725
 3400SOL    HW211100   4.328   2.778   5.828
 3401SOL     OW11101   6.105   4.162   5.800
 3401SOL    HW111102   6.204   4.149   5.794
 3401SOL    HW211103   6.079   4.241   5.744
 3402SOL     OW11104   6.794   3.218   1.020
 3402SOL    HW111105   6.735   3.245   1.096
 3402SOL    HW211106   6.773   3.272   0.939
 3403SOL     OW11107   5.502   6.750   6.938
 3403SOL    HW111108   5.571   6.821   6.957
 3403SOL    HW211109   5.465   6.764   6.846
 3404SOL     OW11110   5.093   4.319   4.590
 3404SOL    HW111111   5.068   4.338   4.495
 3404SOL    HW211112   5.187   4.350   4.606
 3405SOL     OW11113   4.814   6.295   0.096
 3405SOL    HW111114   4.870   6.248   0.028
 3405SOL    HW211115   4.864   6.301   0.182
 3406SOL     OW11116   2.470   5.485   1.719
 3406SOL    HW111117   2.477   5.395   1.676
 3406SOL    HW211118   2.376   5.500   1.750
 3407SOL     OW11119   0.797   3.903   6.781
 3407SOL    HW111120   0.739   3.974   6.740
 3407SOL    HW211121   0.884   3.899   6.732
 3408SOL     OW11122   5.278   0.726   3.612
 3408SOL    HW111123   5.271   0.644   3.669
 3408SOL    HW211124   5.364   0.773   3.632
 3409SOL     OW11125   4.475   0.671   0.909
 3409SOL    HW111126   4.536   0.737   0.952
 3409SOL    HW211127   4.524   0.625   0.835
 3410SOL     OW11128   6.033   0.161   3.332
 3410SOL    HW111129   5.958   0.226   3.344
 3410SOL    HW211130   6.115   0.197   3.377
 3411SOL     OW11131   6.045   3.175   6.147
 3411SOL    HW111132   6.003   3.243   6.208
 3411SOL    HW211133   6.144   3.187   6.148
 3412SOL     OW11134   5.467   3.363   1.669
 3412SOL    HW111135   5.520   3.279   1.681
 3412SOL    HW211136   5.499   3.411   1.588
 3413SOL     OW11137   6.783   1.125   0.068
 3413SOL    HW111138   6.850   1.095   0.136
 3413SOL    HW211139   6.783   1.224   0.062
 3414SOL     OW11140   3.064   4.121   1.228
 3414SOL    HW111141   3.011   4.205   1.228
 3414SOL    HW211142   3.060   4.079   1.138
 3415SOL     OW11143   2.221   1.270   6.018
 3415SOL    HW111144   2.291   1.340   6.035
 3415SOL    HW211145   2.185   1.280   5.926
 3416SOL     OW11146   6.444   6.958   6.571
 3416SOL    HW111147   6.430   6.860   6.586
 3416SOL    HW211148   6.536   6.973   6.535
 3417SOL     OW11149   6.267   6.221   3.390
 3417SOL    HW111150   6.169   6.206   3.397
 3417SOL    HW211151   6.302   6.252   3.479
 3418SOL     OW11152   3.874   5.077   1.189
 3418SOL    HW111153   3.789   5.035   1.222
 3418SOL    HW211154   3.952   5.024   1.223
 3419SOL     OW11155   2.701   5.445   5.675
 3419SOL    HW111156   2.640   5.476   5.748
 3419SOL    HW211157   2.666   5.360   5.635
 3420SOL     OW11158   4.733   1.670   2.262
 3420SOL    HW111159   4.738   1.578   2.301
 3420SOL    HW211160   4.737   1.665   2.162
 3421SOL     OW11161   0.371   2.181   5.116
 3421SOL    HW111162   0.392   2.101   5.172
 3421SOL    HW211163   0.423   2.175   5.030
 3422SOL     OW11164   2.094   6.068   0.795
 3422SOL    HW111165   2.114   6.150   0.849
 3422SOL    HW211166   2.175   6.043   0.741
 3423SOL     OW11167   1.584   4.812   5.520
 3423SOL    HW111168   1.627   4.800   5.609
 3423SOL    HW211169   1.564   4.723   5.480
 3424SOL     OW11170   5.206   1.380   1.968
 3424SOL    HW111171   5.153   1.392   1.884
 3424SOL    HW211172   5.165   1.434   2.041
 3425SOL     OW11173   6.423   3.300   6.351
 3425SOL    HW111174   6.521   3.311   6.333
 3425SOL    HW211175   6.401   3.340   6.440
 3426SOL     OW11176   6.652   3.161   6.503
 3426SOL    HW111177   6.644   3.195   6.597
 3426SOL    HW211178   6.677   3.237   6.442
 3427SOL     OW11179   0.614   2.068   0.477
 3427SOL    HW111180   0.571   2.067   0.567
 3427SOL    HW211181   0.671   2.149   0.468
 3428SOL     OW11182   4.290   6.570   5.151
 3428SOL    HW111183   4.319   6.518   5.232
 3428SOL    HW211184   4.192   6.591   5.158
 3429SOL     OW11185   5.223   6.871   1.338
 3429SOL    HW111186   5.254   6.848   1.430
 3429SOL    HW211187   5.240   6.794   1.277
 3430SOL     OW11188   2.247   4.574   5.645
 3430SOL    HW111189   2.306   4.511   5.595
 3430SOL    HW211190   2.182   4.522   5.701
 3431SOL     OW11191   0.711   4.879   2.535
 3431SOL    HW111192   0.742   4.784   2.546
 3431SOL    HW211193   0.623   4.880   2.488
 3432SOL     OW11194   0.828   4.262   0.076
 3432SOL    HW111195   0.757   4.207   0.032
 3432SOL    HW211196   0.833   4.351   0.030
 3433SOL     OW11197   2.883   1.017   6.745
 3433SOL    HW111198   2.843   1.004   6.654
 3433SOL    HW211199   2.978   1.046   6.736
 3434SOL     OW11200   3.628   2.529   1.760
 3434SOL    HW111201   3.530   2.550   1.754
 3434SOL    HW211202   3.641   2.449   1.820
 3435SOL     OW11203   2.120   1.459   0.948
 3435SOL    HW111204   2.029   1.418   0.943
 3435SOL    HW211205   2.184   1.393   0.987
 3436SOL     OW11206   3.303   6.925   5.990
 3436SOL    HW111207   3.255   6.850   6.035
 3436SOL    HW211208   3.402   6.910   5.997
 3437SOL     OW11209   1.193   0.087   6.222
 3437SOL    HW111210   1.258   0.161   6.239
 3437SOL    HW211211   1.116   0.121   6.169
 3438SOL     OW11212   2.082   3.904   0.843
 3438SOL    HW111213   2.136   3.875   0.764
 3438SOL    HW211214   2.065   4.002   0.838
 3439SOL     OW11215   2.206   5.580   1.432
 3439SOL    HW111216   2.163   5.621   1.352
 3439SOL    HW211217   2.257   5.650   1.483
 3440SOL     OW11218   3.821   4.011   5.231
 3440SOL    HW111219   3.763   3.954   5.290
 3440SOL    HW211220   3.801   4.108   5.248
 3441SOL     OW11221   5.463   4.664   6.014
 3441SOL    HW111222   5.414   4.578   5.999
 3441SOL    HW211223   5.495   4.668   6.109
 3442SOL     OW11224   2.505   3.340   1.092
 3442SOL    HW111225   2.433   3.277   1.063
 3442SOL    HW211226   2.589   3.320   1.043
 3443SOL     OW11227   0.188   6.232   2.214
 3443SOL    HW111228   0.266   6.244   2.275
 3443SOL    HW211229   0.126   6.309   2.224
 3444SOL     OW11230   6.098   3.999   6.150
 3444SOL    HW111231   6.102   4.090   6.110
 3444SOL    HW211232   6.011   3.956   6.127
 3445SOL     OW11233   6.559   4.749   3.901
 3445SOL    HW111234   6.502   4.831   3.894
 3445SOL    HW211235   6.624   4.760   3.975
 3446SOL     OW11236   4.544   0.892   1.562
 3446SOL    HW111237   4.520   0.862   1.470
 3446SOL    HW211238   4.487   0.971   1.587
 3447SOL     OW11239   5.152   0.782   6.416
 3447SOL    HW111240   5.198   0.836   6.345
 3447SOL    HW211241   5.066   0.746   6.379
 3448SOL     OW11242   1.851   4.667   5.084
 3448SOL    HW111243   1.909   4.608   5.141
 3448SOL    HW211244   1.842   4.757   5.128
 3449SOL     OW11245   0.136   4.758   5.695
 3449SOL    HW111246   0.049   4.738   5.651
 3449SOL    HW211247   0.188   4.674   5.706
 3450SOL     OW11248   2.611   6.627   1.455
 3450SOL    HW111249   2.621   6.673   1.544
 3450SOL    HW211250   2.579   6.693   1.388
 3451SOL     OW11251   2.044   1.575   1.605
 3451SOL    HW111252   2.102   1.553   1.527
 3451SOL    HW211253   2.090   1.641   1.664
 3452SOL     OW11254   4.443   1.316   4.760
 3452SOL    HW111255   4.404   1.225   4.770
 3452SOL    HW211256   4.370   1.384   4.760
 3453SOL     OW11257   3.890   6.516   6.495
 3453SOL    HW111258   3.881   6.541   6.592
 3453SOL    HW211259   3.975   6.555   6.458
 3454SOL     OW11260   6.992   3.033   1.377
 3454SOL    HW111261   6.978   2.955   1.316
 3454SOL    HW211262   0.024   3.006   1.454
 3455SOL     OW11263   0.293   3.315   5.933
 3455SOL    HW111264   0.261   3.230   5.890
 3455SOL    HW211265   0.322   3.380   5.863
 3456SOL     OW11266   5.165   5.527   3.475
 3456SOL    HW111267   5.244   5.493   3.525
 3456SOL    HW211268   5.094   5.456   3.474
 3457SOL     OW11269   3.536   4.142   6.115
 3457SOL    HW111270   3.615   4.099   6.072
 3457SOL    HW211271   3.457   4.135   6.054
 3458SOL     OW11272   4.413   1.180   2.270
 3458SOL    HW111273   4.449   1.123   2.196
 3458SOL    HW211274   4.346   1.127   2.322
 3459SOL     OW11275   5.609   6.058   2.362
 3459SOL    HW111276   5.642   6.055   2.457
 3459SOL    HW211277   5.663   5.994   2.307
 3460SOL     OW11278   3.841   1.816   5.030
 3460SOL    HW111279   3.914   1.766   4.984
 3460SOL    HW211280   3.854   1.915   5.016
 3461SOL     OW11281   5.372   4.994   4.942
 3461SOL    HW111282   5.342   5.035   5.028
 3461SOL    HW211283   5.293   4.951   4.896
 3462SOL     OW11284   1.163   3.379   6.379
 3462SOL    HW111285   1.167   3.406   6.476
 3462SOL    HW211286   1.237   3.425   6.329
 3463SOL     OW11287   5.458   4.166   0.071
 3463SOL    HW111288   5.541   4.210   0.037
 3463SOL    HW211289   5.390   4.236   0.095
 3464SOL     OW11290   0.211   4.380   4.790
 3464SOL    HW111291   0.210   4.452   4.859
 3464SOL    HW211292   0.156   4.303   4.821
 3465SOL     OW11293   0.900   1.578   2.123
 3465SOL    HW111294   0.854   1.612   2.041
 3465SOL    HW211295   0.971   1.512   2.097
 3466SOL     OW11296   6.658   3.375   5.494
 3466SOL    HW111297   6.739   3.353   5.439
 3466SOL    HW211298   6.681   3.446   5.560
 3467SOL     OW11299   1.867   2.675   6.426
 3467SOL    HW111300   1.807   2.744   6.385
 3467SOL    HW211301   1.830   2.584   6.405
 3468SOL     OW11302   4.080   6.772   2.721
 3468SOL    HW111303   4.086   6.681   2.678
 3468SOL    HW211304   4.122   6.768   2.812
 3469SOL     OW11305   4.921   3.441   1.955
 3469SOL    HW111306   4.927   3.342   1.954
 3469SOL    HW211307   5.013   3.480   1.950
 3470SOL     OW11308   6.935   5.514   0.940
 3470SOL    HW111309   6.853   5.537   0.889
 3470SOL    HW211310   6.913   5.503   1.037
 3471SOL     OW11311   4.461   0.476   4.590
 3471SOL    HW111312   4.543   0.514   4.548
 3471SOL    HW211313   4.473   0.472   4.689
 3472SOL     OW11314   4.184   1.263   5.059
 3472SOL    HW111315   4.263   1.240   5.115
 3472SOL    HW211316   4.132   1.179   5.040
 3473SOL     OW11317   4.415   7.025   4.102
 3473SOL    HW111318   4.370   0.024   4.188
 3473SOL    HW211319   4.362   6.954   4.056
 3474SOL     OW11320   5.252   4.289   0.967
 3474SOL    HW111321   5.288   4.354   0.899
 3474SOL    HW211322   5.243   4.336   1.055
 3475SOL     OW11323   1.829   6.515   4.671
 3475SOL    HW111324   1.910   6.537   4.617
 3475SOL    HW211325   1.771   6.596   4.678
 3476SOL     OW11326   4.635   1.323   4.304
 3476SOL    HW111327   4.680   1.343   4.217
 3476SOL    HW211328   4.643   1.401   4.365
 3477SOL     OW11329   4.388   5.364   2.008
 3477SOL    HW111330   4.438   5.438   2.053
 3477SOL    HW211331   4.372   5.290   2.074
 3478SOL     OW11332   4.401   4.911   6.842
 3478SOL    HW111333   4.447   4.909   6.753
 3478SOL    HW211334   4.433   4.834   6.898
 3479SOL     OW11335   1.476   6.906   1.719
 3479SOL    HW111336   1.571   6.911   1.689
 3479SOL    HW211337   1.418   6.877   1.643
 3480SOL     OW11338   1.414   1.007   3.971
 3480SOL    HW111339   1.406   1.106   3.980
 3480SOL    HW211340   1.400   0.963   4.060
 3481SOL     OW11341   2.482   7.016   6.837
 3481SOL    HW111342   2.535   0.055   6.783
 3481SOL    HW211343   2.542   6.946   6.875
 3482SOL     OW11344   1.003   1.731   1.294
 3482SOL    HW111345   1.037   1.714   1.201
 3482SOL    HW211346   0.946   1.813   1.293
 3483SOL     OW11347   4.208   1.728   0.622
 3483SOL    HW111348   4.232   1.825   0.610
 3483SOL    HW211349   4.244   1.697   0.710
 3484SOL     OW11350   2.937   3.348   3.612
 3484SOL    HW111351   2.949   3.423   3.547
 3484SOL    HW211352   3.026   3.308   3.633
 3485SOL     OW11353   6.751   1.633   4.719
 3485SOL    HW111354   6.703   1.604   4.801
 3485SOL    HW211355   6.806   1.714   4.740
 3486SOL     OW11356   4.965   1.542   3.281
 3486SOL    HW111357   4.984   1.627   3.232
 3486SOL    HW211358   4.869   1.517   3.267
 3487SOL     OW11359   0.331   0.442   0.101
 3487SOL    HW111360   0.278   0.524   0.079
 3487SOL    HW211361   0.396   0.423   0.027
 3488SOL     OW11362   6.166   3.209   3.755
 3488SOL    HW111363   6.243   3.172   3.704
 3488SOL    HW211364   6.096   3.241   3.691
 3489SOL     OW11365   2.126   6.633   0.312
 3489SOL    HW111366   2.164   6.565   0.250
 3489SOL    HW211367   2.061   6.691   0.262
 3490SOL     OW11368   4.253   2.538   1.432
 3490SOL    HW111369   4.258   2.451   1.382
 3490SOL    HW211370   4.208   2.523   1.520
 3491SOL     OW11371   6.569   2.725   5.198
 3491SOL    HW111372   6.560   2.629   5.171
 3491SOL    HW211373   6.664   2.753   5.188
 3492SOL     OW11374   5.481   5.080   6.039
 3492SOL    HW111375   5.466   5.038   5.949
 3492SOL    HW211376   5.561   5.038   6.082
 3493SOL     OW11377   0.352   4.523   1.071
 3493SOL    HW111378   0.438   4.553   1.031
 3493SOL    HW211379   0.355   4.536   1.170
 3494SOL     OW11380   2.656   5.940   1.143
 3494SOL    HW111381   2.614   6.015   1.092
 3494SOL    HW211382   2.754   5.959   1.154
 3495SOL     OW11383   5.267   4.511   0.751
 3495SOL    HW111384   5.237   4.464   0.668
 3495SOL    HW211385   5.190   4.561   0.792
 3496SOL     OW11386   1.143   4.388   0.325
 3496SOL    HW111387   1.160   4.352   0.416
 3496SOL    HW211388   1.119   4.313   0.263
 3497SOL     OW11389   4.250   6.184   3.634
 3497SOL    HW111390   4.222   6.212   3.542
 3497SOL    HW211391   4.204   6.099   3.658
 3498SOL     OW11392   1.916   1.811   1.345
 3498SOL    HW111393   1.967   1.725   1.336
 3498SOL    HW211394   1.934   1.868   1.265
 3499SOL     OW11395   6.573   3.794   4.362
 3499SOL    HW111396   6.580   3.694   4.357
 3499SOL    HW211397   6.601   3.833   4.274
 3500SOL     OW11398   6.592   2.817   0.801
 3500SOL    HW111399   6.598   2.898   0.859
 3500SOL    HW211400   6.496   2.791   0.789
 3501SOL     OW11401   0.800   4.353   4.125
 3501SOL    HW111402   0.873   4.285   4.130
 3501SOL    HW211403   0.725   4.326   4.185
 3502SOL     OW11404   1.107   4.131   1.810
 3502SOL    HW111405   1.122   4.112   1.713
 3502SOL    HW211406   1.196   4.143   1.855
 3503SOL     OW11407   3.958   6.501   4.100
 3503SOL    HW111408   3.889   6.432   4.124
 3503SOL    HW211409   3.916   6.591   4.099
 3504SOL     OW11410   2.207   3.017   2.665
 3504SOL    HW111411   2.185   2.985   2.573
 3504SOL    HW211412   2.260   3.101   2.659
 3505SOL     OW11413   4.131   5.803   5.021
 3505SOL    HW111414   4.221   5.762   5.007
 3505SOL    HW211415   4.073   5.741   5.073
 3506SOL     OW11416   5.697   4.978   2.328
 3506SOL    HW111417   5.796   4.982   2.315
 3506SOL    HW211418   5.651   4.993   2.240
 3507SOL     OW11419   0.482   0.626   6.280
 3507SOL    HW111420   0.556   0.560   6.296
 3507SOL    HW211421   0.463   0.676   6.364
 3508SOL     OW11422   6.458   3.312   0.499
 3508SOL    HW111423   6.556   3.320   0.517
 3508SOL    HW211424   6.414   3.262   0.573
 3509SOL     OW11425   6.508   0.129   0.877
 3509SOL    HW111426   6.450   0.183   0.938
 3509SOL    HW211427   6.512   0.035   0.910
 3510SOL     OW11428   1.633   2.563   2.104
 3510SOL    HW111429   1.596   2.483   2.056
 3510SOL    HW211430   1.560   2.629   2.120
 3511SOL     OW11431   1.015   0.760   5.276
 3511SOL    HW111432   0.952   0.805   5.339
 3511SOL    HW211433   0.967   0.687   5.228
 3512SOL     OW11434   2.784   3.277   0.920
 3512SOL    HW111435   2.811   3.245   0.829
 3512SOL    HW211436   2.848   3.240   0.988
 3513SOL     OW11437   5.947   4.168   1.559
 3513SOL    HW111438   6.024   4.130   1.610
 3513SOL    HW211439   5.880   4.205   1.623
 3514SOL     OW11440   1.773   6.809   1.801
 3514SOL    HW111441   1.840   6.743   1.766
 3514SOL    HW211442   1.693   6.761   1.835
 3515SOL     OW11443   3.365   6.252   2.703
 3515SOL    HW111444   3.380   6.332   2.646
 3515SOL    HW211445   3.386   6.169   2.650
 3516SOL     OW11446   3.590   1.009   0.454
 3516SOL    HW111447   3.543   1.039   0.371
 3516SOL    HW211448   3.671   1.066   0.468
 3517SOL     OW11449   1.107   0.471   6.555
 3517SOL    HW111450   1.025   0.417   6.571
 3517SOL    HW211451   1.115   0.491   6.457
 3518SOL     OW11452   4.799   3.495   5.656
 3518SOL    HW111453   4.712   3.447   5.641
 3518SOL    HW211454   4.798   3.540   5.745
 3519SOL     OW11455   2.942   6.464   0.820
 3519SOL    HW111456   3.005   6.539   0.841
 3519SOL    HW211457   2.936   6.402   0.898
 3520SOL     OW11458   3.526   5.363   1.543
 3520SOL    HW111459   3.598   5.353   1.474
 3520SOL    HW211460   3.565   5.399   1.628
 3521SOL     OW11461   5.407   2.241   6.477
 3521SOL    HW111462   5.438   2.250   6.571
 3521SOL    HW211463   5.468   2.292   6.417
 3522SOL     OW11464   2.832   5.730   1.271
 3522SOL    HW111465   2.745   5.766   1.236
 3522SOL    HW211466   2.907   5.770   1.219
 3523SOL     OW11467   2.384   5.101   5.426
 3523SOL    HW111468   2.345   5.009   5.430
 3523SOL    HW211469   2.465   5.100   5.366
 3524SOL     OW11470   2.555   6.848   1.280
 3524SOL    HW111471   2.503   6.933   1.277
 3524SOL    HW211472   2.561   6.808   1.189
 3525SOL     OW11473   1.734   3.336   2.565
 3525SOL    HW111474   1.818   3.281   2.567
 3525SOL    HW211475   1.685   3.324   2.651
 3526SOL     OW11476   3.147   0.075   3.376
 3526SOL    HW111477   3.186   0.096   3.466
 3526SOL    HW211478   3.145   7.002   3.362
 3527SOL     OW11479   5.024   3.138   5.855
 3527SOL    HW111480   4.989   3.153   5.948
 3527SOL    HW211481   4.948   3.131   5.791
 3528SOL     OW11482   1.090   0.054   4.209
 3528SOL    HW111483   1.161   7.012   4.190
 3528SOL    HW211484   1.114   0.106   4.291
 3529SOL     OW11485   3.542   6.120   6.971
 3529SOL    HW111486   3.507   6.087   6.883
 3529SOL    HW211487   3.571   6.043   0.001
 3530SOL     OW11488   1.352   5.603   2.959
 3530SOL    HW111489   1.342   5.610   2.860
 3530SOL    HW211490   1.349   5.507   2.986
 3531SOL     OW11491   4.978   3.744   6.795
 3531SOL    HW111492   4.970   3.819   6.729
 3531SOL    HW211493   4.999   3.782   6.886
 3532SOL     OW11494   1.767   6.864   0.534
 3532SOL    HW111495   1.691   6.874   0.470
 3532SOL    HW211496   1.768   6.941   0.597
 3533SOL     OW11497   1.015   1.096   4.073
 3533SOL    HW111498   1.082   1.158   4.113
 3533SOL    HW211499   0.957   1.059   4.146
 3534SOL     OW11500   5.037   0.695   4.782
 3534SOL    HW111501   5.132   0.683   4.753
 3534SOL    HW211502   5.006   0.613   4.830
 3535SOL     OW11503   4.023   6.180   6.826
 3535SOL    HW111504   3.941   6.151   6.777
 3535SOL    HW211505   3.996   6.239   6.902
 3536SOL     OW11506   1.092   3.891   3.174
 3536SOL    HW111507   1.115   3.960   3.105
 3536SOL    HW211508   1.163   3.890   3.244
 3537SOL     OW11509   2.118   4.885   0.987
 3537SOL    HW111510   2.136   4.978   1.017
 3537SOL    HW211511   2.118   4.823   1.066
 3538SOL     OW11512   3.250   1.144   3.560
 3538SOL    HW111513   3.220   1.049   3.567
 3538SOL    HW211514   3.245   1.173   3.464
 3539SOL     OW11515   5.475   6.242   6.817
 3539SOL    HW111516   5.458   6.148   6.788
 3539SOL    HW211517   5.533   6.241   6.899
 3540SOL     OW11518   3.069   4.335   5.921
 3540SOL    HW111519   3.125   4.403   5.873
 3540SOL    HW211520   3.009   4.289   5.855
 3541SOL     OW11521   2.147   2.980   1.356
 3541SOL    HW111522   2.225   2.983   1.293
 3541SOL    HW211523   2.173   2.927   1.437
 3542SOL     OW11524   5.629   1.463   6.917
 3542SOL    HW111525   5.692   1.525   6.870
 3542SOL    HW211526   5.612   1.383   6.860
 3543SOL     OW11527   0.788   2.306   3.954
 3543SOL    HW111528   0.846   2.386   3.938
 3543SOL    HW211529   0.794   2.244   3.876
 3544SOL     OW11530   3.169   4.277   0.099
 3544SOL    HW111531   3.157   4.285   0.198
 3544SOL    HW211532   3.129   4.356   0.054
 3545SOL     OW11533   4.011   0.292   1.027
 3545SOL    HW111534   3.943   0.221   1.039
 3545SOL    HW211535   3.979   0.377   1.068
 3546SOL     OW11536   6.283   4.148   2.643
 3546SOL    HW111537   6.205   4.116   2.698
 3546SOL    HW211538   6.351   4.074   2.636
 3547SOL     OW11539   1.194   3.824   4.638
 3547SOL    HW111540   1.118   3.794   4.695
 3547SOL    HW211541   1.186   3.923   4.621
 3548SOL     OW11542   5.615   0.645   5.439
 3548SOL    HW111543   5.707   0.655   5.477
 3548SOL    HW211544   5.548   0.664   5.511
 3549SOL     OW11545   2.714   6.574   0.001
 3549SOL    HW111546   2.791   6.598   0.061
 3549SOL    HW211547   2.704   6.475   7.023
 3550SOL     OW11548   5.298   1.128   4.947
 3550SOL    HW111549   5.315   1.030   4.960
 3550SOL    HW211550   5.213   1.153   4.993
 3551SOL     OW11551   4.672   2.301   4.518
 3551SOL    HW111552   4.712   2.229   4.574
 3551SOL    HW211553   4.615   2.260   4.447
 3552SOL     OW11554   5.887   6.877   3.503
 3552SOL    HW111555   5.969   6.860   3.448
 3552SOL    HW211556   5.827   6.940   3.454
 3553SOL     OW11557   5.845   5.797   6.802
 3553SOL    HW111558   5.923   5.786   6.864
 3553SOL    HW211559   5.868   5.759   6.713
 3554SOL     OW11560   5.783   4.211   6.979
 3554SOL    HW111561   5.767   4.114   6.962
 3554SOL    HW211562   5.706   4.265   6.943
 3555SOL     OW11563   3.082   1.699   4.876
 3555SOL    HW111564   3.030   1.783   4.890
 3555SOL    HW211565   3.153   1.715   4.807
 3556SOL     OW11566   5.713   0.861   0.163
 3556SOL    HW111567   5.720   0.854   0.064
 3556SOL    HW211568   5.781   0.925   0.198
 3557SOL     OW11569   5.825   0.377   1.266
 3557SOL    HW111570   5.734   0.412   1.247
 3557SOL    HW211571   5.893   0.429   1.214
 3558SOL     OW11572   3.744   5.757   2.440
 3558SOL    HW111573   3.720   5.843   2.484
 3558SOL    HW211574   3.823   5.771   2.380
 3559SOL     OW11575   4.569   0.100   6.214
 3559SOL    HW111576   4.624   0.172   6.256
 3559SOL    HW211577   4.489   0.082   6.272
 3560SOL     OW11578   1.902   5.557   4.202
 3560SOL    HW111579   1.984   5.533   4.254
 3560SOL    HW211580   1.921   5.549   4.104
 3561SOL     OW11581   4.467   3.610   5.332
 3561SOL    HW111582   4.462   3.699   5.378
 3561SOL    HW211583   4.559   3.595   5.298
 3562SOL     OW11584   2.255   1.564   6.695
 3562SOL    HW111585   2.269   1.663   6.683
 3562SOL    HW211586   2.311   1.532   6.771
 3563SOL     OW11587   6.192   2.943   6.069
 3563SOL    HW111588   6.224   3.035   6.090
 3563SOL    HW211589   6.114   2.921   6.127
 3564SOL     OW11590   5.960   3.291   2.221
 3564SOL    HW111591   5.946   3.386   2.251
 3564SOL    HW211592   5.905   3.275   2.139
 3565SOL     OW11593   3.975   6.023   4.690
 3565SOL    HW111594   3.967   6.106   4.746
 3565SOL    HW211595   3.958   5.943   4.747
 3566SOL     OW11596   1.107   6.921   4.812
 3566SOL    HW111597   1.010   6.941   4.815
 3566SOL    HW211598   1.148   6.939   4.902
 3567SOL     OW11599   6.975   2.893   6.413
 3567SOL    HW111600   7.010   2.855   6.499
 3567SOL    HW211601   6.884   2.856   6.395
 3568SOL     OW11602   5.602   3.844   6.157
 3568SOL    HW111603   5.547   3.782   6.102
 3568SOL    HW211604   5.599   3.815   6.253
 3569SOL     OW11605   1.272   0.891   4.473
 3569SOL    HW111606   1.197   0.957   4.482
 3569SOL    HW211607   1.237   0.800   4.497
 3570SOL     OW11608   5.354   1.692   3.702
 3570SOL    HW111609   5.442   1.659   3.737
 3570SOL    HW211610   5.369   1.737   3.614
 3571SOL     OW11611   6.324   6.683   5.309
 3571SOL    HW111612   6.336   6.600   5.364
 3571SOL    HW211613   6.321   6.763   5.370
 3572SOL     OW11614   6.541   5.799   4.771
 3572SOL    HW111615   6.539   5.707   4.732
 3572SOL    HW211616   6.467   5.853   4.731
 3573SOL     OW11617   1.385   1.752   1.952
 3573SOL    HW111618   1.423   1.664   1.982
 3573SOL    HW211619   1.299   1.735   1.902
 3574SOL     OW11620   6.369   3.498   0.263
 3574SOL    HW111621   6.362   3.514   0.361
 3574SOL    HW211622   6.464   3.505   0.234
 3575SOL     OW11623   6.219   5.767   1.852
 3575SOL    HW111624   6.159   5.844   1.831
 3575SOL    HW211625   6.187   5.721   1.934
 3576SOL     OW11626   0.813   1.891   6.411
 3576SOL    HW111627   0.875   1.878   6.334
 3576SOL    HW211628   0.743   1.959   6.386
 3577SOL     OW11629   1.771   2.727   0.254
 3577SOL    HW111630   1.845   2.794   0.256
 3577SOL    HW211631   1.791   2.659   0.183
 3578SOL     OW11632   3.511   5.081   1.003
 3578SOL    HW111633   3.487   5.172   0.969
 3578SOL    HW211634   3.559   5.030   0.932
 3579SOL     OW11635   0.404   4.247   5.029
 3579SOL    HW111636   0.473   4.290   4.972
 3579SOL    HW211637   0.351   4.181   4.975
 3580SOL     OW11638   6.908   2.069   1.991
 3580SOL    HW111639   6.882   2.107   2.079
 3580SOL    HW211640   6.977   1.998   2.004
 3581SOL     OW11641   6.046   0.518   3.377
 3581SOL    HW111642   6.022   0.452   3.448
 3581SOL    HW211643   6.088   0.599   3.419
 3582SOL     OW11644   0.283   0.732   5.851
 3582SOL    HW111645   0.268   0.827   5.880
 3582SOL    HW211646   0.378   0.706   5.868
 3583SOL     OW11647   2.263   5.383   0.363
 3583SOL    HW111648   2.213   5.335   0.291
 3583SOL    HW211649   2.360   5.358   0.358
 3584SOL     OW11650   5.075   0.074   5.486
 3584SOL    HW111651   5.046   0.165   5.518
 3584SOL    HW211652   5.171   0.060   5.508
 3585SOL     OW11653   2.915   4.748   3.759
 3585SOL    HW111654   2.883   4.655   3.779
 3585SOL    HW211655   2.874   4.812   3.824
 3586SOL     OW11656   6.625   2.107   6.291
 3586SOL    HW111657   6.636   2.190   6.346
 3586SOL    HW211658   6.528   2.082   6.288
 3587SOL     OW11659   3.974   0.162   6.179
 3587SOL    HW111660   3.956   0.242   6.237
 3587SOL    HW211661   4.018   0.192   6.094
 3588SOL     OW11662   2.310   1.634   5.651
 3588SOL    HW111663   2.361   1.689   5.717
 3588SOL    HW211664   2.342   1.539   5.654
 3589SOL     OW11665   3.247   0.482   5.162
 3589SOL    HW111666   3.213   0.391   5.185
 3589SOL    HW211667   3.304   0.517   5.236
 3590SOL     OW11668   1.875   4.976   6.607
 3590SOL    HW111669   1.778   4.995   6.592
 3590SOL    HW211670   1.925   4.994   6.522
 3591SOL     OW11671   4.840   2.332   6.159
 3591SOL    HW111672   4.931   2.295   6.177
 3591SOL    HW211673   4.834   2.424   6.197
 3592SOL     OW11674   4.797   2.821   1.803
 3592SOL    HW111675   4.883   2.868   1.785
 3592SOL    HW211676   4.730   2.885   1.842
 3593SOL     OW11677   1.601   4.886   3.162
 3593SOL    HW111678   1.587   4.830   3.243
 3593SOL    HW211679   1.550   4.848   3.085
 3594SOL     OW11680   3.185   0.992   4.138
 3594SOL    HW111681   3.166   1.032   4.228
 3594SOL    HW211682   3.274   1.024   4.106
 3595SOL     OW11683   2.823   6.398   5.284
 3595SOL    HW111684   2.779   6.468   5.228
 3595SOL    HW211685   2.919   6.388   5.257
 3596SOL     OW11686   6.774   3.028   3.176
 3596SOL    HW111687   6.854   2.971   3.154
 3596SOL    HW211688   6.697   2.969   3.199
 3597SOL     OW11689   3.946   5.963   3.035
 3597SOL    HW111690   3.893   5.894   3.084
 3597SOL    HW211691   3.896   5.992   2.953
 3598SOL     OW11692   0.899   0.172   0.223
 3598SOL    HW111693   0.910   0.134   0.315
 3598SOL    HW211694   0.909   0.099   0.155
 3599SOL     OW11695   6.974   1.903   4.264
 3599SOL    HW111696   6.938   1.984   4.310
 3599SOL    HW211697   0.010   1.853   4.325
 3600SOL     OW11698   5.863   0.904   0.870
 3600SOL    HW111699   5.934   0.927   0.804
 3600SOL    HW211700   5.791   0.851   0.825
 3601SOL     OW11701   6.340   3.774   5.286
 3601SOL    HW111702   6.343   3.862   5.334
 3601SOL    HW211703   6.396   3.708   5.337
 3602SOL     OW11704   2.046   1.877   0.275
 3602SOL    HW111705   1.998   1.812   0.216
 3602SOL    HW211706   2.086   1.950   0.219
 3603SOL     OW11707   4.154   4.946   4.986
 3603SOL    HW111708   4.154   5.023   4.922
 3603SOL    HW211709   4.194   4.866   4.942
 3604SOL     OW11710   0.640   3.235   3.109
 3604SOL    HW111711   0.551   3.262   3.070
 3604SOL    HW211712   0.627   3.199   3.201
 3605SOL     OW11713   6.174   3.209   6.702
 3605SOL    HW111714   6.235   3.263   6.645
 3605SOL    HW211715   6.130   3.268   6.770
 3606SOL     OW11716   1.068   4.451   5.087
 3606SOL    HW111717   1.119   4.407   5.013
 3606SOL    HW211718   1.038   4.542   5.058
 3607SOL     OW11719   4.679   6.927   0.235
 3607SOL    HW111720   4.685   7.018   0.196
 3607SOL    HW211721   4.637   6.865   0.168
 3608SOL     OW11722   1.105   2.443   2.696
 3608SOL    HW111723   1.082   2.390   2.615
 3608SOL    HW211724   1.199   2.477   2.689
 3609SOL     OW11725   6.681   0.299   4.674
 3609SOL    HW111726   6.623   0.333   4.600
 3609SOL    HW211727   6.775   0.290   4.641
 3610SOL     OW11728   1.438   6.011   5.007
 3610SOL    HW111729   1.385   6.042   5.086
 3610SOL    HW211730   1.488   6.088   4.968
 3611SOL     OW11731   3.710   5.417   5.111
 3611SOL    HW111732   3.621   5.376   5.090
 3611SOL    HW211733   3.730   5.489   5.045
 3612SOL     OW11734   1.852   0.152   1.366
 3612SOL    HW111735   1.836   0.244   1.329
 3612SOL    HW211736   1.814   0.147   1.459
 3613SOL     OW11737   5.021   5.724   0.131
 3613SOL    HW111738   4.953   5.781   0.177
 3613SOL    HW211739   5.072   5.779   0.065
 3614SOL     OW11740   3.569   2.901   3.082
 3614SOL    HW111741   3.515   2.891   3.166
 3614SOL    HW211742   3.519   2.860   3.005
 3615SOL     OW11743   6.831   6.583   6.468
 3615SOL    HW111744   6.779   6.625   6.543
 3615SOL    HW211745   6.866   6.655   6.408
 3616SOL     OW11746   6.757   1.142   4.494
 3616SOL    HW111747   6.749   1.241   4.500
 3616SOL    HW211748   6.831   1.110   4.553
 3617SOL     OW11749   6.597   0.635   6.797
 3617SOL    HW111750   6.693   0.636   6.769
 3617SOL    HW211751   6.551   0.718   6.764
 3618SOL     OW11752   2.576   1.323   6.020
 3618SOL    HW111753   2.628   1.392   5.970
 3618SOL    HW211754   2.531   1.366   6.099
 3619SOL     OW11755   5.791   2.379   4.086
 3619SOL    HW111756   5.789   2.455   4.151
 3619SOL    HW211757   5.725   2.309   4.115
 3620SOL     OW11758   6.241   0.794   4.106
 3620SOL    HW111759   6.180   0.806   4.028
 3620SOL    HW211760   6.187   0.785   4.190
 3621SOL     OW11761   1.885   3.885   5.980
 3621SOL    HW111762   1.869   3.980   5.952
 3621SOL    HW211763   1.975   3.877   6.022
 3622SOL     OW11764   0.713   2.577   1.143
 3622SOL    HW111765   0.657   2.525   1.206
 3622SOL    HW211766   0.782   2.630   1.194
 3623SOL     OW11767   6.915   5.374   4.246
 3623SOL    HW111768   6.943   5.423   4.329
 3623SOL    HW211769   6.820   5.345   4.256
 3624SOL     OW11770   2.571   0.258   1.829
 3624SOL    HW111771   2.644   0.241   1.762
 3624SOL    HW211772   2.579   0.351   1.864
 3625SOL     OW11773   7.000   3.022   4.874
 3625SOL    HW111774   0.067   3.048   4.846
 3625SOL    HW211775   6.988   3.039   4.971
 3626SOL     OW11776   2.604   3.810   5.366
 3626SOL    HW111777   2.553   3.862   5.298
 3626SOL    HW211778   2.574   3.715   5.365
 3627SOL     OW11779   2.943   3.657   4.117
 3627SOL    HW111780   2.906   3.709   4.194
 3627SOL    HW211781   2.872   3.646   4.047
 3628SOL     OW11782   3.457   5.166   2.709
 3628SOL    HW111783   3.359   5.177   2.690
 3628SOL    HW211784   3.469   5.123   2.799
 3629SOL     OW11785   6.185   2.524   5.167
 3629SOL    HW111786   6.122   2.600   5.183
 3629SOL    HW211787   6.147   2.463   5.098
 3630SOL     OW11788   6.072   1.966   4.304
 3630SOL    HW111789   6.077   2.036   4.233
 3630SOL    HW211790   6.164   1.942   4.334
 3631SOL     OW11791   2.295   1.105   4.487
 3631SOL    HW111792   2.285   1.011   4.453
 3631SOL    HW211793   2.264   1.169   4.417
 3632SOL     OW11794   4.465   0.350   6.745
 3632SOL    HW111795   4.462   0.336   6.646
 3632SOL    HW211796   4.404   0.425   6.770
 3633SOL     OW11797   2.035   3.265   5.986
 3633SOL    HW111798   1.988   3.347   6.020
 3633SOL    HW211799   2.051   3.274   5.888
 3634SOL     OW11800   1.822   5.812   4.882
 3634SOL    HW111801   1.917   5.821   4.912
 3634SOL    HW211802   1.763   5.865   4.943
 3635SOL     OW11803   2.736   1.400   5.396
 3635SOL    HW111804   2.773   1.350   5.475
 3635SOL    HW211805   2.747   1.498   5.411
 3636SOL     OW11806   1.167   5.682   5.916
 3636SOL    HW111807   1.211   5.593   5.927
 3636SOL    HW211808   1.094   5.691   5.984
 3637SOL     OW11809   5.739   1.557   2.126
 3637SOL    HW111810   5.725   1.544   2.224
 3637SOL    HW211811   5.776   1.474   2.086
 3638SOL     OW11812   6.868   4.874   4.330
 3638SOL    HW111813   6.933   4.948   4.316
 3638SOL    HW211814   6.917   4.792   4.360
 3639SOL     OW11815   2.077   4.977   6.780
 3639SOL    HW111816   2.003   4.961   6.715
 3639SOL    HW211817   2.111   5.070   6.771
 3640SOL     OW11818   3.524   5.589   0.909
 3640SOL    HW111819   3.615   5.597   0.948
 3640SOL    HW211820   3.517   5.649   0.829
 3641SOL     OW11821   2.300   0.981   5.022
 3641SOL    HW111822   2.258   1.028   4.945
 3641SOL    HW211823   2.348   0.899   4.989
 3642SOL     OW11824   5.695   0.037   4.184
 3642SOL    HW111825   5.683   6.963   4.179
 3642SOL    HW211826   5.792   0.059   4.183
 3643SOL     OW11827   2.819   4.810   4.875
 3643SOL    HW111828   2.845   4.737   4.939
 3643SOL    HW211829   2.731   4.848   4.903
 3644SOL     OW11830   6.782   0.806   0.727
 3644SOL    HW111831   6.868   0.853   0.741
 3644SOL    HW211832   6.781   0.722   0.782
 3645SOL     OW11833   3.654   0.811   3.446
 3645SOL    HW111834   3.640   0.836   3.350
 3645SOL    HW211835   3.747   0.836   3.473
 3646SOL     OW11836   6.924   4.730   5.531
 3646SOL    HW111837   6.925   4.830   5.533
 3646SOL    HW211838   6.903   4.698   5.439
 3647SOL     OW11839   2.611   3.060   0.970
 3647SOL    HW111840   2.657   3.137   0.926
 3647SOL    HW211841   2.521   3.048   0.928
 3648SOL     OW11842   2.939   6.538   2.424
 3648SOL    HW111843   2.848   6.500   2.434
 3648SOL    HW211844   2.963   6.591   2.505
 3649SOL     OW11845   3.256   3.557   1.267
 3649SOL    HW111846   3.241   3.653   1.243
 3649SOL    HW211847   3.341   3.549   1.320
 3650SOL     OW11848   0.508   6.743   1.337
 3650SOL    HW111849   0.531   6.824   1.391
 3650SOL    HW211850   0.451   6.681   1.392
 3651SOL     OW11851   1.866   5.846   2.724
 3651SOL    HW111852   1.963   5.829   2.742
 3651SOL    HW211853   1.811   5.794   2.789
 3652SOL     OW11854   4.748   5.125   3.231
 3652SOL    HW111855   4.784   5.207   3.276
 3652SOL    HW211856   4.649   5.133   3.221
 3653SOL     OW11857   0.119   2.317   3.359
 3653SOL    HW111858   0.063   2.328   3.277
 3653SOL    HW211859   0.195   2.255   3.339
 3654SOL     OW11860   1.673   6.779   1.468
 3654SOL    HW111861   1.614   6.734   1.401
 3654SOL    HW211862   1.720   6.710   1.523
 3655SOL     OW11863   1.545   0.449   4.530
 3655SOL    HW111864   1.529   0.547   4.541
 3655SOL    HW211865   1.463   0.406   4.493
 3656SOL     OW11866   2.057   2.681   1.958
 3656SOL    HW111867   2.111   2.765   1.948
 3656SOL    HW211868   2.118   2.602   1.958
 3657SOL     OW11869   3.789   5.965   1.349
 3657SOL    HW111870   3.858   5.896   1.325
 3657SOL    HW211871   3.714   5.921   1.399
 3658SOL     OW11872   1.897   6.137   5.983
 3658SOL    HW111873   1.897   6.127   6.082
 3658SOL    HW211874   1.804   6.126   5.948
 3659SOL     OW11875   2.457   4.405   0.133
 3659SOL    HW111876   2.538   4.368   0.178
 3659SOL    HW211877   2.454   4.374   0.038
 3660SOL     OW11878   4.863   5.652   1.505
 3660SOL    HW111879   4.782   5.600   1.533
 3660SOL    HW211880   4.835   5.722   1.439
 3661SOL     OW11881   4.470   0.691   0.416
 3661SOL    HW111882   4.413   0.650   0.345
 3661SOL    HW211883   4.466   0.634   0.498
 3662SOL     OW11884   3.384   0.162   5.040
 3662SOL    HW111885   3.462   0.124   5.091
 3662SOL    HW211886   3.301   0.151   5.094
 3663SOL     OW11887   1.199   2.573   6.822
 3663SOL    HW111888   1.155   2.493   6.860
 3663SOL    HW211889   1.136   2.620   6.760
 3664SOL     OW11890   5.130   0.957   0.971
 3664SOL    HW111891   5.197   1.031   0.982
 3664SOL    HW211892   5.136   0.894   1.049
 3665SOL     OW11893   0.790   0.064   5.457
 3665SOL    HW111894   0.724   0.041   5.528
 3665SOL    HW211895   0.784   7.023   5.383
 3666SOL     OW11896   1.466   4.663   4.171
 3666SOL    HW111897   1.395   4.595   4.159
 3666SOL    HW211898   1.521   4.670   4.088
 3667SOL     OW11899   6.478   1.155   6.142
 3667SOL    HW111900   6.487   1.161   6.242
 3667SOL    HW211901   6.492   1.060   6.113
 3668SOL     OW11902   0.986   5.958   2.269
 3668SOL    HW111903   1.055   6.014   2.222
 3668SOL    HW211904   0.955   5.886   2.207
 3669SOL     OW11905   6.652   2.807   3.248
 3669SOL    HW111906   6.685   2.782   3.339
 3669SOL    HW211907   6.679   2.737   3.181
 3670SOL     OW11908   2.010   5.995   5.763
 3670SOL    HW111909   1.985   6.039   5.849
 3670SOL    HW211910   1.958   5.910   5.752
 3671SOL     OW11911   1.105   0.213   2.869
 3671SOL    HW111912   1.130   0.155   2.792
 3671SOL    HW211913   1.187   0.239   2.920
 3672SOL     OW11914   6.713   0.630   0.547
 3672SOL    HW111915   6.667   0.650   0.461
 3672SOL    HW211916   6.732   0.715   0.596
 3673SOL     OW11917   5.148   0.398   6.537
 3673SOL    HW111918   5.239   0.366   6.565
 3673SOL    HW211919   5.086   0.320   6.530
 3674SOL     OW11920   0.993   6.363   0.688
 3674SOL    HW111921   0.923   6.387   0.755
 3674SOL    HW211922   1.021   6.444   0.638
 3675SOL     OW11923   1.816   2.272   5.244
 3675SOL    HW111924   1.719   2.247   5.248
 3675SOL    HW211925   1.864   2.227   5.319
 3676SOL     OW11926   2.784   5.852   3.568
 3676SOL    HW111927   2.781   5.826   3.472
 3676SOL    HW211928   2.820   5.775   3.622
 3677SOL     OW11929   6.464   6.855   4.785
 3677SOL    HW111930   6.458   6.955   4.787
 3677SOL    HW211931   6.557   6.827   4.765
 3678SOL     OW11932   1.034   1.437   3.426
 3678SOL    HW111933   1.091   1.361   3.395
 3678SOL    HW211934   1.046   1.515   3.363
 3679SOL     OW11935   0.572   0.909   2.060
 3679SOL    HW111936   0.563   0.875   2.154
 3679SOL    HW211937   0.669   0.924   2.040
 3680SOL     OW11938   6.775   2.903   4.111
 3680SOL    HW111939   6.735   2.994   4.114
 3680SOL    HW211940   6.874   2.909   4.117
 3681SOL     OW11941   0.068   6.529   5.623
 3681SOL    HW111942   0.077   6.564   5.716
 3681SOL    HW211943   0.001   6.584   5.573
 3682SOL     OW11944   6.613   1.873   6.482
 3682SOL    HW111945   6.622   1.933   6.403
 3682SOL    HW211946   6.657   1.785   6.461
 3683SOL     OW11947   5.584   6.695   4.418
 3683SOL    HW111948   5.578   6.772   4.354
 3683SOL    HW211949   5.657   6.633   4.389
 3684SOL     OW11950   1.519   3.516   1.236
 3684SOL    HW111951   1.459   3.538   1.160
 3684SOL    HW211952   1.503   3.422   1.265
 3685SOL     OW11953   6.451   6.496   6.373
 3685SOL    HW111954   6.491   6.405   6.359
 3685SOL    HW211955   6.381   6.512   6.303
 3686SOL     OW11956   5.828   4.731   1.683
 3686SOL    HW111957   5.916   4.684   1.687
 3686SOL    HW211958   5.840   4.822   1.643
 3687SOL     OW11959   3.683   0.797   0.217
 3687SOL    HW111960   3.677   0.855   0.136
 3687SOL    HW211961   3.626   0.834   0.290
 3688SOL     OW11962   1.182   3.182   0.185
 3688SOL    HW111963   1.193   3.094   0.231
 3688SOL    HW211964   1.123   3.242   0.240
 3689SOL     OW11965   1.970   0.600   3.929
 3689SOL    HW111966   1.890   0.543   3.912
 3689SOL    HW211967   2.041   0.546   3.974
 3690SOL     OW11968   5.978   0.016   5.714
 3690SOL    HW111969   6.066   7.002   5.740
 3690SOL    HW211970   5.913   6.968   5.694
 3691SOL     OW11971   3.184   2.953   6.844
 3691SOL    HW111972   3.238   3.017   6.789
 3691SOL    HW211973   3.149   2.880   6.785
 3692SOL     OW11974   1.769   0.071   5.426
 3692SOL    HW111975   1.679   0.084   5.467
 3692SOL    HW211976   1.776   7.005   5.388
 3693SOL     OW11977   3.025   2.160   3.191
 3693SOL    HW111978   3.077   2.173   3.275
 3693SOL    HW211979   2.929   2.143   3.214
 3694SOL     OW11980   1.982   6.068   3.331
 3694SOL    HW111981   2.037   6.072   3.248
 3694SOL    HW211982   1.885   6.074   3.307
 3695SOL     OW11983   2.027   1.912   1.999
 3695SOL    HW111984   1.934   1.948   1.987
 3695SOL    HW211985   2.075   1.965   2.069
 3696SOL     OW11986   4.045   6.884   6.136
 3696SOL    HW111987   3.975   6.955   6.141
 3696SOL    HW211988   4.002   6.794   6.143
 3697SOL     OW11989   6.235   0.433   4.089
 3697SOL    HW111990   6.161   0.500   4.098
 3697SOL    HW211991   6.317   0.479   4.056
 3698SOL     OW11992   2.780   0.805   5.973
 3698SOL    HW111993   2.804   0.817   6.069
 3698SOL    HW211994   2.742   0.890   5.937
 3699SOL     OW11995   0.630   3.946   2.929
 3699SOL    HW111996   0.704   4.013   2.924
 3699SOL    HW211997   0.649   3.871   2.866
 3700SOL     OW11998   0.159   0.035   3.945
 3700SOL    HW111999   0.185   0.111   3.886
 3700SOL    HW212000   0.135   6.981   3.890
 3701SOL     OW12001   6.363   1.123   4.643
 3701SOL    HW112002   6.329   1.076   4.562
 3701SOL    HW212003   6.461   1.105   4.653
 3702SOL     OW12004   3.511   1.110   0.202
 3702SOL    HW112005   3.529   1.051   0.123
 3702SOL    HW212006   3.530   1.205   0.177
 3703SOL     OW12007   4.271   4.665   6.600
 3703SOL    HW112008   4.293   4.614   6.684
 3703SOL    HW212009   4.341   4.735   6.585
 3704SOL     OW12010   2.443   0.107   2.841
 3704SOL    HW112011   2.408   0.200   2.854
 3704SOL    HW212012   2.543   0.109   2.833
 3705SOL     OW12013   5.494   0.887   3.669
 3705SOL    HW112014   5.579   0.855   3.629
 3705SOL    HW212015   5.483   0.985   3.652
 3706SOL     OW12016   1.904   2.596   3.704
 3706SOL    HW112017   1.989   2.547   3.721
 3706SOL    HW212018   1.833   2.563   3.766
 3707SOL     OW12019   4.317   2.814   5.427
 3707SOL    HW112020   4.318   2.714   5.420
 3707SOL    HW212021   4.222   2.846   5.431
 3708SOL     OW12022   5.496   0.394   6.366
 3708SOL    HW112023   5.438   0.357   6.439
 3708SOL    HW212024   5.518   0.322   6.301
 3709SOL     OW12025   3.474   0.741   6.422
 3709SOL    HW112026   3.552   0.801   6.404
 3709SOL    HW212027   3.458   0.683   6.342
 3710SOL     OW12028   0.019   4.725   0.531
 3710SOL    HW112029   0.028   4.768   0.620
 3710SOL    HW212030   0.057   4.632   0.535
 3711SOL     OW12031   6.650   5.115   2.484
 3711SOL    HW112032   6.618   5.104   2.579
 3711SOL    HW212033   6.629   5.207   2.453
 3712SOL     OW12034   1.519   0.197   0.289
 3712SOL    HW112035   1.452   0.271   0.293
 3712SOL    HW212036   1.602   0.224   0.337
 3713SOL     OW12037   3.455   5.831   5.698
 3713SOL    HW112038   3.489   5.921   5.723
 3713SOL    HW212039   3.491   5.763   5.762
 3714SOL     OW12040   3.800   0.598   4.643
 3714SOL    HW112041   3.863   0.637   4.710
 3714SOL    HW212042   3.737   0.535   4.689
 3715SOL     OW12043   5.337   4.341   4.704
 3715SOL    HW112044   5.352   4.266   4.641
 3715SOL    HW212045   5.351   4.309   4.798
 3716SOL     OW12046   6.933   0.486   4.231
 3716SOL    HW112047   6.874   0.564   4.211
 3716SOL    HW212048   7.004   0.480   4.160
 3717SOL     OW12049   6.406   6.515   1.084
 3717SOL    HW112050   6.486   6.555   1.038
 3717SOL    HW212051   6.407   6.416   1.071
 3718SOL     OW12052   1.547   5.501   0.359
 3718SOL    HW112053   1.543   5.420   0.419
 3718SOL    HW212054   1.546   5.471   0.264
 3719SOL     OW12055   3.978   4.884   5.584
 3719SOL    HW112056   3.881   4.867   5.603
 3719SOL    HW212057   4.029   4.882   5.670
 3720SOL     OW12058   5.835   1.515   6.143
 3720SOL    HW112059   5.834   1.568   6.058
 3720SOL    HW212060   5.756   1.453   6.143
 3721SOL     OW12061   4.904   4.373   0.509
 3721SOL    HW112062   5.003   4.386   0.511
 3721SOL    HW212063   4.872   4.370   0.414
 3722SOL     OW12064   6.577   5.982   2.544
 3722SOL    HW112065   6.514   6.046   2.501
 3722SOL    HW212066   6.661   6.030   2.571
 3723SOL     OW12067   4.939   0.441   1.040
 3723SOL    HW112068   4.918   0.515   0.977
 3723SOL    HW212069   4.925   0.353   0.995
 3724SOL     OW12070   1.363   5.896   6.241
 3724SOL    HW112071   1.410   5.984   6.240
 3724SOL    HW212072   1.430   5.822   6.237
 3725SOL     OW12073   0.190   6.043   6.550
 3725SOL    HW112074   0.148   5.988   6.478
 3725SOL    HW212075   0.119   6.092   6.600
 3726SOL     OW12076   5.435   4.203   1.528
 3726SOL    HW112077   5.437   4.266   1.450
 3726SOL    HW212078   5.351   4.148   1.525
 3727SOL     OW12079   2.227   3.537   5.332
 3727SOL    HW112080   2.231   3.634   5.306
 3727SOL    HW212081   2.194   3.530   5.427
 3728SOL     OW12082   1.564   3.299   6.428
 3728SOL    HW112083   1.507   3.221   6.453
 3728SOL    HW212084   1.594   3.346   6.511
 3729SOL     OW12085   0.765   2.061   3.389
 3729SOL    HW112086   0.700   2.003   3.437
 3729SOL    HW212087   0.738   2.070   3.293
 3730SOL     OW12088   3.360   0.765   0.264
 3730SOL    HW112089   3.328   0.790   0.173
 3730SOL    HW212090   3.345   0.842   0.326
 3731SOL     OW12091   4.174   6.971   0.134
 3731SOL    HW112092   4.241   6.997   0.065
 3731SOL    HW212093   4.143   6.878   0.117
 3732SOL     OW12094   2.212   3.821   5.325
 3732SOL    HW112095   2.201   3.850   5.420
 3732SOL    HW212096   2.303   3.847   5.293
 3733SOL     OW12097   2.910   3.652   1.388
 3733SOL    HW112098   2.994   3.631   1.439
 3733SOL    HW212099   2.833   3.603   1.429
 3734SOL     OW12100   5.281   0.845   2.625
 3734SOL    HW112101   5.204   0.781   2.619
 3734SOL    HW212102   5.290   0.878   2.719
 3735SOL     OW12103   3.271   2.093   2.340
 3735SOL    HW112104   3.259   2.073   2.438
 3735SOL    HW212105   3.182   2.113   2.300
 3736SOL     OW12106   6.037   2.301   0.757
 3736SOL    HW112107   6.046   2.211   0.799
 3736SOL    HW212108   6.072   2.298   0.664
 3737SOL     OW12109   4.780   6.600   3.568
 3737SOL    HW112110   4.718   6.635   3.499
 3737SOL    HW212111   4.869   6.580   3.526
 3738SOL     OW12112   7.006   6.936   3.614
 3738SOL    HW112113   0.001   7.002   3.542
 3738SOL    HW212114   6.926   6.966   3.666
 3739SOL     OW12115   0.673   4.491   2.268
 3739SOL    HW112116   0.592   4.436   2.287
 3739SOL    HW212117   0.749   4.430   2.243
 3740SOL     OW12118   5.619   1.249   0.309
 3740SOL    HW112119   5.696   1.190   0.332
 3740SOL    HW212120   5.533   1.198   0.321
 3741SOL     OW12121   4.080   2.487   0.037
 3741SOL    HW112122   4.118   2.571   7.024
 3741SOL    HW212123   4.037   2.507   0.125
 3742SOL     OW12124   3.482   3.037   5.583
 3742SOL    HW112125   3.435   2.953   5.554
 3742SOL    HW212126   3.511   3.027   5.678
 3743SOL     OW12127   6.937   5.021   6.835
 3743SOL    HW112128   7.004   4.980   6.773
 3743SOL    HW212129   6.848   5.024   6.790
 3744SOL     OW12130   0.586   5.673   3.737
 3744SOL    HW112131   0.661   5.735   3.756
 3744SOL    HW212132   0.503   5.705   3.783
 3745SOL     OW12133   4.534   5.568   2.637
 3745SOL    HW112134   4.593   5.648   2.648
 3745SOL    HW212135   4.583   5.497   2.587
 3746SOL     OW12136   4.435   1.419   2.058
 3746SOL    HW112137   4.405   1.373   2.142
 3746SOL    HW212138   4.368   1.401   1.986
 3747SOL     OW12139   3.331   0.521   0.040
 3747SOL    HW112140   3.369   0.613   0.033
 3747SOL    HW212141   3.235   0.522   0.010
 3748SOL     OW12142   5.692   1.100   2.548
 3748SOL    HW112143   5.722   1.065   2.459
 3748SOL    HW212144   5.768   1.148   2.592
 3749SOL     OW12145   1.236   0.055   5.265
 3749SOL    HW112146   1.253   7.023   5.344
 3749SOL    HW212147   1.294   0.137   5.269
 3750SOL     OW12148   0.110   3.976   0.531
 3750SOL    HW112149   0.178   3.927   0.585
 3750SOL    HW212150   0.135   4.073   0.526
 3751SOL     OW12151   0.855   4.051   2.855
 3751SOL    HW112152   0.854   4.145   2.820
 3751SOL    HW212153   0.949   4.018   2.858
 3752SOL     OW12154   5.777   0.382   6.091
 3752SOL    HW112155   5.781   0.369   5.992
 3752SOL    HW212156   5.706   0.324   6.130
 3753SOL     OW12157   6.600   6.868   4.318
 3753SOL    HW112158   6.626   6.861   4.222
 3753SOL    HW212159   6.613   6.780   4.362
 3754SOL     OW12160   2.065   1.461   0.621
 3754SOL    HW112161   2.095   1.460   0.717
 3754SOL    HW212162   2.060   1.368   0.587
 3755SOL     OW12163   3.134   5.039   3.372
 3755SOL    HW112164   3.097   5.127   3.402
 3755SOL    HW212165   3.198   5.004   3.440
 3756SOL     OW12166   2.210   6.228   0.090
 3756SOL    HW112167   2.192   6.142   0.041
 3756SOL    HW212168   2.247   6.208   0.180
 3757SOL     OW12169   6.773   4.692   1.183
 3757SOL    HW112170   6.872   4.686   1.182
 3757SOL    HW212171   6.744   4.771   1.237
 3758SOL     OW12172   1.849   6.906   3.634
 3758SOL    HW112173   1.829   6.970   3.708
 3758SOL    HW212174   1.842   6.954   3.546
 3759SOL     OW12175   5.034   0.414   4.258
 3759SOL    HW112176   4.937   0.391   4.260
 3759SOL    HW212177   5.059   0.464   4.342
 3760SOL     OW12178   0.488   1.292   3.071
 3760SOL    HW112179   0.540   1.294   2.986
 3760SOL    HW212180   0.441   1.379   3.085
 3761SOL     OW12181   5.645   0.993   3.946
 3761SOL    HW112182   5.561   1.024   3.991
 3761SOL    HW212183   5.669   1.057   3.873
 3762SOL     OW12184   0.101   2.652   2.877
 3762SOL    HW112185   0.163   2.718   2.920
 3762SOL    HW212186   0.073   2.584   2.946
 3763SOL     OW12187   0.626   4.433   0.933
 3763SOL    HW112188   0.568   4.352   0.948
 3763SOL    HW212189   0.636   4.450   0.835
 3764SOL     OW12190   2.334   0.680   2.990
 3764SOL    HW112191   2.426   0.644   2.981
 3764SOL    HW212192   2.331   0.775   2.957
 3765SOL     OW12193   5.778   2.619   2.102
 3765SOL    HW112194   5.811   2.525   2.094
 3765SOL    HW212195   5.680   2.618   2.121
 3766SOL     OW12196   1.063   3.595   3.233
 3766SOL    HW112197   1.067   3.658   3.156
 3766SOL    HW212198   1.005   3.634   3.305
 3767SOL     OW12199   0.832   4.747   6.363
 3767SOL    HW112200   0.872   4.680   6.426
 3767SOL    HW212201   0.737   4.722   6.344
 3768SOL     OW12202   0.956   0.175   3.922
 3768SOL    HW112203   1.023   0.119   3.969
 3768SOL    HW212204   0.885   0.203   3.987
 3769SOL     OW12205   5.714   4.918   5.288
 3769SOL    HW112206   5.653   4.849   5.327
 3769SOL    HW212207   5.715   4.999   5.346
 3770SOL     OW12208   1.714   1.014   1.173
 3770SOL    HW112209   1.728   0.928   1.222
 3770SOL    HW212210   1.791   1.076   1.192
 3771SOL     OW12211   6.466   5.410   7.016
 3771SOL    HW112212   6.448   5.500   0.031
 3771SOL    HW212213   6.501   5.422   6.923
 3772SOL     OW12214   1.305   6.055   0.420
 3772SOL    HW112215   1.384   6.115   0.430
 3772SOL    HW212216   1.329   5.962   0.449
 3773SOL     OW12217   5.328   4.432   6.290
 3773SOL    HW112218   5.385   4.387   6.358
 3773SOL    HW212219   5.371   4.518   6.261
 3774SOL     OW12220   6.592   5.037   1.543
 3774SOL    HW112221   6.647   5.120   1.536
 3774SOL    HW212222   6.508   5.047   1.490
 3775SOL     OW12223   4.510   5.232   4.163
 3775SOL    HW112224   4.500   5.196   4.256
 3775SOL    HW212225   4.424   5.220   4.113
 3776SOL     OW12226   3.523   2.782   5.804
 3776SOL    HW112227   3.531   2.774   5.705
 3776SOL    HW212228   3.601   2.833   5.840
 3777SOL     OW12229   2.837   6.040   4.100
 3777SOL    HW112230   2.757   5.983   4.082
 3777SOL    HW212231   2.819   6.099   4.178
 3778SOL     OW12232   3.349   5.490   5.892
 3778SOL    HW112233   3.363   5.565   5.957
 3778SOL    HW212234   3.251   5.473   5.881
 3779SOL     OW12235   6.939   4.872   0.058
 3779SOL    HW112236   7.004   4.869   0.134
 3779SOL    HW212237   6.966   4.944   7.020
 3780SOL     OW12238   5.602   4.018   1.669
 3780SOL    HW112239   5.620   3.948   1.600
 3780SOL    HW212240   5.535   4.083   1.634
 3781SOL     OW12241   2.889   6.391   4.670
 3781SOL    HW112242   2.893   6.387   4.570
 3781SOL    HW212243   2.843   6.309   4.705
 3782SOL     OW12244   5.243   6.176   1.793
 3782SOL    HW112245   5.339   6.163   1.819
 3782SOL    HW212246   5.235   6.253   1.730
 3783SOL     OW12247   5.061   5.625   4.693
 3783SOL    HW112248   5.037   5.642   4.598
 3783SOL    HW212249   5.127   5.551   4.698
 3784SOL     OW12250   6.457   2.205   3.828
 3784SOL    HW112251   6.413   2.235   3.912
 3784SOL    HW212252   6.545   2.162   3.850
 3785SOL     OW12253   1.922   3.386   4.161
 3785SOL    HW112254   1.867   3.469   4.169
 3785SOL    HW212255   2.007   3.407   4.112
 3786SOL     OW12256   2.417   2.623   4.677
 3786SOL    HW112257   2.362   2.686   4.733
 3786SOL    HW212258   2.478   2.571   4.736
 3787SOL     OW12259   4.384   6.671   3.341
 3787SOL    HW112260   4.466   6.715   3.377
 3787SOL    HW212261   4.318   6.659   3.414
 3788SOL     OW12262   6.512   3.347   5.136
 3788SOL    HW112263   6.476   3.359   5.229
 3788SOL    HW212264   6.448   3.290   5.083
 3789SOL     OW12265   1.491   2.722   2.448
 3789SOL    HW112266   1.479   2.754   2.354
 3789SOL    HW212267   1.581   2.749   2.481
 3790SOL     OW12268   0.674   6.672   1.663
 3790SOL    HW112269   0.612   6.682   1.742
 3790SOL    HW212270   0.769   6.681   1.694
 3791SOL     OW12271   4.939   1.093   5.304
 3791SOL    HW112272   5.029   1.083   5.346
 3791SOL    HW212273   4.927   1.187   5.273
 3792SOL     OW12274   6.968   0.828   4.246
 3792SOL    HW112275   7.013   0.796   4.329
 3792SOL    HW212276   6.870   0.840   4.265
 3793SOL     OW12277   4.849   5.106   0.691
 3793SOL    HW112278   4.944   5.116   0.659
 3793SOL    HW212279   4.796   5.054   0.624
 3794SOL     OW12280   0.619   4.037   6.628
 3794SOL    HW112281   0.558   4.019   6.550
 3794SOL    HW212282   0.599   4.127   6.666
 3795SOL     OW12283   1.674   6.468   1.542
 3795SOL    HW112284   1.583   6.507   1.526
 3795SOL    HW212285   1.711   6.434   1.456
 3796SOL     OW12286   4.885   1.416   6.808
 3796SOL    HW112287   4.799   1.414   6.858
 3796SOL    HW212288   4.869   1.454   6.717
 3797SOL     OW12289   1.253   4.505   2.267
 3797SOL    HW112290   1.176   4.479   2.325
 3797SOL    HW212291   1.226   4.580   2.207
 3798SOL     OW12292   1.578   6.201   3.244
 3798SOL    HW112293   1.602   6.173   3.337
 3798SOL    HW212294   1.611   6.132   3.179
 3799SOL     OW12295   0.167   1.247   3.285
 3799SOL    HW112296   0.199   1.243   3.190
 3799SOL    HW212297   0.088   1.187   3.295
 3800SOL     OW12298   5.304   2.524   3.091
 3800SOL    HW112299   5.267   2.443   3.043
 3800SOL    HW212300   5.393   2.548   3.051
 3801SOL     OW12301   5.854   1.298   2.166
 3801SOL    HW112302   5.937   1.339   2.202
 3801SOL    HW212303   5.806   1.249   2.239
 3802SOL     OW12304   6.411   2.820   2.127
 3802SOL    HW112305   6.450   2.880   2.198
 3802SOL    HW212306   6.460   2.834   2.041
 3803SOL     OW12307   3.354   3.375   3.955
 3803SOL    HW112308   3.326   3.282   3.978
 3803SOL    HW212309   3.276   3.437   3.965
 3804SOL     OW12310   4.230   5.903   2.853
 3804SOL    HW112311   4.214   5.971   2.781
 3804SOL    HW212312   4.327   5.879   2.856
 3805SOL     OW12313   2.783   2.458   0.048
 3805SOL    HW112314   2.767   2.480   0.144
 3805SOL    HW212315   2.871   2.495   0.019
 3806SOL     OW12316   3.432   4.542   1.451
 3806SOL    HW112317   3.433   4.445   1.426
 3806SOL    HW212318   3.502   4.560   1.520
 3807SOL     OW12319   1.947   4.188   4.594
 3807SOL    HW112320   1.890   4.169   4.675
 3807SOL    HW212321   1.923   4.125   4.521
 3808SOL     OW12322   3.392   6.997   6.281
 3808SOL    HW112323   3.478   7.008   6.230
 3808SOL    HW212324   3.333   0.050   6.263
 3809SOL     OW12325   5.185   2.262   1.366
 3809SOL    HW112326   5.284   2.277   1.368
 3809SOL    HW212327   5.161   2.214   1.281
 3810SOL     OW12328   5.846   2.332   2.041
 3810SOL    HW112329   5.894   2.305   2.124
 3810SOL    HW212330   5.796   2.253   2.004
 3811SOL     OW12331   0.388   5.424   5.364
 3811SOL    HW112332   0.384   5.431   5.264
 3811SOL    HW212333   0.472   5.375   5.391
 3812SOL     OW12334   5.056   6.191   1.402
 3812SOL    HW112335   5.013   6.235   1.322
 3812SOL    HW212336   5.152   6.220   1.408
 3813SOL     OW12337   6.173   4.314   0.174
 3813SOL    HW112338   6.228   4.256   0.233
 3813SOL    HW212339   6.194   4.294   0.078
 3814SOL     OW12340   6.942   0.397   4.899
 3814SOL    HW112341   6.901   0.371   4.987
 3814SOL    HW212342   6.957   0.315   4.844
 3815SOL     OW12343   6.495   3.637   5.756
 3815SOL    HW112344   6.546   3.575   5.815
 3815SOL    HW212345   6.397   3.628   5.775
 3816SOL     OW12346   0.394   5.836   6.958
 3816SOL    HW112347   0.390   5.850   6.859
 3816SOL    HW212348   0.416   5.923   7.003
 3817SOL     OW12349   5.189   4.088   1.615
 3817SOL    HW112350   5.151   4.000   1.588
 3817SOL    HW212351   5.220   4.084   1.710
 3818SOL     OW12352   5.985   6.993   3.151
 3818SOL    HW112353   5.989   0.038   3.223
 3818SOL    HW212354   6.020   0.006   3.066
 3819SOL     OW12355   6.908   4.384   3.912
 3819SOL    HW112356   6.865   4.297   3.938
 3819SOL    HW212357   6.860   4.422   3.833
 3820SOL     OW12358   4.544   0.095   4.707
 3820SOL    HW112359   4.486   0.120   4.629
 3820SOL    HW212360   4.487   0.086   4.789
 3821SOL     OW12361   1.609   0.476   0.157
 3821SOL    HW112362   1.518   0.444   0.184
 3821SOL    HW212363   1.618   0.469   0.057
 3822SOL     OW12364   4.761   0.915   1.715
 3822SOL    HW112365   4.795   0.821   1.716
 3822SOL    HW212366   4.668   0.917   1.678
 3823SOL     OW12367   4.559   5.995   6.930
 3823SOL    HW112368   4.513   5.984   6.842
 3823SOL    HW212369   4.605   5.910   6.955
 3824SOL     OW12370   2.258   3.099   6.968
 3824SOL    HW112371   2.201   3.019   6.984
 3824SOL    HW212372   2.288   3.138   0.029
 3825SOL     OW12373   1.264   3.925   5.504
 3825SOL    HW112374   1.247   3.929   5.603
 3825SOL    HW212375   1.356   3.959   5.486
 3826SOL     OW12376   5.857   4.061   3.416
 3826SOL    HW112377   5.811   4.087   3.332
 3826SOL    HW212378   5.954   4.085   3.411
 3827SOL     OW12379   1.207   1.330   1.719
 3827SOL    HW112380   1.246   1.238   1.709
 3827SOL    HW212381   1.218   1.381   1.634
 3828SOL     OW12382   3.970   3.964   3.971
 3828SOL    HW112383   3.902   3.980   3.899
 3828SOL    HW212384   4.008   4.051   4.000
 3829SOL     OW12385   0.971   3.623   2.642
 3829SOL    HW112386   0.970   3.589   2.736
 3829SOL    HW212387   0.906   3.698   2.633
 3830SOL     OW12388   6.472   1.504   4.345
 3830SOL    HW112389   6.388   1.455   4.366
 3830SOL    HW212390   6.489   1.501   4.246
 3831SOL     OW12391   4.333   1.810   3.318
 3831SOL    HW112392   4.308   1.845   3.227
 3831SOL    HW212393   4.254   1.816   3.378
 3832SOL     OW12394   6.609   0.692   3.754
 3832SOL    HW112395   6.655   0.666   3.669
 3832SOL    HW212396   6.534   0.755   3.733
 3833SOL     OW12397   0.477   1.746   5.798
 3833SOL    HW112398   0.502   1.707   5.887
 3833SOL    HW212399   0.560   1.766   5.746
 3834SOL     OW12400   4.609   4.127   0.281
 3834SOL    HW112401   4.590   4.128   0.379
 3834SOL    HW212402   4.555   4.054   0.238
 3835SOL     OW12403   4.277   5.510   4.484
 3835SOL    HW112404   4.212   5.586   4.477
 3835SOL    HW212405   4.232   5.432   4.528
 3836SOL     OW12406   0.434   6.361   5.609
 3836SOL    HW112407   0.425   6.264   5.586
 3836SOL    HW212408   0.384   6.416   5.541
 3837SOL     OW12409   4.334   4.837   5.169
 3837SOL    HW112410   4.362   4.880   5.255
 3837SOL    HW212411   4.270   4.896   5.121
 3838SOL     OW12412   1.015   1.337   3.666
 3838SOL    HW112413   1.002   1.356   3.569
 3838SOL    HW212414   1.109   1.309   3.683
 3839SOL     OW12415   3.902   0.527   3.288
 3839SOL    HW112416   3.807   0.528   3.317
 3839SOL    HW212417   3.959   0.488   3.361
 3840SOL     OW12418   2.305   1.213   6.787
 3840SOL    HW112419   2.261   1.207   6.697
 3840SOL    HW212420   2.298   1.125   6.834
 3841SOL     OW12421   6.123   4.206   4.153
 3841SOL    HW112422   6.026   4.192   4.136
 3841SOL    HW212423   6.155   4.285   4.101
 3842SOL     OW12424   2.129   2.976   5.186
 3842SOL    HW112425   2.050   2.966   5.125
 3842SOL    HW212426   2.213   2.980   5.132
 3843SOL     OW12427   5.348   2.568   6.936
 3843SOL    HW112428   5.418   2.500   6.911
 3843SOL    HW212429   5.295   2.535   7.014
 3844SOL     OW12430   1.102   6.004   0.265
 3844SOL    HW112431   1.048   5.947   0.327
 3844SOL    HW212432   1.187   6.031   0.310
 3845SOL     OW12433   1.835   6.079   0.674
 3845SOL    HW112434   1.805   6.021   0.598
 3845SOL    HW212435   1.927   6.052   0.703
 3846SOL     OW12436   1.100   2.883   3.532
 3846SOL    HW112437   1.076   2.900   3.437
 3846SOL    HW212438   1.199   2.877   3.541
 3847SOL     OW12439   6.756   1.092   6.251
 3847SOL    HW112440   6.839   1.037   6.256
 3847SOL    HW212441   6.715   1.083   6.160
 3848SOL     OW12442   5.367   3.695   2.355
 3848SOL    HW112443   5.439   3.642   2.400
 3848SOL    HW212444   5.324   3.639   2.284
 3849SOL     OW12445   6.848   5.681   6.910
 3849SOL    HW112446   6.774   5.730   6.864
 3849SOL    HW212447   6.918   5.746   6.939
 3850SOL     OW12448   2.743   2.377   1.298
 3850SOL    HW112449   2.788   2.305   1.244
 3850SOL    HW212450   2.762   2.362   1.395
 3851SOL     OW12451   0.377   5.893   2.736
 3851SOL    HW112452   0.420   5.893   2.826
 3851SOL    HW212453   0.368   5.987   2.703
 3852SOL     OW12454   3.314   6.007   5.488
 3852SOL    HW112455   3.226   5.988   5.443
 3852SOL    HW212456   3.346   5.924   5.534
 3853SOL     OW12457   2.591   0.867   3.790
 3853SOL    HW112458   2.580   0.906   3.699
 3853SOL    HW212459   2.687   0.844   3.804
 3854SOL     OW12460   1.937   2.634   2.855
 3854SOL    HW112461   1.961   2.697   2.781
 3854SOL    HW212462   1.838   2.617   2.853
 3855SOL     OW12463   3.842   0.108   0.675
 3855SOL    HW112464   3.784   0.111   0.757
 3855SOL    HW212465   3.852   0.200   0.638
 3856SOL     OW12466   0.756   1.588   6.424
 3856SOL    HW112467   0.667   1.588   6.470
 3856SOL    HW212468   0.791   1.682   6.420
 3857SOL     OW12469   2.044   1.219   5.354
 3857SOL    HW112470   2.122   1.223   5.292
 3857SOL    HW212471   2.002   1.309   5.360
 3858SOL     OW12472   4.252   1.063   4.772
 3858SOL    HW112473   4.224   1.070   4.676
 3858SOL    HW212474   4.315   0.986   4.783
 3859SOL     OW12475   5.669   0.455   1.640
 3859SOL    HW112476   5.607   0.439   1.563
 3859SOL    HW212477   5.619   0.441   1.726
 3860SOL     OW12478   1.263   0.566   4.421
 3860SOL    HW112479   1.334   0.529   4.362
 3860SOL    HW212480   1.174   0.532   4.391
 3861SOL     OW12481   4.258   5.676   2.048
 3861SOL    HW112482   4.312   5.739   1.992
 3861SOL    HW212483   4.255   5.708   2.142
 3862SOL     OW12484   1.058   6.765   3.537
 3862SOL    HW112485   1.090   6.674   3.563
 3862SOL    HW212486   0.962   6.775   3.563
 3863SOL     OW12487   4.590   0.578   0.701
 3863SOL    HW112488   4.664   0.581   0.634
 3863SOL    HW212489   4.549   0.487   0.700
 3864SOL     OW12490   2.604   0.355   4.422
 3864SOL    HW112491   2.621   0.418   4.498
 3864SOL    HW212492   2.636   0.397   4.337
 3865SOL     OW12493   3.794   0.597   0.064
 3865SOL    HW112494   3.721   0.530   0.055
 3865SOL    HW212495   3.759   0.679   0.111
 3866SOL     OW12496   2.581   2.590   6.915
 3866SOL    HW112497   2.607   2.663   6.852
 3866SOL    HW212498   2.663   2.545   6.950
 3867SOL     OW12499   0.776   3.842   2.630
 3867SOL    HW112500   0.677   3.840   2.635
 3867SOL    HW212501   0.812   3.903   2.700
 3868SOL     OW12502   3.672   1.113   6.565
 3868SOL    HW112503   3.723   1.043   6.614
 3868SOL    HW212504   3.584   1.076   6.535
 3869SOL     OW12505   6.392   3.183   3.205
 3869SOL    HW112506   6.398   3.094   3.250
 3869SOL    HW212507   6.409   3.172   3.107
 3870SOL     OW12508   6.329   0.558   3.477
 3870SOL    HW112509   6.295   0.464   3.467
 3870SOL    HW212510   6.309   0.591   3.569
 3871SOL     OW12511   3.362   5.410   3.786
 3871SOL    HW112512   3.389   5.497   3.746
 3871SOL    HW212513   3.376   5.337   3.720
 3872SOL     OW12514   3.422   3.409   4.292
 3872SOL    HW112515   3.357   3.350   4.244
 3872SOL    HW212516   3.503   3.356   4.316
 3873SOL     OW12517   4.501   2.292   0.643
 3873SOL    HW112518   4.556   2.361   0.597
 3873SOL    HW212519   4.524   2.202   0.606
 3874SOL     OW12520   3.860   0.398   0.566
 3874SOL    HW112521   3.832   0.427   0.658
 3874SOL    HW212522   3.919   0.468   0.526
 3875SOL     OW12523   1.279   2.233   5.331
 3875SOL    HW112524   1.233   2.300   5.389
 3875SOL    HW212525   1.234   2.229   5.242
 3876SOL     OW12526   4.303   6.364   1.461
 3876SOL    HW112527   4.280   6.460   1.442
 3876SOL    HW212528   4.389   6.341   1.415
 3877SOL     OW12529   0.003   2.278   0.575
 3877SOL    HW112530   6.956   2.210   0.573
 3877SOL    HW212531   0.039   2.292   0.482
 3878SOL     OW12532   4.248   6.851   3.986
 3878SOL    HW112533   4.279   6.776   4.045
 3878SOL    HW212534   4.148   6.849   3.979
 3879SOL     OW12535   4.933   5.089   6.899
 3879SOL    HW112536   4.863   5.056   6.835
 3879SOL    HW212537   4.904   5.176   6.938
 3880SOL     OW12538   5.253   4.511   4.419
 3880SOL    HW112539   5.344   4.530   4.454
 3880SOL    HW212540   5.236   4.565   4.336
 3881SOL     OW12541   1.441   3.880   0.200
 3881SOL    HW112542   1.526   3.922   0.168
 3881SOL    HW212543   1.439   3.784   0.173
 3882SOL     OW12544   0.861   1.421   0.496
 3882SOL    HW112545   0.864   1.447   0.593
 3882SOL    HW212546   0.802   1.486   0.447
 3883SOL     OW12547   4.523   6.035   3.503
 3883SOL    HW112548   4.558   6.113   3.556
 3883SOL    HW212549   4.550   6.045   3.407
 3884SOL     OW12550   1.395   5.693   3.439
 3884SOL    HW112551   1.331   5.746   3.496
 3884SOL    HW212552   1.369   5.703   3.343
 3885SOL     OW12553   5.583   6.968   3.095
 3885SOL    HW112554   5.599   6.893   3.031
 3885SOL    HW212555   5.635   0.023   3.066
 3886SOL     OW12556   3.930   6.624   5.675
 3886SOL    HW112557   3.858   6.674   5.723
 3886SOL    HW212558   3.894   6.536   5.645
 3887SOL     OW12559   0.365   6.186   1.487
 3887SOL    HW112560   0.402   6.275   1.515
 3887SOL    HW212561   0.270   6.178   1.517
 3888SOL     OW12562   6.240   6.157   4.461
 3888SOL    HW112563   6.227   6.205   4.374
 3888SOL    HW212564   6.227   6.059   4.447
 3889SOL     OW12565   6.329   3.051   0.092
 3889SOL    HW112566   6.401   3.083   0.153
 3889SOL    HW212567   6.289   2.967   0.128
 3890SOL     OW12568   5.660   4.094   4.621
 3890SOL    HW112569   5.625   4.165   4.560
 3890SOL    HW212570   5.587   4.064   4.682
 3891SOL     OW12571   5.658   4.729   4.117
 3891SOL    HW112572   5.563   4.753   4.135
 3891SOL    HW212573   5.711   4.734   4.202
 3892SOL     OW12574   0.060   2.457   1.374
 3892SOL    HW112575   0.062   2.524   1.448
 3892SOL    HW212576   0.088   2.500   1.288
 3893SOL     OW12577   4.507   3.349   1.507
 3893SOL    HW112578   4.476   3.359   1.412
 3893SOL    HW212579   4.459   3.414   1.565
 3894SOL     OW12580   5.000   0.165   6.608
 3894SOL    HW112581   4.925   0.224   6.638
 3894SOL    HW212582   5.058   0.143   6.686
 3895SOL     OW12583   1.590   6.824   5.423
 3895SOL    HW112584   1.663   6.759   5.400
 3895SOL    HW212585   1.576   6.886   5.346
 3896SOL     OW12586   0.680   0.633   0.179
 3896SOL    HW112587   0.703   0.668   0.270
 3896SOL    HW212588   0.734   0.551   0.160
 3897SOL     OW12589   4.572   5.853   2.185
 3897SOL    HW112590   4.524   5.858   2.273
 3897SOL    HW212591   4.664   5.890   2.196
 3898SOL     OW12592   3.830   2.423   6.378
 3898SOL    HW112593   3.758   2.425   6.447
 3898SOL    HW212594   3.811   2.349   6.312
 3899SOL     OW12595   4.611   0.248   5.914
 3899SOL    HW112596   4.694   0.278   5.867
 3899SOL    HW212597   4.632   0.227   6.009
 3900SOL     OW12598   5.308   3.656   3.635
 3900SOL    HW112599   5.219   3.653   3.681
 3900SOL    HW212600   5.302   3.609   3.548
 3901SOL     OW12601   2.663   0.530   6.452
 3901SOL    HW112602   2.694   0.566   6.540
 3901SOL    HW212603   2.668   0.602   6.383
 3902SOL     OW12604   5.960   3.294   2.507
 3902SOL    HW112605   6.058   3.305   2.528
 3902SOL    HW212606   5.950   3.251   2.418
 3903SOL     OW12607   3.587   6.383   6.839
 3903SOL    HW112608   3.568   6.287   6.860
 3903SOL    HW212609   3.605   6.433   6.923
 3904SOL     OW12610   0.700   0.539   6.668
 3904SOL    HW112611   0.651   0.487   6.598
 3904SOL    HW212612   0.736   0.623   6.628
 3905SOL     OW12613   0.050   6.417   6.043
 3905SOL    HW112614   0.069   6.487   5.975
 3905SOL    HW212615   0.044   6.459   6.134
 3906SOL     OW12616   5.913   6.121   5.247
 3906SOL    HW112617   5.824   6.140   5.205
 3906SOL    HW212618   5.971   6.201   5.240
 3907SOL     OW12619   6.169   2.037   3.277
 3907SOL    HW112620   6.196   2.130   3.250
 3907SOL    HW212621   6.093   2.042   3.342
 3908SOL     OW12622   0.772   2.383   6.781
 3908SOL    HW112623   0.715   2.327   6.842
 3908SOL    HW212624   0.763   2.350   6.687
 3909SOL     OW12625   4.857   5.666   4.858
 3909SOL    HW112626   4.926   5.638   4.791
 3909SOL    HW212627   4.901   5.687   4.945
 3910SOL     OW12628   3.194   3.777   2.347
 3910SOL    HW112629   3.095   3.784   2.349
 3910SOL    HW212630   3.234   3.869   2.343
 3911SOL     OW12631   5.967   1.775   4.837
 3911SOL    HW112632   5.930   1.815   4.920
 3911SOL    HW212633   6.065   1.795   4.831
 3912SOL     OW12634   5.621   1.978   5.333
 3912SOL    HW112635   5.548   1.960   5.267
 3912SOL    HW212636   5.710   1.969   5.288
 3913SOL     OW12637   1.157   6.871   6.373
 3913SOL    HW112638   1.250   6.836   6.376
 3913SOL    HW212639   1.157   6.965   6.339
 3914SOL     OW12640   2.886   0.031   0.050
 3914SOL    HW112641   2.901   7.001   6.993
 3914SOL    HW212642   2.969   0.085   0.069
 3915SOL     OW12643   5.097   5.031   1.079
 3915SOL    HW112644   5.014   5.080   1.104
 3915SOL    HW212645   5.140   5.075   1.000
 3916SOL     OW12646   0.944   6.994   2.524
 3916SOL    HW112647   1.018   0.035   2.532
 3916SOL    HW212648   0.924   6.956   2.615
 3917SOL     OW12649   1.307   6.966   0.153
 3917SOL    HW112650   1.256   0.000   0.091
 3917SOL    HW212651   1.377   6.916   0.101
 3918SOL     OW12652   5.191   4.510   1.463
 3918SOL    HW112653   5.279   4.498   1.508
 3918SOL    HW212654   5.138   4.425   1.469
 3919SOL     OW12655   3.976   6.965   0.474
 3919SOL    HW112656   3.966   0.026   0.524
 3919SOL    HW212657   3.950   6.889   0.534
 3920SOL     OW12658   2.358   3.060   0.302
 3920SOL    HW112659   2.306   2.976   0.317
 3920SOL    HW212660   2.455   3.038   0.292
 3921SOL     OW12661   0.802   3.904   1.485
 3921SOL    HW112662   0.821   3.975   1.553
 3921SOL    HW212663   0.730   3.936   1.423
 3922SOL     OW12664   0.226   3.742   1.850
 3922SOL    HW112665   0.213   3.819   1.913
 3922SOL    HW212666   0.137   3.704   1.825
 3923SOL     OW12667   0.637   0.738   0.460
 3923SOL    HW112668   0.580   0.656   0.457
 3923SOL    HW212669   0.729   0.715   0.492
 3924SOL     OW12670   5.937   4.709   4.238
 3924SOL    HW112671   5.982   4.730   4.151
 3924SOL    HW212672   5.920   4.611   4.244
 3925SOL     OW12673   1.393   4.773   1.888
 3925SOL    HW112674   1.334   4.852   1.904
 3925SOL    HW212675   1.488   4.803   1.878
 3926SOL     OW12676   4.417   4.577   2.336
 3926SOL    HW112677   4.318   4.588   2.344
 3926SOL    HW212678   4.462   4.665   2.353
 3927SOL     OW12679   6.720   2.974   6.112
 3927SOL    HW112680   6.734   2.927   6.199
 3927SOL    HW212681   6.677   2.912   6.047
 3928SOL     OW12682   4.623   6.117   0.170
 3928SOL    HW112683   4.536   6.082   0.135
 3928SOL    HW212684   4.677   6.153   0.094
 3929SOL     OW12685   1.008   0.159   4.867
 3929SOL    HW112686   1.045   0.239   4.819
 3929SOL    HW212687   1.080   0.115   4.920
 3930SOL     OW12688   2.417   1.920   3.889
 3930SOL    HW112689   2.510   1.933   3.852
 3930SOL    HW212690   2.416   1.840   3.947
 3931SOL     OW12691   0.533   1.570   1.797
 3931SOL    HW112692   0.507   1.628   1.874
 3931SOL    HW212693   0.546   1.625   1.715
 3932SOL     OW12694   0.350   3.140   4.454
 3932SOL    HW112695   0.301   3.054   4.440
 3932SOL    HW212696   0.368   3.183   4.365
 3933SOL     OW12697   1.817   0.109   6.107
 3933SOL    HW112698   1.915   0.108   6.126
 3933SOL    HW212699   1.796   0.038   6.039
 3934SOL     OW12700   5.816   0.227   5.804
 3934SOL    HW112701   5.848   0.320   5.785
 3934SOL    HW212702   5.894   0.164   5.799
 3935SOL     OW12703   3.547   0.392   0.946
 3935SOL    HW112704   3.453   0.359   0.946
 3935SOL    HW212705   3.593   0.361   1.030
 3936SOL     OW12706   6.706   5.880   4.548
 3936SOL    HW112707   6.674   5.907   4.639
 3936SOL    HW212708   6.778   5.811   4.558
 3937SOL     OW12709   0.399   1.731   2.549
 3937SOL    HW112710   0.367   1.818   2.586
 3937SOL    HW212711   0.407   1.664   2.624
 3938SOL     OW12712   0.387   1.571   3.085
 3938SOL    HW112713   0.451   1.646   3.102
 3938SOL    HW212714   0.298   1.593   3.126
 3939SOL     OW12715   2.857   1.865   2.568
 3939SOL    HW112716   2.850   1.820   2.478
 3939SOL    HW212717   2.954   1.879   2.590
 3940SOL     OW12718   4.103   3.332   1.540
 3940SOL    HW112719   4.050   3.247   1.539
 3940SOL    HW212720   4.183   3.320   1.598
 3941SOL     OW12721   4.678   5.001   6.048
 3941SOL    HW112722   4.686   4.946   6.132
 3941SOL    HW212723   4.716   5.092   6.063
 3942SOL     OW12724   6.549   6.609   0.015
 3942SOL    HW112725   6.641   6.616   7.001
 3942SOL    HW212726   6.553   6.555   0.100
 3943SOL     OW12727   0.584   3.099   4.613
 3943SOL    HW112728   0.629   3.188   4.614
 3943SOL    HW212729   0.487   3.110   4.590
 3944SOL     OW12730   4.673   2.517   4.887
 3944SOL    HW112731   4.607   2.497   4.814
 3944SOL    HW212732   4.723   2.600   4.864
 3945SOL     OW12733   6.887   1.601   0.708
 3945SOL    HW112734   6.965   1.602   0.770
 3945SOL    HW212735   6.893   1.678   0.645
 3946SOL     OW12736   4.871   4.604   4.023
 3946SOL    HW112737   4.801   4.573   4.087
 3946SOL    HW212738   4.958   4.559   4.044
 3947SOL     OW12739   4.469   6.368   0.382
 3947SOL    HW112740   4.428   6.278   0.400
 3947SOL    HW212741   4.504   6.371   0.289
 3948SOL     OW12742   6.541   4.068   1.560
 3948SOL    HW112743   6.517   4.151   1.610
 3948SOL    HW212744   6.640   4.057   1.559
 3949SOL     OW12745   4.819   5.555   3.135
 3949SOL    HW112746   4.722   5.573   3.118
 3949SOL    HW212747   4.866   5.642   3.149
 3950SOL     OW12748   1.486   5.514   1.253
 3950SOL    HW112749   1.495   5.416   1.233
 3950SOL    HW212750   1.529   5.567   1.180
 3951SOL     OW12751   4.785   0.573   1.495
 3951SOL    HW112752   4.713   0.610   1.438
 3951SOL    HW212753   4.765   0.591   1.591
 3952SOL     OW12754   0.171   2.595   1.166
 3952SOL    HW112755   0.106   2.623   1.095
 3952SOL    HW212756   0.249   2.548   1.123
 3953SOL     OW12757   3.731   3.389   1.901
 3953SOL    HW112758   3.774   3.305   1.934
 3953SOL    HW212759   3.790   3.432   1.833
 3954SOL     OW12760   4.162   5.519   5.422
 3954SOL    HW112761   4.240   5.470   5.383
 3954SOL    HW212762   4.096   5.452   5.457
 3955SOL     OW12763   3.560   1.995   5.593
 3955SOL    HW112764   3.607   1.972   5.508
 3955SOL    HW212765   3.466   2.021   5.574
 3956SOL     OW12766   1.499   0.906   2.468
 3956SOL    HW112767   1.507   0.913   2.568
 3956SOL    HW212768   1.573   0.850   2.432
 3957SOL     OW12769   4.044   6.948   4.581
 3957SOL    HW112770   4.016   0.007   4.535
 3957SOL    HW212771   4.067   6.879   4.512
 3958SOL     OW12772   6.158   2.600   4.208
 3958SOL    HW112773   6.189   2.672   4.146
 3958SOL    HW212774   6.068   2.568   4.179
 3959SOL     OW12775   5.057   5.045   0.215
 3959SOL    HW112776   4.993   5.122   0.222
 3959SOL    HW212777   5.055   4.993   0.300
 3960SOL     OW12778   5.487   1.678   5.022
 3960SOL    HW112779   5.418   1.749   5.037
 3960SOL    HW212780   5.479   1.642   4.929
 3961SOL     OW12781   5.313   0.700   3.331
 3961SOL    HW112782   5.275   0.696   3.423
 3961SOL    HW212783   5.408   0.730   3.335
 3962SOL     OW12784   0.761   5.078   6.006
 3962SOL    HW112785   0.772   5.136   6.086
 3962SOL    HW212786   0.665   5.076   5.979
 3963SOL     OW12787   5.165   6.091   2.066
 3963SOL    HW112788   5.193   6.098   1.971
 3963SOL    HW212789   5.094   6.021   2.074
 3964SOL     OW12790   4.810   4.357   3.249
 3964SOL    HW112791   4.736   4.383   3.188
 3964SOL    HW212792   4.879   4.306   3.198
 3965SOL     OW12793   5.134   3.685   4.315
 3965SOL    HW112794   5.176   3.600   4.348
 3965SOL    HW212795   5.187   3.720   4.238
 3966SOL     OW12796   3.738   5.892   0.018
 3966SOL    HW112797   3.741   5.894   6.944
 3966SOL    HW212798   3.711   5.801   0.049
 3967SOL     OW12799   2.454   4.222   1.283
 3967SOL    HW112800   2.396   4.152   1.323
 3967SOL    HW212801   2.541   4.225   1.332
 3968SOL     OW12802   4.463   0.346   0.650
 3968SOL    HW112803   4.375   0.394   0.639
 3968SOL    HW212804   4.445   0.251   0.676
 3969SOL     OW12805   1.283   5.604   1.813
 3969SOL    HW112806   1.348   5.617   1.737
 3969SOL    HW212807   1.201   5.659   1.796
 3970SOL     OW12808   6.006   5.789   2.270
 3970SOL    HW112809   5.930   5.829   2.218
 3970SOL    HW212810   5.978   5.777   2.366
 3971SOL     OW12811   2.501   6.018   4.098
 3971SOL    HW112812   2.541   5.952   4.033
 3971SOL    HW212813   2.549   6.105   4.091
 3972SOL     OW12814   1.243   3.779   6.263
 3972SOL    HW112815   1.236   3.760   6.361
 3972SOL    HW212816   1.192   3.863   6.242
 3973SOL     OW12817   1.081   5.844   0.923
 3973SOL    HW112818   1.027   5.780   0.869
 3973SOL    HW212819   1.160   5.796   0.963
 3974SOL     OW12820   1.561   0.740   6.273
 3974SOL    HW112821   1.599   0.754   6.365
 3974SOL    HW212822   1.632   0.705   6.212
 3975SOL     OW12823   5.062   1.990   6.057
 3975SOL    HW112824   5.020   1.963   6.145
 3975SOL    HW212825   5.138   1.928   6.037
 3976SOL     OW12826   1.761   6.167   2.511
 3976SOL    HW112827   1.841   6.174   2.570
 3976SOL    HW212828   1.729   6.072   2.509
 3977SOL     OW12829   1.240   3.810   6.573
 3977SOL    HW112830   1.178   3.754   6.627
 3977SOL    HW212831   1.335   3.788   6.596
 3978SOL     OW12832   6.777   4.867   3.241
 3978SOL    HW112833   6.834   4.789   3.265
 3978SOL    HW212834   6.687   4.857   3.283
 3979SOL     OW12835   3.637   0.932   6.343
 3979SOL    HW112836   3.641   1.005   6.275
 3979SOL    HW212837   3.729   0.911   6.376
 3980SOL     OW12838   6.271   6.464   6.587
 3980SOL    HW112839   6.235   6.373   6.565
 3980SOL    HW212840   6.342   6.489   6.522
 3981SOL     OW12841   4.701   6.030   0.667
 3981SOL    HW112842   4.695   5.978   0.752
 3981SOL    HW212843   4.659   6.120   0.682
 3982SOL     OW12844   2.366   6.872   2.190
 3982SOL    HW112845   2.431   6.916   2.128
 3982SOL    HW212846   2.292   6.937   2.212
 3983SOL     OW12847   4.815   5.433   3.748
 3983SOL    HW112848   4.891   5.387   3.702
 3983SOL    HW212849   4.749   5.364   3.778
 3984SOL     OW12850   6.202   1.641   2.846
 3984SOL    HW112851   6.179   1.734   2.816
 3984SOL    HW212852   6.268   1.646   2.921
 3985SOL     OW12853   3.691   5.445   6.656
 3985SOL    HW112854   3.633   5.520   6.688
 3985SOL    HW212855   3.720   5.389   6.733
 3986SOL     OW12856   4.803   1.567   2.995
 3986SOL    HW112857   4.768   1.612   3.077
 3986SOL    HW212858   4.866   1.629   2.948
 3987SOL     OW12859   3.498   5.053   4.543
 3987SOL    HW112860   3.414   5.010   4.578
 3987SOL    HW212861   3.503   5.040   4.444
 3988SOL     OW12862   4.045   5.660   0.599
 3988SOL    HW112863   4.041   5.701   0.507
 3988SOL    HW212864   4.138   5.631   0.618
 3989SOL     OW12865   6.148   2.100   0.325
 3989SOL    HW112866   6.198   2.016   0.303
 3989SOL    HW212867   6.175   2.173   0.262
 3990SOL     OW12868   5.219   2.107   1.597
 3990SOL    HW112869   5.196   2.169   1.522
 3990SOL    HW212870   5.317   2.087   1.595
 3991SOL     OW12871   0.843   1.331   2.477
 3991SOL    HW112872   0.919   1.289   2.527
 3991SOL    HW212873   0.806   1.265   2.412
 3992SOL     OW12874   3.348   1.754   0.653
 3992SOL    HW112875   3.335   1.655   0.661
 3992SOL    HW212876   3.356   1.794   0.745
 3993SOL     OW12877   1.214   3.183   1.991
 3993SOL    HW112878   1.124   3.190   2.034
 3993SOL    HW212879   1.247   3.089   1.997
 3994SOL     OW12880   2.614   6.935   4.806
 3994SOL    HW112881   2.557   6.883   4.743
 3994SOL    HW212882   2.707   6.898   4.803
 3995SOL     OW12883   1.860   3.372   5.554
 3995SOL    HW112884   1.792   3.439   5.585
 3995SOL    HW212885   1.842   3.350   5.458
 3996SOL     OW12886   6.868   6.803   5.325
 3996SOL    HW112887   6.771   6.779   5.321
 3996SOL    HW212888   6.918   6.749   5.257
 3997SOL     OW12889   5.453   1.316   4.143
 3997SOL    HW112890   5.465   1.299   4.241
 3997SOL    HW212891   5.543   1.332   4.101
 3998SOL     OW12892   3.706   2.145   3.951
 3998SOL    HW112893   3.613   2.145   3.987
 3998SOL    HW212894   3.743   2.052   3.954
 3999SOL     OW12895   6.148   2.559   4.478
 3999SOL    HW112896   6.243   2.580   4.503
 3999SOL    HW212897   6.131   2.591   4.384
 4000SOL     OW12898   3.401   6.667   3.869
 4000SOL    HW112899   3.324   6.640   3.812
 4000SOL    HW212900   3.425   6.592   3.931
 4001SOL     OW12901   1.945   2.018   3.863
 4001SOL    HW112902   1.942   2.090   3.932
 4001SOL    HW212903   2.030   2.025   3.811
 4002SOL     OW12904   2.461   3.609   1.672
 4002SOL    HW112905   2.463   3.693   1.726
 4002SOL    HW212906   2.427   3.534   1.728
 4003SOL     OW12907   3.311   0.049   4.644
 4003SOL    HW112908   3.394   0.005   4.678
 4003SOL    HW212909   3.334   0.103   4.562
 4004SOL     OW12910   6.961   2.458   5.025
 4004SOL    HW112911   6.991   2.502   4.940
 4004SOL    HW212912   6.929   2.365   5.005
 4005SOL     OW12913   4.633   6.231   6.804
 4005SOL    HW112914   4.617   6.156   6.868
 4005SOL    HW212915   4.548   6.253   6.755
 4006SOL     OW12916   3.932   5.244   2.412
 4006SOL    HW112917   3.996   5.206   2.478
 4006SOL    HW212918   3.849   5.275   2.459
 4007SOL     OW12919   6.976   2.771   0.084
 4007SOL    HW112920   6.978   2.866   0.113
 4007SOL    HW212921   6.951   2.766   7.013
 4008SOL     OW12922   2.667   2.315   4.589
 4008SOL    HW112923   2.755   2.283   4.555
 4008SOL    HW212924   2.668   2.314   4.689
 4009SOL     OW12925   3.907   3.722   2.195
 4009SOL    HW112926   3.816   3.681   2.188
 4009SOL    HW212927   3.976   3.650   2.197
 4010SOL     OW12928   2.794   3.159   0.642
 4010SOL    HW112929   2.763   3.066   0.621
 4010SOL    HW212930   2.715   3.220   0.651
 4011SOL     OW12931   0.950   2.076   1.622
 4011SOL    HW112932   0.957   2.091   1.721
 4011SOL    HW212933   1.018   2.133   1.576
 4012SOL     OW12934   6.742   3.843   2.660
 4012SOL    HW112935   6.719   3.756   2.702
 4012SOL    HW212936   6.842   3.850   2.651
 4013SOL     OW12937   4.513   2.329   4.160
 4013SOL    HW112938   4.445   2.289   4.098
 4013SOL    HW212939   4.520   2.273   4.242
 4014SOL     OW12940   5.868   6.160   2.956
 4014SOL    HW112941   5.806   6.081   2.955
 4014SOL    HW212942   5.875   6.195   3.050
 4015SOL     OW12943   4.915   4.224   5.441
 4015SOL    HW112944   4.885   4.310   5.399
 4015SOL    HW212945   5.008   4.234   5.476
 4016SOL     OW12946   3.153   6.014   6.465
 4016SOL    HW112947   3.198   6.103   6.464
 4016SOL    HW212948   3.062   6.023   6.424
 4017SOL     OW12949   6.663   5.874   6.823
 4017SOL    HW112950   6.646   5.959   6.774
 4017SOL    HW212951   6.695   5.895   6.916
 4018SOL     OW12952   4.173   5.959   1.295
 4018SOL    HW112953   4.128   5.875   1.324
 4018SOL    HW212954   4.131   6.037   1.342
 4019SOL     OW12955   5.227   4.668   3.811
 4019SOL    HW112956   5.282   4.747   3.838
 4019SOL    HW212957   5.136   4.676   3.851
 4020SOL     OW12958   5.560   2.542   5.816
 4020SOL    HW112959   5.509   2.576   5.737
 4020SOL    HW212960   5.515   2.461   5.854
 4021SOL     OW12961   3.408   4.631   5.606
 4021SOL    HW112962   3.368   4.703   5.663
 4021SOL    HW212963   3.391   4.542   5.647
 4022SOL     OW12964   5.393   0.605   0.583
 4022SOL    HW112965   5.412   0.686   0.529
 4022SOL    HW212966   5.348   0.631   0.669
 4023SOL     OW12967   6.026   1.087   5.201
 4023SOL    HW112968   5.937   1.111   5.163
 4023SOL    HW212969   6.089   1.063   5.127
 4024SOL     OW12970   4.284   4.686   3.904
 4024SOL    HW112971   4.382   4.667   3.912
 4024SOL    HW212972   4.243   4.691   3.996
 4025SOL     OW12973   0.337   4.136   3.539
 4025SOL    HW112974   0.313   4.233   3.534
 4025SOL    HW212975   0.428   4.126   3.579
 4026SOL     OW12976   5.147   6.203   4.271
 4026SOL    HW112977   5.090   6.259   4.330
 4026SOL    HW212978   5.157   6.112   4.310
 4027SOL     OW12979   4.133   5.463   1.926
 4027SOL    HW112980   4.181   5.376   1.938
 4027SOL    HW212981   4.193   5.538   1.954
 4028SOL     OW12982   2.095   1.217   4.202
 4028SOL    HW112983   2.072   1.188   4.109
 4028SOL    HW212984   2.016   1.204   4.261
 4029SOL     OW12985   1.711   4.661   4.751
 4029SOL    HW112986   1.723   4.751   4.792
 4029SOL    HW212987   1.660   4.602   4.814
 4030SOL     OW12988   0.255   2.419   5.662
 4030SOL    HW112989   0.183   2.455   5.721
 4030SOL    HW212990   0.265   2.477   5.581
 4031SOL     OW12991   4.099   5.602   3.732
 4031SOL    HW112992   4.154   5.679   3.766
 4031SOL    HW212993   4.121   5.520   3.783
 4032SOL     OW12994   4.870   0.317   4.535
 4032SOL    HW112995   4.956   0.266   4.537
 4032SOL    HW212996   4.819   0.300   4.620
 4033SOL     OW12997   2.972   3.801   5.620
 4033SOL    HW112998   3.033   3.724   5.601
 4033SOL    HW212999   2.984   3.830   5.715
 4034SOL     OW13000   0.012   2.400   3.850
 4034SOL    HW113001   7.020   2.446   3.762
 4034SOL    HW213002   6.953   2.357   3.882
 4035SOL     OW13003   6.839   4.383   0.537
 4035SOL    HW113004   6.891   4.359   0.455
 4035SOL    HW213005   6.762   4.441   0.512
 4036SOL     OW13006   6.859   0.139   2.850
 4036SOL    HW113007   6.762   0.149   2.875
 4036SOL    HW213008   6.906   0.086   2.920
 4037SOL     OW13009   0.387   3.996   0.126
 4037SOL    HW113010   0.326   3.967   0.052
 4037SOL    HW213011   0.352   4.080   0.167
 4038SOL     OW13012   5.774   4.910   3.949
 4038SOL    HW113013   5.708   4.859   4.004
 4038SOL    HW213014   5.764   4.884   3.853
 4039SOL     OW13015   4.694   6.255   1.114
 4039SOL    HW113016   4.665   6.338   1.066
 4039SOL    HW213017   4.672   6.175   1.057
 4040SOL     OW13018   3.828   6.032   1.647
 4040SOL    HW113019   3.914   6.083   1.656
 4040SOL    HW213020   3.821   5.996   1.554
 4041SOL     OW13021   1.407   6.650   4.161
 4041SOL    HW113022   1.503   6.674   4.177
 4041SOL    HW213023   1.391   6.643   4.063
 4042SOL     OW13024   6.143   5.297   1.738
 4042SOL    HW113025   6.075   5.352   1.689
 4042SOL    HW213026   6.121   5.296   1.835
 4043SOL     OW13027   6.317   2.677   1.086
 4043SOL    HW113028   6.264   2.699   1.168
 4043SOL    HW213029   6.259   2.684   1.005
 4044SOL     OW13030   6.758   5.877   3.725
 4044SOL    HW113031   6.682   5.814   3.740
 4044SOL    HW213032   6.795   5.862   3.633
 4045SOL     OW13033   2.629   6.194   5.865
 4045SOL    HW113034   2.556   6.138   5.905
 4045SOL    HW213035   2.590   6.253   5.794
 4046SOL     OW13036   1.444   3.145   1.265
 4046SOL    HW113037   1.476   3.165   1.358
 4046SOL    HW213038   1.368   3.080   1.269
 4047SOL     OW13039   2.739   3.852   0.951
 4047SOL    HW113040   2.765   3.948   0.945
 4047SOL    HW213041   2.796   3.797   0.890
 4048SOL     OW13042   5.752   1.069   1.296
 4048SOL    HW113043   5.757   0.972   1.317
 4048SOL    HW213044   5.719   1.119   1.376
 4049SOL     OW13045   5.742   0.692   4.694
 4049SOL    HW113046   5.742   0.728   4.601
 4049SOL    HW213047   5.789   0.756   4.755
 4050SOL     OW13048   2.962   0.207   0.757
 4050SOL    HW113049   2.866   0.184   0.739
 4050SOL    HW213050   2.967   0.283   0.821
 4051SOL     OW13051   2.869   3.964   0.588
 4051SOL    HW113052   2.921   3.884   0.558
 4051SOL    HW213053   2.777   3.935   0.617
 4052SOL     OW13054   1.224   6.382   1.353
 4052SOL    HW113055   1.164   6.458   1.377
 4052SOL    HW213056   1.177   6.295   1.371
 4053SOL     OW13057   3.647   4.912   3.643
 4053SOL    HW113058   3.697   4.878   3.562
 4053SOL    HW213059   3.712   4.925   3.718
 4054SOL     OW13060   5.254   2.172   0.734
 4054SOL    HW113061   5.328   2.209   0.791
 4054SOL    HW213062   5.175   2.152   0.791
 4055SOL     OW13063   3.259   2.097   0.266
 4055SOL    HW113064   3.355   2.084   0.290
 4055SOL    HW213065   3.202   2.069   0.343
 4056SOL     OW13066   4.061   3.481   0.587
 4056SOL    HW113067   4.097   3.412   0.650
 4056SOL    HW213068   3.973   3.515   0.622
 4057SOL     OW13069   5.315   2.528   6.386
 4057SOL    HW113070   5.307   2.538   6.485
 4057SOL    HW213071   5.368   2.446   6.365
 4058SOL     OW13072   0.625   0.293   4.469
 4058SOL    HW113073   0.666   0.369   4.519
 4058SOL    HW213074   0.633   0.209   4.524
 4059SOL     OW13075   0.053   2.022   4.712
 4059SOL    HW113076   0.139   2.030   4.763
 4059SOL    HW213077   0.029   2.111   4.673
 4060SOL     OW13078   4.649   5.619   3.581
 4060SOL    HW113079   4.685   5.547   3.641
 4060SOL    HW213080   4.627   5.700   3.635
 4061SOL     OW13081   2.929   3.223   1.382
 4061SOL    HW113082   2.839   3.263   1.363
 4061SOL    HW213083   2.933   3.131   1.344
 4062SOL     OW13084   2.511   6.845   2.958
 4062SOL    HW113085   2.426   6.816   2.915
 4062SOL    HW213086   2.589   6.813   2.904
 4063SOL     OW13087   3.080   5.355   5.882
 4063SOL    HW113088   3.093   5.259   5.857
 4063SOL    HW213089   3.051   5.407   5.802
 4064SOL     OW13090   6.712   6.891   4.046
 4064SOL    HW113091   6.797   6.941   4.062
 4064SOL    HW213092   6.664   6.931   3.968
 4065SOL     OW13093   6.082   4.992   6.911
 4065SOL    HW113094   6.047   4.954   6.997
 4065SOL    HW213095   6.134   5.075   6.930
 4066SOL     OW13096   6.184   5.025   1.725
 4066SOL    HW113097   6.090   4.993   1.727
 4066SOL    HW213098   6.185   5.125   1.715
 4067SOL     OW13099   6.305   0.987   1.864
 4067SOL    HW113100   6.361   0.970   1.784
 4067SOL    HW213101   6.218   1.028   1.837
 4068SOL     OW13102   6.125   0.808   3.599
 4068SOL    HW113103   6.170   0.882   3.648
 4068SOL    HW213104   6.152   0.720   3.638
 4069SOL     OW13105   6.878   5.547   1.212
 4069SOL    HW113106   6.844   5.525   1.303
 4069SOL    HW213107   6.953   5.612   1.219
 4070SOL     OW13108   0.758   3.423   2.947
 4070SOL    HW113109   0.711   3.437   2.860
 4070SOL    HW213110   0.711   3.353   2.999
 4071SOL     OW13111   1.875   7.025   3.931
 4071SOL    HW113112   1.827   0.056   3.998
 4071SOL    HW213113   1.974   0.014   3.940
 4072SOL     OW13114   0.688   0.718   4.217
 4072SOL    HW113115   0.698   0.659   4.138
 4072SOL    HW213116   0.742   0.802   4.203
 4073SOL     OW13117   2.183   4.887   0.738
 4073SOL    HW113118   2.281   4.876   0.754
 4073SOL    HW213119   2.134   4.878   0.825
 4074SOL     OW13120   1.532   2.650   0.785
 4074SOL    HW113121   1.508   2.555   0.806
 4074SOL    HW213122   1.577   2.654   0.696
 4075SOL     OW13123   5.303   0.842   3.899
 4075SOL    HW113124   5.361   0.869   3.822
 4075SOL    HW213125   5.207   0.845   3.872
 4076SOL     OW13126   1.620   2.612   3.756
 4076SOL    HW113127   1.586   2.535   3.811
 4076SOL    HW213128   1.592   2.599   3.661
 4077SOL     OW13129   2.724   1.726   0.943
 4077SOL    HW113130   2.794   1.662   0.912
 4077SOL    HW213131   2.635   1.701   0.903
 4078SOL     OW13132   5.506   4.124   2.302
 4078SOL    HW113133   5.483   4.132   2.399
 4078SOL    HW213134   5.447   4.184   2.248
 4079SOL     OW13135   0.413   1.062   3.827
 4079SOL    HW113136   0.373   1.036   3.739
 4079SOL    HW213137   0.342   1.102   3.885
 4080SOL     OW13138   3.886   2.988   2.575
 4080SOL    HW113139   3.940   3.072   2.581
 4080SOL    HW213140   3.881   2.958   2.480
 4081SOL     OW13141   2.110   2.475   6.404
 4081SOL    HW113142   2.031   2.528   6.435
 4081SOL    HW213143   2.153   2.522   6.327
 4082SOL     OW13144   1.196   2.708   5.632
 4082SOL    HW113145   1.272   2.669   5.685
 4082SOL    HW213146   1.212   2.806   5.619
 4083SOL     OW13147   5.753   4.590   3.119
 4083SOL    HW113148   5.674   4.539   3.153
 4083SOL    HW213149   5.826   4.588   3.187
 4084SOL     OW13150   4.739   0.256   3.198
 4084SOL    HW113151   4.750   0.216   3.289
 4084SOL    HW213152   4.765   0.352   3.199
 4085SOL     OW13153   3.978   4.830   2.318
 4085SOL    HW113154   3.888   4.839   2.361
 4085SOL    HW213155   4.039   4.781   2.380
 4086SOL     OW13156   6.190   4.976   6.072
 4086SOL    HW113157   6.262   4.996   6.139
 4086SOL    HW213158   6.112   4.934   6.119
 4087SOL     OW13159   2.289   0.504   2.153
 4087SOL    HW113160   2.293   0.407   2.129
 4087SOL    HW213161   2.347   0.521   2.233
 4088SOL     OW13162   0.404   1.789   5.016
 4088SOL    HW113163   0.333   1.764   4.949
 4088SOL    HW213164   0.490   1.745   4.992
 4089SOL     OW13165   1.017   0.364   3.233
 4089SOL    HW113166   1.023   0.431   3.307
 4089SOL    HW213167   0.949   0.394   3.166
 4090SOL     OW13168   2.699   1.758   5.917
 4090SOL    HW113169   2.720   1.732   6.011
 4090SOL    HW213170   2.711   1.679   5.857
 4091SOL     OW13171   3.470   5.995   1.217
 4091SOL    HW113172   3.541   6.058   1.248
 4091SOL    HW213173   3.479   5.908   1.265
 4092SOL     OW13174   5.780   2.991   4.125
 4092SOL    HW113175   5.721   3.068   4.151
 4092SOL    HW213176   5.830   2.959   4.205
 4093SOL     OW13177   5.464   4.505   4.030
 4093SOL    HW113178   5.464   4.599   4.064
 4093SOL    HW213179   5.475   4.506   3.930
 4094SOL     OW13180   6.749   5.920   0.069
 4094SOL    HW113181   6.679   5.849   0.079
 4094SOL    HW213182   6.786   5.944   0.159
 4095SOL     OW13183   1.051   5.190   0.135
 4095SOL    HW113184   0.984   5.149   0.073
 4095SOL    HW213185   1.082   5.277   0.097
 4096SOL     OW13186   0.460   0.809   6.826
 4096SOL    HW113187   0.433   0.713   6.813
 4096SOL    HW213188   0.478   0.850   6.737
 4097SOL     OW13189   6.443   4.605   4.926
 4097SOL    HW113190   6.519   4.607   4.991
 4097SOL    HW213191   6.409   4.511   4.919
 4098SOL     OW13192   1.934   4.145   2.681
 4098SOL    HW113193   1.886   4.064   2.715
 4098SOL    HW213194   1.867   4.216   2.658
 4099SOL     OW13195   4.788   4.128   6.433
 4099SOL    HW113196   4.740   4.212   6.460
 4099SOL    HW213197   4.733   4.079   6.365
 4100SOL     OW13198   1.396   0.921   4.237
 4100SOL    HW113199   1.440   0.832   4.233
 4100SOL    HW213200   1.371   0.942   4.331
 4101SOL     OW13201   6.620   5.701   0.173
 4101SOL    HW113202   6.520   5.700   0.165
 4101SOL    HW213203   6.652   5.613   0.207
 4102SOL     OW13204   1.617   0.101   6.902
 4102SOL    HW113205   1.547   0.160   6.943
 4102SOL    HW213206   1.667   0.152   6.833
 4103SOL     OW13207   1.929   6.511   3.866
 4103SOL    HW113208   1.953   6.607   3.852
 4103SOL    HW213209   1.992   6.452   3.815
 4104SOL     OW13210   1.916   5.652   4.495
 4104SOL    HW113211   1.835   5.602   4.464
 4104SOL    HW213212   1.961   5.601   4.568
 4105SOL     OW13213   4.767   0.612   1.758
 4105SOL    HW113214   4.782   0.525   1.806
 4105SOL    HW213215   4.855   0.654   1.736
 4106SOL     OW13216   1.029   0.862   2.999
 4106SOL    HW113217   1.114   0.870   3.052
 4106SOL    HW213218   1.050   0.858   2.902
 4107SOL     OW13219   1.118   0.342   0.289
 4107SOL    HW113220   1.064   0.276   0.237
 4107SOL    HW213221   1.149   0.415   0.227
 4108SOL     OW13222   6.404   5.723   5.450
 4108SOL    HW113223   6.332   5.666   5.490
 4108SOL    HW213224   6.385   5.819   5.468
 4109SOL     OW13225   5.784   5.927   3.635
 4109SOL    HW113226   5.712   5.994   3.620
 4109SOL    HW213227   5.824   5.899   3.547
 4110SOL     OW13228   4.848   2.967   0.334
 4110SOL    HW113229   4.931   2.934   0.380
 4110SOL    HW213230   4.819   2.900   0.266
 4111SOL     OW13231   6.638   3.864   4.112
 4111SOL    HW113232   6.628   3.908   4.023
 4111SOL    HW213233   6.733   3.870   4.143
 4112SOL     OW13234   4.420   6.018   5.200
 4112SOL    HW113235   4.325   6.008   5.170
 4112SOL    HW213236   4.428   6.098   5.260
 4113SOL     OW13237   4.263   5.398   4.218
 4113SOL    HW113238   4.230   5.304   4.227
 4113SOL    HW213239   4.294   5.431   4.307
 4114SOL     OW13240   0.344   1.107   1.313
 4114SOL    HW113241   0.272   1.162   1.271
 4114SOL    HW213242   0.313   1.012   1.322
 4115SOL     OW13243   4.316   6.037   4.036
 4115SOL    HW113244   4.347   5.946   4.063
 4115SOL    HW213245   4.371   6.069   3.958
 4116SOL     OW13246   4.872   3.949   2.279
 4116SOL    HW113247   4.906   3.876   2.220
 4116SOL    HW213248   4.830   4.020   2.223
 4117SOL     OW13249   1.306   1.594   3.857
 4117SOL    HW113250   1.311   1.612   3.759
 4117SOL    HW213251   1.398   1.595   3.896
 4118SOL     OW13252   0.310   6.666   0.216
 4118SOL    HW113253   0.282   6.591   0.156
 4118SOL    HW213254   0.230   6.721   0.240
 4119SOL     OW13255   0.213   0.329   4.219
 4119SOL    HW113256   0.180   0.396   4.153
 4119SOL    HW213257   0.263   0.376   4.292
 4120SOL     OW13258   2.038   0.843   6.546
 4120SOL    HW113259   2.113   0.785   6.577
 4120SOL    HW213260   2.028   0.835   6.447
 4121SOL     OW13261   6.630   6.719   2.597
 4121SOL    HW113262   6.729   6.708   2.605
 4121SOL    HW213263   6.584   6.641   2.640
 4122SOL     OW13264   0.636   4.239   2.981
 4122SOL    HW113265   0.728   4.253   3.020
 4122SOL    HW213266   0.607   4.321   2.933
 4123SOL     OW13267   4.594   5.067   1.331
 4123SOL    HW113268   4.585   5.023   1.420
 4123SOL    HW213269   4.506   5.063   1.283
 4124SOL     OW13270   5.860   5.543   0.189
 4124SOL    HW113271   5.822   5.629   0.221
 4124SOL    HW213272   5.957   5.555   0.168
 4125SOL     OW13273   6.123   2.065   0.871
 4125SOL    HW113274   6.150   2.044   0.965
 4125SOL    HW213275   6.196   2.036   0.809
 4126SOL     OW13276   1.404   3.147   2.375
 4126SOL    HW113277   1.492   3.102   2.356
 4126SOL    HW213278   1.330   3.085   2.350
 4127SOL     OW13279   4.439   2.005   4.676
 4127SOL    HW113280   4.487   1.957   4.603
 4127SOL    HW213281   4.341   1.990   4.667
 4128SOL     OW13282   1.026   3.004   0.023
 4128SOL    HW113283   1.066   3.096   0.029
 4128SOL    HW213284   0.947   2.998   0.085
 4129SOL     OW13285   2.734   2.546   0.296
 4129SOL    HW113286   2.719   2.469   0.358
 4129SOL    HW213287   2.826   2.583   0.310
 4130SOL     OW13288   5.853   3.298   0.962
 4130SOL    HW113289   5.837   3.306   1.060
 4130SOL    HW213290   5.946   3.326   0.940
 4131SOL     OW13291   4.761   6.712   3.267
 4131SOL    HW113292   4.830   6.643   3.244
 4131SOL    HW213293   4.730   6.757   3.183
 4132SOL     OW13294   0.477   5.256   3.782
 4132SOL    HW113295   0.477   5.185   3.711
 4132SOL    HW213296   0.571   5.277   3.808
 4133SOL     OW13297   5.711   0.437   2.516
 4133SOL    HW113298   5.772   0.462   2.441
 4133SOL    HW213299   5.765   0.396   2.590
 4134SOL     OW13300   1.427   3.665   1.462
 4134SOL    HW113301   1.416   3.601   1.539
 4134SOL    HW213302   1.439   3.613   1.378
 4135SOL     OW13303   6.646   0.590   2.255
 4135SOL    HW113304   6.626   0.686   2.276
 4135SOL    HW213305   6.690   0.548   2.334
 4136SOL     OW13306   0.952   4.732   1.013
 4136SOL    HW113307   0.956   4.814   1.070
 4136SOL    HW213308   1.012   4.661   1.051
 4137SOL     OW13309   1.137   2.449   0.619
 4137SOL    HW113310   1.234   2.455   0.643
 4137SOL    HW213311   1.128   2.395   0.535
 4138SOL     OW13312   5.130   0.085   6.836
 4138SOL    HW113313   5.218   0.101   6.880
 4138SOL    HW213314   5.123   7.015   6.808
 4139SOL     OW13315   2.176   4.085   2.772
 4139SOL    HW113316   2.183   3.990   2.804
 4139SOL    HW213317   2.083   4.102   2.741
 4140SOL     OW13318   1.731   0.766   5.993
 4140SOL    HW113319   1.778   0.847   6.028
 4140SOL    HW213320   1.775   0.684   6.030
 4141SOL     OW13321   4.842   0.386   6.136
 4141SOL    HW113322   4.861   0.349   6.045
 4141SOL    HW213323   4.927   0.417   6.177
 4142SOL     OW13324   1.060   5.358   2.054
 4142SOL    HW113325   1.053   5.306   2.139
 4142SOL    HW213326   1.007   5.443   2.063
 4143SOL     OW13327   5.557   3.003   6.663
 4143SOL    HW113328   5.546   2.979   6.760
 4143SOL    HW213329   5.645   3.048   6.650
 4144SOL     OW13330   6.292   0.907   0.552
 4144SOL    HW113331   6.378   0.868   0.585
 4144SOL    HW213332   6.229   0.919   0.628
 4145SOL     OW13333   6.889   0.058   1.814
 4145SOL    HW113334   6.909   0.063   1.912
 4145SOL    HW213335   6.966   0.096   1.763
 4146SOL     OW13336   5.123   6.072   2.424
 4146SOL    HW113337   5.120   6.164   2.383
 4146SOL    HW213338   5.190   6.016   2.375
 4147SOL     OW13339   4.398   5.038   6.401
 4147SOL    HW113340   4.426   5.118   6.348
 4147SOL    HW213341   4.346   5.068   6.481
 4148SOL     OW13342   2.042   1.522   5.605
 4148SOL    HW113343   2.141   1.534   5.615
 4148SOL    HW213344   2.010   1.450   5.667
 4149SOL     OW13345   1.816   3.220   6.620
 4149SOL    HW113346   1.732   3.224   6.675
 4149SOL    HW213347   1.829   3.307   6.573
 4150SOL     OW13348   5.340   2.001   6.645
 4150SOL    HW113349   5.419   2.004   6.707
 4150SOL    HW213350   5.342   2.080   6.585
 4151SOL     OW13351   3.247   5.910   4.024
 4151SOL    HW113352   3.188   5.885   3.948
 4151SOL    HW213353   3.194   5.912   4.109
 4152SOL     OW13354   3.054   4.392   1.425
 4152SOL    HW113355   3.108   4.460   1.376
 4152SOL    HW213356   2.989   4.349   1.362
 4153SOL     OW13357   7.003   5.987   1.215
 4153SOL    HW113358   0.054   5.926   1.237
 4153SOL    HW213359   6.926   5.934   1.181
 4154SOL     OW13360   1.275   6.299   3.810
 4154SOL    HW113361   1.361   6.305   3.860
 4154SOL    HW213362   1.257   6.203   3.786
 4155SOL     OW13363   0.449   0.701   1.933
 4155SOL    HW113364   0.488   0.616   1.967
 4155SOL    HW213365   0.454   0.772   2.003
 4156SOL     OW13366   0.863   5.368   6.141
 4156SOL    HW113367   0.837   5.384   6.046
 4156SOL    HW213368   0.781   5.364   6.198
 4157SOL     OW13369   6.228   6.048   1.540
 4157SOL    HW113370   6.143   6.025   1.588
 4157SOL    HW213371   6.302   6.061   1.607
 4158SOL     OW13372   0.899   2.725   1.315
 4158SOL    HW113373   0.930   2.804   1.263
 4158SOL    HW213374   0.877   2.753   1.409
 4159SOL     OW13375   3.209   0.365   4.191
 4159SOL    HW113376   3.109   0.361   4.192
 4159SOL    HW213377   3.242   0.369   4.097
 4160SOL     OW13378   6.833   0.208   0.027
 4160SOL    HW113379   6.735   0.214   0.011
 4160SOL    HW213380   6.881   0.268   6.988
 4161SOL     OW13381   3.493   3.300   1.784
 4161SOL    HW113382   3.571   3.354   1.815
 4161SOL    HW213383   3.453   3.252   1.862
 4162SOL     OW13384   5.391   5.611   1.962
 4162SOL    HW113385   5.389   5.548   1.885
 4162SOL    HW213386   5.486   5.631   1.987
 4163SOL     OW13387   3.763   5.804   1.804
 4163SOL    HW113388   3.680   5.811   1.860
 4163SOL    HW213389   3.783   5.893   1.762
 4164SOL     OW13390   6.809   0.780   5.729
 4164SOL    HW113391   6.745   0.807   5.657
 4164SOL    HW213392   6.828   0.859   5.788
 4165SOL     OW13393   4.636   0.953   4.648
 4165SOL    HW113394   4.559   0.941   4.711
 4165SOL    HW213395   4.696   0.873   4.655
 4166SOL     OW13396   5.841   1.441   1.332
 4166SOL    HW113397   5.900   1.364   1.355
 4166SOL    HW213398   5.892   1.526   1.343
 4167SOL     OW13399   3.561   5.577   4.150
 4167SOL    HW113400   3.553   5.662   4.099
 4167SOL    HW213401   3.502   5.507   4.109
 4168SOL     OW13402   5.308   3.542   6.988
 4168SOL    HW113403   5.318   3.612   0.033
 4168SOL    HW213404   5.386   3.546   6.926
 4169SOL     OW13405   4.861   2.938   5.681
 4169SOL    HW113406   4.875   2.924   5.583
 4169SOL    HW213407   4.767   2.968   5.698
 4170SOL     OW13408   0.031   2.771   4.495
 4170SOL    HW113409   0.028   2.716   4.411
 4170SOL    HW213410   6.972   2.756   4.547
 4171SOL     OW13411   0.518   2.245   0.069
 4171SOL    HW113412   0.525   2.245   6.995
 4171SOL    HW213413   0.473   2.160   0.099
 4172SOL     OW13414   2.680   4.452   0.759
 4172SOL    HW113415   2.670   4.551   0.754
 4172SOL    HW213416   2.684   4.414   0.666
 4173SOL     OW13417   4.676   2.123   6.429
 4173SOL    HW113418   4.766   2.137   6.470
 4173SOL    HW213419   4.608   2.178   6.478
 4174SOL     OW13420   3.343   0.522   4.909
 4174SOL    HW113421   3.299   0.537   4.997
 4174SOL    HW213422   3.299   0.445   4.863
 4175SOL     OW13423   0.590   4.321   6.714
 4175SOL    HW113424   0.605   4.329   6.615
 4175SOL    HW213425   0.588   4.412   6.755
 4176SOL     OW13426   5.185   6.820   5.931
 4176SOL    HW113427   5.278   6.852   5.916
 4176SOL    HW213428   5.126   6.898   5.951
 4177SOL     OW13429   4.129   4.790   2.751
 4177SOL    HW113430   4.158   4.749   2.838
 4177SOL    HW213431   4.033   4.816   2.757
 4178SOL     OW13432   4.151   5.552   1.125
 4178SOL    HW113433   4.097   5.486   1.074
 4178SOL    HW213434   4.122   5.553   1.221
 4179SOL     OW13435   5.404   2.878   5.734
 4179SOL    HW113436   5.488   2.920   5.769
 4179SOL    HW213437   5.367   2.934   5.661
 4180SOL     OW13438   4.209   4.105   0.386
 4180SOL    HW113439   4.212   4.024   0.328
 4180SOL    HW213440   4.265   4.178   0.346
 4181SOL     OW13441   4.667   6.631   4.752
 4181SOL    HW113442   4.610   6.609   4.831
 4181SOL    HW213443   4.663   6.729   4.733
 4182SOL     OW13444   0.063   6.470   4.837
 4182SOL    HW113445   0.083   6.556   4.883
 4182SOL    HW213446   0.105   6.394   4.888
 4183SOL     OW13447   3.893   1.876   1.005
 4183SOL    HW113448   3.884   1.973   1.026
 4183SOL    HW213449   3.965   1.836   1.062
 4184SOL     OW13450   3.355   5.660   3.682
 4184SOL    HW113451   3.372   5.758   3.688
 4184SOL    HW213452   3.278   5.643   3.620
 4185SOL     OW13453   5.714   3.107   3.112
 4185SOL    HW113454   5.679   3.089   3.021
 4185SOL    HW213455   5.685   3.034   3.174
 4186SOL     OW13456   1.570   6.555   0.706
 4186SOL    HW113457   1.661   6.536   0.669
 4186SOL    HW213458   1.515   6.471   0.700
 4187SOL     OW13459   1.792   3.510   6.520
 4187SOL    HW113460   1.848   3.584   6.482
 4187SOL    HW213461   1.741   3.544   6.599
 4188SOL     OW13462   4.279   0.015   0.446
 4188SOL    HW113463   4.306   0.032   0.540
 4188SOL    HW213464   4.181   7.020   0.443
 4189SOL     OW13465   5.049   4.808   3.980
 4189SOL    HW113466   5.020   4.894   3.938
 4189SOL    HW213467   4.969   4.759   4.014
 4190SOL     OW13468   6.776   5.891   1.062
 4190SOL    HW113469   6.731   5.973   1.026
 4190SOL    HW213470   6.838   5.854   0.993
 4191SOL     OW13471   4.764   4.731   6.650
 4191SOL    HW113472   4.850   4.724   6.599
 4191SOL    HW213473   4.734   4.640   6.678
 4192SOL     OW13474   1.259   3.370   1.403
 4192SOL    HW113475   1.232   3.369   1.307
 4192SOL    HW213476   1.352   3.333   1.412
 4193SOL     OW13477   0.400   0.705   0.917
 4193SOL    HW113478   0.447   0.768   0.856
 4193SOL    HW213479   0.468   0.653   0.970
 4194SOL     OW13480   4.515   1.423   5.245
 4194SOL    HW113481   4.476   1.331   5.237
 4194SOL    HW213482   4.545   1.438   5.339
 4195SOL     OW13483   3.532   6.103   0.942
 4195SOL    HW113484   3.620   6.086   0.897
 4195SOL    HW213485   3.535   6.068   1.035
 4196SOL     OW13486   6.428   3.289   2.003
 4196SOL    HW113487   6.386   3.257   2.088
 4196SOL    HW213488   6.519   3.327   2.022
 4197SOL     OW13489   3.847   0.945   6.768
 4197SOL    HW113490   3.813   1.004   6.842
 4197SOL    HW213491   3.814   0.852   6.782
 4198SOL     OW13492   6.269   2.097   2.530
 4198SOL    HW113493   6.317   2.023   2.482
 4198SOL    HW213494   6.293   2.185   2.487
 4199SOL     OW13495   0.694   4.111   5.883
 4199SOL    HW113496   0.648   4.028   5.915
 4199SOL    HW213497   0.653   4.140   5.797
 4200SOL     OW13498   4.889   1.113   3.463
 4200SOL    HW113499   4.947   1.042   3.501
 4200SOL    HW213500   4.818   1.072   3.406
 4201SOL     OW13501   5.669   6.339   3.902
 4201SOL    HW113502   5.724   6.257   3.885
 4201SOL    HW213503   5.575   6.312   3.921
 4202SOL     OW13504   5.033   3.969   1.060
 4202SOL    HW113505   5.059   4.030   0.985
 4202SOL    HW213506   4.966   4.015   1.118
 4203SOL     OW13507   6.405   5.708   6.241
 4203SOL    HW113508   6.397   5.622   6.190
 4203SOL    HW213509   6.330   5.716   6.306
 4204SOL     OW13510   2.460   3.525   6.446
 4204SOL    HW113511   2.376   3.475   6.424
 4204SOL    HW213512   2.537   3.484   6.396
 4205SOL     OW13513   3.704   6.712   5.369
 4205SOL    HW113514   3.692   6.671   5.459
 4205SOL    HW213515   3.798   6.699   5.337
 4206SOL     OW13516   1.492   2.208   4.730
 4206SOL    HW113517   1.589   2.194   4.751
 4206SOL    HW213518   1.441   2.223   4.814
 4207SOL     OW13519   1.630   2.318   2.285
 4207SOL    HW113520   1.651   2.408   2.247
 4207SOL    HW213521   1.559   2.274   2.230
 4208SOL     OW13522   2.050   3.433   4.639
 4208SOL    HW113523   2.106   3.436   4.721
 4208SOL    HW213524   1.960   3.471   4.658
 4209SOL     OW13525   6.779   6.627   2.325
 4209SOL    HW113526   6.788   6.726   2.311
 4209SOL    HW213527   6.839   6.599   2.400
 4210SOL     OW13528   4.158   3.763   4.956
 4210SOL    HW113529   4.168   3.759   4.856
 4210SOL    HW213530   4.092   3.834   4.979
 4211SOL     OW13531   4.469   2.555   5.430
 4211SOL    HW113532   4.521   2.472   5.447
 4211SOL    HW213533   4.442   2.597   5.517
 4212SOL     OW13534   0.342   2.501   3.506
 4212SOL    HW113535   0.373   2.422   3.559
 4212SOL    HW213536   0.292   2.469   3.425
 4213SOL     OW13537   3.140   0.883   3.524
 4213SOL    HW113538   3.160   0.791   3.557
 4213SOL    HW213539   3.155   0.887   3.425
 4214SOL     OW13540   0.238   5.898   3.769
 4214SOL    HW113541   0.284   5.960   3.832
 4214SOL    HW213542   0.232   5.940   3.679
 4215SOL     OW13543   4.630   6.512   5.278
 4215SOL    HW113544   4.620   6.563   5.363
 4215SOL    HW213545   4.627   6.414   5.296
 4216SOL     OW13546   2.541   5.962   2.012
 4216SOL    HW113547   2.569   6.035   1.949
 4216SOL    HW213548   2.623   5.919   2.051
 4217SOL     OW13549   1.018   0.434   2.708
 4217SOL    HW113550   1.044   0.353   2.761
 4217SOL    HW213551   0.936   0.475   2.748
 4218SOL     OW13552   2.898   1.611   1.606
 4218SOL    HW113553   2.834   1.657   1.668
 4218SOL    HW213554   2.881   1.640   1.512
 4219SOL     OW13555   4.517   5.613   3.117
 4219SOL    HW113556   4.507   5.569   3.206
 4219SOL    HW213557   4.479   5.705   3.120
 4220SOL     OW13558   5.245   2.202   2.036
 4220SOL    HW113559   5.170   2.237   2.092
 4220SOL    HW213560   5.331   2.245   2.064
 4221SOL     OW13561   0.496   6.142   0.014
 4221SOL    HW113562   0.585   6.162   0.054
 4221SOL    HW213563   0.429   6.208   0.047
 4222SOL     OW13564   4.947   2.756   3.809
 4222SOL    HW113565   4.923   2.831   3.871
 4222SOL    HW213566   4.866   2.728   3.758
 4223SOL     OW13567   4.055   3.495   2.169
 4223SOL    HW113568   4.076   3.508   2.072
 4223SOL    HW213569   4.089   3.405   2.198
 4224SOL     OW13570   4.892   3.665   4.440
 4224SOL    HW113571   4.970   3.663   4.378
 4224SOL    HW213572   4.890   3.580   4.493
 4225SOL     OW13573   0.172   1.932   5.331
 4225SOL    HW113574   0.145   2.027   5.342
 4225SOL    HW213575   0.262   1.918   5.373
 4226SOL     OW13576   1.431   5.607   5.029
 4226SOL    HW113577   1.429   5.633   4.932
 4226SOL    HW213578   1.339   5.609   5.067
 4227SOL     OW13579   5.519   5.391   2.536
 4227SOL    HW113580   5.450   5.320   2.549
 4227SOL    HW213581   5.520   5.452   2.615
 4228SOL     OW13582   1.657   5.038   4.080
 4228SOL    HW113583   1.643   4.955   4.134
 4228SOL    HW213584   1.572   5.090   4.075
 4229SOL     OW13585   6.281   4.961   5.231
 4229SOL    HW113586   6.194   4.974   5.278
 4229SOL    HW213587   6.306   4.864   5.234
 4230SOL     OW13588   0.411   0.543   2.258
 4230SOL    HW113589   0.320   0.504   2.247
 4230SOL    HW213590   0.474   0.501   2.192
 4231SOL     OW13591   6.018   1.544   5.748
 4231SOL    HW113592   5.995   1.456   5.790
 4231SOL    HW213593   5.982   1.618   5.805
 4232SOL     OW13594   1.516   5.877   3.743
 4232SOL    HW113595   1.602   5.878   3.793
 4232SOL    HW213596   1.488   5.783   3.726
 4233SOL     OW13597   4.845   5.051   3.623
 4233SOL    HW113598   4.876   4.961   3.595
 4233SOL    HW213599   4.753   5.068   3.589
 4234SOL     OW13600   2.963   5.726   6.207
 4234SOL    HW113601   2.871   5.722   6.245
 4234SOL    HW213602   2.958   5.752   6.110
 4235SOL     OW13603   0.609   5.966   5.676
 4235SOL    HW113604   0.661   6.046   5.646
 4235SOL    HW213605   0.672   5.888   5.684
 4236SOL     OW13606   0.312   5.507   2.884
 4236SOL    HW113607   0.343   5.538   2.794
 4236SOL    HW213608   0.226   5.457   2.874
 4237SOL     OW13609   6.914   4.615   3.668
 4237SOL    HW113610   7.009   4.644   3.677
 4237SOL    HW213611   6.854   4.696   3.666
 4238SOL     OW13612   2.595   6.674   2.634
 4238SOL    HW113613   2.560   6.590   2.592
 4238SOL    HW213614   2.567   6.753   2.580
 4239SOL     OW13615   4.406   1.072   3.748
 4239SOL    HW113616   4.374   1.165   3.767
 4239SOL    HW213617   4.365   1.039   3.663
 4240SOL     OW13618   0.020   6.486   1.057
 4240SOL    HW113619   0.048   6.529   1.143
 4240SOL    HW213620   7.007   6.395   1.076
 4241SOL     OW13621   6.382   3.067   0.645
 4241SOL    HW113622   6.435   3.098   0.724
 4241SOL    HW213623   6.289   3.043   0.675
 4242SOL     OW13624   2.035   1.369   3.578
 4242SOL    HW113625   2.126   1.411   3.576
 4242SOL    HW213626   1.966   1.440   3.591
 4243SOL     OW13627   5.017   0.237   3.028
 4243SOL    HW113628   4.981   0.222   3.120
 4243SOL    HW213629   5.031   0.335   3.014
 4244SOL     OW13630   3.501   3.368   2.414
 4244SOL    HW113631   3.581   3.314   2.387
 4244SOL    HW213632   3.519   3.465   2.396
 4245SOL     OW13633   6.233   2.087   6.570
 4245SOL    HW113634   6.138   2.057   6.580
 4245SOL    HW213635   6.245   2.175   6.617
 4246SOL     OW13636   1.179   3.504   1.622
 4246SOL    HW113637   1.198   3.428   1.560
 4246SOL    HW213638   1.165   3.588   1.570
 4247SOL     OW13639   0.468   5.337   4.819
 4247SOL    HW113640   0.429   5.423   4.784
 4247SOL    HW213641   0.559   5.324   4.781
 4248SOL     OW13642   1.594   2.896   5.535
 4248SOL    HW113643   1.562   2.895   5.440
 4248SOL    HW213644   1.690   2.924   5.537
 4249SOL     OW13645   5.464   3.601   6.130
 4249SOL    HW113646   5.402   3.636   6.199
 4249SOL    HW213647   5.471   3.501   6.139
 4250SOL     OW13648   0.165   4.530   2.991
 4250SOL    HW113649   0.102   4.452   2.997
 4250SOL    HW213650   0.248   4.509   3.043
 4251SOL     OW13651   5.834   4.182   0.730
 4251SOL    HW113652   5.897   4.201   0.654
 4251SOL    HW213653   5.785   4.097   0.712
 4252SOL     OW13654   0.501   5.654   5.741
 4252SOL    HW113655   0.442   5.735   5.738
 4252SOL    HW213656   0.593   5.680   5.771
 4253SOL     OW13657   4.468   6.801   2.254
 4253SOL    HW113658   4.417   6.874   2.298
 4253SOL    HW213659   4.418   6.769   2.173
 4254SOL     OW13660   2.566   4.533   1.117
 4254SOL    HW113661   2.608   4.609   1.067
 4254SOL    HW213662   2.570   4.552   1.215
 4255SOL     OW13663   0.646   2.659   4.942
 4255SOL    HW113664   0.601   2.737   4.900
 4255SOL    HW213665   0.625   2.576   4.891
 4256SOL     OW13666   2.122   0.122   1.295
 4256SOL    HW113667   2.157   0.160   1.210
 4256SOL    HW213668   2.025   0.141   1.304
 4257SOL     OW13669   3.834   1.852   4.616
 4257SOL    HW113670   3.823   1.792   4.538
 4257SOL    HW213671   3.910   1.820   4.673
 4258SOL     OW13672   5.481   6.449   2.228
 4258SOL    HW113673   5.477   6.385   2.305
 4258SOL    HW213674   5.403   6.510   2.231
 4259SOL     OW13675   2.375   2.368   0.123
 4259SOL    HW113676   2.467   2.333   0.135
 4259SOL    HW213677   2.379   2.467   0.109
 4260SOL     OW13678   5.036   5.647   3.694
 4260SOL    HW113679   5.081   5.586   3.628
 4260SOL    HW213680   5.028   5.600   3.782
 4261SOL     OW13681   1.471   6.717   1.952
 4261SOL    HW113682   1.416   6.755   1.878
 4261SOL    HW213683   1.525   6.640   1.917
 4262SOL     OW13684   0.807   5.173   6.570
 4262SOL    HW113685   0.716   5.198   6.600
 4262SOL    HW213686   0.830   5.081   6.602
 4263SOL     OW13687   3.158   4.840   5.503
 4263SOL    HW113688   3.149   4.747   5.466
 4263SOL    HW213689   3.187   4.903   5.432
 4264SOL     OW13690   0.560   0.664   1.258
 4264SOL    HW113691   0.480   0.722   1.271
 4264SOL    HW213692   0.640   0.721   1.238
 4265SOL     OW13693   6.698   1.480   0.853
 4265SOL    HW113694   6.708   1.381   0.850
 4265SOL    HW213695   6.767   1.522   0.794
 4266SOL     OW13696   2.349   5.204   0.751
 4266SOL    HW113697   2.253   5.185   0.770
 4266SOL    HW213698   2.396   5.230   0.835
 4267SOL     OW13699   1.740   3.815   5.104
 4267SOL    HW113700   1.811   3.855   5.046
 4267SOL    HW213701   1.773   3.806   5.198
 4268SOL     OW13702   2.065   0.781   0.511
 4268SOL    HW113703   2.042   0.840   0.434
 4268SOL    HW213704   1.988   0.721   0.532
 4269SOL     OW13705   3.166   3.225   0.295
 4269SOL    HW113706   3.191   3.130   0.276
 4269SOL    HW213707   3.069   3.239   0.274
 4270SOL     OW13708   3.319   3.003   4.911
 4270SOL    HW113709   3.260   2.985   4.832
 4270SOL    HW213710   3.410   2.966   4.893
 4271SOL     OW13711   0.683   0.044   6.316
 4271SOL    HW113712   0.687   6.983   6.266
 4271SOL    HW213713   0.603   0.096   6.285
 4272SOL     OW13714   7.012   4.632   4.823
 4272SOL    HW113715   7.010   4.556   4.759
 4272SOL    HW213716   0.010   4.716   4.774
 4273SOL     OW13717   5.397   6.686   5.657
 4273SOL    HW113718   5.403   6.601   5.708
 4273SOL    HW213719   5.449   6.678   5.572
 4274SOL     OW13720   1.639   6.606   3.692
 4274SOL    HW113721   1.678   6.621   3.783
 4274SOL    HW213722   1.693   6.657   3.624
 4275SOL     OW13723   0.930   7.016   6.109
 4275SOL    HW113724   0.872   0.066   6.077
 4275SOL    HW213725   0.905   6.993   6.203
 4276SOL     OW13726   2.044   4.297   2.483
 4276SOL    HW113727   2.008   4.223   2.540
 4276SOL    HW213728   2.112   4.260   2.419
 4277SOL     OW13729   0.040   5.367   3.573
 4277SOL    HW113730   0.088   5.314   3.642
 4277SOL    HW213731   0.063   5.464   3.582
 4278SOL     OW13732   6.737   0.155   5.311
 4278SOL    HW113733   6.735   0.205   5.398
 4278SOL    HW213734   6.672   0.079   5.316
 4279SOL     OW13735   3.224   6.349   4.984
 4279SOL    HW113736   3.221   6.254   4.954
 4279SOL    HW213737   3.280   6.356   5.067
 4280SOL     OW13738   5.419   2.373   4.140
 4280SOL    HW113739   5.328   2.378   4.180
 4280SOL    HW213740   5.470   2.457   4.162
 4281SOL     OW13741   2.267   4.280   4.864
 4281SOL    HW113742   2.291   4.195   4.910
 4281SOL    HW213743   2.284   4.272   4.766
 4282SOL     OW13744   2.017   2.574   1.185
 4282SOL    HW113745   2.012   2.559   1.284
 4282SOL    HW213746   1.945   2.637   1.157
 4283SOL     OW13747   1.732   0.408   4.337
 4283SOL    HW113748   1.793   0.331   4.356
 4283SOL    HW213749   1.681   0.431   4.421
 4284SOL     OW13750   5.986   2.119   2.522
 4284SOL    HW113751   5.931   2.128   2.440
 4284SOL    HW213752   6.080   2.095   2.497
 4285SOL     OW13753   0.829   0.124   5.781
 4285SOL    HW113754   0.758   0.167   5.836
 4285SOL    HW213755   0.791   0.043   5.735
 4286SOL     OW13756   4.932   6.085   0.523
 4286SOL    HW113757   4.855   6.062   0.582
 4286SOL    HW213758   4.908   6.067   0.428
 4287SOL     OW13759   5.525   6.682   4.690
 4287SOL    HW113760   5.563   6.700   4.599
 4287SOL    HW213761   5.462   6.605   4.685
 4288SOL     OW13762   1.422   6.437   2.919
 4288SOL    HW113763   1.373   6.411   3.003
 4288SOL    HW213764   1.516   6.406   2.925
 4289SOL     OW13765   5.773   2.683   1.246
 4289SOL    HW113766   5.775   2.648   1.153
 4289SOL    HW213767   5.780   2.783   1.245
 4290SOL     OW13768   2.313   0.801   1.677
 4290SOL    HW113769   2.217   0.778   1.662
 4290SOL    HW213770   2.370   0.753   1.610
 4291SOL     OW13771   6.252   3.699   1.013
 4291SOL    HW113772   6.184   3.626   1.022
 4291SOL    HW213773   6.260   3.747   1.101
 4292SOL     OW13774   5.738   5.218   6.755
 4292SOL    HW113775   5.667   5.289   6.758
 4292SOL    HW213776   5.785   5.215   6.844
 4293SOL     OW13777   0.129   2.987   6.935
 4293SOL    HW113778   0.162   3.033   6.852
 4293SOL    HW213779   0.038   3.020   6.957
 4294SOL     OW13780   4.408   2.449   5.890
 4294SOL    HW113781   4.424   2.513   5.815
 4294SOL    HW213782   4.423   2.355   5.858
 4295SOL     OW13783   3.409   0.346   4.348
 4295SOL    HW113784   3.453   0.436   4.343
 4295SOL    HW213785   3.324   0.348   4.297
 4296SOL     OW13786   2.571   1.768   1.320
 4296SOL    HW113787   2.587   1.820   1.235
 4296SOL    HW213788   2.487   1.801   1.363
 4297SOL     OW13789   5.506   0.577   5.194
 4297SOL    HW113790   5.534   0.647   5.259
 4297SOL    HW213791   5.542   0.599   5.103
 4298SOL     OW13792   2.697   6.029   1.509
 4298SOL    HW113793   2.671   5.934   1.525
 4298SOL    HW213794   2.615   6.084   1.495
 4299SOL     OW13795   0.531   3.578   6.372
 4299SOL    HW113796   0.624   3.613   6.367
 4299SOL    HW213797   0.515   3.514   6.298
 4300SOL     OW13798   4.641   1.100   6.783
 4300SOL    HW113799   4.654   1.177   6.845
 4300SOL    HW213800   4.678   1.124   6.693
 4301SOL     OW13801   2.728   1.673   0.626
 4301SOL    HW113802   2.636   1.712   0.631
 4301SOL    HW213803   2.742   1.609   0.701
 4302SOL     OW13804   1.096   6.559   6.815
 4302SOL    HW113805   1.114   6.495   6.890
 4302SOL    HW213806   1.049   6.639   6.851
 4303SOL     OW13807   0.188   3.183   2.245
 4303SOL    HW113808   0.217   3.090   2.225
 4303SOL    HW213809   0.257   3.228   2.301
 4304SOL     OW13810   3.408   3.654   4.188
 4304SOL    HW113811   3.414   3.557   4.213
 4304SOL    HW213812   3.409   3.710   4.270
 4305SOL     OW13813   6.454   1.212   3.415
 4305SOL    HW113814   6.408   1.173   3.335
 4305SOL    HW213815   6.403   1.293   3.445
 4306SOL     OW13816   6.317   4.694   5.585
 4306SOL    HW113817   6.273   4.766   5.532
 4306SOL    HW213818   6.410   4.723   5.610
 4307SOL     OW13819   5.113   3.947   6.316
 4307SOL    HW113820   5.191   3.986   6.366
 4307SOL    HW213821   5.069   4.018   6.262
 4308SOL     OW13822   5.245   5.992   4.553
 4308SOL    HW113823   5.186   5.967   4.476
 4308SOL    HW213824   5.302   5.914   4.578
 4309SOL     OW13825   1.429   1.604   0.349
 4309SOL    HW113826   1.433   1.702   0.367
 4309SOL    HW213827   1.339   1.570   0.376
 4310SOL     OW13828   2.005   1.815   2.932
 4310SOL    HW113829   1.973   1.877   2.860
 4310SOL    HW213830   2.034   1.869   3.011
 4311SOL     OW13831   2.169   6.152   3.531
 4311SOL    HW113832   2.222   6.206   3.466
 4311SOL    HW213833   2.092   6.110   3.483
 4312SOL     OW13834   1.906   5.367   2.066
 4312SOL    HW113835   1.823   5.354   2.012
 4312SOL    HW213836   1.986   5.361   2.006
 4313SOL     OW13837   4.964   1.071   1.981
 4313SOL    HW113838   4.911   1.108   1.905
 4313SOL    HW213839   4.923   0.984   2.010
 4314SOL     OW13840   4.880   3.469   2.648
 4314SOL    HW113841   4.849   3.377   2.624
 4314SOL    HW213842   4.977   3.479   2.624
 4315SOL     OW13843   2.500   0.557   1.836
 4315SOL    HW113844   2.472   0.649   1.863
 4315SOL    HW213845   2.426   0.492   1.857
 4316SOL     OW13846   6.383   0.588   1.837
 4316SOL    HW113847   6.424   0.679   1.828
 4316SOL    HW213848   6.374   0.565   1.934
 4317SOL     OW13849   3.417   0.888   3.788
 4317SOL    HW113850   3.469   0.880   3.703
 4317SOL    HW213851   3.342   0.822   3.787
 4318SOL     OW13852   0.384   3.074   3.875
 4318SOL    HW113853   0.420   3.018   3.949
 4318SOL    HW213854   0.417   3.038   3.787
 4319SOL     OW13855   2.573   3.743   6.591
 4319SOL    HW113856   2.538   3.809   6.525
 4319SOL    HW213857   2.564   3.650   6.555
 4320SOL     OW13858   0.376   6.531   2.907
 4320SOL    HW113859   0.293   6.513   2.854
 4320SOL    HW213860   0.396   6.628   2.906
 4321SOL     OW13861   6.886   0.330   5.181
 4321SOL    HW113862   6.823   0.264   5.221
 4321SOL    HW213863   6.978   0.315   5.217
 4322SOL     OW13864   5.878   1.108   0.277
 4322SOL    HW113865   5.946   1.087   0.347
 4322SOL    HW213866   5.924   1.133   0.192
 4323SOL     OW13867   6.575   3.311   2.750
 4323SOL    HW113868   6.638   3.355   2.685
 4323SOL    HW213869   6.625   3.283   2.832
 4324SOL     OW13870   5.855   3.905   6.215
 4324SOL    HW113871   5.762   3.881   6.188
 4324SOL    HW213872   5.852   3.980   6.281
 4325SOL     OW13873   1.872   1.624   6.555
 4325SOL    HW113874   1.785   1.671   6.540
 4325SOL    HW213875   1.856   1.541   6.608
 4326SOL     OW13876   6.125   3.117   5.064
 4326SOL    HW113877   6.199   3.106   5.130
 4326SOL    HW213878   6.058   3.044   5.076
 4327SOL     OW13879   6.259   6.579   2.601
 4327SOL    HW113880   6.232   6.549   2.510
 4327SOL    HW213881   6.185   6.558   2.666
 4328SOL     OW13882   5.182   5.162   6.976
 4328SOL    HW113883   5.102   5.112   6.944
 4328SOL    HW213884   5.265   5.114   6.949
 4329SOL     OW13885   4.474   2.198   5.792
 4329SOL    HW113886   4.574   2.207   5.793
 4329SOL    HW213887   4.448   2.132   5.721
 4330SOL     OW13888   1.009   0.243   5.969
 4330SOL    HW113889   1.108   0.249   5.964
 4330SOL    HW213890   0.976   0.169   5.910
 4331SOL     OW13891   5.920   2.419   6.767
 4331SOL    HW113892   5.915   2.351   6.694
 4331SOL    HW213893   5.937   2.509   6.728
 4332SOL     OW13894   4.982   2.804   2.021
 4332SOL    HW113895   5.054   2.836   2.082
 4332SOL    HW213896   4.910   2.874   2.016
 4333SOL     OW13897   5.360   0.933   4.559
 4333SOL    HW113898   5.403   0.986   4.632
 4333SOL    HW213899   5.417   0.937   4.477
 4334SOL     OW13900   3.996   1.816   2.086
 4334SOL    HW113901   3.959   1.907   2.105
 4334SOL    HW213902   4.018   1.770   2.172
 4335SOL     OW13903   3.080   3.958   5.117
 4335SOL    HW113904   3.007   3.915   5.064
 4335SOL    HW213905   3.120   3.892   5.180
 4336SOL     OW13906   1.266   6.650   4.542
 4336SOL    HW113907   1.343   6.610   4.492
 4336SOL    HW213908   1.293   6.738   4.581
 4337SOL     OW13909   6.737   5.522   0.334
 4337SOL    HW113910   6.740   5.435   0.384
 4337SOL    HW213911   6.804   5.520   0.260
 4338SOL     OW13912   6.540   6.176   4.131
 4338SOL    HW113913   6.576   6.183   4.224
 4338SOL    HW213914   6.481   6.096   4.125
 4339SOL     OW13915   6.363   1.494   5.450
 4339SOL    HW113916   6.374   1.593   5.452
 4339SOL    HW213917   6.280   1.470   5.399
 4340SOL     OW13918   5.427   3.756   1.405
 4340SOL    HW113919   5.409   3.850   1.376
 4340SOL    HW213920   5.398   3.692   1.334
 4341SOL     OW13921   1.851   4.279   1.417
 4341SOL    HW113922   1.929   4.271   1.356
 4341SOL    HW213923   1.859   4.363   1.471
 4342SOL     OW13924   0.910   2.889   2.946
 4342SOL    HW113925   0.943   2.875   2.853
 4342SOL    HW213926   0.820   2.933   2.943
 4343SOL     OW13927   3.158   1.297   1.154
 4343SOL    HW113928   3.215   1.368   1.195
 4343SOL    HW213929   3.063   1.309   1.183
 4344SOL     OW13930   2.119   4.963   3.362
 4344SOL    HW113931   2.042   4.926   3.412
 4344SOL    HW213932   2.175   4.888   3.326
 4345SOL     OW13933   1.522   2.144   5.638
 4345SOL    HW113934   1.455   2.072   5.657
 4345SOL    HW213935   1.585   2.152   5.715
 4346SOL     OW13936   2.007   3.375   1.840
 4346SOL    HW113937   2.075   3.418   1.900
 4346SOL    HW213938   2.015   3.414   1.748
 4347SOL     OW13939   5.652   6.834   2.783
 4347SOL    HW113940   5.566   6.824   2.734
 4347SOL    HW213941   5.684   6.744   2.813
 4348SOL     OW13942   1.641   4.115   6.818
 4348SOL    HW113943   1.683   4.203   6.840
 4348SOL    HW213944   1.589   4.123   6.733
 4349SOL     OW13945   0.290   1.324   3.648
 4349SOL    HW113946   0.288   1.330   3.748
 4349SOL    HW213947   0.290   1.228   3.620
 4350SOL     OW13948   5.398   2.306   3.872
 4350SOL    HW113949   5.421   2.370   3.946
 4350SOL    HW213950   5.397   2.213   3.908
 4351SOL     OW13951   3.035   5.996   1.707
 4351SOL    HW113952   3.004   5.952   1.623
 4351SOL    HW213953   3.081   5.928   1.765
 4352SOL     OW13954   6.750   1.198   2.073
 4352SOL    HW113955   6.807   1.120   2.047
 4352SOL    HW213956   6.716   1.185   2.166
 4353SOL     OW13957   3.269   5.800   6.580
 4353SOL    HW113958   3.222   5.868   6.523
 4353SOL    HW213959   3.205   5.727   6.605
 4354SOL     OW13960   2.460   6.787   0.129
 4354SOL    HW113961   2.367   6.787   0.092
 4354SOL    HW213962   2.515   6.856   0.082
 4355SOL     OW13963   4.618   1.210   0.428
 4355SOL    HW113964   4.537   1.239   0.378
 4355SOL    HW213965   4.644   1.118   0.397
 4356SOL     OW13966   3.917   4.049   0.712
 4356SOL    HW113967   3.850   4.019   0.644
 4356SOL    HW213968   3.942   3.972   0.770
 4357SOL     OW13969   6.152   0.217   6.933
 4357SOL    HW113970   6.128   0.181   7.024
 4357SOL    HW213971   6.107   0.162   6.863
 4358SOL     OW13972   0.924   6.793   1.741
 4358SOL    HW113973   1.005   6.848   1.723
 4358SOL    HW213974   0.952   6.705   1.780
 4359SOL     OW13975   0.243   2.267   3.909
 4359SOL    HW113976   0.226   2.183   3.959
 4359SOL    HW213977   0.157   2.317   3.897
 4360SOL     OW13978   1.289   3.203   1.725
 4360SOL    HW113979   1.278   3.116   1.676
 4360SOL    HW213980   1.247   3.195   1.816
 4361SOL     OW13981   5.044   2.497   2.130
 4361SOL    HW113982   5.001   2.585   2.151
 4361SOL    HW213983   5.137   2.513   2.097
 4362SOL     OW13984   6.341   4.138   4.630
 4362SOL    HW113985   6.374   4.057   4.582
 4362SOL    HW213986   6.275   4.186   4.573
 4363SOL     OW13987   4.957   2.664   5.675
 4363SOL    HW113988   5.057   2.666   5.680
 4363SOL    HW213989   4.919   2.743   5.723
 4364SOL     OW13990   3.424   4.194   4.519
 4364SOL    HW113991   3.428   4.152   4.428
 4364SOL    HW213992   3.395   4.290   4.510
 4365SOL     OW13993   4.022   2.192   2.713
 4365SOL    HW113994   4.055   2.235   2.797
 4365SOL    HW213995   4.097   2.148   2.665
 4366SOL     OW13996   5.660   5.748   1.135
 4366SOL    HW113997   5.566   5.741   1.169
 4366SOL    HW213998   5.663   5.810   1.057
 4367SOL     OW13999   1.561   6.529   6.127
 4367SOL    HW114000   1.626   6.551   6.201
 4367SOL    HW214001   1.513   6.445   6.149
 4368SOL     OW14002   5.460   3.845   1.869
 4368SOL    HW114003   5.469   3.883   1.961
 4368SOL    HW214004   5.526   3.889   1.808
 4369SOL     OW14005   4.556   5.545   2.132
 4369SOL    HW114006   4.605   5.560   2.046
 4369SOL    HW214007   4.505   5.628   2.157
 4370SOL     OW14008   5.820   4.838   3.692
 4370SOL    HW114009   5.839   4.744   3.663
 4370SOL    HW214010   5.900   4.895   3.673
 4371SOL     OW14011   6.147   1.648   2.085
 4371SOL    HW114012   6.150   1.741   2.122
 4371SOL    HW214013   6.132   1.652   1.986
 4372SOL     OW14014   4.347   1.321   3.811
 4372SOL    HW114015   4.257   1.356   3.784
 4372SOL    HW214016   4.348   1.307   3.910
 4373SOL     OW14017   6.415   1.944   6.669
 4373SOL    HW114018   6.479   1.918   6.597
 4373SOL    HW214019   6.337   1.991   6.629
 4374SOL     OW14020   1.952   2.692   1.665
 4374SOL    HW114021   1.927   2.656   1.754
 4374SOL    HW214022   1.997   2.621   1.611
 4375SOL     OW14023   2.483   6.723   4.641
 4375SOL    HW114024   2.503   6.629   4.671
 4375SOL    HW214025   2.553   6.752   4.576
 4376SOL     OW14026   5.740   0.727   2.713
 4376SOL    HW114027   5.659   0.745   2.657
 4376SOL    HW214028   5.822   0.738   2.658
 4377SOL     OW14029   5.965   4.276   6.769
 4377SOL    HW114030   5.906   4.288   6.848
 4377SOL    HW214031   5.924   4.210   6.706
 4378SOL     OW14032   1.696   0.303   4.096
 4378SOL    HW114033   1.659   0.210   4.101
 4378SOL    HW214034   1.701   0.342   4.188
 4379SOL     OW14035   2.609   1.934   5.265
 4379SOL    HW114036   2.561   1.862   5.214
 4379SOL    HW214037   2.582   2.023   5.230
 4380SOL     OW14038   0.283   1.256   1.545
 4380SOL    HW114039   0.299   1.201   1.463
 4380SOL    HW214040   0.360   1.247   1.607
 4381SOL     OW14041   2.503   6.352   5.681
 4381SOL    HW114042   2.424   6.412   5.672
 4381SOL    HW214043   2.575   6.382   5.618
 4382SOL     OW14044   6.862   3.852   5.448
 4382SOL    HW114045   6.920   3.934   5.452
 4382SOL    HW214046   6.823   3.835   5.539
 4383SOL     OW14047   5.394   2.946   0.132
 4383SOL    HW114048   5.316   2.958   0.070
 4383SOL    HW214049   5.396   2.851   0.165
 4384SOL     OW14050   6.262   6.197   3.964
 4384SOL    HW114051   6.224   6.114   3.922
 4384SOL    HW214052   6.309   6.173   4.049
 4385SOL     OW14053   5.781   2.000   4.483
 4385SOL    HW114054   5.766   2.097   4.461
 4385SOL    HW214055   5.840   1.960   4.413
 4386SOL     OW14056   0.772   3.471   5.501
 4386SOL    HW114057   0.713   3.393   5.484
 4386SOL    HW214058   0.758   3.504   5.595
 4387SOL     OW14059   6.748   1.829   0.207
 4387SOL    HW114060   6.725   1.788   0.296
 4387SOL    HW214061   6.741   1.928   0.214
 4388SOL     OW14062   4.972   1.720   6.623
 4388SOL    HW114063   4.991   1.818   6.625
 4388SOL    HW214064   5.043   1.671   6.674
 4389SOL     OW14065   0.705   3.691   1.686
 4389SOL    HW114066   0.720   3.599   1.650
 4389SOL    HW214067   0.706   3.757   1.612
 4390SOL     OW14068   6.745   0.536   1.955
 4390SOL    HW114069   6.753   0.552   2.053
 4390SOL    HW214070   6.660   0.487   1.936
 4391SOL     OW14071   2.213   6.014   6.374
 4391SOL    HW114072   2.151   5.942   6.345
 4391SOL    HW214073   2.175   6.103   6.349
 4392SOL     OW14074   1.984   2.493   5.315
 4392SOL    HW114075   1.919   2.418   5.303
 4392SOL    HW214076   1.942   2.565   5.370
 4393SOL     OW14077   5.001   0.739   1.714
 4393SOL    HW114078   5.046   0.774   1.796
 4393SOL    HW214079   5.056   0.762   1.634
 4394SOL     OW14080   1.408   0.391   1.414
 4394SOL    HW114081   1.392   0.381   1.316
 4394SOL    HW214082   1.434   0.303   1.453
 4395SOL     OW14083   2.497   5.505   1.205
 4395SOL    HW114084   2.531   5.566   1.134
 4395SOL    HW214085   2.418   5.547   1.249
 4396SOL     OW14086   2.369   7.012   3.177
 4396SOL    HW114087   2.436   6.976   3.241
 4396SOL    HW214088   2.398   6.994   3.083
 4397SOL     OW14089   2.877   1.727   4.369
 4397SOL    HW114090   2.917   1.759   4.283
 4397SOL    HW214091   2.777   1.726   4.361
 4398SOL     OW14092   2.130   2.936   5.719
 4398SOL    HW114093   2.205   2.895   5.667
 4398SOL    HW214094   2.100   3.020   5.673
 4399SOL     OW14095   3.126   7.006   2.229
 4399SOL    HW114096   3.217   6.968   2.219
 4399SOL    HW214097   3.078   6.958   2.302
 4400SOL     OW14098   2.032   5.503   4.689
 4400SOL    HW114099   2.128   5.529   4.698
 4400SOL    HW214100   2.022   5.405   4.707
 4401SOL     OW14101   3.748   0.149   6.021
 4401SOL    HW114102   3.661   0.195   6.039
 4401SOL    HW214103   3.805   0.153   6.103
 4402SOL     OW14104   1.368   0.239   2.986
 4402SOL    HW114105   1.374   0.140   2.997
 4402SOL    HW214106   1.367   0.283   3.076
 4403SOL     OW14107   1.557   4.880   0.917
 4403SOL    HW114108   1.486   4.846   0.977
 4403SOL    HW214109   1.606   4.955   0.962
 4404SOL     OW14110   0.746   6.446   6.120
 4404SOL    HW114111   0.667   6.505   6.104
 4404SOL    HW214112   0.716   6.353   6.140
 4405SOL     OW14113   1.776   5.252   3.776
 4405SOL    HW114114   1.769   5.153   3.761
 4405SOL    HW214115   1.769   5.271   3.874
 4406SOL     OW14116   6.368   3.559   2.183
 4406SOL    HW114117   6.355   3.485   2.249
 4406SOL    HW214118   6.338   3.645   2.225
 4407SOL     OW14119   6.331   6.168   1.914
 4407SOL    HW114120   6.253   6.222   1.883
 4407SOL    HW214121   6.413   6.226   1.913
 4408SOL     OW14122   3.988   0.730   0.898
 4408SOL    HW114123   4.071   0.768   0.857
 4408SOL    HW214124   3.916   0.799   0.899
 4409SOL     OW14125   3.356   0.413   2.508
 4409SOL    HW114126   3.413   0.417   2.589
 4409SOL    HW214127   3.401   0.357   2.438
 4410SOL     OW14128   0.911   6.297   1.162
 4410SOL    HW114129   0.975   6.224   1.188
 4410SOL    HW214130   0.957   6.360   1.100
 4411SOL     OW14131   3.349   4.610   5.330
 4411SOL    HW114132   3.377   4.518   5.303
 4411SOL    HW214133   3.359   4.621   5.429
 4412SOL     OW14134   5.227   6.436   2.488
 4412SOL    HW114135   5.203   6.470   2.579
 4412SOL    HW214136   5.302   6.371   2.496
 4413SOL     OW14137   4.436   6.167   3.827
 4413SOL    HW114138   4.365   6.168   3.757
 4413SOL    HW214139   4.495   6.247   3.814
 4414SOL     OW14140   4.389   4.113   1.132
 4414SOL    HW114141   4.406   4.208   1.160
 4414SOL    HW214142   4.468   4.079   1.081
 4415SOL     OW14143   2.864   3.640   1.120
 4415SOL    HW114144   2.878   3.629   1.219
 4415SOL    HW214145   2.806   3.721   1.104
 4416SOL     OW14146   4.597   2.592   2.771
 4416SOL    HW114147   4.589   2.573   2.868
 4416SOL    HW214148   4.567   2.513   2.718
 4417SOL     OW14149   0.174   3.666   3.993
 4417SOL    HW114150   0.157   3.747   3.937
 4417SOL    HW214151   0.218   3.596   3.937
 4418SOL     OW14152   6.160   6.714   6.499
 4418SOL    HW114153   6.075   6.746   6.540
 4418SOL    HW214154   6.177   6.620   6.529
 4419SOL     OW14155   6.566   5.842   6.399
 4419SOL    HW114156   6.505   5.916   6.429
 4419SOL    HW214157   6.518   5.785   6.332
 4420SOL     OW14158   3.612   2.536   0.615
 4420SOL    HW114159   3.573   2.502   0.700
 4420SOL    HW214160   3.710   2.552   0.627
 4421SOL     OW14161   1.458   2.623   5.415
 4421SOL    HW114162   1.496   2.532   5.432
 4421SOL    HW214163   1.405   2.652   5.495
 4422SOL     OW14164   6.961   4.313   6.832
 4422SOL    HW114165   7.024   4.236   6.843
 4422SOL    HW214166   6.982   4.361   6.746
 4423SOL     OW14167   5.514   4.290   5.188
 4423SOL    HW114168   5.602   4.333   5.168
 4423SOL    HW214169   5.528   4.192   5.202
 4424SOL     OW14170   4.855   5.873   3.690
 4424SOL    HW114171   4.789   5.894   3.763
 4424SOL    HW214172   4.885   5.778   3.699
 4425SOL     OW14173   1.709   5.615   1.825
 4425SOL    HW114174   1.736   5.655   1.913
 4425SOL    HW214175   1.679   5.688   1.764
 4426SOL     OW14176   0.810   0.004   4.199
 4426SOL    HW114177   0.900   0.021   4.158
 4426SOL    HW214178   0.802   0.056   4.284
 4427SOL     OW14179   2.663   6.421   2.338
 4427SOL    HW114180   2.670   6.333   2.291
 4427SOL    HW214181   2.579   6.424   2.392
 4428SOL     OW14182   5.922   0.371   3.591
 4428SOL    HW114183   5.833   0.341   3.557
 4428SOL    HW214184   5.934   0.340   3.685
 4429SOL     OW14185   2.530   6.260   2.968
 4429SOL    HW114186   2.496   6.338   3.021
 4429SOL    HW214187   2.619   6.282   2.929
 4430SOL     OW14188   5.211   4.393   5.237
 4430SOL    HW114189   5.280   4.351   5.297
 4430SOL    HW214190   5.178   4.325   5.171
 4431SOL     OW14191   3.314   6.929   3.899
 4431SOL    HW114192   3.368   6.961   3.821
 4431SOL    HW214193   3.315   6.829   3.902
 4432SOL     OW14194   1.094   4.018   6.221
 4432SOL    HW114195   1.013   4.024   6.163
 4432SOL    HW214196   1.104   4.103   6.273
 4433SOL     OW14197   0.446   0.872   4.850
 4433SOL    HW114198   0.366   0.923   4.818
 4433SOL    HW214199   0.418   0.807   4.921
 4434SOL     OW14200   0.015   0.574   2.490
 4434SOL    HW114201   0.083   0.624   2.437
 4434SOL    HW214202   0.048   0.481   2.508
 4435SOL     OW14203   2.361   3.409   0.206
 4435SOL    HW114204   2.292   3.410   0.277
 4435SOL    HW214205   2.319   3.431   0.118
 4436SOL     OW14206   4.249   1.413   1.846
 4436SOL    HW114207   4.156   1.435   1.875
 4436SOL    HW214208   4.251   1.399   1.747
 4437SOL     OW14209   0.304   3.903   0.914
 4437SOL    HW114210   0.253   3.988   0.928
 4437SOL    HW214211   0.302   3.879   0.817
 4438SOL     OW14212   3.798   0.802   5.804
 4438SOL    HW114213   3.763   0.815   5.711
 4438SOL    HW214214   3.730   0.833   5.869
 4439SOL     OW14215   2.048   6.422   2.332
 4439SOL    HW114216   1.952   6.416   2.358
 4439SOL    HW214217   2.057   6.483   2.253
 4440SOL     OW14218   1.340   5.127   0.216
 4440SOL    HW114219   1.347   5.043   0.270
 4440SOL    HW214220   1.259   5.178   0.244
 4441SOL     OW14221   0.044   0.885   0.600
 4441SOL    HW114222   0.094   0.938   0.532
 4441SOL    HW214223   0.098   0.879   0.684
 4442SOL     OW14224   1.810   4.845   6.189
 4442SOL    HW114225   1.730   4.883   6.235
 4442SOL    HW214226   1.822   4.750   6.217
 4443SOL     OW14227   0.194   5.720   6.171
 4443SOL    HW114228   0.235   5.634   6.201
 4443SOL    HW214229   0.238   5.751   6.086
 4444SOL     OW14230   5.692   4.530   0.226
 4444SOL    HW114231   5.771   4.496   0.176
 4444SOL    HW214232   5.689   4.489   0.317
 4445SOL     OW14233   0.250   5.408   0.101
 4445SOL    HW114234   0.229   5.454   0.187
 4445SOL    HW214235   0.350   5.402   0.090
 4446SOL     OW14236   5.289   0.743   0.793
 4446SOL    HW114237   5.189   0.739   0.786
 4446SOL    HW214238   5.315   0.759   0.888
 4447SOL     OW14239   5.179   5.426   5.440
 4447SOL    HW114240   5.233   5.396   5.361
 4447SOL    HW214241   5.167   5.525   5.437
 4448SOL     OW14242   4.096   6.576   2.070
 4448SOL    HW114243   4.087   6.531   1.981
 4448SOL    HW214244   4.027   6.648   2.079
 4449SOL     OW14245   3.256   1.415   5.241
 4449SOL    HW114246   3.338   1.365   5.269
 4449SOL    HW214247   3.251   1.418   5.141
 4450SOL     OW14248   3.108   6.847   0.251
 4450SOL    HW114249   3.073   6.909   0.322
 4450SOL    HW214250   3.177   6.787   0.291
 4451SOL     OW14251   5.065   4.471   3.011
 4451SOL    HW114252   4.975   4.512   2.998
 4451SOL    HW214253   5.055   4.372   3.024
 4452SOL     OW14254   4.917   6.145   4.755
 4452SOL    HW114255   4.995   6.099   4.797
 4452SOL    HW214256   4.912   6.239   4.788
 4453SOL     OW14257   6.901   3.601   0.725
 4453SOL    HW114258   6.946   3.569   0.808
 4453SOL    HW214259   6.825   3.660   0.749
 4454SOL     OW14260   0.867   2.495   6.500
 4454SOL    HW114261   0.798   2.426   6.480
 4454SOL    HW214262   0.859   2.570   6.435
 4455SOL     OW14263   0.226   6.645   5.251
 4455SOL    HW114264   0.307   6.603   5.210
 4455SOL    HW214265   0.255   6.707   5.325
 4456SOL     OW14266   1.967   0.253   4.697
 4456SOL    HW114267   1.870   0.273   4.706
 4456SOL    HW214268   1.991   0.244   4.600
 4457SOL     OW14269   1.285   2.700   4.934
 4457SOL    HW114270   1.283   2.680   4.836
 4457SOL    HW214271   1.267   2.798   4.948
 4458SOL     OW14272   1.702   3.644   6.740
 4458SOL    HW114273   1.745   3.734   6.734
 4458SOL    HW214274   1.758   3.583   6.796
 4459SOL     OW14275   1.489   2.768   3.067
 4459SOL    HW114276   1.464   2.753   2.971
 4459SOL    HW214277   1.572   2.716   3.088
 4460SOL     OW14278   6.476   3.233   4.337
 4460SOL    HW114279   6.567   3.194   4.322
 4460SOL    HW214280   6.486   3.327   4.370
 4461SOL     OW14281   2.977   0.997   1.152
 4461SOL    HW114282   2.891   0.969   1.109
 4461SOL    HW214283   2.964   1.005   1.251
 4462SOL     OW14284   6.395   4.529   3.114
 4462SOL    HW114285   6.402   4.622   3.078
 4462SOL    HW214286   6.447   4.522   3.199
 4463SOL     OW14287   6.207   1.290   0.511
 4463SOL    HW114288   6.124   1.240   0.536
 4463SOL    HW214289   6.236   1.262   0.419
 4464SOL     OW14290   0.270   5.308   0.540
 4464SOL    HW114291   0.266   5.339   0.635
 4464SOL    HW214292   0.217   5.370   0.482
 4465SOL     OW14293   3.090   5.786   1.155
 4465SOL    HW114294   3.116   5.882   1.151
 4465SOL    HW214295   3.159   5.731   1.108
 4466SOL     OW14296   1.485   2.386   3.124
 4466SOL    HW114297   1.488   2.445   3.044
 4466SOL    HW214298   1.576   2.379   3.164
 4467SOL     OW14299   4.475   6.119   2.830
 4467SOL    HW114300   4.475   6.077   2.921
 4467SOL    HW214301   4.563   6.101   2.785
 4468SOL     OW14302   1.974   3.059   1.566
 4468SOL    HW114303   2.005   3.083   1.658
 4468SOL    HW214304   2.053   3.033   1.510
 4469SOL     OW14305   2.901   6.051   1.199
 4469SOL    HW114306   2.928   6.060   1.296
 4469SOL    HW214307   2.956   6.115   1.144
 4470SOL     OW14308   1.740   0.244   2.669
 4470SOL    HW114309   1.775   0.309   2.601
 4470SOL    HW214310   1.706   0.162   2.622
 4471SOL     OW14311   0.817   1.125   6.043
 4471SOL    HW114312   0.773   1.116   6.132
 4471SOL    HW214313   0.913   1.149   6.055
 4472SOL     OW14314   1.422   2.384   0.853
 4472SOL    HW114315   1.407   2.293   0.815
 4472SOL    HW214316   1.369   2.394   0.937
 4473SOL     OW14317   0.174   3.050   4.233
 4473SOL    HW114318   0.113   3.127   4.253
 4473SOL    HW214319   0.133   2.992   4.163
 4474SOL     OW14320   3.038   5.670   0.845
 4474SOL    HW114321   3.051   5.657   0.746
 4474SOL    HW214322   2.998   5.587   0.884
 4475SOL     OW14323   1.332   3.868   1.318
 4475SOL    HW114324   1.386   3.952   1.323
 4475SOL    HW214325   1.384   3.793   1.358
 4476SOL     OW14326   5.029   1.374   3.512
 4476SOL    HW114327   4.987   1.284   3.504
 4476SOL    HW214328   5.022   1.422   3.424
 4477SOL     OW14329   1.710   0.938   5.202
 4477SOL    HW114330   1.742   0.943   5.297
 4477SOL    HW214331   1.723   0.845   5.167
 4478SOL     OW14332   1.737   0.549   0.397
 4478SOL    HW114333   1.715   0.506   0.309
 4478SOL    HW214334   1.690   0.637   0.404
 4479SOL     OW14335   1.168   2.975   0.807
 4479SOL    HW114336   1.097   3.045   0.801
 4479SOL    HW214337   1.244   2.999   0.748
 4480SOL     OW14338   0.966   6.051   4.096
 4480SOL    HW114339   0.922   6.077   4.183
 4480SOL    HW214340   1.026   6.126   4.066
 4481SOL     OW14341   2.379   3.935   6.416
 4481SOL    HW114342   2.323   3.915   6.496
 4481SOL    HW214343   2.326   3.992   6.353
 4482SOL     OW14344   2.787   5.862   6.914
 4482SOL    HW114345   2.836   5.930   6.859
 4482SOL    HW214346   2.739   5.909   6.988
 4483SOL     OW14347   1.380   3.162   0.983
 4483SOL    HW114348   1.431   3.109   0.915
 4483SOL    HW214349   1.402   3.128   1.075
 4484SOL     OW14350   2.332   1.993   0.302
 4484SOL    HW114351   2.416   1.947   0.272
 4484SOL    HW214352   2.259   1.976   0.236
 4485SOL     OW14353   5.445   2.542   5.053
 4485SOL    HW114354   5.487   2.460   5.093
 4485SOL    HW214355   5.393   2.591   5.123
 4486SOL     OW14356   4.846   5.121   5.489
 4486SOL    HW114357   4.763   5.092   5.441
 4486SOL    HW214358   4.852   5.073   5.576
 4487SOL     OW14359   0.811   3.046   0.187
 4487SOL    HW114360   0.815   3.110   0.264
 4487SOL    HW214361   0.739   2.979   0.203
 4488SOL     OW14362   0.113   3.992   4.323
 4488SOL    HW114363   0.146   4.077   4.281
 4488SOL    HW214364   0.117   4.000   4.422
 4489SOL     OW14365   4.488   5.631   5.752
 4489SOL    HW114366   4.474   5.625   5.851
 4489SOL    HW214367   4.408   5.675   5.710
 4490SOL     OW14368   5.054   1.406   1.141
 4490SOL    HW114369   4.984   1.337   1.159
 4490SOL    HW214370   5.028   1.492   1.183
 4491SOL     OW14371   0.781   2.936   3.380
 4491SOL    HW114372   0.864   2.931   3.325
 4491SOL    HW214373   0.789   3.009   3.448
 4492SOL     OW14374   6.281   0.503   2.448
 4492SOL    HW114375   6.352   0.454   2.397
 4492SOL    HW214376   6.192   0.461   2.430
 4493SOL     OW14377   4.627   1.554   4.477
 4493SOL    HW114378   4.608   1.554   4.575
 4493SOL    HW214379   4.713   1.601   4.460
 4494SOL     OW14380   1.191   0.165   0.993
 4494SOL    HW114381   1.160   0.081   1.037
 4494SOL    HW214382   1.280   0.148   0.949
 4495SOL     OW14383   5.068   5.293   1.691
 4495SOL    HW114384   5.012   5.313   1.610
 4495SOL    HW214385   5.132   5.219   1.669
 4496SOL     OW14386   3.712   5.883   6.253
 4496SOL    HW114387   3.665   5.814   6.199
 4496SOL    HW214388   3.789   5.842   6.302
 4497SOL     OW14389   4.378   1.519   6.491
 4497SOL    HW114390   4.307   1.589   6.488
 4497SOL    HW214391   4.382   1.471   6.403
 4498SOL     OW14392   1.306   4.734   5.690
 4498SOL    HW114393   1.385   4.769   5.739
 4498SOL    HW214394   1.222   4.775   5.726
 4499SOL     OW14395   5.808   2.221   2.749
 4499SOL    HW114396   5.847   2.182   2.666
 4499SOL    HW214397   5.875   2.281   2.792
 4500SOL     OW14398   3.862   5.574   6.961
 4500SOL    HW114399   3.894   5.556   0.029
 4500SOL    HW214400   3.887   5.667   6.934
 4501SOL     OW14401   5.687   0.637   2.961
 4501SOL    HW114402   5.714   0.646   2.865
 4501SOL    HW214403   5.767   0.611   3.015
 4502SOL     OW14404   0.082   3.606   6.559
 4502SOL    HW114405   0.091   3.605   6.659
 4502SOL    HW214406   0.040   3.692   6.530
 4503SOL     OW14407   2.631   0.690   2.635
 4503SOL    HW114408   2.593   0.621   2.573
 4503SOL    HW214409   2.646   0.775   2.584
 4504SOL     OW14410   0.179   2.080   2.723
 4504SOL    HW114411   0.212   1.992   2.758
 4504SOL    HW214412   0.151   2.070   2.628
 4505SOL     OW14413   6.189   4.239   4.422
 4505SOL    HW114414   6.122   4.254   4.494
 4505SOL    HW214415   6.145   4.248   4.332
 4506SOL     OW14416   4.945   2.961   4.997
 4506SOL    HW114417   5.026   2.921   5.040
 4506SOL    HW214418   4.941   3.058   5.020
 4507SOL     OW14419   6.447   2.954   3.391
 4507SOL    HW114420   6.508   2.888   3.346
 4507SOL    HW214421   6.359   2.911   3.410
 4508SOL     OW14422   0.622   5.392   0.757
 4508SOL    HW114423   0.525   5.369   0.768
 4508SOL    HW214424   0.665   5.326   0.695
 4509SOL     OW14425   4.694   2.698   2.087
 4509SOL    HW114426   4.688   2.793   2.120
 4509SOL    HW214427   4.754   2.694   2.008
 4510SOL     OW14428   4.223   1.385   4.204
 4510SOL    HW114429   4.307   1.364   4.154
 4510SOL    HW214430   4.245   1.408   4.299
 4511SOL     OW14431   0.178   4.253   0.576
 4511SOL    HW114432   0.164   4.282   0.671
 4511SOL    HW214433   0.159   4.330   0.515
 4512SOL     OW14434   3.292   3.239   5.454
 4512SOL    HW114435   3.351   3.185   5.514
 4512SOL    HW214436   3.242   3.178   5.392
 4513SOL     OW14437   1.058   6.610   0.555
 4513SOL    HW114438   1.104   6.698   0.569
 4513SOL    HW214439   1.082   6.575   0.464
 4514SOL     OW14440   3.117   4.704   6.447
 4514SOL    HW114441   3.071   4.661   6.369
 4514SOL    HW214442   3.099   4.651   6.529
 4515SOL     OW14443   4.928   0.539   6.760
 4515SOL    HW114444   4.953   0.615   6.820
 4515SOL    HW214445   5.002   0.523   6.694
 4516SOL     OW14446   3.355   1.495   4.992
 4516SOL    HW114447   3.332   1.586   4.956
 4516SOL    HW214448   3.451   1.494   5.020
 4517SOL     OW14449   3.884   1.247   5.404
 4517SOL    HW114450   3.848   1.331   5.445
 4517SOL    HW214451   3.823   1.171   5.426
 4518SOL     OW14452   1.533   6.984   1.205
 4518SOL    HW114453   1.488   7.002   1.293
 4518SOL    HW214454   1.632   6.986   1.218
 4519SOL     OW14455   4.741   6.918   6.802
 4519SOL    HW114456   4.736   6.983   6.878
 4519SOL    HW214457   4.698   6.959   6.721
 4520SOL     OW14458   4.316   5.888   4.584
 4520SOL    HW114459   4.235   5.835   4.609
 4520SOL    HW214460   4.294   5.949   4.508
 4521SOL     OW14461   4.153   2.221   4.309
 4521SOL    HW114462   4.117   2.248   4.220
 4521SOL    HW214463   4.221   2.287   4.340
 4522SOL     OW14464   5.059   4.596   3.511
 4522SOL    HW114465   5.110   4.519   3.549
 4522SOL    HW214466   4.961   4.583   3.529
 4523SOL     OW14467   7.011   3.548   5.580
 4523SOL    HW114468   0.046   3.619   5.617
 4523SOL    HW214469   6.964   3.584   5.499
 4524SOL     OW14470   0.746   3.676   3.267
 4524SOL    HW114471   0.791   3.675   3.178
 4524SOL    HW214472   0.723   3.771   3.292
 4525SOL     OW14473   3.111   2.173   5.319
 4525SOL    HW114474   3.133   2.268   5.296
 4525SOL    HW214475   3.120   2.116   5.237
 4526SOL     OW14476   0.626   7.006   5.660
 4526SOL    HW114477   0.558   6.945   5.620
 4526SOL    HW214478   0.606   7.021   5.756
 4527SOL     OW14479   6.448   0.763   2.898
 4527SOL    HW114480   6.515   0.737   2.967
 4527SOL    HW214481   6.416   0.681   2.850
 4528SOL     OW14482   4.367   1.173   5.249
 4528SOL    HW114483   4.416   1.087   5.236
 4528SOL    HW214484   4.284   1.156   5.303
 4529SOL     OW14485   2.261   0.861   3.989
 4529SOL    HW114486   2.249   0.903   3.899
 4529SOL    HW214487   2.179   0.878   4.045
 4530SOL     OW14488   3.333   5.232   6.211
 4530SOL    HW114489   3.262   5.171   6.246
 4530SOL    HW214490   3.290   5.316   6.175
 4531SOL     OW14491   0.760   5.468   5.874
 4531SOL    HW114492   0.850   5.492   5.840
 4531SOL    HW214493   0.703   5.436   5.798
 4532SOL     OW14494   5.809   0.576   2.246
 4532SOL    HW114495   5.900   0.595   2.283
 4532SOL    HW214496   5.783   0.647   2.181
 4533SOL     OW14497   2.834   0.506   1.565
 4533SOL    HW114498   2.844   0.593   1.517
 4533SOL    HW214499   2.795   0.522   1.656
 4534SOL     OW14500   4.634   1.116   3.521
 4534SOL    HW114501   4.590   1.084   3.605
 4534SOL    HW214502   4.725   1.151   3.543
 4535SOL     OW14503   2.624   0.955   1.166
 4535SOL    HW114504   2.682   0.886   1.211
 4535SOL    HW214505   2.665   1.045   1.177
 4536SOL     OW14506   2.900   1.168   5.818
 4536SOL    HW114507   2.935   1.075   5.804
 4536SOL    HW214508   2.847   1.171   5.903
 4537SOL     OW14509   2.936   3.236   3.363
 4537SOL    HW114510   2.937   3.214   3.461
 4537SOL    HW214511   2.910   3.331   3.351
 4538SOL     OW14512   0.471   1.860   0.804
 4538SOL    HW114513   0.400   1.856   0.874
 4538SOL    HW214514   0.502   1.768   0.782
 4539SOL     OW14515   1.607   6.265   5.234
 4539SOL    HW114516   1.530   6.213   5.199
 4539SOL    HW214517   1.688   6.206   5.240
 4540SOL     OW14518   0.770   0.402   0.082
 4540SOL    HW114519   0.756   0.335   0.155
 4540SOL    HW214520   0.838   0.368   0.018
 4541SOL     OW14521   4.588   2.831   5.506
 4541SOL    HW114522   4.663   2.865   5.449
 4541SOL    HW214523   4.503   2.835   5.455
 4542SOL     OW14524   6.711   1.860   0.694
 4542SOL    HW114525   6.743   1.823   0.782
 4542SOL    HW214526   6.619   1.899   0.706
 4543SOL     OW14527   3.768   2.617   0.061
 4543SOL    HW114528   3.717   2.532   0.050
 4543SOL    HW214529   3.825   2.610   0.143
 4544SOL     OW14530   5.388   6.125   0.524
 4544SOL    HW114531   5.312   6.061   0.541
 4544SOL    HW214532   5.366   6.182   0.445
 4545SOL     OW14533   2.220   3.092   4.808
 4545SOL    HW114534   2.140   3.126   4.857
 4545SOL    HW214535   2.279   3.042   4.871
 4546SOL     OW14536   2.971   1.259   6.110
 4546SOL    HW114537   3.022   1.312   6.042
 4546SOL    HW214538   3.021   1.175   6.131
 4547SOL     OW14539   6.818   0.508   0.238
 4547SOL    HW114540   6.831   0.411   0.256
 4547SOL    HW214541   6.900   0.558   0.266
 4548SOL     OW14542   2.525   1.815   3.103
 4548SOL    HW114543   2.514   1.813   3.202
 4548SOL    HW214544   2.435   1.808   3.059
 4549SOL     OW14545   6.867   3.622   4.647
 4549SOL    HW114546   6.823   3.535   4.626
 4549SOL    HW214547   6.899   3.622   4.741
 4550SOL     OW14548   1.677   4.304   3.321
 4550SOL    HW114549   1.581   4.281   3.306
 4550SOL    HW214550   1.736   4.241   3.270
 4551SOL     OW14551   1.411   2.864   5.253
 4551SOL    HW114552   1.405   2.766   5.272
 4551SOL    HW214553   1.318   2.901   5.241
 4552SOL     OW14554   5.613   1.261   0.697
 4552SOL    HW114555   5.518   1.250   0.666
 4552SOL    HW214556   5.624   1.217   0.786
 4553SOL     OW14557   6.774   5.261   6.627
 4553SOL    HW114558   6.814   5.321   6.697
 4553SOL    HW214559   6.769   5.168   6.663
 4554SOL     OW14560   6.638   6.455   3.388
 4554SOL    HW114561   6.708   6.434   3.457
 4554SOL    HW214562   6.559   6.497   3.432
 4555SOL     OW14563   1.554   1.159   6.741
 4555SOL    HW114564   1.616   1.136   6.666
 4555SOL    HW214565   1.502   1.078   6.768
 4556SOL     OW14566   5.608   4.756   4.832
 4556SOL    HW114567   5.690   4.807   4.803
 4556SOL    HW214568   5.574   4.794   4.917
 4557SOL     OW14569   6.715   4.430   2.990
 4557SOL    HW114570   6.690   4.389   3.078
 4557SOL    HW214571   6.675   4.375   2.916
 4558SOL     OW14572   0.368   3.483   5.482
 4558SOL    HW114573   0.401   3.577   5.481
 4558SOL    HW214574   0.444   3.421   5.465
 4559SOL     OW14575   6.911   2.813   3.065
 4559SOL    HW114576   6.877   2.738   3.122
 4559SOL    HW214577   7.011   2.804   3.055
 4560SOL     OW14578   6.047   4.358   2.943
 4560SOL    HW114579   6.053   4.387   3.039
 4560SOL    HW214580   6.093   4.270   2.931
 4561SOL     OW14581   3.891   2.028   4.216
 4561SOL    HW114582   3.853   1.939   4.191
 4561SOL    HW214583   3.985   2.016   4.250
 4562SOL     OW14584   3.521   1.258   1.319
 4562SOL    HW114585   3.441   1.214   1.358
 4562SOL    HW214586   3.604   1.216   1.356
 4563SOL     OW14587   0.852   4.275   1.893
 4563SOL    HW114588   0.782   4.221   1.846
 4563SOL    HW214589   0.942   4.236   1.873
 4564SOL     OW14590   1.524   3.930   2.255
 4564SOL    HW114591   1.529   3.998   2.328
 4564SOL    HW214592   1.503   3.841   2.294
 4565SOL     OW14593   1.893   5.745   6.041
 4565SOL    HW114594   1.829   5.818   6.017
 4565SOL    HW214595   1.956   5.729   5.965
 4566SOL     OW14596   6.001   4.910   2.685
 4566SOL    HW114597   5.976   4.921   2.781
 4566SOL    HW214598   5.997   4.998   2.639
 4567SOL     OW14599   0.313   0.331   6.663
 4567SOL    HW114600   0.324   0.411   6.721
 4567SOL    HW214601   0.384   0.330   6.593
 4568SOL     OW14602   1.454   5.588   3.757
 4568SOL    HW114603   1.547   5.568   3.788
 4568SOL    HW214604   1.449   5.577   3.658
 4569SOL     OW14605   2.034   0.950   3.299
 4569SOL    HW114606   1.993   0.915   3.383
 4569SOL    HW214607   2.029   0.881   3.227
 4570SOL     OW14608   5.925   6.192   2.073
 4570SOL    HW114609   5.846   6.251   2.053
 4570SOL    HW214610   5.970   6.224   2.156
 4571SOL     OW14611   3.071   3.214   0.000
 4571SOL    HW114612   3.145   3.279   7.008
 4571SOL    HW214613   3.087   3.130   6.973
 4572SOL     OW14614   3.008   3.261   1.734
 4572SOL    HW114615   3.005   3.296   1.641
 4572SOL    HW214616   2.922   3.283   1.781
 4573SOL     OW14617   2.676   5.515   1.888
 4573SOL    HW114618   2.595   5.522   1.830
 4573SOL    HW214619   2.756   5.501   1.830
 4574SOL     OW14620   5.474   1.084   1.381
 4574SOL    HW114621   5.541   1.070   1.308
 4574SOL    HW214622   5.400   1.141   1.348
 4575SOL     OW14623   0.276   6.851   5.438
 4575SOL    HW114624   0.206   6.911   5.477
 4575SOL    HW214625   0.321   6.899   5.362
 4576SOL     OW14626   2.789   4.857   5.186
 4576SOL    HW114627   2.825   4.776   5.140
 4576SOL    HW214628   2.805   4.849   5.284
 4577SOL     OW14629   1.328   1.919   2.192
 4577SOL    HW114630   1.234   1.885   2.185
 4577SOL    HW214631   1.375   1.904   2.105
 4578SOL     OW14632   1.831   1.535   2.473
 4578SOL    HW114633   1.855   1.631   2.457
 4578SOL    HW214634   1.912   1.478   2.460
 4579SOL     OW14635   4.613   1.304   2.833
 4579SOL    HW114636   4.526   1.281   2.789
 4579SOL    HW214637   4.649   1.224   2.881
 4580SOL     OW14638   6.911   2.031   0.488
 4580SOL    HW114639   6.980   1.960   0.501
 4580SOL    HW214640   6.831   2.010   0.544
 4581SOL     OW14641   3.446   0.561   1.303
 4581SOL    HW114642   3.422   0.615   1.384
 4581SOL    HW214643   3.365   0.552   1.244
 4582SOL     OW14644   5.954   1.445   3.548
 4582SOL    HW114645   6.011   1.483   3.475
 4582SOL    HW214646   6.007   1.440   3.632
 4583SOL     OW14647   0.922   0.190   6.867
 4583SOL    HW114648   0.828   0.157   6.855
 4583SOL    HW214649   0.943   0.256   6.794
 4584SOL     OW14650   1.292   0.586   4.690
 4584SOL    HW114651   1.241   0.670   4.708
 4584SOL    HW214652   1.315   0.581   4.592
 4585SOL     OW14653   1.885   3.606   3.889
 4585SOL    HW114654   1.955   3.541   3.919
 4585SOL    HW214655   1.876   3.603   3.790
 4586SOL     OW14656   5.604   4.766   6.660
 4586SOL    HW114657   5.573   4.854   6.623
 4586SOL    HW214658   5.684   4.736   6.610
 4587SOL     OW14659   2.945   3.226   4.766
 4587SOL    HW114660   2.921   3.147   4.822
 4587SOL    HW214661   3.031   3.208   4.718
 4588SOL     OW14662   2.998   3.770   6.219
 4588SOL    HW114663   2.972   3.767   6.123
 4588SOL    HW214664   3.038   3.859   6.240
 4589SOL     OW14665   6.433   6.615   3.139
 4589SOL    HW114666   6.494   6.642   3.213
 4589SOL    HW214667   6.347   6.582   3.176
 4590SOL     OW14668   3.041   5.404   0.966
 4590SOL    HW114669   2.953   5.362   0.991
 4590SOL    HW214670   3.115   5.358   1.015
 4591SOL     OW14671   1.896   0.545   5.524
 4591SOL    HW114672   1.930   0.455   5.552
 4591SOL    HW214673   1.905   0.609   5.600
 4592SOL     OW14674   1.862   1.568   3.684
 4592SOL    HW114675   1.788   1.623   3.722
 4592SOL    HW214676   1.915   1.529   3.759
 4593SOL     OW14677   1.530   6.279   4.537
 4593SOL    HW114678   1.543   6.237   4.627
 4593SOL    HW214679   1.575   6.223   4.468
 4594SOL     OW14680   1.533   0.632   3.305
 4594SOL    HW114681   1.604   0.582   3.354
 4594SOL    HW214682   1.541   0.614   3.207
 4595SOL     OW14683   5.457   2.281   6.726
 4595SOL    HW114684   5.537   2.271   6.785
 4595SOL    HW214685   5.378   2.306   6.781
 4596SOL     OW14686   0.021   1.049   2.284
 4596SOL    HW114687   6.969   0.986   2.288
 4596SOL    HW214688   0.038   1.085   2.376
 4597SOL     OW14689   2.977   6.243   0.271
 4597SOL    HW114690   2.917   6.259   0.350
 4597SOL    HW214691   3.047   6.314   0.267
 4598SOL     OW14692   1.619   4.612   0.133
 4598SOL    HW114693   1.545   4.659   0.182
 4598SOL    HW214694   1.703   4.666   0.140
 4599SOL     OW14695   2.369   5.698   2.308
 4599SOL    HW114696   2.439   5.769   2.311
 4599SOL    HW214697   2.333   5.689   2.215
 4600SOL     OW14698   0.113   6.653   5.865
 4600SOL    HW114699   0.212   6.651   5.878
 4600SOL    HW214700   0.076   6.734   5.909
 4601SOL     OW14701   1.975   1.050   4.993
 4601SOL    HW114702   1.882   1.071   5.022
 4601SOL    HW214703   1.973   0.983   4.919
 4602SOL     OW14704   2.889   2.412   6.537
 4602SOL    HW114705   2.795   2.444   6.532
 4602SOL    HW214706   2.905   2.344   6.466
 4603SOL     OW14707   4.961   0.072   0.558
 4603SOL    HW114708   5.034   0.096   0.622
 4603SOL    HW214709   4.875   0.113   0.589
 4604SOL     OW14710   5.781   6.853   5.705
 4604SOL    HW114711   5.709   6.914   5.737
 4604SOL    HW214712   5.756   6.814   5.617
 4605SOL     OW14713   3.616   0.331   1.982
 4605SOL    HW114714   3.646   0.380   1.900
 4605SOL    HW214715   3.666   0.365   2.061
 4606SOL     OW14716   6.667   6.571   4.584
 4606SOL    HW114717   6.764   6.569   4.607
 4606SOL    HW214718   6.630   6.478   4.588
 4607SOL     OW14719   2.303   2.341   1.257
 4607SOL    HW114720   2.257   2.370   1.173
 4607SOL    HW214721   2.257   2.261   1.295
 4608SOL     OW14722   6.672   2.960   4.461
 4608SOL    HW114723   6.719   2.968   4.549
 4608SOL    HW214724   6.573   2.964   4.475
 4609SOL     OW14725   4.191   6.106   6.604
 4609SOL    HW114726   4.127   6.132   6.678
 4609SOL    HW214727   4.246   6.028   6.634
 4610SOL     OW14728   5.471   3.391   0.204
 4610SOL    HW114729   5.513   3.300   0.204
 4610SOL    HW214730   5.374   3.382   0.226
 4611SOL     OW14731   1.033   0.756   6.363
 4611SOL    HW114732   1.057   0.766   6.459
 4611SOL    HW214733   1.107   0.792   6.306
 4612SOL     OW14734   2.467   1.191   1.361
 4612SOL    HW114735   2.387   1.233   1.403
 4612SOL    HW214736   2.450   1.094   1.344
 4613SOL     OW14737   1.729   4.528   1.229
 4613SOL    HW114738   1.702   4.432   1.238
 4613SOL    HW214739   1.818   4.533   1.182
 4614SOL     OW14740   6.576   4.228   4.412
 4614SOL    HW114741   6.501   4.162   4.405
 4614SOL    HW214742   6.660   4.187   4.375
 4615SOL     OW14743   1.248   2.788   0.121
 4615SOL    HW114744   1.159   2.767   0.080
 4615SOL    HW214745   1.291   2.863   0.071
 4616SOL     OW14746   6.437   2.787   6.098
 4616SOL    HW114747   6.405   2.694   6.111
 4616SOL    HW214748   6.359   2.849   6.088
 4617SOL     OW14749   0.132   2.993   3.212
 4617SOL    HW114750   0.046   2.995   3.161
 4617SOL    HW214751   0.132   3.067   3.279
 4618SOL     OW14752   1.855   4.321   5.736
 4618SOL    HW114753   1.824   4.234   5.775
 4618SOL    HW214754   1.775   4.379   5.716
 4619SOL     OW14755   4.064   6.150   6.155
 4619SOL    HW114756   4.050   6.102   6.241
 4619SOL    HW214757   3.976   6.160   6.108
 4620SOL     OW14758   0.413   4.627   2.130
 4620SOL    HW114759   0.428   4.538   2.171
 4620SOL    HW214760   0.501   4.666   2.102
 4621SOL     OW14761   3.964   0.141   3.041
 4621SOL    HW114762   4.042   0.198   3.065
 4621SOL    HW214763   3.973   0.110   2.947
 4622SOL     OW14764   5.572   5.944   1.996
 4622SOL    HW114765   5.584   5.885   1.916
 4622SOL    HW214766   5.554   6.037   1.966
 4623SOL     OW14767   2.631   5.097   1.075
 4623SOL    HW114768   2.608   5.171   1.013
 4623SOL    HW214769   2.730   5.083   1.075
 4624SOL     OW14770   4.499   1.024   2.052
 4624SOL    HW114771   4.487   0.926   2.068
 4624SOL    HW214772   4.594   1.049   2.068
 4625SOL     OW14773   1.527   6.115   2.037
 4625SOL    HW114774   1.610   6.120   2.093
 4625SOL    HW214775   1.478   6.030   2.059
 4626SOL     OW14776   4.522   3.853   1.688
 4626SOL    HW114777   4.456   3.928   1.694
 4626SOL    HW214778   4.606   3.886   1.647
 4627SOL     OW14779   5.686   7.010   5.042
 4627SOL    HW114780   5.635   0.070   5.036
 4627SOL    HW214781   5.780   0.001   5.012
 4628SOL     OW14782   5.503   5.214   4.235
 4628SOL    HW114783   5.474   5.217   4.331
 4628SOL    HW214784   5.425   5.231   4.176
 4629SOL     OW14785   2.452   6.301   6.912
 4629SOL    HW114786   2.376   6.308   6.977
 4629SOL    HW214787   2.538   6.296   6.963
 4630SOL     OW14788   2.023   3.242   2.263
 4630SOL    HW114789   1.934   3.253   2.220
 4630SOL    HW214790   2.074   3.328   2.259
 4631SOL     OW14791   6.978   0.726   3.405
 4631SOL    HW114792   6.978   0.724   3.305
 4631SOL    HW214793   0.012   0.653   3.440
 4632SOL     OW14794   3.484   4.938   2.520
 4632SOL    HW114795   3.579   4.936   2.488
 4632SOL    HW214796   3.470   5.019   2.578
 4633SOL     OW14797   5.236   1.494   4.179
 4633SOL    HW114798   5.297   1.425   4.141
 4633SOL    HW214799   5.241   1.491   4.279
 4634SOL     OW14800   2.941   3.833   4.898
 4634SOL    HW114801   2.976   3.739   4.905
 4634SOL    HW214802   2.858   3.842   4.953
 4635SOL     OW14803   4.952   6.661   1.643
 4635SOL    HW114804   4.952   6.745   1.589
 4635SOL    HW214805   4.945   6.582   1.581
 4636SOL     OW14806   2.095   5.417   0.624
 4636SOL    HW114807   2.178   5.415   0.568
 4636SOL    HW214808   2.033   5.488   0.592
 4637SOL     OW14809   2.844   1.343   3.059
 4637SOL    HW114810   2.863   1.246   3.069
 4637SOL    HW214811   2.874   1.391   3.142
 4638SOL     OW14812   3.469   5.069   0.578
 4638SOL    HW114813   3.461   5.168   0.594
 4638SOL    HW214814   3.395   5.023   0.627
 4639SOL     OW14815   3.187   2.236   1.137
 4639SOL    HW114816   3.262   2.170   1.132
 4639SOL    HW214817   3.222   2.325   1.166
 4640SOL     OW14818   6.567   2.645   6.908
 4640SOL    HW114819   6.469   2.643   6.891
 4640SOL    HW214820   6.585   2.672   7.002
 4641SOL     OW14821   1.184   5.875   3.999
 4641SOL    HW114822   1.207   5.793   4.053
 4641SOL    HW214823   1.093   5.908   4.026
 4642SOL     OW14824   7.023   1.366   3.616
 4642SOL    HW114825   7.003   1.463   3.603
 4642SOL    HW214826   0.097   1.354   3.623
 4643SOL     OW14827   0.059   1.870   0.196
 4643SOL    HW114828   0.128   1.928   0.238
 4643SOL    HW214829   6.999   1.922   0.185
 4644SOL     OW14830   0.897   1.110   0.496
 4644SOL    HW114831   0.984   1.159   0.504
 4644SOL    HW214832   0.884   1.051   0.575
 4645SOL     OW14833   0.742   1.920   4.025
 4645SOL    HW114834   0.796   1.945   3.945
 4645SOL    HW214835   0.790   1.948   4.108
 4646SOL     OW14836   2.010   5.210   4.015
 4646SOL    HW114837   2.000   5.130   4.076
 4646SOL    HW214838   1.923   5.258   4.011
 4647SOL     OW14839   1.217   6.140   2.258
 4647SOL    HW114840   1.190   6.133   2.162
 4647SOL    HW214841   1.308   6.101   2.271
 4648SOL     OW14842   2.675   1.856   4.776
 4648SOL    HW114843   2.622   1.932   4.815
 4648SOL    HW214844   2.720   1.805   4.850
 4649SOL     OW14845   6.544   1.058   6.834
 4649SOL    HW114846   6.553   1.065   6.934
 4649SOL    HW214847   6.483   0.982   6.812
 4650SOL     OW14848   5.748   5.848   1.651
 4650SOL    HW114849   5.660   5.815   1.616
 4650SOL    HW214850   5.777   5.791   1.728
 4651SOL     OW14851   6.478   3.590   6.270
 4651SOL    HW114852   6.464   3.493   6.292
 4651SOL    HW214853   6.551   3.627   6.327
 4652SOL     OW14854   0.331   6.667   4.737
 4652SOL    HW114855   0.347   6.745   4.677
 4652SOL    HW214856   0.300   6.699   4.826
 4653SOL     OW14857   5.426   5.516   0.850
 4653SOL    HW114858   5.417   5.513   0.949
 4653SOL    HW214859   5.350   5.467   0.808
 4654SOL     OW14860   0.994   0.124   5.148
 4654SOL    HW114861   1.084   0.113   5.189
 4654SOL    HW214862   0.957   0.213   5.172
 4655SOL     OW14863   4.761   2.702   1.244
 4655SOL    HW114864   4.805   2.780   1.288
 4655SOL    HW214865   4.768   2.622   1.304
 4656SOL     OW14866   0.510   1.227   1.681
 4656SOL    HW114867   0.555   1.312   1.653
 4656SOL    HW214868   0.577   1.152   1.679
 4657SOL     OW14869   5.044   0.352   2.206
 4657SOL    HW114870   5.010   0.445   2.192
 4657SOL    HW214871   5.010   0.293   2.133
 4658SOL     OW14872   1.670   2.691   5.988
 4658SOL    HW114873   1.603   2.756   6.023
 4658SOL    HW214874   1.626   2.629   5.922
 4659SOL     OW14875   2.455   4.671   0.104
 4659SOL    HW114876   2.451   4.572   0.105
 4659SOL    HW214877   2.506   4.701   0.023
 4660SOL     OW14878   1.039   6.491   4.198
 4660SOL    HW114879   1.066   6.577   4.240
 4660SOL    HW214880   0.959   6.454   4.245
 4661SOL     OW14881   0.768   2.490   5.560
 4661SOL    HW114882   0.760   2.524   5.466
 4661SOL    HW214883   0.783   2.391   5.558
 4662SOL     OW14884   2.506   6.724   5.314
 4662SOL    HW114885   2.482   6.806   5.261
 4662SOL    HW214886   2.423   6.672   5.333
 4663SOL     OW14887   1.411   0.253   0.042
 4663SOL    HW114888   1.329   0.214   0.000
 4663SOL    HW214889   1.437   0.198   0.121
 4664SOL     OW14890   7.006   6.833   6.918
 4664SOL    HW114891   0.073   6.824   6.955
 4664SOL    HW214892   6.949   6.882   6.983
 4665SOL     OW14893   1.994   0.265   4.391
 4665SOL    HW114894   2.080   0.307   4.417
 4665SOL    HW214895   2.007   0.209   4.309
 4666SOL     OW14896   2.851   1.913   5.396
 4666SOL    HW114897   2.871   2.001   5.440
 4666SOL    HW214898   2.771   1.923   5.337
 4667SOL     OW14899   6.752   4.005   1.179
 4667SOL    HW114900   6.738   3.958   1.092
 4667SOL    HW214901   6.850   4.025   1.190
 4668SOL     OW14902   4.310   2.222   3.974
 4668SOL    HW114903   4.216   2.215   4.008
 4668SOL    HW214904   4.308   2.250   3.878
 4669SOL     OW14905   5.847   6.595   6.444
 4669SOL    HW114906   5.777   6.530   6.474
 4669SOL    HW214907   5.903   6.553   6.373
 4670SOL     OW14908   0.288   2.531   0.623
 4670SOL    HW114909   0.385   2.547   0.607
 4670SOL    HW214910   0.255   2.462   0.558
 4671SOL     OW14911   0.890   3.674   0.834
 4671SOL    HW114912   0.877   3.674   0.735
 4671SOL    HW214913   0.804   3.696   0.879
 4672SOL     OW14914   2.556   3.850   6.875
 4672SOL    HW114915   2.626   3.842   6.946
 4672SOL    HW214916   2.577   3.786   6.800
 4673SOL     OW14917   5.895   0.490   7.001
 4673SOL    HW114918   5.902   0.564   0.042
 4673SOL    HW214919   5.983   0.479   6.954
 4674SOL     OW14920   1.408   2.111   0.780
 4674SOL    HW114921   1.386   2.014   0.767
 4674SOL    HW214922   1.507   2.123   0.780
 4675SOL     OW14923   2.194   5.840   0.238
 4675SOL    HW114924   2.223   5.761   0.183
 4675SOL    HW214925   2.109   5.818   0.286
 4676SOL     OW14926   0.254   5.997   4.134
 4676SOL    HW114927   0.293   6.050   4.209
 4676SOL    HW214928   0.302   6.019   4.049
 4677SOL     OW14929   4.445   0.423   6.457
 4677SOL    HW114930   4.523   0.388   6.405
 4677SOL    HW214931   4.457   0.521   6.473
 4678SOL     OW14932   2.375   4.676   6.399
 4678SOL    HW114933   2.475   4.665   6.401
 4678SOL    HW214934   2.337   4.626   6.322
 4679SOL     OW14935   2.997   0.912   5.762
 4679SOL    HW114936   2.994   0.816   5.792
 4679SOL    HW214937   3.011   0.915   5.663
 4680SOL     OW14938   2.025   4.911   0.249
 4680SOL    HW114939   2.022   4.991   0.309
 4680SOL    HW214940   2.087   4.843   0.287
 4681SOL     OW14941   0.877   5.735   5.180
 4681SOL    HW114942   0.959   5.791   5.191
 4681SOL    HW214943   0.800   5.793   5.154
 4682SOL     OW14944   4.406   6.619   1.004
 4682SOL    HW114945   4.384   6.628   1.101
 4682SOL    HW214946   4.344   6.676   0.950
 4683SOL     OW14947   6.543   4.370   3.546
 4683SOL    HW114948   6.529   4.277   3.579
 4683SOL    HW214949   6.558   4.431   3.623
 4684SOL     OW14950   1.549   0.768   4.573
 4684SOL    HW114951   1.534   0.801   4.666
 4684SOL    HW214952   1.467   0.781   4.518
 4685SOL     OW14953   5.002   4.906   4.966
 4685SOL    HW114954   4.914   4.901   4.918
 4685SOL    HW214955   5.075   4.874   4.905
 4686SOL     OW14956   4.050   5.720   0.309
 4686SOL    HW114957   4.013   5.660   0.238
 4686SOL    HW214958   4.150   5.728   0.298
 4687SOL     OW14959   6.007   6.222   4.634
 4687SOL    HW114960   6.071   6.209   4.558
 4687SOL    HW214961   5.975   6.316   4.635
 4688SOL     OW14962   0.370   2.137   6.491
 4688SOL    HW114963   0.303   2.118   6.419
 4688SOL    HW214964   0.422   2.054   6.510
 4689SOL     OW14965   1.190   5.581   5.158
 4689SOL    HW114966   1.113   5.517   5.152
 4689SOL    HW214967   1.172   5.648   5.230
 4690SOL     OW14968   1.721   2.334   7.016
 4690SOL    HW114969   1.669   2.343   6.931
 4690SOL    HW214970   1.661   2.299   0.063
 4691SOL     OW14971   2.788   5.211   0.666
 4691SOL    HW114972   2.762   5.249   0.755
 4691SOL    HW214973   2.863   5.266   0.627
 4692SOL     OW14974   0.600   5.306   3.189
 4692SOL    HW114975   0.534   5.308   3.114
 4692SOL    HW214976   0.675   5.368   3.169
 4693SOL     OW14977   0.391   1.619   3.617
 4693SOL    HW114978   0.481   1.611   3.659
 4693SOL    HW214979   0.338   1.536   3.635
 4694SOL     OW14980   1.014   2.395   6.162
 4694SOL    HW114981   1.014   2.464   6.090
 4694SOL    HW214982   1.108   2.365   6.179
 4695SOL     OW14983   3.359   3.125   1.998
 4695SOL    HW114984   3.355   3.216   2.041
 4695SOL    HW214985   3.267   3.098   1.970
 4696SOL     OW14986   0.171   3.309   6.860
 4696SOL    HW114987   0.085   3.275   6.823
 4696SOL    HW214988   0.246   3.287   6.797
 4697SOL     OW14989   0.626   5.002   6.876
 4697SOL    HW114990   0.583   4.994   6.966
 4697SOL    HW214991   0.574   4.947   6.810
 4698SOL     OW14992   5.535   3.050   1.132
 4698SOL    HW114993   5.581   3.061   1.044
 4698SOL    HW214994   5.496   3.137   1.160
 4699SOL     OW14995   6.904   0.451   3.518
 4699SOL    HW114996   6.819   0.504   3.507
 4699SOL    HW214997   6.969   0.504   3.573
 4700SOL     OW14998   5.032   0.608   1.294
 4700SOL    HW114999   5.004   0.555   1.214
 4700SOL    HW215000   4.962   0.602   1.365
 4701SOL     OW15001   0.797   0.931   0.997
 4701SOL    HW115002   0.782   0.859   0.929
 4701SOL    HW215003   0.789   0.892   1.089
 4702SOL     OW15004   3.174   4.366   0.360
 4702SOL    HW115005   3.082   4.404   0.349
 4702SOL    HW215006   3.191   4.347   0.456
 4703SOL     OW15007   2.067   0.664   1.681
 4703SOL    HW115008   2.024   0.651   1.771
 4703SOL    HW215009   2.035   0.593   1.619
 4704SOL     OW15010   5.059   6.651   0.441
 4704SOL    HW115011   4.980   6.712   0.443
 4704SOL    HW215012   5.030   6.558   0.463
 4705SOL     OW15013   3.421   3.575   4.519
 4705SOL    HW115014   3.400   3.509   4.448
 4705SOL    HW215015   3.455   3.659   4.477
 4706SOL     OW15016   4.033   5.818   0.853
 4706SOL    HW115017   4.003   5.757   0.780
 4706SOL    HW215018   3.995   5.787   0.940
 4707SOL     OW15019   2.115   5.818   0.974
 4707SOL    HW115020   2.192   5.760   0.948
 4707SOL    HW215021   2.098   5.886   0.903
 4708SOL     OW15022   2.537   2.479   2.042
 4708SOL    HW115023   2.498   2.536   2.114
 4708SOL    HW215024   2.602   2.413   2.082
 4709SOL     OW15025   3.844   4.515   5.968
 4709SOL    HW115026   3.770   4.469   6.018
 4709SOL    HW215027   3.919   4.535   6.031
 4710SOL     OW15028   5.130   1.713   0.731
 4710SOL    HW115029   5.201   1.718   0.660
 4710SOL    HW215030   5.139   1.626   0.780
 4711SOL     OW15031   3.064   0.407   2.437
 4711SOL    HW115032   3.156   0.435   2.465
 4711SOL    HW215033   3.070   0.354   2.353
 4712SOL     OW15034   1.735   4.582   0.425
 4712SOL    HW115035   1.752   4.486   0.401
 4712SOL    HW215036   1.667   4.620   0.363
 4713SOL     OW15037   1.863   5.722   0.968
 4713SOL    HW115038   1.839   5.674   1.053
 4713SOL    HW215039   1.962   5.721   0.956
 4714SOL     OW15040   3.200   2.495   1.177
 4714SOL    HW115041   3.263   2.568   1.147
 4714SOL    HW215042   3.108   2.515   1.144
 4715SOL     OW15043   6.736   3.672   3.562
 4715SOL    HW115044   6.676   3.710   3.491
 4715SOL    HW215045   6.687   3.603   3.615
 4716SOL     OW15046   3.224   5.905   0.849
 4716SOL    HW115047   3.225   5.955   0.936
 4716SOL    HW215048   3.147   5.840   0.849
 4717SOL     OW15049   1.753   5.891   3.894
 4717SOL    HW115050   1.730   5.842   3.979
 4717SOL    HW215051   1.775   5.986   3.915
 4718SOL     OW15052   5.859   1.141   5.914
 4718SOL    HW115053   5.895   1.166   6.005
 4718SOL    HW215054   5.802   1.215   5.879
 4719SOL     OW15055   4.296   2.713   1.121
 4719SOL    HW115056   4.292   2.799   1.172
 4719SOL    HW215057   4.224   2.711   1.052
 4720SOL     OW15058   2.844   1.041   4.875
 4720SOL    HW115059   2.810   0.983   4.801
 4720SOL    HW215060   2.800   1.131   4.871
 4721SOL     OW15061   1.252   2.171   1.538
 4721SOL    HW115062   1.317   2.097   1.522
 4721SOL    HW215063   1.248   2.230   1.457
 4722SOL     OW15064   2.068   0.107   0.475
 4722SOL    HW115065   2.102   0.134   0.565
 4722SOL    HW215066   2.143   0.109   0.409
 4723SOL     OW15067   2.502   6.764   6.699
 4723SOL    HW115068   2.409   6.742   6.730
 4723SOL    HW215069   2.498   6.836   6.631
 4724SOL     OW15070   4.776   5.799   1.808
 4724SOL    HW115071   4.874   5.781   1.800
 4724SOL    HW215072   4.749   5.865   1.737
 4725SOL     OW15073   5.712   6.032   3.265
 4725SOL    HW115074   5.721   5.948   3.318
 4725SOL    HW215075   5.642   6.090   3.306
 4726SOL     OW15076   0.309   5.096   6.731
 4726SOL    HW115077   0.232   5.131   6.678
 4726SOL    HW215078   0.337   5.164   6.798
 4727SOL     OW15079   0.146   6.497   0.045
 4727SOL    HW115080   0.153   6.483   6.972
 4727SOL    HW215081   0.050   6.506   0.071
 4728SOL     OW15082   0.155   0.630   7.010
 4728SOL    HW115083   0.129   0.724   6.987
 4728SOL    HW215084   0.093   0.594   0.054
 4729SOL     OW15085   3.476   0.420   1.564
 4729SOL    HW115086   3.440   0.348   1.504
 4729SOL    HW215087   3.576   0.424   1.554
 4730SOL     OW15088   1.939   0.262   5.533
 4730SOL    HW115089   1.890   0.212   5.461
 4730SOL    HW215090   1.935   0.210   5.618
 4731SOL     OW15091   5.341   1.328   5.938
 4731SOL    HW115092   5.332   1.399   5.868
 4731SOL    HW215093   5.253   1.280   5.948
 4732SOL     OW15094   0.042   1.812   0.548
 4732SOL    HW115095   0.084   1.784   0.634
 4732SOL    HW215096   0.022   1.730   0.493
 4733SOL     OW15097   6.836   2.987   3.486
 4733SOL    HW115098   6.748   2.982   3.534
 4733SOL    HW215099   6.820   2.998   3.388
 4734SOL     OW15100   4.103   4.406   6.864
 4734SOL    HW115101   4.033   4.476   6.850
 4734SOL    HW215102   4.092   4.364   6.953
 4735SOL     OW15103   1.140   4.918   3.240
 4735SOL    HW115104   1.229   4.960   3.252
 4735SOL    HW215105   1.091   4.963   3.164
 4736SOL     OW15106   1.201   0.589   0.758
 4736SOL    HW115107   1.105   0.568   0.776
 4736SOL    HW215108   1.211   0.686   0.736
 4737SOL     OW15109   2.207   5.429   1.960
 4737SOL    HW115110   2.290   5.428   2.016
 4737SOL    HW215111   2.164   5.519   1.967
 4738SOL     OW15112   6.898   6.383   2.457
 4738SOL    HW115113   6.831   6.374   2.530
 4738SOL    HW215114   6.928   6.293   2.427
 4739SOL     OW15115   4.596   0.203   1.047
 4739SOL    HW115116   4.502   0.219   1.079
 4739SOL    HW215117   4.657   0.269   1.089
 4740SOL     OW15118   0.636   2.011   3.154
 4740SOL    HW115119   0.622   1.913   3.158
 4740SOL    HW215120   0.551   2.058   3.176
 4741SOL     OW15121   3.948   3.754   1.594
 4741SOL    HW115122   3.965   3.841   1.640
 4741SOL    HW215123   3.988   3.755   1.503
 4742SOL     OW15124   3.125   6.704   0.850
 4742SOL    HW115125   3.182   6.697   0.932
 4742SOL    HW215126   3.184   6.719   0.771
 4743SOL     OW15127   2.063   5.048   1.420
 4743SOL    HW115128   2.092   5.142   1.436
 4743SOL    HW215129   1.969   5.047   1.385
 4744SOL     OW15130   2.361   5.716   0.886
 4744SOL    HW115131   2.453   5.744   0.912
 4744SOL    HW215132   2.360   5.619   0.864
 4745SOL     OW15133   1.227   4.630   6.937
 4745SOL    HW115134   1.195   4.545   6.979
 4745SOL    HW215135   1.305   4.610   6.877
 4746SOL     OW15136   4.691   5.659   3.891
 4746SOL    HW115137   4.592   5.649   3.894
 4746SOL    HW215138   4.733   5.572   3.864
 4747SOL     OW15139   1.465   1.901   0.339
 4747SOL    HW115140   1.515   1.966   0.397
 4747SOL    HW215141   1.367   1.904   0.362
 4748SOL     OW15142   1.849   6.769   2.761
 4748SOL    HW115143   1.857   6.868   2.752
 4748SOL    HW215144   1.870   6.743   2.856
 4749SOL     OW15145   1.948   1.081   6.364
 4749SOL    HW115146   1.981   0.997   6.320
 4749SOL    HW215147   1.865   1.112   6.319
 4750SOL     OW15148   4.988   2.678   5.314
 4750SOL    HW115149   4.929   2.612   5.266
 4750SOL    HW215150   4.933   2.755   5.346
 4751SOL     OW15151   4.554   0.538   3.441
 4751SOL    HW115152   4.454   0.533   3.440
 4751SOL    HW215153   4.588   0.513   3.531
 4752SOL     OW15154   4.454   1.745   0.152
 4752SOL    HW115155   4.430   1.675   0.085
 4752SOL    HW215156   4.509   1.816   0.107
 4753SOL     OW15157   3.335   5.987   5.181
 4753SOL    HW115158   3.241   5.973   5.152
 4753SOL    HW215159   3.337   6.029   5.271
 4754SOL     OW15160   4.740   4.998   6.720
 4754SOL    HW115161   4.711   4.903   6.735
 4754SOL    HW215162   4.775   5.007   6.627
 4755SOL     OW15163   1.459   0.857   1.409
 4755SOL    HW115164   1.460   0.809   1.496
 4755SOL    HW215165   1.408   0.943   1.418
 4756SOL     OW15166   6.153   4.019   6.609
 4756SOL    HW115167   6.201   3.952   6.666
 4756SOL    HW215168   6.218   4.088   6.577
 4757SOL     OW15169   1.968   3.694   1.486
 4757SOL    HW115170   1.947   3.598   1.464
 4757SOL    HW215171   1.889   3.735   1.531
 4758SOL     OW15172   3.254   6.013   3.078
 4758SOL    HW115173   3.235   6.089   3.016
 4758SOL    HW215174   3.206   6.027   3.164
 4759SOL     OW15175   0.767   5.476   1.549
 4759SOL    HW115176   0.834   5.413   1.589
 4759SOL    HW215177   0.814   5.545   1.494
 4760SOL     OW15178   1.208   6.262   1.044
 4760SOL    HW115179   1.182   6.359   1.048
 4760SOL    HW215180   1.296   6.254   0.998
 4761SOL     OW15181   6.340   6.452   1.654
 4761SOL    HW115182   6.366   6.470   1.748
 4761SOL    HW215183   6.421   6.453   1.596
 4762SOL     OW15184   1.689   0.573   1.990
 4762SOL    HW115185   1.655   0.611   1.904
 4762SOL    HW215186   1.638   0.490   2.012
 4763SOL     OW15187   5.665   4.523   1.777
 4763SOL    HW115188   5.647   4.554   1.871
 4763SOL    HW215189   5.732   4.584   1.734
 4764SOL     OW15190   4.464   3.151   0.277
 4764SOL    HW115191   4.385   3.173   0.334
 4764SOL    HW215192   4.523   3.231   0.268
 4765SOL     OW15193   4.014   1.638   4.281
 4765SOL    HW115194   3.940   1.572   4.289
 4765SOL    HW215195   4.065   1.621   4.196
 4766SOL     OW15196   0.450   0.187   4.083
 4766SOL    HW115197   0.380   0.166   4.150
 4766SOL    HW215198   0.496   0.272   4.107
 4767SOL     OW15199   1.982   4.667   3.771
 4767SOL    HW115200   1.995   4.763   3.795
 4767SOL    HW215201   2.031   4.647   3.686
 4768SOL     OW15202   4.085   2.756   0.028
 4768SOL    HW115203   4.065   2.843   0.073
 4768SOL    HW215204   4.184   2.746   0.017
 4769SOL     OW15205   2.372   4.578   0.600
 4769SOL    HW115206   2.281   4.619   0.599
 4769SOL    HW215207   2.398   4.558   0.695
 4770SOL     OW15208   0.885   1.560   5.483
 4770SOL    HW115209   0.802   1.533   5.530
 4770SOL    HW215210   0.946   1.481   5.475
 4771SOL     OW15211   1.925   6.665   4.924
 4771SOL    HW115212   1.889   6.746   4.878
 4771SOL    HW215213   1.893   6.583   4.876
 4772SOL     OW15214   3.152   5.376   2.168
 4772SOL    HW115215   3.056   5.391   2.143
 4772SOL    HW215216   3.156   5.333   2.258
 4773SOL     OW15217   2.077   5.244   4.884
 4773SOL    HW115218   2.085   5.145   4.872
 4773SOL    HW215219   2.039   5.264   4.974
 4774SOL     OW15220   1.302   4.114   0.081
 4774SOL    HW115221   1.336   4.038   0.137
 4774SOL    HW215222   1.212   4.142   0.114
 4775SOL     OW15223   6.341   6.493   5.115
 4775SOL    HW115224   6.322   6.584   5.154
 4775SOL    HW215225   6.438   6.473   5.124
 4776SOL     OW15226   0.267   1.218   6.376
 4776SOL    HW115227   0.271   1.305   6.328
 4776SOL    HW215228   0.242   1.234   6.472
 4777SOL     OW15229   1.162   0.177   2.129
 4777SOL    HW115230   1.124   0.248   2.069
 4777SOL    HW215231   1.182   0.095   2.075
 4778SOL     OW15232   1.347   1.527   6.544
 4778SOL    HW115233   1.428   1.585   6.556
 4778SOL    HW215234   1.355   1.446   6.602
 4779SOL     OW15235   5.498   0.227   4.562
 4779SOL    HW115236   5.492   0.139   4.515
 4779SOL    HW215237   5.419   0.238   4.622
 4780SOL     OW15238   6.092   2.762   4.846
 4780SOL    HW115239   6.074   2.684   4.786
 4780SOL    HW215240   6.181   2.802   4.822
 4781SOL     OW15241   2.023   5.743   2.302
 4781SOL    HW115242   2.092   5.699   2.359
 4781SOL    HW215243   1.985   5.823   2.350
 4782SOL     OW15244   6.841   6.641   4.079
 4782SOL    HW115245   6.824   6.734   4.110
 4782SOL    HW215246   6.936   6.633   4.047
 4783SOL     OW15247   6.143   3.682   6.956
 4783SOL    HW115248   6.212   3.733   6.906
 4783SOL    HW215249   6.094   3.744   7.018
 4784SOL     OW15250   5.170   2.976   6.960
 4784SOL    HW115251   5.106   2.966   6.884
 4784SOL    HW215252   5.150   3.061   7.009
 4785SOL     OW15253   0.110   6.535   4.264
 4785SOL    HW115254   0.125   6.600   4.189
 4785SOL    HW215255   0.111   6.584   4.351
 4786SOL     OW15256   1.846   5.540   0.405
 4786SOL    HW115257   1.866   5.633   0.437
 4786SOL    HW215258   1.749   5.520   0.419
 4787SOL     OW15259   3.602   1.625   3.870
 4787SOL    HW115260   3.672   1.558   3.847
 4787SOL    HW215261   3.576   1.614   3.966
 4788SOL     OW15262   6.306   6.275   0.572
 4788SOL    HW115263   6.349   6.267   0.662
 4788SOL    HW215264   6.227   6.214   0.567
 4789SOL     OW15265   5.921   1.226   2.661
 4789SOL    HW115266   5.985   1.150   2.673
 4789SOL    HW215267   5.945   1.299   2.724
 4790SOL     OW15268   6.552   1.874   5.023
 4790SOL    HW115269   6.605   1.947   4.980
 4790SOL    HW215270   6.566   1.876   5.122
 4791SOL     OW15271   0.109   0.531   0.771
 4791SOL    HW115272   0.016   0.561   0.791
 4791SOL    HW215273   0.174   0.604   0.793
 4792SOL     OW15274   2.181   2.891   2.901
 4792SOL    HW115275   2.126   2.956   2.954
 4792SOL    HW215276   2.209   2.932   2.815
 4793SOL     OW15277   0.824   3.553   5.782
 4793SOL    HW115278   0.807   3.651   5.774
 4793SOL    HW215279   0.918   3.539   5.814
 4794SOL     OW15280   4.263   1.531   4.438
 4794SOL    HW115281   4.184   1.581   4.404
 4794SOL    HW215282   4.347   1.570   4.400
 4795SOL     OW15283   0.033   0.909   6.245
 4795SOL    HW115284   0.095   0.834   6.267
 4795SOL    HW215285   6.984   0.875   6.188
 4796SOL     OW15286   4.409   0.927   5.131
 4796SOL    HW115287   4.444   0.865   5.202
 4796SOL    HW215288   4.473   0.930   5.055
 4797SOL     OW15289   1.220   5.041   5.352
 4797SOL    HW115290   1.222   5.025   5.451
 4797SOL    HW215291   1.268   5.126   5.330
 4798SOL     OW15292   4.264   5.062   6.632
 4798SOL    HW115293   4.164   5.069   6.632
 4798SOL    HW215294   4.294   5.005   6.709
 4799SOL     OW15295   3.288   2.959   0.229
 4799SOL    HW115296   3.243   2.890   0.173
 4799SOL    HW215297   3.369   2.994   0.181
 4800SOL     OW15298   1.010   4.082   0.438
 4800SOL    HW115299   1.060   4.137   0.505
 4800SOL    HW215300   0.945   4.022   0.485
 4801SOL     OW15301   5.754   2.692   1.634
 4801SOL    HW115302   5.777   2.612   1.689
 4801SOL    HW215303   5.661   2.722   1.658
 4802SOL     OW15304   6.241   0.136   4.031
 4802SOL    HW115305   6.228   0.234   4.046
 4802SOL    HW215306   6.322   0.105   4.081
 4803SOL     OW15307   4.967   4.139   6.207
 4803SOL    HW115308   4.970   4.215   6.142
 4803SOL    HW215309   4.889   4.151   6.268
 4804SOL     OW15310   4.790   1.583   1.365
 4804SOL    HW115311   4.843   1.667   1.359
 4804SOL    HW215312   4.702   1.603   1.408
 4805SOL     OW15313   6.841   0.912   6.908
 4805SOL    HW115314   6.780   0.920   6.829
 4805SOL    HW215315   6.820   0.984   6.974
 4806SOL     OW15316   1.258   1.352   3.143
 4806SOL    HW115317   1.250   1.446   3.108
 4806SOL    HW215318   1.195   1.341   3.220
 4807SOL     OW15319   0.452   3.831   5.714
 4807SOL    HW115320   0.488   3.773   5.641
 4807SOL    HW215321   0.386   3.896   5.676
 4808SOL     OW15322   4.054   5.748   1.395
 4808SOL    HW115323   4.026   5.653   1.381
 4808SOL    HW215324   4.050   5.770   1.492
 4809SOL     OW15325   3.364   4.219   1.326
 4809SOL    HW115326   3.283   4.193   1.378
 4809SOL    HW215327   3.440   4.157   1.348
 4810SOL     OW15328   0.630   4.721   3.828
 4810SOL    HW115329   0.657   4.817   3.831
 4810SOL    HW215330   0.543   4.712   3.779
 4811SOL     OW15331   3.597   4.145   4.012
 4811SOL    HW115332   3.654   4.210   3.961
 4811SOL    HW215333   3.579   4.065   3.955
 4812SOL     OW15334   1.126   0.187   2.413
 4812SOL    HW115335   1.135   0.157   2.319
 4812SOL    HW215336   1.087   0.279   2.415
 4813SOL     OW15337   6.352   1.361   5.685
 4813SOL    HW115338   6.255   1.353   5.705
 4813SOL    HW215339   6.364   1.392   5.591
 4814SOL     OW15340   6.194   4.150   1.684
 4814SOL    HW115341   6.270   4.137   1.748
 4814SOL    HW215342   6.226   4.203   1.605
 4815SOL     OW15343   5.914   5.027   1.824
 4815SOL    HW115344   5.837   4.966   1.843
 4815SOL    HW215345   5.880   5.113   1.787
 4816SOL     OW15346   1.876   1.249   2.466
 4816SOL    HW115347   1.827   1.305   2.532
 4816SOL    HW215348   1.963   1.292   2.443
 4817SOL     OW15349   3.960   2.357   0.475
 4817SOL    HW115350   4.060   2.359   0.484
 4817SOL    HW215351   3.918   2.381   0.562
 4818SOL     OW15352   4.048   0.677   5.721
 4818SOL    HW115353   3.967   0.727   5.753
 4818SOL    HW215354   4.023   0.622   5.641
 4819SOL     OW15355   3.164   0.451   1.345
 4819SOL    HW115356   3.193   0.491   1.258
 4819SOL    HW215357   3.101   0.513   1.391
 4820SOL     OW15358   5.913   4.046   1.948
 4820SOL    HW115359   5.846   3.974   1.965
 4820SOL    HW215360   5.886   4.100   1.869
 4821SOL     OW15361   0.157   4.764   1.342
 4821SOL    HW115362   0.111   4.787   1.427
 4821SOL    HW215363   0.197   4.846   1.302
 4822SOL     OW15364   1.728   3.976   2.789
 4822SOL    HW115365   1.700   4.069   2.815
 4822SOL    HW215366   1.731   3.918   2.870
 4823SOL     OW15367   1.319   1.223   4.515
 4823SOL    HW115368   1.392   1.164   4.549
 4823SOL    HW215369   1.234   1.171   4.511
 4824SOL     OW15370   5.516   2.760   1.750
 4824SOL    HW115371   5.430   2.760   1.699
 4824SOL    HW215372   5.515   2.834   1.817
 4825SOL     OW15373   0.578   3.167   3.347
 4825SOL    HW115374   0.647   3.149   3.417
 4825SOL    HW215375   0.487   3.148   3.385
 4826SOL     OW15376   6.570   6.226   6.999
 4826SOL    HW115377   6.483   6.210   6.952
 4826SOL    HW215378   6.566   6.185   0.065
 4827SOL     OW15379   5.743   0.794   1.359
 4827SOL    HW115380   5.686   0.714   1.342
 4827SOL    HW215381   5.828   0.766   1.404
 4828SOL     OW15382   5.269   3.890   0.348
 4828SOL    HW115383   5.180   3.895   0.303
 4828SOL    HW215384   5.294   3.794   0.363
 4829SOL     OW15385   2.965   0.657   5.828
 4829SOL    HW115386   2.930   0.564   5.816
 4829SOL    HW215387   2.902   0.710   5.885
 4830SOL     OW15388   4.129   0.068   5.146
 4830SOL    HW115389   4.165   7.003   5.121
 4830SOL    HW215390   4.197   0.118   5.199
 4831SOL     OW15391   6.383   4.205   5.770
 4831SOL    HW115392   6.418   4.190   5.862
 4831SOL    HW215393   6.440   4.155   5.704
 4832SOL     OW15394   2.128   3.508   6.688
 4832SOL    HW115395   2.182   3.425   6.670
 4832SOL    HW215396   2.102   3.550   6.601
 4833SOL     OW15397   5.344   1.689   3.230
 4833SOL    HW115398   5.428   1.676   3.178
 4833SOL    HW215399   5.302   1.600   3.247
 4834SOL     OW15400   5.527   0.629   2.387
 4834SOL    HW115401   5.559   0.543   2.427
 4834SOL    HW215402   5.560   0.705   2.443
 4835SOL     OW15403   2.137   0.542   6.424
 4835SOL    HW115404   2.084   0.458   6.410
 4835SOL    HW215405   2.200   0.530   6.501
 4836SOL     OW15406   5.259   2.338   3.354
 4836SOL    HW115407   5.180   2.366   3.300
 4836SOL    HW215408   5.337   2.322   3.294
 4837SOL     OW15409   1.216   3.881   0.399
 4837SOL    HW115410   1.284   3.881   0.326
 4837SOL    HW215411   1.149   3.953   0.383
 4838SOL     OW15412   2.619   5.691   2.688
 4838SOL    HW115413   2.691   5.708   2.755
 4838SOL    HW215414   2.654   5.708   2.596
 4839SOL     OW15415   0.342   6.291   6.584
 4839SOL    HW115416   0.414   6.327   6.525
 4839SOL    HW215417   0.322   6.196   6.559
 4840SOL     OW15418   6.931   6.635   0.332
 4840SOL    HW115419   7.005   6.700   0.315
 4840SOL    HW215420   6.904   6.640   0.428
 4841SOL     OW15421   2.794   5.918   2.140
 4841SOL    HW115422   2.865   5.935   2.208
 4841SOL    HW215423   2.823   5.846   2.078
 4842SOL     OW15424   3.975   6.117   1.108
 4842SOL    HW115425   4.008   6.069   1.190
 4842SOL    HW215426   3.891   6.074   1.076
 4843SOL     OW15427   0.095   3.331   0.128
 4843SOL    HW115428   0.162   3.371   0.190
 4843SOL    HW215429   0.141   3.287   0.052
 4844SOL     OW15430   6.261   1.758   5.809
 4844SOL    HW115431   6.280   1.669   5.850
 4844SOL    HW215432   6.344   1.794   5.768
 4845SOL     OW15433   6.352   5.505   3.989
 4845SOL    HW115434   6.323   5.424   3.939
 4845SOL    HW215435   6.271   5.556   4.019
 4846SOL     OW15436   1.118   4.086   1.009
 4846SOL    HW115437   1.143   3.990   0.996
 4846SOL    HW215438   1.035   4.091   1.065
 4847SOL     OW15439   3.908   2.196   4.455
 4847SOL    HW115440   3.834   2.161   4.397
 4847SOL    HW215441   3.978   2.238   4.398
 4848SOL     OW15442   2.769   2.313   2.799
 4848SOL    HW115443   2.730   2.247   2.735
 4848SOL    HW215444   2.858   2.281   2.830
 4849SOL     OW15445   1.475   6.484   0.207
 4849SOL    HW115446   1.566   6.517   0.182
 4849SOL    HW215447   1.458   6.396   0.164
 4850SOL     OW15448   4.232   0.701   2.632
 4850SOL    HW115449   4.298   0.646   2.683
 4850SOL    HW215450   4.280   0.759   2.566
 4851SOL     OW15451   5.155   6.405   5.042
 4851SOL    HW115452   5.224   6.350   4.994
 4851SOL    HW215453   5.076   6.348   5.064
 4852SOL     OW15454   1.695   1.260   6.971
 4852SOL    HW115455   1.637   1.223   0.017
 4852SOL    HW215456   1.787   1.222   6.980
 4853SOL     OW15457   3.117   1.840   2.363
 4853SOL    HW115458   3.184   1.837   2.289
 4853SOL    HW215459   3.138   1.916   2.424
 4854SOL     OW15460   4.936   6.900   1.414
 4854SOL    HW115461   4.892   6.978   1.370
 4854SOL    HW215462   5.034   6.901   1.394
 4855SOL     OW15463   0.358   2.476   2.344
 4855SOL    HW115464   0.331   2.536   2.419
 4855SOL    HW215465   0.357   2.527   2.258
 4856SOL     OW15466   2.782   4.796   3.482
 4856SOL    HW115467   2.811   4.713   3.529
 4856SOL    HW215468   2.742   4.860   3.548
 4857SOL     OW15469   6.568   1.759   5.884
 4857SOL    HW115470   6.597   1.670   5.849
 4857SOL    HW215471   6.536   1.816   5.809
 4858SOL     OW15472   1.273   1.303   3.697
 4858SOL    HW115473   1.313   1.287   3.787
 4858SOL    HW215474   1.301   1.393   3.664
 4859SOL     OW15475   2.412   5.761   4.890
 4859SOL    HW115476   2.354   5.738   4.811
 4859SOL    HW215477   2.467   5.681   4.915
 4860SOL     OW15478   4.545   5.112   0.923
 4860SOL    HW115479   4.506   5.039   0.867
 4860SOL    HW215480   4.472   5.165   0.964
 4861SOL     OW15481   5.426   3.837   5.109
 4861SOL    HW115482   5.390   3.819   5.017
 4861SOL    HW215483   5.362   3.800   5.177
 4862SOL     OW15484   1.315   6.584   2.160
 4862SOL    HW115485   1.350   6.537   2.241
 4862SOL    HW215486   1.388   6.637   2.117
 4863SOL     OW15487   6.188   4.244   6.930
 4863SOL    HW115488   6.119   4.248   6.858
 4863SOL    HW215489   6.243   4.327   6.928
 4864SOL     OW15490   2.582   1.112   3.175
 4864SOL    HW115491   2.589   1.020   3.135
 4864SOL    HW215492   2.581   1.180   3.102
 4865SOL     OW15493   2.198   6.531   4.701
 4865SOL    HW115494   2.137   6.590   4.649
 4865SOL    HW215495   2.252   6.586   4.765
 4866SOL     OW15496   6.673   3.880   0.151
 4866SOL    HW115497   6.675   3.879   0.251
 4866SOL    HW215498   6.688   3.788   0.116
 4867SOL     OW15499   5.206   0.130   2.836
 4867SOL    HW115500   5.143   0.165   2.905
 4867SOL    HW215501   5.165   0.139   2.745
 4868SOL     OW15502   0.035   4.789   0.807
 4868SOL    HW115503   0.120   4.784   0.860
 4868SOL    HW215504   6.983   4.801   0.869
 4869SOL     OW15505   0.531   1.004   0.374
 4869SOL    HW115506   0.579   0.921   0.403
 4869SOL    HW215507   0.598   1.068   0.336
 4870SOL     OW15508   0.500   5.767   2.063
 4870SOL    HW115509   0.515   5.745   1.966
 4870SOL    HW215510   0.437   5.699   2.103
 4871SOL     OW15511   1.491   1.561   4.423
 4871SOL    HW115512   1.484   1.635   4.355
 4871SOL    HW215513   1.586   1.530   4.428
 4872SOL     OW15514   5.688   7.006   3.379
 4872SOL    HW115515   5.662   6.963   3.292
 4872SOL    HW215516   5.635   0.065   3.391
 4873SOL     OW15517   6.614   5.955   5.573
 4873SOL    HW115518   6.713   5.944   5.571
 4873SOL    HW215519   6.581   5.980   5.482
 4874SOL     OW15520   5.102   2.735   2.897
 4874SOL    HW115521   5.183   2.702   2.945
 4874SOL    HW215522   5.052   2.657   2.859
 4875SOL     OW15523   5.664   6.491   5.198
 4875SOL    HW115524   5.598   6.566   5.206
 4875SOL    HW215525   5.757   6.526   5.210
 4876SOL     OW15526   1.805   1.053   2.667
 4876SOL    HW115527   1.819   1.120   2.594
 4876SOL    HW215528   1.836   1.091   2.754
 4877SOL     OW15529   6.992   1.956   5.133
 4877SOL    HW115530   6.956   2.038   5.177
 4877SOL    HW215531   0.027   1.908   5.197
 4878SOL     OW15532   1.010   2.626   2.407
 4878SOL    HW115533   0.992   2.529   2.391
 4878SOL    HW215534   1.031   2.640   2.504
 4879SOL     OW15535   5.598   1.615   3.188
 4879SOL    HW115536   5.665   1.607   3.262
 4879SOL    HW215537   5.643   1.645   3.104
 4880SOL     OW15538   6.273   2.353   6.316
 4880SOL    HW115539   6.191   2.301   6.290
 4880SOL    HW215540   6.352   2.292   6.316
 4881SOL     OW15541   1.725   3.115   1.670
 4881SOL    HW115542   1.739   3.115   1.769
 4881SOL    HW215543   1.810   3.091   1.624
 4882SOL     OW15544   4.540   2.497   4.637
 4882SOL    HW115545   4.468   2.456   4.693
 4882SOL    HW215546   4.594   2.425   4.594
 4883SOL     OW15547   6.419   4.046   1.812
 4883SOL    HW115548   6.476   4.033   1.731
 4883SOL    HW215549   6.423   3.964   1.869
 4884SOL     OW15550   2.455   6.654   1.698
 4884SOL    HW115551   2.406   6.725   1.647
 4884SOL    HW215552   2.393   6.614   1.766
 4885SOL     OW15553   1.188   4.269   0.582
 4885SOL    HW115554   1.275   4.233   0.615
 4885SOL    HW215555   1.124   4.278   0.659
 4886SOL     OW15556   3.062   1.445   2.193
 4886SOL    HW115557   3.044   1.500   2.111
 4886SOL    HW215558   3.045   1.501   2.274
 4887SOL     OW15559   7.009   6.742   1.431
 4887SOL    HW115560   0.057   6.675   1.419
 4887SOL    HW215561   6.931   6.716   1.373
 4888SOL     OW15562   3.891   6.339   3.111
 4888SOL    HW115563   3.838   6.345   3.026
 4888SOL    HW215564   3.946   6.255   3.110
 4889SOL     OW15565   6.986   2.731   3.457
 4889SOL    HW115566   6.896   2.775   3.459
 4889SOL    HW215567   7.022   2.725   3.549
 4890SOL     OW15568   0.610   1.793   4.745
 4890SOL    HW115569   0.614   1.752   4.836
 4890SOL    HW215570   0.659   1.735   4.680
 4891SOL     OW15571   2.709   5.829   6.321
 4891SOL    HW115572   2.696   5.783   6.409
 4891SOL    HW215573   2.627   5.881   6.298
 4892SOL     OW15574   5.455   5.958   3.009
 4892SOL    HW115575   5.550   5.931   3.027
 4892SOL    HW215576   5.454   6.034   2.944
 4893SOL     OW15577   0.489   3.223   1.915
 4893SOL    HW115578   0.410   3.278   1.891
 4893SOL    HW215579   0.553   3.277   1.969
 4894SOL     OW15580   4.893   6.984   1.868
 4894SOL    HW115581   4.949   6.988   1.785
 4894SOL    HW215582   4.876   6.888   1.893
 4895SOL     OW15583   6.758   4.811   4.100
 4895SOL    HW115584   6.680   4.769   4.146
 4895SOL    HW215585   6.827   4.837   4.168
 4896SOL     OW15586   2.006   4.996   4.168
 4896SOL    HW115587   2.094   5.000   4.215
 4896SOL    HW215588   1.938   4.954   4.228
 4897SOL     OW15589   1.733   6.462   5.110
 4897SOL    HW115590   1.818   6.420   5.079
 4897SOL    HW215591   1.688   6.403   5.176
 4898SOL     OW15592   4.288   1.718   3.847
 4898SOL    HW115593   4.321   1.808   3.872
 4898SOL    HW215594   4.324   1.693   3.757
 4899SOL     OW15595   7.015   5.157   1.689
 4899SOL    HW115596   0.025   5.224   1.754
 4899SOL    HW215597   6.940   5.106   1.731
 4900SOL     OW15598   3.583   6.096   5.758
 4900SOL    HW115599   3.603   6.190   5.786
 4900SOL    HW215600   3.611   6.033   5.831
 4901SOL     OW15601   6.849   1.460   6.303
 4901SOL    HW115602   6.888   1.453   6.212
 4901SOL    HW215603   6.898   1.398   6.365
 4902SOL     OW15604   1.760   0.374   5.990
 4902SOL    HW115605   1.795   0.436   6.060
 4902SOL    HW215606   1.753   0.282   6.029
 4903SOL     OW15607   5.363   4.852   2.161
 4903SOL    HW115608   5.378   4.807   2.249
 4903SOL    HW215609   5.403   4.943   2.163
 4904SOL     OW15610   2.017   0.536   0.308
 4904SOL    HW115611   1.918   0.527   0.317
 4904SOL    HW215612   2.062   0.491   0.385
 4905SOL     OW15613   3.165   6.598   2.277
 4905SOL    HW115614   3.140   6.590   2.181
 4905SOL    HW215615   3.091   6.563   2.334
 4906SOL     OW15616   5.210   3.427   4.976
 4906SOL    HW115617   5.113   3.451   4.969
 4906SOL    HW215618   5.236   3.373   4.896
 4907SOL     OW15619   4.867   1.373   6.429
 4907SOL    HW115620   4.790   1.435   6.447
 4907SOL    HW215621   4.945   1.426   6.395
 4908SOL     OW15622   3.996   6.831   6.828
 4908SOL    HW115623   3.957   6.922   6.815
 4908SOL    HW215624   4.096   6.838   6.828
 4909SOL     OW15625   5.345   4.923   4.361
 4909SOL    HW115626   5.334   4.926   4.262
 4909SOL    HW215627   5.411   4.852   4.385
 4910SOL     OW15628   4.749   1.556   5.420
 4910SOL    HW115629   4.662   1.578   5.466
 4910SOL    HW215630   4.821   1.614   5.457
 4911SOL     OW15631   0.293   2.283   1.983
 4911SOL    HW115632   0.266   2.201   2.034
 4911SOL    HW215633   0.385   2.311   2.011
 4912SOL     OW15634   6.094   2.197   4.144
 4912SOL    HW115635   6.069   2.280   4.093
 4912SOL    HW215636   6.074   2.210   4.241
 4913SOL     OW15637   6.743   3.026   5.702
 4913SOL    HW115638   6.725   2.953   5.768
 4913SOL    HW215639   6.676   3.099   5.715
 4914SOL     OW15640   4.885   0.312   3.599
 4914SOL    HW115641   4.955   0.241   3.587
 4914SOL    HW215642   4.922   0.400   3.570
 4915SOL     OW15643   3.620   5.348   5.992
 4915SOL    HW115644   3.532   5.395   5.999
 4915SOL    HW215645   3.615   5.277   5.921
 4916SOL     OW15646   6.539   2.384   3.603
 4916SOL    HW115647   6.633   2.370   3.633
 4916SOL    HW215648   6.480   2.318   3.648
 4917SOL     OW15649   4.762   6.755   0.700
 4917SOL    HW115650   4.818   6.742   0.619
 4917SOL    HW215651   4.673   6.793   0.673
 4918SOL     OW15652   6.396   5.229   2.704
 4918SOL    HW115653   6.329   5.243   2.777
 4918SOL    HW215654   6.445   5.143   2.719
 4919SOL     OW15655   3.738   4.067   2.377
 4919SOL    HW115656   3.675   4.065   2.299
 4919SOL    HW215657   3.687   4.082   2.461
 4920SOL     OW15658   5.935   0.832   5.233
 4920SOL    HW115659   5.924   0.811   5.330
 4920SOL    HW215660   5.978   0.922   5.223
 4921SOL     OW15661   0.287   0.184   2.401
 4921SOL    HW115662   0.225   0.111   2.431
 4921SOL    HW215663   0.382   0.155   2.415
 4922SOL     OW15664   3.584   2.173   6.437
 4922SOL    HW115665   3.556   2.233   6.362
 4922SOL    HW215666   3.574   2.221   6.524
 4923SOL     OW15667   3.957   1.791   2.672
 4923SOL    HW115668   3.888   1.841   2.723
 4923SOL    HW215669   3.940   1.802   2.574
 4924SOL     OW15670   2.337   0.646   5.403
 4924SOL    HW115671   2.332   0.722   5.339
 4924SOL    HW215672   2.343   0.560   5.352
 4925SOL     OW15673   5.482   6.065   3.701
 4925SOL    HW115674   5.433   6.022   3.625
 4925SOL    HW215675   5.479   6.005   3.780
 4926SOL     OW15676   5.393   2.366   0.546
 4926SOL    HW115677   5.459   2.334   0.478
 4926SOL    HW215678   5.382   2.297   0.617
 4927SOL     OW15679   3.282   1.762   6.533
 4927SOL    HW115680   3.272   1.844   6.477
 4927SOL    HW215681   3.379   1.746   6.551
 4928SOL     OW15682   0.191   2.018   0.387
 4928SOL    HW115683   0.156   1.965   0.464
 4928SOL    HW215684   0.148   2.108   0.386
 4929SOL     OW15685   0.661   6.741   4.857
 4929SOL    HW115686   0.571   6.735   4.902
 4929SOL    HW215687   0.721   6.671   4.894
 4930SOL     OW15688   5.458   6.259   2.453
 4930SOL    HW115689   5.519   6.319   2.505
 4930SOL    HW215690   5.511   6.181   2.418
 4931SOL     OW15691   6.393   5.974   0.851
 4931SOL    HW115692   6.400   5.908   0.777
 4931SOL    HW215693   6.357   5.928   0.933
 4932SOL     OW15694   2.909   3.328   2.061
 4932SOL    HW115695   2.946   3.245   2.104
 4932SOL    HW215696   2.846   3.302   1.988
 4933SOL     OW15697   3.099   6.462   5.255
 4933SOL    HW115698   3.196   6.467   5.278
 4933SOL    HW215699   3.051   6.542   5.292
 4934SOL     OW15700   3.861   4.928   3.129
 4934SOL    HW115701   3.819   4.938   3.039
 4934SOL    HW215702   3.956   4.957   3.125
 4935SOL     OW15703   0.367   0.944   6.358
 4935SOL    HW115704   0.289   0.888   6.332
 4935SOL    HW215705   0.336   1.039   6.372
 4936SOL     OW15706   3.060   3.278   0.664
 4936SOL    HW115707   2.979   3.221   0.659
 4936SOL    HW215708   3.141   3.221   0.675
 4937SOL     OW15709   4.534   2.675   5.118
 4937SOL    HW115710   4.567   2.766   5.143
 4937SOL    HW215711   4.585   2.641   5.039
 4938SOL     OW15712   4.163   5.765   6.038
 4938SOL    HW115713   4.172   5.863   6.024
 4938SOL    HW215714   4.248   5.720   6.012
 4939SOL     OW15715   4.592   2.984   5.734
 4939SOL    HW115716   4.568   2.954   5.641
 4939SOL    HW215717   4.528   2.944   5.799
 4940SOL     OW15718   2.142   6.133   4.326
 4940SOL    HW115719   2.185   6.192   4.395
 4940SOL    HW215720   2.204   6.058   4.303
 4941SOL     OW15721   5.366   0.353   0.733
 4941SOL    HW115722   5.369   0.437   0.680
 4941SOL    HW215723   5.436   0.357   0.805
 4942SOL     OW15724   4.875   3.743   5.410
 4942SOL    HW115725   4.845   3.710   5.499
 4942SOL    HW215726   4.928   3.671   5.365
 4943SOL     OW15727   4.661   2.382   1.231
 4943SOL    HW115728   4.575   2.422   1.199
 4943SOL    HW215729   4.690   2.430   1.314
 4944SOL     OW15730   2.377   5.010   2.579
 4944SOL    HW115731   2.386   5.109   2.577
 4944SOL    HW215732   2.282   4.985   2.564
 4945SOL     OW15733   0.697   6.758   4.274
 4945SOL    HW115734   0.782   6.811   4.278
 4945SOL    HW215735   0.619   6.819   4.294
 4946SOL     OW15736   1.143   4.090   2.459
 4946SOL    HW115737   1.091   4.018   2.413
 4946SOL    HW215738   1.191   4.146   2.391
 4947SOL     OW15739   0.534   6.904   0.717
 4947SOL    HW115740   0.551   6.806   0.718
 4947SOL    HW215741   0.536   6.938   0.623
 4948SOL     OW15742   2.267   1.330   1.788
 4948SOL    HW115743   2.180   1.323   1.837
 4948SOL    HW215744   2.251   1.322   1.690
 4949SOL     OW15745   5.650   1.609   4.050
 4949SOL    HW115746   5.679   1.636   3.959
 4949SOL    HW215747   5.577   1.670   4.081
 4950SOL     OW15748   3.103   5.895   5.077
 4950SOL    HW115749   3.006   5.874   5.066
 4950SOL    HW215750   3.154   5.810   5.090
 4951SOL     OW15751   4.294   2.265   3.413
 4951SOL    HW115752   4.316   2.340   3.351
 4951SOL    HW215753   4.240   2.197   3.364
 4952SOL     OW15754   0.914   6.024   5.077
 4952SOL    HW115755   0.999   6.012   5.129
 4952SOL    HW215756   0.841   6.052   5.139
 4953SOL     OW15757   1.529   5.089   1.764
 4953SOL    HW115758   1.431   5.082   1.780
 4953SOL    HW215759   1.564   5.173   1.807
 4954SOL     OW15760   5.516   5.978   6.816
 4954SOL    HW115761   5.574   5.974   6.898
 4954SOL    HW215762   5.451   5.902   6.818
 4955SOL     OW15763   1.223   6.533   1.066
 4955SOL    HW115764   1.128   6.543   1.035
 4955SOL    HW215765   1.263   6.624   1.079
 4956SOL     OW15766   4.731   6.333   4.409
 4956SOL    HW115767   4.655   6.398   4.405
 4956SOL    HW215768   4.716   6.260   4.343
 4957SOL     OW15769   0.678   0.337   3.979
 4957SOL    HW115770   0.712   0.429   3.960
 4957SOL    HW215771   0.699   0.313   4.073
 4958SOL     OW15772   0.050   5.936   0.093
 4958SOL    HW115773   0.148   5.955   0.099
 4958SOL    HW215774   0.001   6.020   0.068
 4959SOL     OW15775   0.827   0.787   1.253
 4959SOL    HW115776   0.848   0.816   1.346
 4959SOL    HW215777   0.894   0.719   1.224
 4960SOL     OW15778   4.007   6.788   5.071
 4960SOL    HW115779   3.985   6.750   5.161
 4960SOL    HW215780   3.960   6.734   5.001
 4961SOL     OW15781   4.731   0.272   5.088
 4961SOL    HW115782   4.640   0.230   5.090
 4961SOL    HW215783   4.798   0.205   5.057
 4962SOL     OW15784   6.979   1.100   1.122
 4962SOL    HW115785   6.995   1.024   1.185
 4962SOL    HW215786   6.887   1.138   1.138
 4963SOL     OW15787   0.373   4.985   1.480
 4963SOL    HW115788   0.340   5.019   1.568
 4963SOL    HW215789   0.451   4.924   1.494
 4964SOL     OW15790   3.818   6.503   3.331
 4964SOL    HW115791   3.849   6.461   3.246
 4964SOL    HW215792   3.891   6.499   3.399
 4965SOL     OW15793   6.924   6.618   4.646
 4965SOL    HW115794   7.013   6.625   4.603
 4965SOL    HW215795   6.930   6.557   4.725
 4966SOL     OW15796   3.825   4.957   3.838
 4966SOL    HW115797   3.805   5.055   3.834
 4966SOL    HW215798   3.856   4.933   3.930
 4967SOL     OW15799   4.110   2.405   5.950
 4967SOL    HW115800   4.174   2.459   5.896
 4967SOL    HW215801   4.048   2.467   6.000
 4968SOL     OW15802   5.774   3.315   5.543
 4968SOL    HW115803   5.789   3.301   5.445
 4968SOL    HW215804   5.697   3.378   5.556
 4969SOL     OW15805   0.989   1.779   1.615
 4969SOL    HW115806   0.899   1.754   1.579
 4969SOL    HW215807   0.997   1.878   1.621
 4970SOL     OW15808   0.853   2.694   5.938
 4970SOL    HW115809   0.883   2.706   5.844
 4970SOL    HW215810   0.753   2.691   5.941
 4971SOL     OW15811   6.068   5.640   3.732
 4971SOL    HW115812   6.139   5.666   3.668
 4971SOL    HW215813   6.041   5.719   3.787
 4972SOL     OW15814   1.279   2.717   6.219
 4972SOL    HW115815   1.240   2.720   6.311
 4972SOL    HW215816   1.207   2.702   6.152
 4973SOL     OW15817   5.690   6.071   2.651
 4973SOL    HW115818   5.599   6.038   2.677
 4973SOL    HW215819   5.728   6.125   2.726
 4974SOL     OW15820   5.521   6.895   1.899
 4974SOL    HW115821   5.425   6.905   1.922
 4974SOL    HW215822   5.565   6.832   1.963
 4975SOL     OW15823   5.878   5.986   0.562
 4975SOL    HW115824   5.876   5.940   0.651
 4975SOL    HW215825   5.814   5.941   0.500
 4976SOL     OW15826   4.140   0.435   4.706
 4976SOL    HW115827   4.139   0.525   4.664
 4976SOL    HW215828   4.135   0.365   4.635
 4977SOL     OW15829   3.457   4.131   0.454
 4977SOL    HW115830   3.439   4.199   0.384
 4977SOL    HW215831   3.378   4.069   0.462
 4978SOL     OW15832   5.658   3.105   6.185
 4978SOL    HW115833   5.722   3.143   6.119
 4978SOL    HW215834   5.634   3.012   6.158
 4979SOL     OW15835   1.475   1.386   5.123
 4979SOL    HW115836   1.470   1.344   5.032
 4979SOL    HW215837   1.456   1.316   5.192
 4980SOL     OW15838   2.516   5.468   2.364
 4980SOL    HW115839   2.454   5.547   2.357
 4980SOL    HW215840   2.518   5.421   2.276
 4981SOL     OW15841   4.259   6.493   5.604
 4981SOL    HW115842   4.291   6.585   5.582
 4981SOL    HW215843   4.329   6.445   5.657
 4982SOL     OW15844   2.610   2.981   0.293
 4982SOL    HW115845   2.565   2.971   0.204
 4982SOL    HW215846   2.708   2.967   0.282
 4983SOL     OW15847   5.253   3.159   4.088
 4983SOL    HW115848   5.338   3.172   4.140
 4983SOL    HW215849   5.210   3.073   4.116
 4984SOL     OW15850   4.839   4.120   2.508
 4984SOL    HW115851   4.908   4.109   2.579
 4984SOL    HW215852   4.854   4.052   2.436
 4985SOL     OW15853   5.464   4.218   2.574
 4985SOL    HW115854   5.543   4.225   2.635
 4985SOL    HW215855   5.394   4.283   2.602
 4986SOL     OW15856   4.972   4.876   1.886
 4986SOL    HW115857   5.066   4.887   1.918
 4986SOL    HW215858   4.911   4.933   1.941
 4987SOL     OW15859   0.312   3.642   1.261
 4987SOL    HW115860   0.262   3.661   1.177
 4987SOL    HW215861   0.376   3.566   1.246
 4988SOL     OW15862   0.421   1.957   5.472
 4988SOL    HW115863   0.494   1.936   5.407
 4988SOL    HW215864   0.433   1.902   5.555
 4989SOL     OW15865   0.402   0.886   0.709
 4989SOL    HW115866   0.404   0.919   0.614
 4989SOL    HW215867   0.423   0.962   0.771
 4990SOL     OW15868   0.574   2.844   5.688
 4990SOL    HW115869   0.603   2.751   5.708
 4990SOL    HW215870   0.537   2.848   5.595
 4991SOL     OW15871   1.736   2.677   4.457
 4991SOL    HW115872   1.698   2.620   4.529
 4991SOL    HW215873   1.805   2.738   4.496
 4992SOL     OW15874   3.183   0.682   6.142
 4992SOL    HW115875   3.239   0.605   6.170
 4992SOL    HW215876   3.192   0.756   6.209
 4993SOL     OW15877   2.774   6.066   3.743
 4993SOL    HW115878   2.798   5.999   3.672
 4993SOL    HW215879   2.686   6.042   3.783
 4994SOL     OW15880   0.114   7.018   2.510
 4994SOL    HW115881   0.020   0.000   2.543
 4994SOL    HW215882   0.139   6.921   2.505
 4995SOL     OW15883   5.621   2.841   6.097
 4995SOL    HW115884   5.535   2.790   6.101
 4995SOL    HW215885   5.676   2.820   6.178
 4996SOL     OW15886   0.920   1.336   3.922
 4996SOL    HW115887   0.964   1.256   3.963
 4996SOL    HW215888   0.957   1.349   3.829
 4997SOL     OW15889   0.487   2.312   3.204
 4997SOL    HW115890   0.569   2.345   3.250
 4997SOL    HW215891   0.474   2.363   3.119
 4998SOL     OW15892   1.707   5.527   5.064
 4998SOL    HW115893   1.608   5.541   5.054
 4998SOL    HW215894   1.750   5.531   4.974
 4999SOL     OW15895   6.257   4.506   1.644
 4999SOL    HW115896   6.210   4.559   1.714
 4999SOL    HW215897   6.211   4.519   1.556
 5000SOL     OW15898   6.865   6.156   4.740
 5000SOL    HW115899   6.908   6.072   4.705
 5000SOL    HW215900   6.802   6.192   4.671
 5001SOL     OW15901   4.612   4.170   5.654
 5001SOL    HW115902   4.650   4.092   5.603
 5001SOL    HW215903   4.513   4.159   5.662
 5002SOL     OW15904   2.704   1.404   1.415
 5002SOL    HW115905   2.636   1.434   1.349
 5002SOL    HW215906   2.661   1.342   1.481
 5003SOL     OW15907   6.739   5.556   3.125
 5003SOL    HW115908   6.773   5.583   3.034
 5003SOL    HW215909   6.813   5.565   3.192
 5004SOL     OW15910   3.465   5.510   0.066
 5004SOL    HW115911   3.403   5.436   0.040
 5004SOL    HW215912   3.414   5.596   0.069
 5005SOL     OW15913   4.208   2.086   6.736
 5005SOL    HW115914   4.263   2.168   6.750
 5005SOL    HW215915   4.268   2.006   6.728
 5006SOL     OW15916   5.366   5.438   3.633
 5006SOL    HW115917   5.406   5.351   3.662
 5006SOL    HW215918   5.370   5.503   3.709
 5007SOL     OW15919   4.110   1.891   5.313
 5007SOL    HW115920   4.116   1.867   5.216
 5007SOL    HW215921   4.201   1.882   5.355
 5008SOL     OW15922   6.353   1.982   3.724
 5008SOL    HW115923   6.387   2.074   3.742
 5008SOL    HW215924   6.310   1.946   3.807
 5009SOL     OW15925   1.918   6.340   3.449
 5009SOL    HW115926   1.865   6.395   3.385
 5009SOL    HW215927   1.963   6.265   3.400
 5010SOL     OW15928   4.054   3.189   4.563
 5010SOL    HW115929   4.075   3.218   4.657
 5010SOL    HW215930   4.098   3.251   4.499
 5011SOL     OW15931   1.754   2.760   2.453
 5011SOL    HW115932   1.810   2.728   2.377
 5011SOL    HW215933   1.811   2.770   2.534
 5012SOL     OW15934   6.081   3.034   7.000
 5012SOL    HW115935   6.040   3.118   6.963
 5012SOL    HW215936   6.169   3.056   0.015
 5013SOL     OW15937   4.387   1.007   6.823
 5013SOL    HW115938   4.479   1.045   6.821
 5013SOL    HW215939   4.353   0.996   6.729
 5014SOL     OW15940   6.272   6.668   6.990
 5014SOL    HW115941   6.231   6.702   0.049
 5014SOL    HW215942   6.346   6.605   7.012
 5015SOL     OW15943   4.909   2.258   3.495
 5015SOL    HW115944   4.815   2.227   3.480
 5015SOL    HW215945   4.961   2.248   3.410
 5016SOL     OW15946   2.093   6.991   2.520
 5016SOL    HW115947   2.182   7.012   2.560
 5016SOL    HW215948   2.021   7.011   2.587
 5017SOL     OW15949   2.471   2.745   1.350
 5017SOL    HW115950   2.418   2.712   1.429
 5017SOL    HW215951   2.413   2.804   1.294
 5018SOL     OW15952   6.712   5.186   4.147
 5018SOL    HW115953   6.642   5.237   4.197
 5018SOL    HW215954   6.690   5.089   4.150
 5019SOL     OW15955   2.810   5.183   5.912
 5019SOL    HW115956   2.827   5.091   5.948
 5019SOL    HW215957   2.773   5.177   5.820
 5020SOL     OW15958   4.879   6.278   6.704
 5020SOL    HW115959   4.787   6.246   6.730
 5020SOL    HW215960   4.890   6.272   6.605
 5021SOL     OW15961   1.632   5.171   5.768
 5021SOL    HW115962   1.730   5.187   5.761
 5021SOL    HW215963   1.597   5.136   5.681
 5022SOL     OW15964   1.290   5.103   0.549
 5022SOL    HW115965   1.298   5.073   0.644
 5022SOL    HW215966   1.271   5.025   0.490
 5023SOL     OW15967   6.553   2.984   2.320
 5023SOL    HW115968   6.575   3.071   2.365
 5023SOL    HW215969   6.519   2.920   2.389
 5024SOL     OW15970   5.607   3.670   4.969
 5024SOL    HW115971   5.640   3.735   4.902
 5024SOL    HW215972   5.521   3.703   5.008
 5025SOL     OW15973   6.602   1.547   2.940
 5025SOL    HW115974   6.587   1.477   2.871
 5025SOL    HW215975   6.686   1.528   2.990
 5026SOL     OW15976   0.626   6.421   2.968
 5026SOL    HW115977   0.533   6.443   2.939
 5026SOL    HW215978   0.652   6.479   3.045
 5027SOL     OW15979   1.221   6.715   3.216
 5027SOL    HW115980   1.304   6.763   3.189
 5027SOL    HW215981   1.243   6.646   3.285
 5028SOL     OW15982   1.074   0.447   2.441
 5028SOL    HW115983   1.096   0.539   2.409
 5028SOL    HW215984   1.060   0.449   2.540
 5029SOL     OW15985   0.212   0.895   2.112
 5029SOL    HW115986   0.159   0.934   2.187
 5029SOL    HW215987   0.296   0.948   2.099
 5030SOL     OW15988   1.356   5.668   6.975
 5030SOL    HW115989   1.445   5.713   6.982
 5030SOL    HW215990   1.369   5.570   6.965
 5031SOL     OW15991   5.552   7.006   4.421
 5031SOL    HW115992   5.591   0.013   4.335
 5031SOL    HW215993   5.624   7.005   4.491
 5032SOL     OW15994   1.305   6.037   0.822
 5032SOL    HW115995   1.335   5.964   0.761
 5032SOL    HW215996   1.218   6.013   0.864
 5033SOL     OW15997   1.650   4.487   5.716
 5033SOL    HW115998   1.617   4.488   5.621
 5033SOL    HW215999   1.651   4.580   5.752
 5034SOL     OW16000   6.697   3.963   0.446
 5034SOL    HW116001   6.735   4.007   0.527
 5034SOL    HW216002   6.599   3.978   0.442
 5035SOL     OW16003   6.099   4.152   1.107
 5035SOL    HW116004   6.193   4.156   1.141
 5035SOL    HW216005   6.099   4.114   1.015
 5036SOL     OW16006   1.859   0.627   2.217
 5036SOL    HW116007   1.812   0.661   2.298
 5036SOL    HW216008   1.796   0.625   2.139
 5037SOL     OW16009   4.559   2.490   3.441
 5037SOL    HW116010   4.503   2.475   3.523
 5037SOL    HW216011   4.655   2.499   3.467
 5038SOL     OW16012   2.731   6.667   5.467
 5038SOL    HW116013   2.710   6.576   5.503
 5038SOL    HW216014   2.658   6.696   5.405
 5039SOL     OW16015   1.754   1.500   4.097
 5039SOL    HW116016   1.747   1.580   4.156
 5039SOL    HW216017   1.849   1.487   4.069
 5040SOL     OW16018   2.624   3.374   6.251
 5040SOL    HW116019   2.561   3.296   6.253
 5040SOL    HW216020   2.715   3.342   6.226
 5041SOL     OW16021   1.252   5.415   0.898
 5041SOL    HW116022   1.236   5.320   0.926
 5041SOL    HW216023   1.176   5.447   0.842
 5042SOL     OW16024   5.808   2.561   6.410
 5042SOL    HW116025   5.904   2.566   6.434
 5042SOL    HW216026   5.781   2.646   6.365
 5043SOL     OW16027   4.350   0.302   3.488
 5043SOL    HW116028   4.292   0.224   3.464
 5043SOL    HW216029   4.310   0.386   3.452
 5044SOL     OW16030   6.138   4.107   2.945
 5044SOL    HW116031   6.118   4.067   3.034
 5044SOL    HW216032   6.117   4.041   2.873
 5045SOL     OW16033   6.171   2.926   6.702
 5045SOL    HW116034   6.165   3.023   6.726
 5045SOL    HW216035   6.153   2.915   6.604
 5046SOL     OW16036   3.311   3.106   5.163
 5046SOL    HW116037   3.315   3.052   5.079
 5046SOL    HW216038   3.334   3.201   5.144
 5047SOL     OW16039   1.143   0.745   2.527
 5047SOL    HW116040   1.217   0.686   2.495
 5047SOL    HW216041   1.101   0.792   2.450
 5048SOL     OW16042   5.583   3.193   1.401
 5048SOL    HW116043   5.591   3.291   1.418
 5048SOL    HW216044   5.497   3.174   1.354
 5049SOL     OW16045   1.338   2.512   2.564
 5049SOL    HW116046   1.381   2.422   2.558
 5049SOL    HW216047   1.393   2.580   2.516
 5050SOL     OW16048   0.954   3.237   0.974
 5050SOL    HW116049   1.009   3.212   1.053
 5050SOL    HW216050   0.857   3.222   0.994
 5051SOL     OW16051   2.968   4.935   0.311
 5051SOL    HW116052   2.878   4.915   0.274
 5051SOL    HW216053   3.026   4.854   0.304
 5052SOL     OW16054   5.633   3.887   1.050
 5052SOL    HW116055   5.584   3.817   0.998
 5052SOL    HW216056   5.721   3.905   1.007
 5053SOL     OW16057   2.228   4.576   6.924
 5053SOL    HW116058   2.286   4.645   6.967
 5053SOL    HW216059   2.279   4.529   6.852
 5054SOL     OW16060   3.898   5.779   4.839
 5054SOL    HW116061   3.852   5.690   4.846
 5054SOL    HW216062   3.947   5.797   4.924
 5055SOL     OW16063   1.475   2.030   4.167
 5055SOL    HW116064   1.452   1.937   4.137
 5055SOL    HW216065   1.408   2.095   4.131
 5056SOL     OW16066   1.867   2.478   5.617
 5056SOL    HW116067   1.929   2.477   5.695
 5056SOL    HW216068   1.773   2.490   5.650
 5057SOL     OW16069   1.024   4.691   2.795
 5057SOL    HW116070   1.058   4.617   2.852
 5057SOL    HW216071   0.946   4.660   2.741
 5058SOL     OW16072   3.307   3.807   6.906
 5058SOL    HW116073   3.226   3.761   6.871
 5058SOL    HW216074   3.314   3.898   6.866
 5059SOL     OW16075   3.571   1.400   3.513
 5059SOL    HW116076   3.538   1.330   3.449
 5059SOL    HW216077   3.515   1.482   3.505
 5060SOL     OW16078   0.115   3.640   5.918
 5060SOL    HW116079   0.172   3.629   5.836
 5060SOL    HW216080   0.081   3.551   5.947
 5061SOL     OW16081   3.924   2.509   5.506
 5061SOL    HW116082   3.954   2.602   5.483
 5061SOL    HW216083   3.954   2.446   5.435
 5062SOL     OW16084   5.571   0.826   3.262
 5062SOL    HW116085   5.553   0.924   3.268
 5062SOL    HW216086   5.652   0.804   3.315
 5063SOL     OW16087   1.296   1.037   1.926
 5063SOL    HW116088   1.355   1.118   1.918
 5063SOL    HW216089   1.271   1.023   2.021
 5064SOL     OW16090   5.088   5.800   1.062
 5064SOL    HW116091   5.070   5.854   1.144
 5064SOL    HW216092   5.120   5.860   0.989
 5065SOL     OW16093   2.122   0.747   2.586
 5065SOL    HW116094   2.023   0.751   2.581
 5065SOL    HW216095   2.150   0.673   2.647
 5066SOL     OW16096   2.606   4.942   2.412
 5066SOL    HW116097   2.650   4.853   2.424
 5066SOL    HW216098   2.516   4.942   2.456
 5067SOL     OW16099   4.694   3.034   0.607
 5067SOL    HW116100   4.640   3.110   0.572
 5067SOL    HW216101   4.724   2.977   0.530
 5068SOL     OW16102   2.911   5.884   0.933
 5068SOL    HW116103   2.918   5.795   0.889
 5068SOL    HW216104   2.964   5.884   1.017
 5069SOL     OW16105   3.616   4.948   5.208
 5069SOL    HW116106   3.671   4.954   5.125
 5069SOL    HW216107   3.519   4.940   5.182
 5070SOL     OW16108   5.941   3.800   4.368
 5070SOL    HW116109   5.972   3.841   4.282
 5070SOL    HW216110   5.842   3.791   4.367
 5071SOL     OW16111   2.944   0.366   4.216
 5071SOL    HW116112   2.863   0.347   4.160
 5071SOL    HW216113   2.935   0.457   4.257
 5072SOL     OW16114   0.250   1.593   7.018
 5072SOL    HW116115   0.168   1.629   0.036
 5072SOL    HW216116   0.248   1.493   7.018
 5073SOL     OW16117   2.326   1.057   2.382
 5073SOL    HW116118   2.284   1.008   2.458
 5073SOL    HW216119   2.341   1.153   2.408
 5074SOL     OW16120   3.465   2.131   1.811
 5074SOL    HW116121   3.423   2.121   1.902
 5074SOL    HW216122   3.546   2.190   1.819
 5075SOL     OW16123   1.086   3.440   0.278
 5075SOL    HW116124   1.083   3.507   0.204
 5075SOL    HW216125   1.087   3.489   0.366
 5076SOL     OW16126   5.834   6.983   6.035
 5076SOL    HW116127   5.799   7.004   6.126
 5076SOL    HW216128   5.808   0.030   5.972
 5077SOL     OW16129   0.332   4.361   3.920
 5077SOL    HW116130   0.351   4.263   3.932
 5077SOL    HW216131   0.418   4.412   3.925
 5078SOL     OW16132   0.244   1.839   4.307
 5078SOL    HW116133   0.241   1.835   4.407
 5078SOL    HW216134   0.339   1.852   4.278
 5079SOL     OW16135   1.538   3.210   5.582
 5079SOL    HW116136   1.558   3.120   5.543
 5079SOL    HW216137   1.463   3.252   5.530
 5080SOL     OW16138   5.721   5.941   7.001
 5080SOL    HW116139   5.690   5.880   0.049
 5080SOL    HW216140   5.746   5.886   6.921
 5081SOL     OW16141   3.007   5.718   5.607
 5081SOL    HW116142   2.991   5.777   5.528
 5081SOL    HW216143   3.083   5.755   5.661
 5082SOL     OW16144   5.783   5.929   2.182
 5082SOL    HW116145   5.710   5.901   2.120
 5082SOL    HW216146   5.836   6.003   2.140
 5083SOL     OW16147   1.604   0.336   2.893
 5083SOL    HW116148   1.513   0.304   2.919
 5083SOL    HW216149   1.623   0.310   2.798
 5084SOL     OW16150   2.150   5.178   5.356
 5084SOL    HW116151   2.245   5.154   5.377
 5084SOL    HW216152   2.089   5.130   5.419
 5085SOL     OW16153   0.627   4.451   5.646
 5085SOL    HW116154   0.569   4.372   5.663
 5085SOL    HW216155   0.709   4.446   5.704
 5086SOL     OW16156   1.661   5.347   1.871
 5086SOL    HW116157   1.598   5.346   1.949
 5086SOL    HW216158   1.675   5.441   1.841
 5087SOL     OW16159   6.427   4.605   2.266
 5087SOL    HW116160   6.391   4.587   2.357
 5087SOL    HW216161   6.364   4.569   2.197
 5088SOL     OW16162   5.701   6.349   2.098
 5088SOL    HW116163   5.719   6.385   2.006
 5088SOL    HW216164   5.616   6.387   2.133
 5089SOL     OW16165   5.552   5.347   5.630
 5089SOL    HW116166   5.589   5.320   5.719
 5089SOL    HW216167   5.503   5.270   5.590
 5090SOL     OW16168   3.119   0.009   4.948
 5090SOL    HW116169   3.182   0.005   4.871
 5090SOL    HW216170   3.050   0.080   4.931
 5091SOL     OW16171   6.230   6.806   6.263
 5091SOL    HW116172   6.196   6.775   6.351
 5091SOL    HW216173   6.322   6.845   6.274
 5092SOL     OW16174   3.192   3.620   3.996
 5092SOL    HW116175   3.263   3.668   4.048
 5092SOL    HW216176   3.104   3.629   4.043
 5093SOL     OW16177   2.542   2.177   3.230
 5093SOL    HW116178   2.612   2.107   3.241
 5093SOL    HW216179   2.544   2.211   3.136
 5094SOL     OW16180   2.194   5.857   5.232
 5094SOL    HW116181   2.171   5.817   5.144
 5094SOL    HW216182   2.292   5.877   5.235
 5095SOL     OW16183   6.772   1.470   3.144
 5095SOL    HW116184   6.868   1.444   3.147
 5095SOL    HW216185   6.725   1.432   3.224
 5096SOL     OW16186   5.374   2.887   5.265
 5096SOL    HW116187   5.418   2.977   5.273
 5096SOL    HW216188   5.292   2.895   5.208
 5097SOL     OW16189   1.219   0.534   5.813
 5097SOL    HW116190   1.215   0.550   5.912
 5097SOL    HW216191   1.293   0.589   5.773
 5098SOL     OW16192   3.250   3.173   1.382
 5098SOL    HW116193   3.275   3.231   1.460
 5098SOL    HW216194   3.187   3.102   1.413
 5099SOL     OW16195   1.753   0.230   1.775
 5099SOL    HW116196   1.762   0.251   1.872
 5099SOL    HW216197   1.680   0.163   1.762
 5100SOL     OW16198   5.358   4.466   2.261
 5100SOL    HW116199   5.437   4.503   2.310
 5100SOL    HW216200   5.305   4.408   2.324
 5101SOL     OW16201   3.722   0.430   6.189
 5101SOL    HW116202   3.747   0.527   6.193
 5101SOL    HW216203   3.650   0.418   6.121
 5102SOL     OW16204   4.778   4.362   4.570
 5102SOL    HW116205   4.754   4.284   4.512
 5102SOL    HW216206   4.878   4.369   4.576
 5103SOL     OW16207   0.643   1.052   6.318
 5103SOL    HW116208   0.621   1.136   6.269
 5103SOL    HW216209   0.560   1.017   6.363
 5104SOL     OW16210   3.485   3.616   1.485
 5104SOL    HW116211   3.540   3.630   1.403
 5104SOL    HW216212   3.537   3.645   1.566
 5105SOL     OW16213   4.170   3.662   6.442
 5105SOL    HW116214   4.153   3.686   6.537
 5105SOL    HW216215   4.109   3.588   6.414
 5106SOL     OW16216   4.262   2.622   0.684
 5106SOL    HW116217   4.360   2.643   0.686
 5106SOL    HW216218   4.210   2.707   0.685
 5107SOL     OW16219   4.631   3.374   0.254
 5107SOL    HW116220   4.656   3.447   0.190
 5107SOL    HW216221   4.578   3.412   0.330
 5108SOL     OW16222   4.124   4.706   0.186
 5108SOL    HW116223   4.180   4.637   0.231
 5108SOL    HW216224   4.042   4.662   0.147
 5109SOL     OW16225   1.285   2.919   1.217
 5109SOL    HW116226   1.366   2.889   1.267
 5109SOL    HW216227   1.243   2.840   1.172
 5110SOL     OW16228   4.867   0.562   5.679
 5110SOL    HW116229   4.783   0.604   5.646
 5110SOL    HW216230   4.911   0.512   5.604
 5111SOL     OW16231   0.459   6.402   4.682
 5111SOL    HW116232   0.438   6.497   4.704
 5111SOL    HW216233   0.405   6.373   4.603
 5112SOL     OW16234   6.979   0.187   3.536
 5112SOL    HW116235   0.047   0.189   3.571
 5112SOL    HW216236   6.943   0.281   3.531
 5113SOL     OW16237   1.785   3.905   6.734
 5113SOL    HW116238   1.753   3.985   6.785
 5113SOL    HW216239   1.884   3.896   6.746
 5114SOL     OW16240   4.557   5.412   0.927
 5114SOL    HW116241   4.492   5.339   0.906
 5114SOL    HW216242   4.603   5.391   1.014
 5115SOL     OW16243   2.004   3.830   1.184
 5115SOL    HW116244   1.975   3.917   1.144
 5115SOL    HW216245   1.923   3.779   1.215
 5116SOL     OW16246   1.772   0.565   6.629
 5116SOL    HW116247   1.862   0.573   6.673
 5116SOL    HW216248   1.737   0.657   6.607
 5117SOL     OW16249   1.521   2.411   3.919
 5117SOL    HW116250   1.472   2.367   3.844
 5117SOL    HW216251   1.564   2.341   3.976
 5118SOL     OW16252   5.168   5.878   6.171
 5118SOL    HW116253   5.252   5.841   6.132
 5118SOL    HW216254   5.175   5.978   6.175
 5119SOL     OW16255   5.409   1.077   0.259
 5119SOL    HW116256   5.440   0.995   0.307
 5119SOL    HW216257   5.313   1.066   0.232
 5120SOL     OW16258   5.782   6.423   5.981
 5120SOL    HW116259   5.818   6.513   6.005
 5120SOL    HW216260   5.755   6.423   5.885
 5121SOL     OW16261   1.474   3.685   6.109
 5121SOL    HW116262   1.564   3.710   6.147
 5121SOL    HW216263   1.402   3.728   6.164
 5122SOL     OW16264   5.300   5.518   4.371
 5122SOL    HW116265   5.309   5.528   4.272
 5122SOL    HW216266   5.382   5.553   4.416
 5123SOL     OW16267   4.909   3.080   1.572
 5123SOL    HW116268   4.975   3.029   1.628
 5123SOL    HW216269   4.859   3.143   1.630
 5124SOL     OW16270   2.113   5.897   4.746
 5124SOL    HW116271   2.042   5.948   4.698
 5124SOL    HW216272   2.201   5.910   4.701
 5125SOL     OW16273   7.019   1.837   3.762
 5125SOL    HW116274   6.952   1.821   3.834
 5125SOL    HW216275   0.004   1.935   3.746
 5126SOL     OW16276   2.361   0.058   0.363
 5126SOL    HW116277   2.395   6.990   0.377
 5126SOL    HW216278   2.407   0.098   0.284
 5127SOL     OW16279   1.887   5.300   6.685
 5127SOL    HW116280   1.900   5.371   6.616
 5127SOL    HW216281   1.972   5.249   6.696
 5128SOL     OW16282   5.997   7.025   2.226
 5128SOL    HW116283   6.088   0.040   2.227
 5128SOL    HW216284   5.933   0.058   2.275
 5129SOL     OW16285   5.520   0.022   1.052
 5129SOL    HW116286   5.533   0.090   1.123
 5129SOL    HW216287   5.608   0.004   1.008
 5130SOL     OW16288   0.137   4.651   3.319
 5130SOL    HW116289   0.063   4.611   3.264
 5130SOL    HW216290   0.105   4.737   3.359
 5131SOL     OW16291   2.564   2.266   2.969
 5131SOL    HW116292   2.508   2.339   3.009
 5131SOL    HW216293   2.636   2.306   2.913
 5132SOL     OW16294   3.049   6.201   5.207
 5132SOL    HW116295   3.107   6.257   5.267
 5132SOL    HW216296   3.023   6.254   5.126
 5133SOL     OW16297   3.582   6.948   5.989
 5133SOL    HW116298   3.608   0.018   6.002
 5133SOL    HW216299   3.647   6.889   6.038
 5134SOL     OW16300   6.728   3.684   0.411
 5134SOL    HW116301   6.699   3.772   0.448
 5134SOL    HW216302   6.827   3.674   0.425
 5135SOL     OW16303   6.737   1.908   4.569
 5135SOL    HW116304   6.832   1.879   4.563
 5135SOL    HW216305   6.713   1.926   4.664
 5136SOL     OW16306   4.042   0.911   4.112
 5136SOL    HW116307   4.130   0.890   4.068
 5136SOL    HW216308   4.037   1.009   4.129
 5137SOL     OW16309   3.344   4.533   6.676
 5137SOL    HW116310   3.283   4.612   6.674
 5137SOL    HW216311   3.310   4.467   6.744
 5138SOL     OW16312   2.577   3.556   6.068
 5138SOL    HW116313   2.555   3.651   6.091
 5138SOL    HW216314   2.601   3.506   6.152
 5139SOL     OW16315   0.786   0.287   3.554
 5139SOL    HW116316   0.732   0.229   3.616
 5139SOL    HW216317   0.756   0.273   3.460
 5140SOL     OW16318   3.590   2.833   1.369
 5140SOL    HW116319   3.648   2.853   1.447
 5140SOL    HW216320   3.496   2.818   1.400
 5141SOL     OW16321   6.643   3.307   0.008
 5141SOL    HW116322   6.724   3.341   0.054
 5141SOL    HW216323   6.580   3.269   0.076
 5142SOL     OW16324   5.346   3.164   3.810
 5142SOL    HW116325   5.333   3.188   3.906
 5142SOL    HW216326   5.264   3.120   3.775
 5143SOL     OW16327   6.546   5.151   4.518
 5143SOL    HW116328   6.617   5.084   4.538
 5143SOL    HW216329   6.456   5.112   4.535
 5144SOL     OW16330   1.832   1.347   5.095
 5144SOL    HW116331   1.917   1.360   5.045
 5144SOL    HW216332   1.837   1.395   5.183
 5145SOL     OW16333   3.198   5.830   5.802
 5145SOL    HW116334   3.287   5.821   5.756
 5145SOL    HW216335   3.196   5.914   5.855
 5146SOL     OW16336   3.191   4.930   0.068
 5146SOL    HW116337   3.269   4.891   0.019
 5146SOL    HW216338   3.222   4.975   0.151
 5147SOL     OW16339   5.977   5.048   6.647
 5147SOL    HW116340   6.032   5.043   6.730
 5147SOL    HW216341   5.889   5.091   6.667
 5148SOL     OW16342   0.438   5.866   1.598
 5148SOL    HW116343   0.350   5.817   1.600
 5148SOL    HW216344   0.472   5.869   1.505
 5149SOL     OW16345   6.698   1.240   4.885
 5149SOL    HW116346   6.670   1.273   4.975
 5149SOL    HW216347   6.650   1.291   4.814
 5150SOL     OW16348   1.651   5.152   4.695
 5150SOL    HW116349   1.602   5.135   4.780
 5150SOL    HW216350   1.659   5.250   4.680
 5151SOL     OW16351   4.479   0.780   0.011
 5151SOL    HW116352   4.443   0.848   6.973
 5151SOL    HW216353   4.577   0.768   7.021
 5152SOL     OW16354   0.589   4.774   0.254
 5152SOL    HW116355   0.592   4.859   0.201
 5152SOL    HW216356   0.572   4.697   0.193
 5153SOL     OW16357   1.825   1.562   0.573
 5153SOL    HW116358   1.920   1.533   0.592
 5153SOL    HW216359   1.823   1.619   0.492
 5154SOL     OW16360   2.172   3.083   4.543
 5154SOL    HW116361   2.140   3.166   4.498
 5154SOL    HW216362   2.183   3.101   4.641
 5155SOL     OW16363   2.991   0.988   2.442
 5155SOL    HW116364   3.010   1.067   2.383
 5155SOL    HW216365   3.048   0.911   2.415
 5156SOL     OW16366   5.739   2.724   5.464
 5156SOL    HW116367   5.794   2.733   5.547
 5156SOL    HW216368   5.754   2.803   5.405
 5157SOL     OW16369   5.422   3.245   3.431
 5157SOL    HW116370   5.328   3.226   3.402
 5157SOL    HW216371   5.473   3.159   3.435
 5158SOL     OW16372   4.448   1.641   1.661
 5158SOL    HW116373   4.430   1.675   1.753
 5158SOL    HW216374   4.500   1.709   1.609
 5159SOL     OW16375   1.111   2.926   4.204
 5159SOL    HW116376   1.170   2.894   4.279
 5159SOL    HW216377   1.080   3.019   4.223
 5160SOL     OW16378   1.939   2.839   4.527
 5160SOL    HW116379   2.021   2.791   4.558
 5160SOL    HW216380   1.961   2.936   4.513
 5161SOL     OW16381   1.249   2.945   6.533
 5161SOL    HW116382   1.208   2.985   6.616
 5161SOL    HW216383   1.241   2.846   6.537
 5162SOL     OW16384   6.441   6.345   4.617
 5162SOL    HW116385   6.388   6.299   4.545
 5162SOL    HW216386   6.398   6.433   4.639
 5163SOL     OW16387   5.556   3.679   0.811
 5163SOL    HW116388   5.621   3.611   0.777
 5163SOL    HW216389   5.542   3.749   0.741
 5164SOL     OW16390   5.831   4.403   6.310
 5164SOL    HW116391   5.791   4.485   6.351
 5164SOL    HW216392   5.836   4.415   6.211
 5165SOL     OW16393   6.429   4.376   4.182
 5165SOL    HW116394   6.417   4.311   4.257
 5165SOL    HW216395   6.385   4.339   4.100
 5166SOL     OW16396   1.224   6.744   1.809
 5166SOL    HW116397   1.236   6.646   1.789
 5166SOL    HW216398   1.245   6.797   1.727
 5167SOL     OW16399   0.664   6.502   5.661
 5167SOL    HW116400   0.576   6.460   5.639
 5167SOL    HW216401   0.733   6.430   5.670
 5168SOL     OW16402   4.156   2.283   2.916
 5168SOL    HW116403   4.108   2.295   3.003
 5168SOL    HW216404   4.255   2.284   2.932
 5169SOL     OW16405   3.644   4.395   6.106
 5169SOL    HW116406   3.592   4.310   6.114
 5169SOL    HW216407   3.645   4.442   6.194
 5170SOL     OW16408   5.279   3.879   4.445
 5170SOL    HW116409   5.201   3.921   4.399
 5170SOL    HW216410   5.258   3.783   4.466
 5171SOL     OW16411   2.708   4.675   4.659
 5171SOL    HW116412   2.638   4.606   4.679
 5171SOL    HW216413   2.762   4.691   4.742
 5172SOL     OW16414   1.845   5.501   1.504
 5172SOL    HW116415   1.774   5.487   1.573
 5172SOL    HW216416   1.934   5.509   1.549
 5173SOL     OW16417   5.822   3.586   6.031
 5173SOL    HW116418   5.917   3.618   6.035
 5173SOL    HW216419   5.782   3.588   6.123
 5174SOL     OW16420   1.174   4.348   6.039
 5174SOL    HW116421   1.207   4.328   6.131
 5174SOL    HW216422   1.252   4.356   5.977
 5175SOL     OW16423   0.543   4.787   6.668
 5175SOL    HW116424   0.461   4.792   6.725
 5175SOL    HW216425   0.545   4.864   6.604
 5176SOL     OW16426   5.245   3.576   0.792
 5176SOL    HW116427   5.220   3.629   0.873
 5176SOL    HW216428   5.332   3.528   0.809
 5177SOL     OW16429   5.644   6.833   6.399
 5177SOL    HW116430   5.600   6.800   6.316
 5177SOL    HW216431   5.729   6.781   6.415
 5178SOL     OW16432   2.498   2.262   1.851
 5178SOL    HW116433   2.512   2.355   1.885
 5178SOL    HW216434   2.409   2.256   1.805
 5179SOL     OW16435   2.872   6.148   5.758
 5179SOL    HW116436   2.789   6.168   5.811
 5179SOL    HW216437   2.871   6.053   5.730
 5180SOL     OW16438   3.109   2.189   1.386
 5180SOL    HW116439   3.147   2.200   1.294
 5180SOL    HW216440   3.184   2.187   1.453
 5181SOL     OW16441   3.733   6.001   2.158
 5181SOL    HW116442   3.739   6.100   2.145
 5181SOL    HW216443   3.650   5.979   2.209
 5182SOL     OW16444   5.085   4.528   1.891
 5182SOL    HW116445   4.986   4.537   1.880
 5182SOL    HW216446   5.128   4.615   1.868
 5183SOL     OW16447   4.701   0.381   2.577
 5183SOL    HW116448   4.747   0.333   2.502
 5183SOL    HW216449   4.606   0.397   2.553
 5184SOL     OW16450   1.015   1.310   2.955
 5184SOL    HW116451   1.108   1.312   2.992
 5184SOL    HW216452   0.988   1.402   2.927
 5185SOL     OW16453   3.798   0.363   2.502
 5185SOL    HW116454   3.739   0.394   2.577
 5185SOL    HW216455   3.885   0.411   2.507
 5186SOL     OW16456   6.285   4.541   0.541
 5186SOL    HW116457   6.287   4.481   0.620
 5186SOL    HW216458   6.190   4.565   0.520
 5187SOL     OW16459   5.099   1.685   3.806
 5187SOL    HW116460   5.199   1.686   3.795
 5187SOL    HW216461   5.065   1.593   3.789
 5188SOL     OW16462   0.958   3.849   5.593
 5188SOL    HW116463   0.955   3.881   5.498
 5188SOL    HW216464   1.051   3.860   5.629
 5189SOL     OW16465   4.766   5.584   6.344
 5189SOL    HW116466   4.817   5.669   6.329
 5189SOL    HW216467   4.726   5.585   6.436
 5190SOL     OW16468   1.349   2.357   3.682
 5190SOL    HW116469   1.401   2.272   3.676
 5190SOL    HW216470   1.384   2.422   3.614
 5191SOL     OW16471   3.765   0.122   1.853
 5191SOL    HW116472   3.851   0.117   1.905
 5191SOL    HW216473   3.710   0.198   1.888
 5192SOL     OW16474   6.225   4.549   2.745
 5192SOL    HW116475   6.184   4.523   2.832
 5192SOL    HW216476   6.160   4.602   2.691
 5193SOL     OW16477   4.857   3.751   2.637
 5193SOL    HW116478   4.928   3.779   2.572
 5193SOL    HW216479   4.844   3.652   2.632
 5194SOL     OW16480   6.114   0.895   5.595
 5194SOL    HW116481   6.117   0.963   5.669
 5194SOL    HW216482   6.207   0.865   5.574
 5195SOL     OW16483   5.995   6.318   5.731
 5195SOL    HW116484   6.009   6.314   5.830
 5195SOL    HW216485   5.909   6.364   5.711
 5196SOL     OW16486   0.590   3.108   1.673
 5196SOL    HW116487   0.535   3.154   1.605
 5196SOL    HW216488   0.557   3.131   1.765
 5197SOL     OW16489   3.175   6.309   4.700
 5197SOL    HW116490   3.089   6.354   4.675
 5197SOL    HW216491   3.196   6.329   4.796
 5198SOL     OW16492   4.106   6.766   5.494
 5198SOL    HW116493   4.205   6.770   5.512
 5198SOL    HW216494   4.061   6.719   5.569
 5199SOL     OW16495   1.066   4.853   1.550
 5199SOL    HW116496   1.136   4.789   1.582
 5199SOL    HW216497   1.090   4.946   1.579
 5200SOL     OW16498   6.844   0.669   4.827
 5200SOL    HW116499   6.746   0.675   4.841
 5200SOL    HW216500   6.872   0.573   4.829
 5201SOL     OW16501   6.540   5.012   4.819
 5201SOL    HW116502   6.598   5.093   4.811
 5201SOL    HW216503   6.443   5.040   4.816
 5202SOL     OW16504   3.746   2.921   5.831
 5202SOL    HW116505   3.766   2.982   5.755
 5202SOL    HW216506   3.828   2.868   5.853
 5203SOL     OW16507   1.792   0.789   6.869
 5203SOL    HW116508   1.828   0.799   6.962
 5203SOL    HW216509   1.704   0.740   6.873
 5204SOL     OW16510   2.709   0.061   0.745
 5204SOL    HW116511   2.668   0.052   0.837
 5204SOL    HW216512   2.638   0.047   0.676
 5205SOL     OW16513   0.565   6.074   1.314
 5205SOL    HW116514   0.605   6.160   1.283
 5205SOL    HW216515   0.498   6.092   1.385
 5206SOL     OW16516   1.053   4.907   4.264
 5206SOL    HW116517   1.097   4.858   4.340
 5206SOL    HW216518   0.958   4.877   4.256
 5207SOL     OW16519   6.773   0.386   3.977
 5207SOL    HW116520   6.763   0.477   4.017
 5207SOL    HW216521   6.867   0.355   3.990
 5208SOL     OW16522   5.054   2.123   0.237
 5208SOL    HW116523   5.135   2.111   0.180
 5208SOL    HW216524   5.082   2.148   0.330
 5209SOL     OW16525   5.873   5.727   2.861
 5209SOL    HW116526   5.832   5.646   2.819
 5209SOL    HW216527   5.955   5.753   2.810
 5210SOL     OW16528   5.302   4.149   0.453
 5210SOL    HW116529   5.301   4.050   0.437
 5210SOL    HW216530   5.392   4.177   0.487
 5211SOL     OW16531   4.810   2.769   4.854
 5211SOL    HW116532   4.857   2.728   4.775
 5211SOL    HW216533   4.873   2.831   4.902
 5212SOL     OW16534   1.120   3.631   0.495
 5212SOL    HW116535   1.166   3.699   0.439
 5212SOL    HW216536   1.185   3.590   0.559
 5213SOL     OW16537   4.071   3.829   3.132
 5213SOL    HW116538   4.127   3.835   3.049
 5213SOL    HW216539   4.009   3.752   3.125
 5214SOL     OW16540   5.738   3.734   5.533
 5214SOL    HW116541   5.649   3.688   5.527
 5214SOL    HW216542   5.759   3.752   5.629
 5215SOL     OW16543   0.128   3.687   5.008
 5215SOL    HW116544   0.040   3.644   4.988
 5215SOL    HW216545   0.142   3.691   5.107
 5216SOL     OW16546   5.202   5.153   1.361
 5216SOL    HW116547   5.220   5.076   1.300
 5216SOL    HW216548   5.114   5.139   1.406
 5217SOL     OW16549   4.463   5.847   3.214
 5217SOL    HW116550   4.504   5.927   3.172
 5217SOL    HW216551   4.384   5.874   3.269
 5218SOL     OW16552   0.748   0.060   1.083
 5218SOL    HW116553   0.656   0.023   1.067
 5218SOL    HW216554   0.761   0.072   1.182
 5219SOL     OW16555   3.412   1.558   4.603
 5219SOL    HW116556   3.472   1.481   4.623
 5219SOL    HW216557   3.322   1.541   4.644
 5220SOL     OW16558   2.258   4.981   4.257
 5220SOL    HW116559   2.356   4.975   4.277
 5220SOL    HW216560   2.229   4.900   4.206
 5221SOL     OW16561   6.615   5.665   1.030
 5221SOL    HW116562   6.668   5.745   1.057
 5221SOL    HW216563   6.658   5.620   0.952
 5222SOL     OW16564   5.883   3.696   1.226
 5222SOL    HW116565   5.880   3.787   1.183
 5222SOL    HW216566   5.918   3.705   1.319
 5223SOL     OW16567   0.011   2.902   0.777
 5223SOL    HW116568   7.008   2.881   0.870
 5223SOL    HW216569   6.963   2.951   0.730
 5224SOL     OW16570   0.034   2.523   4.742
 5224SOL    HW116571   0.124   2.480   4.738
 5224SOL    HW216572   0.042   2.611   4.790
 5225SOL     OW16573   6.983   1.793   4.564
 5225SOL    HW116574   0.008   1.707   4.575
 5225SOL    HW216575   0.020   1.870   4.573
 5226SOL     OW16576   0.754   6.842   3.531
 5226SOL    HW116577   0.802   6.864   3.616
 5226SOL    HW216578   0.711   6.752   3.539
 5227SOL     OW16579   0.327   3.092   5.527
 5227SOL    HW116580   0.409   3.073   5.580
 5227SOL    HW216581   0.349   3.085   5.429
 5228SOL     OW16582   1.226   1.396   5.456
 5228SOL    HW116583   1.237   1.459   5.532
 5228SOL    HW216584   1.308   1.339   5.447
 5229SOL     OW16585   3.366   1.752   5.877
 5229SOL    HW116586   3.358   1.757   5.778
 5229SOL    HW216587   3.462   1.751   5.903
 5230SOL     OW16588   6.918   6.799   2.130
 5230SOL    HW116589   7.017   6.814   2.139
 5230SOL    HW216590   6.901   6.705   2.099
 5231SOL     OW16591   6.976   2.298   1.811
 5231SOL    HW116592   6.971   2.210   1.858
 5231SOL    HW216593   0.035   2.303   1.758
 5232SOL     OW16594   1.552   3.174   6.098
 5232SOL    HW116595   1.477   3.123   6.140
 5232SOL    HW216596   1.618   3.201   6.168
 5233SOL     OW16597   3.006   0.112   2.815
 5233SOL    HW116598   3.029   0.091   2.720
 5233SOL    HW216599   3.047   0.200   2.841
 5234SOL     OW16600   2.709   2.042   6.817
 5234SOL    HW116601   2.610   2.054   6.823
 5234SOL    HW216602   2.743   2.002   6.902
 5235SOL     OW16603   2.053   2.491   1.470
 5235SOL    HW116604   1.980   2.429   1.500
 5235SOL    HW216605   2.130   2.437   1.435
 5236SOL     OW16606   3.117   5.027   1.646
 5236SOL    HW116607   3.191   5.080   1.603
 5236SOL    HW216608   3.138   4.929   1.640
 5237SOL     OW16609   2.069   1.708   2.686
 5237SOL    HW116610   2.028   1.746   2.769
 5237SOL    HW216611   2.045   1.765   2.607
 5238SOL     OW16612   0.765   6.553   2.736
 5238SOL    HW116613   0.761   6.534   2.834
 5238SOL    HW216614   0.856   6.530   2.701
 5239SOL     OW16615   2.200   3.795   0.598
 5239SOL    HW116616   2.210   3.697   0.580
 5239SOL    HW216617   2.137   3.835   0.532
 5240SOL     OW16618   2.206   3.855   6.061
 5240SOL    HW116619   2.212   3.780   6.126
 5240SOL    HW216620   2.294   3.863   6.012
 5241SOL     OW16621   0.342   5.859   2.439
 5241SOL    HW116622   0.385   5.780   2.483
 5241SOL    HW216623   0.367   5.862   2.343
 5242SOL     OW16624   4.464   0.436   0.094
 5242SOL    HW116625   4.494   0.425   0.189
 5242SOL    HW216626   4.543   0.457   0.036
 5243SOL     OW16627   2.694   6.227   2.052
 5243SOL    HW116628   2.700   6.228   1.953
 5243SOL    HW216629   2.774   6.181   2.091
 5244SOL     OW16630   4.639   1.819   0.534
 5244SOL    HW116631   4.562   1.775   0.488
 5244SOL    HW216632   4.711   1.752   0.549
 5245SOL     OW16633   3.250   3.589   1.640
 5245SOL    HW116634   3.194   3.522   1.592
 5245SOL    HW216635   3.336   3.604   1.590
 5246SOL     OW16636   6.304   3.886   6.774
 5246SOL    HW116637   6.381   3.886   6.710
 5246SOL    HW216638   6.334   3.922   6.862
 5247SOL     OW16639   4.311   1.971   6.344
 5247SOL    HW116640   4.328   1.970   6.246
 5247SOL    HW216641   4.395   1.947   6.393
 5248SOL     OW16642   6.104   1.233   3.485
 5248SOL    HW116643   6.016   1.257   3.526
 5248SOL    HW216644   6.132   1.306   3.422
 5249SOL     OW16645   0.323   4.722   0.369
 5249SOL    HW116646   0.250   4.782   0.402
 5249SOL    HW216647   0.403   4.777   0.346
 5250SOL     OW16648   1.469   6.203   0.958
 5250SOL    HW116649   1.563   6.173   0.971
 5250SOL    HW216650   1.418   6.131   0.911
 5251SOL     OW16651   0.776   4.663   0.421
 5251SOL    HW116652   0.731   4.577   0.445
 5251SOL    HW216653   0.716   4.717   0.363
 5252SOL     OW16654   3.774   6.770   2.308
 5252SOL    HW116655   3.764   6.775   2.407
 5252SOL    HW216656   3.766   6.675   2.278
 5253SOL     OW16657   0.212   5.483   4.507
 5253SOL    HW116658   0.270   5.402   4.495
 5253SOL    HW216659   0.116   5.456   4.511
 5254SOL     OW16660   5.209   6.405   3.767
 5254SOL    HW116661   5.157   6.325   3.738
 5254SOL    HW216662   5.234   6.461   3.688
 5255SOL     OW16663   6.637   2.094   5.558
 5255SOL    HW116664   6.624   2.117   5.461
 5255SOL    HW216665   6.647   2.179   5.611
 5256SOL     OW16666   0.249   1.623   2.332
 5256SOL    HW116667   0.314   1.648   2.404
 5256SOL    HW216668   0.292   1.637   2.243
 5257SOL     OW16669   3.997   1.275   6.294
 5257SOL    HW116670   4.053   1.221   6.357
 5257SOL    HW216671   3.944   1.342   6.345
 5258SOL     OW16672   4.281   1.193   3.257
 5258SOL    HW116673   4.218   1.221   3.330
 5258SOL    HW216674   4.375   1.217   3.284
 5259SOL     OW16675   6.032   5.002   3.631
 5259SOL    HW116676   6.069   5.002   3.724
 5259SOL    HW216677   6.104   5.030   3.567
 5260SOL     OW16678   2.346   0.485   0.651
 5260SOL    HW116679   2.253   0.476   0.616
 5260SOL    HW216680   2.370   0.582   0.659
 5261SOL     OW16681   5.564   4.392   6.902
 5261SOL    HW116682   5.627   4.469   6.911
 5261SOL    HW216683   5.498   4.412   6.830
 5262SOL     OW16684   1.790   1.010   2.333
 5262SOL    HW116685   1.878   1.000   2.287
 5262SOL    HW216686   1.793   1.088   2.395
 5263SOL     OW16687   1.094   6.353   2.380
 5263SOL    HW116688   1.106   6.435   2.324
 5263SOL    HW216689   1.167   6.288   2.359
 5264SOL     OW16690   6.292   1.416   1.746
 5264SOL    HW116691   6.366   1.469   1.787
 5264SOL    HW216692   6.248   1.360   1.816
 5265SOL     OW16693   6.563   4.752   4.703
 5265SOL    HW116694   6.520   4.698   4.776
 5265SOL    HW216695   6.577   4.846   4.735
 5266SOL     OW16696   1.648   0.510   6.907
 5266SOL    HW116697   1.656   0.522   6.808
 5266SOL    HW216698   1.588   0.581   6.944
 5267SOL     OW16699   5.421   2.168   4.441
 5267SOL    HW116700   5.390   2.097   4.378
 5267SOL    HW216701   5.343   2.199   4.496
 5268SOL     OW16702   5.005   7.003   6.047
 5268SOL    HW116703   5.037   0.071   6.064
 5268SOL    HW216704   4.907   6.997   6.066
 5269SOL     OW16705   0.610   6.983   3.975
 5269SOL    HW116706   0.678   6.950   4.040
 5269SOL    HW216707   0.568   0.041   4.010
 5270SOL     OW16708   0.338   1.775   6.256
 5270SOL    HW116709   0.370   1.750   6.347
 5270SOL    HW216710   0.245   1.811   6.262
 5271SOL     OW16711   0.520   4.751   3.358
 5271SOL    HW116712   0.451   4.806   3.310
 5271SOL    HW216713   0.610   4.792   3.344
 5272SOL     OW16714   4.234   0.309   0.078
 5272SOL    HW116715   4.202   0.284   0.169
 5272SOL    HW216716   4.331   0.335   0.084
 5273SOL     OW16717   1.963   1.970   2.678
 5273SOL    HW116718   1.934   1.917   2.599
 5273SOL    HW216719   1.952   2.067   2.659
 5274SOL     OW16720   4.667   5.324   1.165
 5274SOL    HW116721   4.579   5.314   1.211
 5274SOL    HW216722   4.712   5.235   1.158
 5275SOL     OW16723   4.515   1.882   6.509
 5275SOL    HW116724   4.578   1.957   6.530
 5275SOL    HW216725   4.560   1.818   6.446
 5276SOL     OW16726   4.605   6.730   1.865
 5276SOL    HW116727   4.556   6.711   1.949
 5276SOL    HW216728   4.702   6.710   1.878
 5277SOL     OW16729   2.464   2.815   1.818
 5277SOL    HW116730   2.399   2.822   1.743
 5277SOL    HW216731   2.520   2.733   1.807
 5278SOL     OW16732   4.459   3.573   1.658
 5278SOL    HW116733   4.461   3.673   1.658
 5278SOL    HW216734   4.547   3.538   1.691
 5279SOL     OW16735   2.267   5.470   2.694
 5279SOL    HW116736   2.367   5.470   2.689
 5279SOL    HW216737   2.236   5.393   2.750
 5280SOL     OW16738   4.684   6.899   4.665
 5280SOL    HW116739   4.763   6.917   4.722
 5280SOL    HW216740   4.624   6.980   4.665
 5281SOL     OW16741   0.441   2.653   2.134
 5281SOL    HW116742   0.355   2.698   2.110
 5281SOL    HW216743   0.477   2.605   2.055
 5282SOL     OW16744   5.083   1.529   2.154
 5282SOL    HW116745   5.008   1.466   2.136
 5282SOL    HW216746   5.064   1.617   2.110
 5283SOL     OW16747   5.511   5.304   6.455
 5283SOL    HW116748   5.456   5.310   6.372
 5283SOL    HW216749   5.578   5.230   6.445
 5284SOL     OW16750   5.136   3.001   3.707
 5284SOL    HW116751   5.037   3.010   3.697
 5284SOL    HW216752   5.157   2.916   3.755
 5285SOL     OW16753   3.400   6.005   2.604
 5285SOL    HW116754   3.368   5.982   2.512
 5285SOL    HW216755   3.390   5.925   2.663
 5286SOL     OW16756   2.251   4.893   2.214
 5286SOL    HW116757   2.208   4.898   2.304
 5286SOL    HW216758   2.183   4.911   2.143
 5287SOL     OW16759   0.795   1.615   1.423
 5287SOL    HW116760   0.861   1.653   1.358
 5287SOL    HW216761   0.769   1.523   1.394
 5288SOL     OW16762   4.558   1.032   0.806
 5288SOL    HW116763   4.502   1.097   0.857
 5288SOL    HW216764   4.505   0.995   0.730
 5289SOL     OW16765   1.653   5.976   0.868
 5289SOL    HW116766   1.666   5.878   0.853
 5289SOL    HW216767   1.678   6.026   0.785
 5290SOL     OW16768   4.830   5.692   1.095
 5290SOL    HW116769   4.813   5.656   1.186
 5290SOL    HW216770   4.928   5.706   1.082
 5291SOL     OW16771   2.163   5.169   5.942
 5291SOL    HW116772   2.161   5.074   5.913
 5291SOL    HW216773   2.232   5.219   5.890
 5292SOL     OW16774   5.027   2.471   6.529
 5292SOL    HW116775   5.095   2.531   6.571
 5292SOL    HW216776   4.973   2.524   6.463
 5293SOL     OW16777   0.890   1.219   4.407
 5293SOL    HW116778   0.793   1.240   4.401
 5293SOL    HW216779   0.943   1.296   4.372
 5294SOL     OW16780   5.257   2.197   5.482
 5294SOL    HW116781   5.204   2.282   5.483
 5294SOL    HW216782   5.195   2.120   5.469
 5295SOL     OW16783   6.167   0.630   1.654
 5295SOL    HW116784   6.178   0.531   1.665
 5295SOL    HW216785   6.220   0.678   1.724
 5296SOL     OW16786   0.859   3.689   0.556
 5296SOL    HW116787   0.955   3.674   0.531
 5296SOL    HW216788   0.844   3.787   0.571
 5297SOL     OW16789   2.091   3.124   1.807
 5297SOL    HW116790   2.187   3.137   1.780
 5297SOL    HW216791   2.049   3.212   1.826
 5298SOL     OW16792   0.973   5.347   1.348
 5298SOL    HW116793   0.931   5.293   1.275
 5298SOL    HW216794   1.072   5.345   1.339
 5299SOL     OW16795   3.058   0.349   1.674
 5299SOL    HW116796   3.029   0.432   1.626
 5299SOL    HW216797   3.010   0.270   1.637
 5300SOL     OW16798   6.958   5.027   3.666
 5300SOL    HW116799   7.002   5.117   3.660
 5300SOL    HW216800   6.932   5.009   3.761
 5301SOL     OW16801   4.828   0.343   0.375
 5301SOL    HW116802   4.834   0.307   0.282
 5301SOL    HW216803   4.912   0.319   0.425
 5302SOL     OW16804   6.648   4.323   3.237
 5302SOL    HW116805   6.703   4.333   3.319
 5302SOL    HW216806   6.589   4.243   3.245
 5303SOL     OW16807   0.615   5.516   3.524
 5303SOL    HW116808   0.575   5.425   3.534
 5303SOL    HW216809   0.617   5.562   3.613
 5304SOL     OW16810   5.389   2.333   5.258
 5304SOL    HW116811   5.423   2.422   5.288
 5304SOL    HW216812   5.377   2.274   5.338
 5305SOL     OW16813   2.777   1.010   2.721
 5305SOL    HW116814   2.693   1.064   2.716
 5305SOL    HW216815   2.799   0.974   2.630
 5306SOL     OW16816   2.309   0.297   4.491
 5306SOL    HW116817   2.274   0.301   4.585
 5306SOL    HW216818   2.394   0.349   4.484
 5307SOL     OW16819   4.259   6.943   6.841
 5307SOL    HW116820   4.338   7.003   6.830
 5307SOL    HW216821   4.175   6.995   6.825
 5308SOL     OW16822   0.491   1.178   2.664
 5308SOL    HW116823   0.422   1.243   2.631
 5308SOL    HW216824   0.566   1.227   2.707
 5309SOL     OW16825   4.063   3.235   4.155
 5309SOL    HW116826   4.058   3.333   4.171
 5309SOL    HW216827   4.102   3.218   4.065
 5310SOL     OW16828   5.828   1.807   0.695
 5310SOL    HW116829   5.856   1.766   0.781
 5310SOL    HW216830   5.757   1.752   0.653
 5311SOL     OW16831   1.656   5.730   6.885
 5311SOL    HW116832   1.707   5.655   6.928
 5311SOL    HW216833   1.719   5.806   6.866
 5312SOL     OW16834   0.304   2.556   1.887
 5312SOL    HW116835   0.220   2.596   1.848
 5312SOL    HW216836   0.291   2.457   1.898
 5313SOL     OW16837   1.105   5.761   7.001
 5313SOL    HW116838   1.196   5.721   6.987
 5313SOL    HW216839   1.069   5.792   6.913
 5314SOL     OW16840   3.152   4.688   0.581
 5314SOL    HW116841   3.202   4.613   0.624
 5314SOL    HW216842   3.054   4.678   0.601
 5315SOL     OW16843   4.831   3.214   2.431
 5315SOL    HW116844   4.905   3.258   2.381
 5315SOL    HW216845   4.806   3.128   2.385
 5316SOL     OW16846   6.324   5.368   5.187
 5316SOL    HW116847   6.309   5.461   5.153
 5316SOL    HW216848   6.272   5.355   5.271
 5317SOL     OW16849   5.782   5.600   3.081
 5317SOL    HW116850   5.702   5.549   3.047
 5317SOL    HW216851   5.820   5.655   3.007
 5318SOL     OW16852   0.325   2.351   4.659
 5318SOL    HW116853   0.292   2.421   4.596
 5318SOL    HW216854   0.394   2.389   4.720
 5319SOL     OW16855   3.750   0.448   1.555
 5319SOL    HW116856   3.824   0.387   1.527
 5319SOL    HW216857   3.756   0.464   1.653
 5320SOL     OW16858   5.761   3.765   5.805
 5320SOL    HW116859   5.746   3.721   5.893
 5320SOL    HW216860   5.748   3.864   5.814
 5321SOL     OW16861   1.830   5.658   6.453
 5321SOL    HW116862   1.756   5.672   6.519
 5321SOL    HW216863   1.823   5.565   6.415
 5322SOL     OW16864   3.121   6.308   0.560
 5322SOL    HW116865   3.023   6.293   0.547
 5322SOL    HW216866   3.157   6.362   0.483
 5323SOL     OW16867   6.066   3.249   0.315
 5323SOL    HW116868   6.151   3.231   0.266
 5323SOL    HW216869   6.021   3.329   0.274
 5324SOL     OW16870   3.780   3.116   1.909
 5324SOL    HW116871   3.857   3.060   1.878
 5324SOL    HW216872   3.697   3.086   1.862
 5325SOL     OW16873   4.901   6.054   4.446
 5325SOL    HW116874   4.905   6.068   4.545
 5325SOL    HW216875   4.831   6.114   4.407
 5326SOL     OW16876   0.460   0.217   2.119
 5326SOL    HW116877   0.450   0.122   2.146
 5326SOL    HW216878   0.376   0.267   2.138
 5327SOL     OW16879   6.713   0.904   4.294
 5327SOL    HW116880   6.774   0.928   4.369
 5327SOL    HW216881   6.660   0.984   4.266
 5328SOL     OW16882   3.620   4.960   1.260
 5328SOL    HW116883   3.584   5.008   1.180
 5328SOL    HW216884   3.547   4.950   1.328
 5329SOL     OW16885   6.351   5.498   0.475
 5329SOL    HW116886   6.263   5.464   0.443
 5329SOL    HW216887   6.394   5.553   0.403
 5330SOL     OW16888   3.958   5.005   0.458
 5330SOL    HW116889   3.999   5.093   0.481
 5330SOL    HW216890   3.989   4.976   0.368
 5331SOL     OW16891   4.290   2.521   6.621
 5331SOL    HW116892   4.284   2.475   6.532
 5331SOL    HW216893   4.242   2.467   6.690
 5332SOL     OW16894   5.880   3.019   0.356
 5332SOL    HW116895   5.931   2.976   0.281
 5332SOL    HW216896   5.926   3.104   0.382
 5333SOL     OW16897   1.219   2.098   4.079
 5333SOL    HW116898   1.143   2.141   4.128
 5333SOL    HW216899   1.189   2.010   4.042
 5334SOL     OW16900   3.600   5.851   1.513
 5334SOL    HW116901   3.595   5.763   1.562
 5334SOL    HW216902   3.536   5.915   1.554
 5335SOL     OW16903   0.367   4.612   1.371
 5335SOL    HW116904   0.295   4.680   1.361
 5335SOL    HW216905   0.456   4.656   1.364
 5336SOL     OW16906   1.582   2.916   4.969
 5336SOL    HW116907   1.577   3.012   4.994
 5336SOL    HW216908   1.551   2.860   5.047
 5337SOL     OW16909   6.473   5.046   0.600
 5337SOL    HW116910   6.431   4.956   0.604
 5337SOL    HW216911   6.559   5.046   0.652
 5338SOL     OW16912   6.240   3.429   0.756
 5338SOL    HW116913   6.202   3.478   0.677
 5338SOL    HW216914   6.238   3.488   0.836
 5339SOL     OW16915   5.184   3.497   2.569
 5339SOL    HW116916   5.254   3.564   2.544
 5339SOL    HW216917   5.213   3.406   2.538
 5340SOL     OW16918   4.983   3.756   2.097
 5340SOL    HW116919   5.015   3.816   2.023
 5340SOL    HW216920   4.916   3.691   2.061
 5341SOL     OW16921   4.484   4.449   3.589
 5341SOL    HW116922   4.393   4.420   3.619
 5341SOL    HW216923   4.542   4.464   3.668
 5342SOL     OW16924   6.766   5.514   4.952
 5342SOL    HW116925   6.830   5.460   5.008
 5342SOL    HW216926   6.780   5.611   4.969
 5343SOL     OW16927   3.458   2.973   6.191
 5343SOL    HW116928   3.468   2.873   6.186
 5343SOL    HW216929   3.544   3.016   6.168
 5344SOL     OW16930   0.237   1.439   6.202
 5344SOL    HW116931   0.208   1.534   6.207
 5344SOL    HW216932   0.248   1.413   6.106
 5345SOL     OW16933   5.224   1.246   6.517
 5345SOL    HW116934   5.232   1.250   6.616
 5345SOL    HW216935   5.183   1.330   6.482
 5346SOL     OW16936   3.191   5.755   3.198
 5346SOL    HW116937   3.275   5.809   3.188
 5346SOL    HW216938   3.196   5.701   3.282
 5347SOL     OW16939   6.065   2.063   3.877
 5347SOL    HW116940   5.970   2.040   3.897
 5347SOL    HW216941   6.108   2.099   3.960
 5348SOL     OW16942   4.884   2.667   4.606
 5348SOL    HW116943   4.886   2.601   4.531
 5348SOL    HW216944   4.811   2.734   4.589
 5349SOL     OW16945   0.907   3.687   1.352
 5349SOL    HW116946   0.968   3.714   1.277
 5349SOL    HW216947   0.876   3.769   1.400
 5350SOL     OW16948   1.242   5.965   6.715
 5350SOL    HW116949   1.149   5.932   6.731
 5350SOL    HW216950   1.238   6.057   6.675
 5351SOL     OW16951   6.742   6.118   3.502
 5351SOL    HW116952   6.776   6.032   3.462
 5351SOL    HW216953   6.659   6.100   3.554
 5352SOL     OW16954   1.249   3.140   6.268
 5352SOL    HW116955   1.327   3.124   6.329
 5352SOL    HW216956   1.178   3.188   6.318
 5353SOL     OW16957   4.001   4.856   3.594
 5353SOL    HW116958   4.099   4.864   3.578
 5353SOL    HW216959   3.977   4.903   3.679
 5354SOL     OW16960   3.813   5.620   1.574
 5354SOL    HW116961   3.881   5.557   1.610
 5354SOL    HW216962   3.785   5.683   1.646
 5355SOL     OW16963   5.524   4.589   5.296
 5355SOL    HW116964   5.471   4.672   5.277
 5355SOL    HW216965   5.488   4.514   5.241
 5356SOL     OW16966   0.418   5.862   0.755
 5356SOL    HW116967   0.498   5.801   0.756
 5356SOL    HW216968   0.447   5.956   0.774
 5357SOL     OW16969   5.829   3.531   2.871
 5357SOL    HW116970   5.827   3.470   2.792
 5357SOL    HW216971   5.784   3.487   2.949
 5358SOL     OW16972   4.763   0.822   6.919
 5358SOL    HW116973   4.723   0.822   6.828
 5358SOL    HW216974   4.859   0.795   6.914
 5359SOL     OW16975   3.204   2.166   6.577
 5359SOL    HW116976   3.256   2.244   6.543
 5359SOL    HW216977   3.157   2.191   6.662
 5360SOL     OW16978   5.907   5.143   4.060
 5360SOL    HW116979   5.876   5.233   4.030
 5360SOL    HW216980   5.870   5.072   3.999
 5361SOL     OW16981   1.378   5.091   2.524
 5361SOL    HW116982   1.350   5.184   2.548
 5361SOL    HW216983   1.477   5.089   2.512
 5362SOL     OW16984   5.756   1.802   2.433
 5362SOL    HW116985   5.760   1.780   2.530
 5362SOL    HW216986   5.841   1.773   2.388
 5363SOL     OW16987   5.416   4.877   3.768
 5363SOL    HW116988   5.484   4.949   3.756
 5363SOL    HW216989   5.412   4.820   3.686
 5364SOL     OW16990   4.589   1.621   2.799
 5364SOL    HW116991   4.606   1.647   2.704
 5364SOL    HW216992   4.666   1.566   2.832
 5365SOL     OW16993   2.910   3.767   4.614
 5365SOL    HW116994   2.871   3.679   4.585
 5365SOL    HW216995   2.873   3.792   4.703
 5366SOL     OW16996   6.578   6.099   3.760
 5366SOL    HW116997   6.652   6.032   3.769
 5366SOL    HW216998   6.516   6.091   3.838
 5367SOL     OW16999   6.153   5.775   1.473
 5367SOL    HW117000   6.213   5.852   1.498
 5367SOL    HW217001   6.127   5.784   1.378
 5368SOL     OW17002   6.979   5.957   4.572
 5368SOL    HW117003   6.982   6.026   4.499
 5368SOL    HW217004   6.949   5.870   4.533
 5369SOL     OW17005   4.138   5.816   2.547
 5369SOL    HW117006   4.188   5.744   2.595
 5369SOL    HW217007   4.097   5.879   2.613
 5370SOL     OW17008   1.723   3.085   0.543
 5370SOL    HW117009   1.704   3.157   0.610
 5370SOL    HW217010   1.638   3.061   0.495
 5371SOL     OW17011   6.300   5.388   4.688
 5371SOL    HW117012   6.221   5.449   4.688
 5371SOL    HW217013   6.327   5.368   4.782
 5372SOL     OW17014   1.916   0.014   2.729
 5372SOL    HW117015   1.893   0.108   2.703
 5372SOL    HW217016   1.933   0.010   2.828
 5373SOL     OW17017   3.095   1.299   6.404
 5373SOL    HW117018   3.003   1.327   6.378
 5373SOL    HW217019   3.094   1.263   6.497
 5374SOL     OW17020   2.062   3.889   1.726
 5374SOL    HW117021   2.015   3.898   1.639
 5374SOL    HW217022   2.109   3.801   1.730
 5375SOL     OW17023   2.544   4.789   4.993
 5375SOL    HW117024   2.497   4.788   4.905
 5375SOL    HW217025   2.535   4.700   5.037
 5376SOL     OW17026   0.618   0.369   5.892
 5376SOL    HW117027   0.521   0.358   5.912
 5376SOL    HW217028   0.629   0.404   5.799
 5377SOL     OW17029   1.414   1.534   2.721
 5377SOL    HW117030   1.371   1.592   2.652
 5377SOL    HW217031   1.498   1.494   2.684
 5378SOL     OW17032   4.184   0.212   2.493
 5378SOL    HW117033   4.098   0.174   2.459
 5378SOL    HW217034   4.169   0.251   2.584
 5379SOL     OW17035   2.388   2.071   4.293
 5379SOL    HW117036   2.442   2.052   4.211
 5379SOL    HW217037   2.318   2.000   4.303
 5380SOL     OW17038   4.536   5.853   1.909
 5380SOL    HW117039   4.535   5.821   2.003
 5380SOL    HW217040   4.623   5.830   1.866
 5381SOL     OW17041   2.753   0.293   3.655
 5381SOL    HW117042   2.793   0.383   3.675
 5381SOL    HW217043   2.815   0.242   3.596
 5382SOL     OW17044   4.611   0.914   2.699
 5382SOL    HW117045   4.650   0.835   2.651
 5382SOL    HW217046   4.526   0.888   2.744
 5383SOL     OW17047   2.262   2.823   4.414
 5383SOL    HW117048   2.243   2.914   4.452
 5383SOL    HW217049   2.251   2.754   4.485
 5384SOL     OW17050   5.663   5.573   5.520
 5384SOL    HW117051   5.645   5.477   5.543
 5384SOL    HW217052   5.724   5.577   5.441
 5385SOL     OW17053   3.868   3.379   6.167
 5385SOL    HW117054   3.826   3.375   6.257
 5385SOL    HW217055   3.912   3.469   6.155
 5386SOL     OW17056   5.181   4.653   4.208
 5386SOL    HW117057   5.091   4.693   4.188
 5386SOL    HW217058   5.249   4.693   4.146
 5387SOL     OW17059   1.200   1.704   4.250
 5387SOL    HW117060   1.174   1.755   4.168
 5387SOL    HW217061   1.298   1.683   4.246
 5388SOL     OW17062   0.268   6.902   3.045
 5388SOL    HW117063   0.177   6.883   3.080
 5388SOL    HW217064   0.332   6.915   3.121
 5389SOL     OW17065   5.293   1.309   3.414
 5389SOL    HW117066   5.260   1.293   3.321
 5389SOL    HW217067   5.217   1.342   3.471
 5390SOL     OW17068   6.933   3.853   3.609
 5390SOL    HW117069   6.875   3.772   3.593
 5390SOL    HW217070   6.974   3.881   3.522
 5391SOL     OW17071   3.117   2.638   0.755
 5391SOL    HW117072   3.211   2.665   0.735
 5391SOL    HW217073   3.058   2.660   0.677
 5392SOL     OW17074   6.017   0.801   3.933
 5392SOL    HW117075   6.093   0.790   3.868
 5392SOL    HW217076   5.932   0.772   3.889
 5393SOL     OW17077   4.322   2.394   4.420
 5393SOL    HW117078   4.395   2.395   4.352
 5393SOL    HW217079   4.349   2.450   4.498
 5394SOL     OW17080   0.852   1.972   1.360
 5394SOL    HW117081   0.883   1.998   1.451
 5394SOL    HW217082   0.752   1.966   1.359
 5395SOL     OW17083   6.362   1.098   0.772
 5395SOL    HW117084   6.322   1.134   0.856
 5395SOL    HW217085   6.323   1.146   0.693
 5396SOL     OW17086   4.315   3.823   0.736
 5396SOL    HW117087   4.253   3.899   0.719
 5396SOL    HW217088   4.392   3.854   0.791
 5397SOL     OW17089   6.980   0.595   2.810
 5397SOL    HW117090   6.956   0.651   2.890
 5397SOL    HW217091   0.053   0.577   2.810
 5398SOL     OW17092   6.232   3.030   2.363
 5398SOL    HW117093   6.284   2.970   2.424
 5398SOL    HW217094   6.155   2.980   2.324
 5399SOL     OW17095   1.813   2.122   0.214
 5399SOL    HW117096   1.880   2.139   0.142
 5399SOL    HW217097   1.724   2.104   0.174
 5400SOL     OW17098   4.765   3.129   1.335
 5400SOL    HW117099   4.823   3.114   1.416
 5400SOL    HW217100   4.670   3.107   1.358
 5401SOL     OW17101   5.460   2.297   1.335
 5401SOL    HW117102   5.494   2.389   1.355
 5401SOL    HW217103   5.484   2.271   1.242
 5402SOL     OW17104   1.323   5.997   2.632
 5402SOL    HW117105   1.381   6.075   2.608
 5402SOL    HW217106   1.237   6.030   2.669
 5403SOL     OW17107   4.570   2.402   0.090
 5403SOL    HW117108   4.602   2.458   0.013
 5403SOL    HW217109   4.578   2.454   0.174
 5404SOL     OW17110   4.953   6.979   0.068
 5404SOL    HW117111   4.856   7.001   0.068
 5404SOL    HW217112   4.966   6.881   0.051
 5405SOL     OW17113   0.073   4.853   0.307
 5405SOL    HW117114   0.068   4.949   0.334
 5405SOL    HW217115   0.056   4.795   0.387
 5406SOL     OW17116   2.220   1.000   5.946
 5406SOL    HW117117   2.226   1.010   5.847
 5406SOL    HW217118   2.205   1.090   5.988
 5407SOL     OW17119   1.623   6.641   3.119
 5407SOL    HW117120   1.705   6.663   3.065
 5407SOL    HW217121   1.565   6.578   3.067
 5408SOL     OW17122   2.182   1.697   4.439
 5408SOL    HW117123   2.262   1.701   4.499
 5408SOL    HW217124   2.188   1.616   4.381
 5409SOL     OW17125   1.238   2.335   2.016
 5409SOL    HW117126   1.236   2.391   1.933
 5409SOL    HW217127   1.147   2.302   2.036
 5410SOL     OW17128   6.389   2.229   0.696
 5410SOL    HW117129   6.385   2.280   0.782
 5410SOL    HW217130   6.318   2.264   0.634
 5411SOL     OW17131   3.678   5.374   6.926
 5411SOL    HW117132   3.606   5.387   6.994
 5411SOL    HW217133   3.745   5.448   6.933
 5412SOL     OW17134   0.330   2.479   6.027
 5412SOL    HW117135   0.236   2.465   5.995
 5412SOL    HW217136   0.393   2.435   5.963
 5413SOL     OW17137   0.962   5.384   4.855
 5413SOL    HW117138   0.896   5.444   4.899
 5413SOL    HW217139   1.055   5.416   4.875
 5414SOL     OW17140   5.201   4.476   5.932
 5414SOL    HW117141   5.292   4.435   5.939
 5414SOL    HW217142   5.173   4.479   5.836
 5415SOL     OW17143   3.753   1.282   0.471
 5415SOL    HW117144   3.832   1.233   0.507
 5415SOL    HW217145   3.779   1.375   0.447
 5416SOL     OW17146   3.919   5.516   0.201
 5416SOL    HW117147   3.840   5.522   0.262
 5416SOL    HW217148   3.953   5.422   0.201
 5417SOL     OW17149   4.340   6.621   4.087
 5417SOL    HW117150   4.427   6.670   4.092
 5417SOL    HW217151   4.349   6.543   4.024
 5418SOL     OW17152   6.515   3.204   5.692
 5418SOL    HW117153   6.562   3.264   5.628
 5418SOL    HW217154   6.416   3.221   5.687
 5419SOL     OW17155   4.024   1.568   6.008
 5419SOL    HW117156   4.074   1.488   6.040
 5419SOL    HW217157   4.064   1.651   6.048
 5420SOL     OW17158   1.671   1.991   1.914
 5420SOL    HW117159   1.580   2.025   1.937
 5420SOL    HW217160   1.663   1.903   1.867
 5421SOL     OW17161   3.708   4.937   2.192
 5421SOL    HW117162   3.660   4.877   2.129
 5421SOL    HW217163   3.687   5.032   2.170
 5422SOL     OW17164   2.831   5.155   3.805
 5422SOL    HW117165   2.825   5.065   3.847
 5422SOL    HW217166   2.921   5.165   3.761
 5423SOL     OW17167   5.076   0.026   1.671
 5423SOL    HW117168   5.173   0.019   1.694
 5423SOL    HW217169   5.066   0.025   1.571
 5424SOL     OW17170   4.079   3.695   5.365
 5424SOL    HW117171   4.107   3.646   5.447
 5424SOL    HW217172   4.138   3.668   5.288
 5425SOL     OW17173   1.417   4.361   5.901
 5425SOL    HW117174   1.474   4.424   5.847
 5425SOL    HW217175   1.443   4.267   5.880
 5426SOL     OW17176   6.754   5.287   1.431
 5426SOL    HW117177   6.743   5.375   1.478
 5426SOL    HW217178   6.851   5.270   1.415
 5427SOL     OW17179   4.137   3.200   0.676
 5427SOL    HW117180   4.189   3.208   0.761
 5427SOL    HW217181   4.043   3.172   0.697
 5428SOL     OW17182   5.405   5.227   3.213
 5428SOL    HW117183   5.412   5.320   3.247
 5428SOL    HW217184   5.335   5.223   3.141
 5429SOL     OW17185   2.615   0.073   4.465
 5429SOL    HW117186   2.621   0.173   4.461
 5429SOL    HW217187   2.519   0.045   4.457
 5430SOL     OW17188   2.725   3.868   5.620
 5430SOL    HW117189   2.821   3.841   5.624
 5430SOL    HW217190   2.687   3.843   5.531
 5431SOL     OW17191   4.514   4.501   0.544
 5431SOL    HW117192   4.600   4.512   0.593
 5431SOL    HW217193   4.464   4.588   0.544
 5432SOL     OW17194   0.386   5.335   6.886
 5432SOL    HW117195   0.293   5.369   6.871
 5432SOL    HW217196   0.451   5.409   6.872
 5433SOL     OW17197   3.494   0.151   1.110
 5433SOL    HW117198   3.398   0.159   1.082
 5433SOL    HW217199   3.530   0.242   1.130
 5434SOL     OW17200   4.668   0.665   4.228
 5434SOL    HW117201   4.692   0.592   4.293
 5434SOL    HW217202   4.743   0.677   4.163
 5435SOL     OW17203   6.740   5.024   0.681
 5435SOL    HW117204   6.747   5.116   0.720
 5435SOL    HW217205   6.809   5.014   0.609
 5436SOL     OW17206   1.922   4.575   2.704
 5436SOL    HW117207   1.995   4.584   2.636
 5436SOL    HW217208   1.856   4.507   2.673
 5437SOL     OW17209   3.277   6.194   0.906
 5437SOL    HW117210   3.250   6.186   0.811
 5437SOL    HW217211   3.374   6.172   0.915
 5438SOL     OW17212   4.769   6.156   2.440
 5438SOL    HW117213   4.757   6.092   2.364
 5438SOL    HW217214   4.687   6.212   2.449
 5439SOL     OW17215   1.031   4.164   1.312
 5439SOL    HW117216   0.964   4.098   1.278
 5439SOL    HW217217   1.101   4.180   1.242
 5440SOL     OW17218   6.000   6.278   3.756
 5440SOL    HW117219   6.081   6.227   3.726
 5440SOL    HW217220   5.927   6.266   3.689
 5441SOL     OW17221   5.356   2.325   4.784
 5441SOL    HW117222   5.341   2.396   4.716
 5441SOL    HW217223   5.445   2.281   4.768
 5442SOL     OW17224   2.971   0.513   6.523
 5442SOL    HW117225   2.952   0.435   6.583
 5442SOL    HW217226   2.894   0.527   6.461
 5443SOL     OW17227   5.312   1.272   2.992
 5443SOL    HW117228   5.393   1.316   2.951
 5443SOL    HW217229   5.256   1.341   3.038
 5444SOL     OW17230   6.807   0.815   6.148
 5444SOL    HW117231   6.740   0.851   6.084
 5444SOL    HW217232   6.770   0.820   6.241
 5445SOL     OW17233   5.670   5.863   6.161
 5445SOL    HW117234   5.579   5.904   6.151
 5445SOL    HW217235   5.737   5.934   6.184
 5446SOL     OW17236   6.861   4.379   6.131
 5446SOL    HW117237   6.931   4.448   6.150
 5446SOL    HW217238   6.904   4.296   6.096
 5447SOL     OW17239   0.176   1.397   1.787
 5447SOL    HW117240   0.241   1.400   1.711
 5447SOL    HW217241   0.219   1.355   1.866
 5448SOL     OW17242   5.217   4.687   3.016
 5448SOL    HW117243   5.177   4.596   3.032
 5448SOL    HW217244   5.170   4.731   2.940
 5449SOL     OW17245   3.172   1.243   2.034
 5449SOL    HW117246   3.149   1.237   1.937
 5449SOL    HW217247   3.134   1.327   2.073
 5450SOL     OW17248   4.417   5.873   2.441
 5450SOL    HW117249   4.391   5.950   2.499
 5450SOL    HW217250   4.353   5.798   2.454
 5451SOL     OW17251   6.390   6.292   3.688
 5451SOL    HW117252   6.360   6.281   3.783
 5451SOL    HW217253   6.483   6.257   3.679
 5452SOL     OW17254   2.159   3.818   2.724
 5452SOL    HW117255   2.141   3.721   2.713
 5452SOL    HW217256   2.123   3.868   2.644
 5453SOL     OW17257   6.862   4.984   3.930
 5453SOL    HW117258   6.826   4.915   3.993
 5453SOL    HW217259   6.787   5.042   3.899
 5454SOL     OW17260   6.127   4.100   3.390
 5454SOL    HW117261   6.177   4.024   3.348
 5454SOL    HW217262   6.130   4.091   3.490
 5455SOL     OW17263   2.487   1.980   3.542
 5455SOL    HW117264   2.521   1.934   3.624
 5455SOL    HW217265   2.519   2.074   3.541
 5456SOL     OW17266   5.300   2.573   0.748
 5456SOL    HW117267   5.311   2.501   0.679
 5456SOL    HW217268   5.205   2.576   0.778
 5457SOL     OW17269   5.797   1.037   6.255
 5457SOL    HW117270   5.820   0.975   6.330
 5457SOL    HW217271   5.873   1.102   6.242
 5458SOL     OW17272   5.933   3.483   0.224
 5458SOL    HW117273   6.014   3.518   0.177
 5458SOL    HW217274   5.852   3.501   0.168
 5459SOL     OW17275   1.755   3.460   4.703
 5459SOL    HW117276   1.741   3.545   4.753
 5459SOL    HW217277   1.715   3.384   4.756
 5460SOL     OW17278   1.009   0.659   1.505
 5460SOL    HW117279   0.959   0.745   1.511
 5460SOL    HW217280   0.996   0.618   1.414
 5461SOL     OW17281   6.687   1.016   5.951
 5461SOL    HW117282   6.640   1.081   5.892
 5461SOL    HW217283   6.786   1.033   5.948
 5462SOL     OW17284   5.049   4.408   6.394
 5462SOL    HW117285   5.148   4.414   6.382
 5462SOL    HW217286   5.029   4.356   6.477
 5463SOL     OW17287   1.067   3.265   5.914
 5463SOL    HW117288   1.155   3.311   5.912
 5463SOL    HW217289   1.024   3.279   6.003
 5464SOL     OW17290   1.784   5.826   5.546
 5464SOL    HW117291   1.780   5.921   5.579
 5464SOL    HW217292   1.855   5.818   5.476
 5465SOL     OW17293   0.434   6.878   4.302
 5465SOL    HW117294   0.363   6.945   4.280
 5465SOL    HW217295   0.453   6.823   4.221
 5466SOL     OW17296   5.802   2.332   4.408
 5466SOL    HW117297   5.895   2.323   4.375
 5466SOL    HW217298   5.739   2.283   4.348
 5467SOL     OW17299   4.870   3.243   4.007
 5467SOL    HW117300   4.957   3.279   4.039
 5467SOL    HW217301   4.795   3.292   4.051
 5468SOL     OW17302   0.114   1.110   0.899
 5468SOL    HW117303   0.058   1.117   0.981
 5468SOL    HW217304   0.139   1.015   0.883
 5469SOL     OW17305   3.409   0.681   4.091
 5469SOL    HW117306   3.467   0.759   4.071
 5469SOL    HW217307   3.324   0.712   4.134
 5470SOL     OW17308   4.329   4.977   4.085
 5470SOL    HW117309   4.294   4.994   3.993
 5470SOL    HW217310   4.300   4.886   4.116
 5471SOL     OW17311   5.111   0.870   3.207
 5471SOL    HW117312   5.169   0.793   3.233
 5471SOL    HW217313   5.165   0.954   3.204
 5472SOL     OW17314   3.119   3.475   6.629
 5472SOL    HW117315   3.194   3.449   6.567
 5472SOL    HW217316   3.035   3.429   6.600
 5473SOL     OW17317   2.845   4.946   1.940
 5473SOL    HW117318   2.777   4.881   1.906
 5473SOL    HW217319   2.912   4.899   1.997
 5474SOL     OW17320   1.107   4.783   2.448
 5474SOL    HW117321   1.185   4.779   2.510
 5474SOL    HW217322   1.074   4.691   2.428
 5475SOL     OW17323   0.685   1.156   5.021
 5475SOL    HW117324   0.593   1.116   5.029
 5475SOL    HW217325   0.722   1.171   5.113
 5476SOL     OW17326   2.455   6.877   5.034
 5476SOL    HW117327   2.547   6.882   5.075
 5476SOL    HW217328   2.461   6.900   4.937
 5477SOL     OW17329   1.669   3.888   4.197
 5477SOL    HW117330   1.728   3.900   4.117
 5477SOL    HW217331   1.574   3.910   4.172
 5478SOL     OW17332   5.013   4.909   6.042
 5478SOL    HW117333   4.966   4.854   5.973
 5478SOL    HW217334   5.086   4.854   6.084
 5479SOL     OW17335   4.804   2.080   4.621
 5479SOL    HW117336   4.818   2.018   4.543
 5479SOL    HW217337   4.818   2.029   4.706
 5480SOL     OW17338   0.994   3.510   4.192
 5480SOL    HW117339   0.925   3.444   4.222
 5480SOL    HW217340   1.076   3.461   4.161
 5481SOL     OW17341   4.607   1.748   6.257
 5481SOL    HW117342   4.598   1.837   6.211
 5481SOL    HW217343   4.587   1.675   6.192
 5482SOL     OW17344   5.119   3.034   1.860
 5482SOL    HW117345   5.136   2.940   1.832
 5482SOL    HW217346   5.159   3.050   1.950
 5483SOL     OW17347   6.873   2.731   6.867
 5483SOL    HW117348   6.802   2.800   6.877
 5483SOL    HW217349   6.861   2.682   6.780
 5484SOL     OW17350   6.705   6.519   5.063
 5484SOL    HW117351   6.737   6.614   5.062
 5484SOL    HW217352   6.669   6.496   5.153
 5485SOL     OW17353   3.587   0.348   5.188
 5485SOL    HW117354   3.577   0.403   5.271
 5485SOL    HW217355   3.501   0.300   5.169
 5486SOL     OW17356   1.350   0.736   3.852
 5486SOL    HW117357   1.366   0.830   3.880
 5486SOL    HW217358   1.438   0.688   3.845
 5487SOL     OW17359   4.475   4.902   0.770
 5487SOL    HW117360   4.501   4.811   0.804
 5487SOL    HW217361   4.375   4.909   0.766
 5488SOL     OW17362   4.925   0.927   5.818
 5488SOL    HW117363   4.868   1.005   5.841
 5488SOL    HW217364   4.972   0.943   5.731
 5489SOL     OW17365   0.708   3.956   3.230
 5489SOL    HW117366   0.772   4.024   3.264
 5489SOL    HW217367   0.628   4.002   3.192
 5490SOL     OW17368   1.961   2.227   6.995
 5490SOL    HW117369   1.950   2.160   6.922
 5490SOL    HW217370   1.876   2.278   7.006
 5491SOL     OW17371   0.319   5.425   1.401
 5491SOL    HW117372   0.270   5.440   1.315
 5491SOL    HW217373   0.416   5.413   1.382
 5492SOL     OW17374   1.670   1.137   5.018
 5492SOL    HW117375   1.658   1.055   5.075
 5492SOL    HW217376   1.732   1.200   5.064
 5493SOL     OW17377   2.944   2.738   0.277
 5493SOL    HW117378   2.920   2.825   0.320
 5493SOL    HW217379   3.010   2.754   0.204
 5494SOL     OW17380   6.165   2.761   2.214
 5494SOL    HW117381   6.255   2.788   2.181
 5494SOL    HW217382   6.097   2.780   2.143
 5495SOL     OW17383   3.722   2.871   2.111
 5495SOL    HW117384   3.777   2.814   2.049
 5495SOL    HW217385   3.625   2.854   2.094
 5496SOL     OW17386   3.738   5.696   1.255
 5496SOL    HW117387   3.643   5.720   1.239
 5496SOL    HW217388   3.748   5.663   1.349
 5497SOL     OW17389   6.224   6.809   2.329
 5497SOL    HW117390   6.233   6.761   2.241
 5497SOL    HW217391   6.135   6.790   2.369
 5498SOL     OW17392   4.425   0.445   5.347
 5498SOL    HW117393   4.474   0.399   5.422
 5498SOL    HW217394   4.423   0.386   5.267
 5499SOL     OW17395   0.206   2.058   4.067
 5499SOL    HW117396   0.257   1.977   4.038
 5499SOL    HW217397   0.164   2.040   4.157
 5500SOL     OW17398   1.877   6.272   1.790
 5500SOL    HW117399   1.860   6.190   1.844
 5500SOL    HW217400   1.830   6.264   1.702
 5501SOL     OW17401   2.370   6.952   2.615
 5501SOL    HW117402   2.398   7.019   2.684
 5501SOL    HW217403   2.447   6.935   2.553
 5502SOL     OW17404   4.473   3.941   0.116
 5502SOL    HW117405   4.433   3.862   0.070
 5502SOL    HW217406   4.470   4.021   0.056
 5503SOL     OW17407   1.458   5.672   4.456
 5503SOL    HW117408   1.390   5.612   4.498
 5503SOL    HW217409   1.452   5.763   4.496
 5504SOL     OW17410   3.341   2.112   4.811
 5504SOL    HW117411   3.441   2.108   4.822
 5504SOL    HW217412   3.305   2.191   4.861
 5505SOL     OW17413   2.859   4.622   5.851
 5505SOL    HW117414   2.800   4.543   5.869
 5505SOL    HW217415   2.953   4.590   5.836
 5506SOL     OW17416   6.253   0.022   5.256
 5506SOL    HW117417   6.281   0.088   5.325
 5506SOL    HW217418   6.333   7.000   5.219
 5507SOL     OW17419   2.913   5.733   3.937
 5507SOL    HW117420   2.921   5.639   3.905
 5507SOL    HW217421   2.986   5.788   3.896
 5508SOL     OW17422   2.049   0.794   5.990
 5508SOL    HW117423   2.084   0.718   6.045
 5508SOL    HW217424   2.107   0.874   6.003
 5509SOL     OW17425   5.723   6.323   6.542
 5509SOL    HW117426   5.707   6.224   6.546
 5509SOL    HW217427   5.723   6.361   6.634
 5510SOL     OW17428   4.880   0.748   5.331
 5510SOL    HW117429   4.824   0.826   5.300
 5510SOL    HW217430   4.963   0.783   5.375
 5511SOL     OW17431   0.486   1.395   2.140
 5511SOL    HW117432   0.579   1.365   2.119
 5511SOL    HW217433   0.481   1.495   2.135
 5512SOL     OW17434   2.039   0.341   1.111
 5512SOL    HW117435   1.961   0.391   1.149
 5512SOL    HW217436   2.008   0.254   1.073
 5513SOL     OW17437   3.912   4.875   4.318
 5513SOL    HW117438   3.917   4.832   4.408
 5513SOL    HW217439   3.829   4.931   4.312
 5514SOL     OW17440   5.889   5.044   3.413
 5514SOL    HW117441   5.949   5.029   3.491
 5514SOL    HW217442   5.941   5.084   3.338
 5515SOL     OW17443   0.058   2.605   1.785
 5515SOL    HW117444   0.059   2.625   1.687
 5515SOL    HW217445   0.000   2.525   1.802
 5516SOL     OW17446   1.295   3.396   5.959
 5516SOL    HW117447   1.374   3.428   5.906
 5516SOL    HW217448   1.327   3.362   6.048
 5517SOL     OW17449   2.490   1.352   2.725
 5517SOL    HW117450   2.553   1.400   2.664
 5517SOL    HW217451   2.408   1.408   2.739
 5518SOL     OW17452   5.837   4.822   4.700
 5518SOL    HW117453   5.846   4.914   4.739
 5518SOL    HW217454   5.809   4.830   4.604
 5519SOL     OW17455   5.130   3.377   3.905
 5519SOL    HW117456   5.129   3.363   3.806
 5519SOL    HW217457   5.219   3.413   3.933
 5520SOL     OW17458   1.603   3.847   1.556
 5520SOL    HW117459   1.597   3.870   1.653
 5520SOL    HW217460   1.527   3.788   1.530
 5521SOL     OW17461   5.564   5.243   1.970
 5521SOL    HW117462   5.553   5.285   2.060
 5521SOL    HW217463   5.473   5.221   1.933
 5522SOL     OW17464   2.171   3.658   1.757
 5522SOL    HW117465   2.140   3.615   1.672
 5522SOL    HW217466   2.209   3.588   1.817
 5523SOL     OW17467   2.871   0.955   2.101
 5523SOL    HW117468   2.965   0.935   2.072
 5523SOL    HW217469   2.872   1.035   2.162
 5524SOL     OW17470   6.961   5.823   5.899
 5524SOL    HW117471   0.032   5.798   5.885
 5524SOL    HW217472   6.948   5.850   5.995
 5525SOL     OW17473   0.226   5.268   4.873
 5525SOL    HW117474   0.217   5.177   4.913
 5525SOL    HW217475   0.318   5.278   4.834
 5526SOL     OW17476   6.323   2.863   4.770
 5526SOL    HW117477   6.375   2.883   4.853
 5526SOL    HW217478   6.365   2.785   4.722
 5527SOL     OW17479   2.137   3.512   1.254
 5527SOL    HW117480   2.173   3.551   1.169
 5527SOL    HW217481   2.165   3.416   1.261
 5528SOL     OW17482   0.407   3.394   3.602
 5528SOL    HW117483   0.474   3.338   3.652
 5528SOL    HW217484   0.452   3.441   3.526
 5529SOL     OW17485   1.631   1.634   5.111
 5529SOL    HW117486   1.603   1.538   5.115
 5529SOL    HW217487   1.674   1.660   5.198
 5530SOL     OW17488   0.869   2.462   0.973
 5530SOL    HW117489   0.822   2.499   1.053
 5530SOL    HW217490   0.947   2.520   0.951
 5531SOL     OW17491   3.210   2.766   5.834
 5531SOL    HW117492   3.308   2.785   5.832
 5531SOL    HW217493   3.189   2.689   5.775
 5532SOL     OW17494   2.895   1.486   1.108
 5532SOL    HW117495   2.972   1.549   1.101
 5532SOL    HW217496   2.864   1.482   1.203
 5533SOL     OW17497   4.480   0.827   1.282
 5533SOL    HW117498   4.382   0.848   1.275
 5533SOL    HW217499   4.491   0.733   1.315
 5534SOL     OW17500   6.936   4.045   5.723
 5534SOL    HW117501   6.865   4.114   5.737
 5534SOL    HW217502   7.001   4.077   5.654
 5535SOL     OW17503   6.420   3.124   3.600
 5535SOL    HW117504   6.499   3.183   3.588
 5535SOL    HW217505   6.437   3.036   3.555
 5536SOL     OW17506   1.705   0.422   3.460
 5536SOL    HW117507   1.698   0.390   3.554
 5536SOL    HW217508   1.644   0.369   3.401
 5537SOL     OW17509   4.173   1.174   4.534
 5537SOL    HW117510   4.259   1.169   4.482
 5537SOL    HW217511   4.101   1.210   4.476
 5538SOL     OW17512   5.300   1.883   0.365
 5538SOL    HW117513   5.352   1.853   0.445
 5538SOL    HW217514   5.209   1.911   0.394
 5539SOL     OW17515   3.187   6.888   7.008
 5539SOL    HW117516   3.236   6.973   6.989
 5539SOL    HW217517   3.157   6.887   0.078
 5540SOL     OW17518   5.338   0.551   6.753
 5540SOL    HW117519   5.268   0.561   6.682
 5540SOL    HW217520   5.296   0.522   6.839
 5541SOL     OW17521   4.874   3.708   5.915
 5541SOL    HW117522   4.915   3.750   5.995
 5541SOL    HW217523   4.784   3.671   5.939
 5542SOL     OW17524   3.869   4.598   0.266
 5542SOL    HW117525   3.926   4.630   0.341
 5542SOL    HW217526   3.786   4.556   0.304
 5543SOL     OW17527   1.409   0.378   0.774
 5543SOL    HW117528   1.346   0.455   0.779
 5543SOL    HW217529   1.368   0.304   0.721
 5544SOL     OW17530   3.711   5.916   5.933
 5544SOL    HW117531   3.721   5.826   5.893
 5544SOL    HW217532   3.738   5.913   6.029
 5545SOL     OW17533   3.735   0.327   3.119
 5545SOL    HW117534   3.782   0.277   3.047
 5545SOL    HW217535   3.802   0.358   3.187
 5546SOL     OW17536   0.784   5.563   4.976
 5546SOL    HW117537   0.760   5.498   5.048
 5546SOL    HW217538   0.833   5.640   5.016
 5547SOL     OW17539   5.338   1.498   4.450
 5547SOL    HW117540   5.384   1.410   4.440
 5547SOL    HW217541   5.400   1.571   4.420
 5548SOL     OW17542   6.099   4.817   5.433
 5548SOL    HW117543   6.066   4.805   5.526
 5548SOL    HW217544   6.093   4.731   5.383
 5549SOL     OW17545   4.408   2.953   0.854
 5549SOL    HW117546   4.415   2.870   0.909
 5549SOL    HW217547   4.462   3.026   0.896
 5550SOL     OW17548   1.994   3.737   2.251
 5550SOL    HW117549   2.063   3.795   2.208
 5550SOL    HW217550   1.912   3.733   2.193
 5551SOL     OW17551   1.751   5.187   4.293
 5551SOL    HW117552   1.838   5.151   4.327
 5551SOL    HW217553   1.722   5.134   4.214
 5552SOL     OW17554   0.350   6.616   6.786
 5552SOL    HW117555   0.349   6.528   6.834
 5552SOL    HW217556   0.337   6.690   6.852
 5553SOL     OW17557   4.385   0.154   6.896
 5553SOL    HW117558   4.386   0.222   6.822
 5553SOL    HW217559   4.323   0.184   6.968
 5554SOL     OW17560   4.985   2.404   1.539
 5554SOL    HW117561   5.048   2.359   1.475
 5554SOL    HW217562   4.987   2.357   1.627
 5555SOL     OW17563   1.794   4.318   2.326
 5555SOL    HW117564   1.808   4.283   2.233
 5555SOL    HW217565   1.871   4.376   2.351
 5556SOL     OW17566   0.189   0.405   4.870
 5556SOL    HW117567   0.217   0.494   4.835
 5556SOL    HW217568   0.093   0.408   4.898
 5557SOL     OW17569   3.273   6.281   2.057
 5557SOL    HW117570   3.250   6.376   2.079
 5557SOL    HW217571   3.253   6.264   1.960
 5558SOL     OW17572   3.906   4.596   6.821
 5558SOL    HW117573   3.821   4.569   6.866
 5558SOL    HW217574   3.901   4.693   6.795
 5559SOL     OW17575   1.973   0.382   2.429
 5559SOL    HW117576   1.983   0.360   2.332
 5559SOL    HW217577   2.055   0.353   2.478
 5560SOL     OW17578   0.716   6.044   3.104
 5560SOL    HW117579   0.637   5.992   3.072
 5560SOL    HW217580   0.761   6.089   3.027
 5561SOL     OW17581   3.379   0.043   4.106
 5561SOL    HW117582   3.307   0.030   4.174
 5561SOL    HW217583   3.353   7.023   4.021
 5562SOL     OW17584   4.106   3.879   1.377
 5562SOL    HW117585   4.136   3.959   1.429
 5562SOL    HW217586   4.185   3.823   1.352
 5563SOL     OW17587   2.680   4.686   2.979
 5563SOL    HW117588   2.646   4.605   3.026
 5563SOL    HW217589   2.778   4.697   2.999
 5564SOL     OW17590   5.514   0.776   5.710
 5564SOL    HW117591   5.559   0.742   5.792
 5564SOL    HW217592   5.557   0.861   5.680
 5565SOL     OW17593   3.013   2.461   6.794
 5565SOL    HW117594   2.965   2.458   6.707
 5565SOL    HW217595   3.047   2.370   6.817
 5566SOL     OW17596   1.153   3.050   6.793
 5566SOL    HW117597   1.126   3.134   6.840
 5566SOL    HW217598   1.194   2.987   6.859
 5567SOL     OW17599   6.750   4.769   1.546
 5567SOL    HW117600   6.703   4.703   1.487
 5567SOL    HW217601   6.698   4.855   1.548
 5568SOL     OW17602   4.570   6.443   1.744
 5568SOL    HW117603   4.548   6.429   1.841
 5568SOL    HW217604   4.624   6.527   1.735
 5569SOL     OW17605   2.292   2.721   4.163
 5569SOL    HW117606   2.291   2.749   4.259
 5569SOL    HW217607   2.373   2.666   4.145
 5570SOL     OW17608   0.141   3.906   3.027
 5570SOL    HW117609   0.124   3.878   3.121
 5570SOL    HW217610   0.229   3.952   3.021
 5571SOL     OW17611   6.531   5.181   1.905
 5571SOL    HW117612   6.501   5.102   1.852
 5571SOL    HW217613   6.477   5.261   1.878
 5572SOL     OW17614   1.248   2.967   4.935
 5572SOL    HW117615   1.225   2.989   5.030
 5572SOL    HW217616   1.330   3.018   4.908
 5573SOL     OW17617   2.788   5.449   4.285
 5573SOL    HW117618   2.742   5.387   4.221
 5573SOL    HW217619   2.767   5.423   4.379
 5574SOL     OW17620   6.997   2.255   6.434
 5574SOL    HW117621   0.044   2.199   6.473
 5574SOL    HW217622   6.945   2.300   6.507
 5575SOL     OW17623   0.574   6.919   1.526
 5575SOL    HW117624   0.526   6.988   1.581
 5575SOL    HW217625   0.590   6.837   1.581
 5576SOL     OW17626   2.075   4.132   3.687
 5576SOL    HW117627   2.058   4.043   3.644
 5576SOL    HW217628   1.989   4.180   3.701
 5577SOL     OW17629   1.398   3.446   6.268
 5577SOL    HW117630   1.452   3.485   6.194
 5577SOL    HW217631   1.455   3.384   6.322
 5578SOL     OW17632   3.813   3.318   2.737
 5578SOL    HW117633   3.890   3.296   2.797
 5578SOL    HW217634   3.841   3.307   2.641
 5579SOL     OW17635   0.349   2.902   1.566
 5579SOL    HW117636   0.348   2.892   1.665
 5579SOL    HW217637   0.375   2.996   1.543
 5580SOL     OW17638   5.134   1.867   5.341
 5580SOL    HW117639   5.078   1.928   5.396
 5580SOL    HW217640   5.075   1.803   5.291
 5581SOL     OW17641   0.472   1.870   0.010
 5581SOL    HW117642   0.493   1.772   0.016
 5581SOL    HW217643   0.487   1.911   0.100
 5582SOL     OW17644   2.336   2.864   6.563
 5582SOL    HW117645   2.260   2.804   6.539
 5582SOL    HW217646   2.422   2.813   6.558
 5583SOL     OW17647   5.289   1.139   2.103
 5583SOL    HW117648   5.254   1.223   2.062
 5583SOL    HW217649   5.386   1.150   2.124
 5584SOL     OW17650   0.369   4.222   5.296
 5584SOL    HW117651   0.460   4.218   5.337
 5584SOL    HW217652   0.378   4.232   5.197
 5585SOL     OW17653   4.615   4.919   1.884
 5585SOL    HW117654   4.599   5.011   1.918
 5585SOL    HW217655   4.549   4.856   1.925
 5586SOL     OW17656   6.713   2.835   6.412
 5586SOL    HW117657   6.632   2.891   6.394
 5586SOL    HW217658   6.702   2.787   6.499
 5587SOL     OW17659   5.083   0.451   6.278
 5587SOL    HW117660   5.142   0.430   6.200
 5587SOL    HW217661   5.133   0.432   6.363
 5588SOL     OW17662   3.347   6.367   1.158
 5588SOL    HW117663   3.308   6.281   1.191
 5588SOL    HW217664   3.446   6.366   1.169
 5589SOL     OW17665   5.763   4.716   6.339
 5589SOL    HW117666   5.783   4.738   6.243
 5589SOL    HW217667   5.843   4.736   6.395
 5590SOL     OW17668   6.018   5.796   4.627
 5590SOL    HW117669   5.987   5.864   4.694
 5590SOL    HW217670   5.947   5.784   4.557
 5591SOL     OW17671   5.976   1.648   1.395
 5591SOL    HW117672   5.910   1.712   1.436
 5591SOL    HW217673   6.048   1.627   1.461
 5592SOL     OW17674   0.870   4.746   3.555
 5592SOL    HW117675   0.949   4.760   3.615
 5592SOL    HW217676   0.839   4.651   3.563
 5593SOL     OW17677   6.482   1.919   0.402
 5593SOL    HW117678   6.545   1.978   0.452
 5593SOL    HW217679   6.417   1.877   0.466
 5594SOL     OW17680   5.509   2.090   5.562
 5594SOL    HW117681   5.517   2.045   5.473
 5594SOL    HW217682   5.418   2.130   5.570
 5595SOL     OW17683   0.909   2.776   5.432
 5595SOL    HW117684   0.951   2.729   5.355
 5595SOL    HW217685   0.977   2.835   5.475
 5596SOL     OW17686   4.358   6.955   2.523
 5596SOL    HW117687   4.327   6.863   2.544
 5596SOL    HW217688   4.443   6.974   2.573
 5597SOL     OW17689   4.874   3.408   3.382
 5597SOL    HW117690   4.829   3.494   3.407
 5597SOL    HW217691   4.896   3.409   3.284
 5598SOL     OW17692   5.098   2.163   4.372
 5598SOL    HW117693   5.067   2.117   4.289
 5598SOL    HW217694   5.132   2.096   4.437
 5599SOL     OW17695   0.512   1.939   4.181
 5599SOL    HW117696   0.441   1.995   4.140
 5599SOL    HW217697   0.581   1.915   4.113
 5600SOL     OW17698   1.418   2.670   4.088
 5600SOL    HW117699   1.456   2.581   4.113
 5600SOL    HW217700   1.492   2.734   4.068
 5601SOL     OW17701   2.439   1.393   5.694
 5601SOL    HW117702   2.404   1.320   5.636
 5601SOL    HW217703   2.452   1.359   5.788
 5602SOL     OW17704   0.822   1.483   0.756
 5602SOL    HW117705   0.857   1.429   0.832
 5602SOL    HW217706   0.749   1.544   0.789
 5603SOL     OW17707   5.315   2.255   6.968
 5603SOL    HW117708   5.335   2.279   0.038
 5603SOL    HW217709   5.231   2.200   6.965
 5604SOL     OW17710   5.899   2.065   5.776
 5604SOL    HW117711   5.811   2.028   5.807
 5604SOL    HW217712   5.973   2.017   5.822
 5605SOL     OW17713   0.568   2.016   4.618
 5605SOL    HW117714   0.579   1.933   4.672
 5605SOL    HW217715   0.479   2.015   4.572
 5606SOL     OW17716   4.525   0.301   1.719
 5606SOL    HW117717   4.434   0.259   1.718
 5606SOL    HW217718   4.584   0.248   1.780
 5607SOL     OW17719   5.508   1.702   1.769
 5607SOL    HW117720   5.546   1.613   1.796
 5607SOL    HW217721   5.475   1.698   1.675
 5608SOL     OW17722   4.186   0.089   4.757
 5608SOL    HW117723   4.142   0.008   4.718
 5608SOL    HW217724   4.219   0.148   4.683
 5609SOL     OW17725   2.690   6.564   6.561
 5609SOL    HW117726   2.700   6.487   6.624
 5609SOL    HW217727   2.621   6.628   6.597
 5610SOL     OW17728   5.182   0.320   0.393
 5610SOL    HW117729   5.171   0.222   0.379
 5610SOL    HW217730   5.164   0.368   0.307
 5611SOL     OW17731   1.273   4.796   3.466
 5611SOL    HW117732   1.262   4.827   3.372
 5611SOL    HW217733   1.227   4.861   3.528
 5612SOL     OW17734   2.942   0.502   5.468
 5612SOL    HW117735   2.855   0.465   5.435
 5612SOL    HW217736   2.959   0.467   5.561
 5613SOL     OW17737   4.274   4.586   1.937
 5613SOL    HW117738   4.350   4.563   1.998
 5613SOL    HW217739   4.267   4.518   1.865
 5614SOL     OW17740   4.637   2.535   3.053
 5614SOL    HW117741   4.672   2.622   3.089
 5614SOL    HW217742   4.692   2.460   3.090
 5615SOL     OW17743   1.556   0.883   0.155
 5615SOL    HW117744   1.513   0.873   0.065
 5615SOL    HW217745   1.648   0.843   0.153
 5616SOL     OW17746   2.284   0.891   4.260
 5616SOL    HW117747   2.319   0.947   4.185
 5616SOL    HW217748   2.208   0.836   4.227
 5617SOL     OW17749   1.989   0.664   4.650
 5617SOL    HW117750   1.910   0.622   4.695
 5617SOL    HW217751   2.072   0.616   4.678
 5618SOL     OW17752   6.857   4.136   3.954
 5618SOL    HW117753   6.852   4.054   4.010
 5618SOL    HW217754   6.949   4.147   3.918
 5619SOL     OW17755   2.201   3.898   5.579
 5619SOL    HW117756   2.250   3.823   5.624
 5619SOL    HW217757   2.233   3.985   5.616
 5620SOL     OW17758   3.629   2.336   6.666
 5620SOL    HW117759   3.716   2.383   6.678
 5620SOL    HW217760   3.572   2.351   6.747
 5621SOL     OW17761   1.545   1.945   5.359
 5621SOL    HW117762   1.548   2.002   5.441
 5621SOL    HW217763   1.458   1.895   5.356
 5622SOL     OW17764   4.851   0.701   5.950
 5622SOL    HW117765   4.821   0.639   5.877
 5622SOL    HW217766   4.835   0.796   5.922
 5623SOL     OW17767   1.456   6.201   6.681
 5623SOL    HW117768   1.430   6.174   6.774
 5623SOL    HW217769   1.384   6.257   6.641
 5624SOL     OW17770   1.102   4.762   3.696
 5624SOL    HW117771   1.170   4.703   3.740
 5624SOL    HW217772   1.130   4.857   3.706
 5625SOL     OW17773   6.585   2.722   4.810
 5625SOL    HW117774   6.532   2.769   4.880
 5625SOL    HW217775   6.665   2.777   4.786
 5626SOL     OW17776   3.655   0.074   4.882
 5626SOL    HW117777   3.591   0.119   4.945
 5626SOL    HW217778   3.741   0.055   4.931
 5627SOL     OW17779   1.159   6.131   1.408
 5627SOL    HW117780   1.133   6.080   1.326
 5627SOL    HW217781   1.246   6.095   1.443
 5628SOL     OW17782   2.309   1.862   4.961
 5628SOL    HW117783   2.343   1.870   4.868
 5628SOL    HW217784   2.223   1.913   4.970
 5629SOL     OW17785   3.592   3.758   2.633
 5629SOL    HW117786   3.691   3.760   2.646
 5629SOL    HW217787   3.548   3.823   2.694
 5630SOL     OW17788   0.839   4.625   1.252
 5630SOL    HW117789   0.917   4.578   1.211
 5630SOL    HW217790   0.770   4.642   1.182
 5631SOL     OW17791   4.629   0.937   0.315
 5631SOL    HW117792   4.552   0.955   0.252
 5631SOL    HW217793   4.597   0.881   0.391
 5632SOL     OW17794   4.385   3.804   6.727
 5632SOL    HW117795   4.350   3.891   6.691
 5632SOL    HW217796   4.429   3.753   6.654
 5633SOL     OW17797   6.396   2.626   4.544
 5633SOL    HW117798   6.484   2.581   4.525
 5633SOL    HW217799   6.404   2.724   4.526
 5634SOL     OW17800   4.032   5.496   4.129
 5634SOL    HW117801   4.029   5.596   4.131
 5634SOL    HW217802   4.122   5.465   4.159
 5635SOL     OW17803   2.552   2.520   4.869
 5635SOL    HW117804   2.524   2.592   4.932
 5635SOL    HW217805   2.599   2.448   4.919
 5636SOL     OW17806   4.561   5.450   2.893
 5636SOL    HW117807   4.533   5.506   2.814
 5636SOL    HW217808   4.546   5.502   2.977
 5637SOL     OW17809   5.653   6.638   3.848
 5637SOL    HW117810   5.718   6.610   3.778
 5637SOL    HW217811   5.600   6.559   3.878
 5638SOL     OW17812   5.051   2.853   6.750
 5638SOL    HW117813   5.139   2.893   6.725
 5638SOL    HW217814   4.987   2.862   6.673
 5639SOL     OW17815   1.405   1.507   6.261
 5639SOL    HW117816   1.435   1.594   6.223
 5639SOL    HW217817   1.369   1.523   6.354
 5640SOL     OW17818   2.521   0.319   3.469
 5640SOL    HW117819   2.488   0.264   3.392
 5640SOL    HW217820   2.566   0.260   3.536
 5641SOL     OW17821   6.516   5.305   5.621
 5641SOL    HW117822   6.436   5.335   5.673
 5641SOL    HW217823   6.597   5.306   5.681
 5642SOL     OW17824   1.558   2.044   6.110
 5642SOL    HW117825   1.601   2.032   6.020
 5642SOL    HW217826   1.626   2.080   6.174
 5643SOL     OW17827   6.092   2.299   4.394
 5643SOL    HW117828   6.081   2.231   4.467
 5643SOL    HW217829   6.127   2.384   4.433
 5644SOL     OW17830   3.234   6.932   6.604
 5644SOL    HW117831   3.269   0.001   6.601
 5644SOL    HW217832   3.296   6.872   6.553
 5645SOL     OW17833   5.868   3.351   3.991
 5645SOL    HW117834   5.906   3.439   3.964
 5645SOL    HW217835   5.923   3.311   4.065
 5646SOL     OW17836   1.661   4.240   2.875
 5646SOL    HW117837   1.568   4.203   2.880
 5646SOL    HW217838   1.663   4.318   2.813
 5647SOL     OW17839   6.617   5.882   3.156
 5647SOL    HW117840   6.550   5.952   3.181
 5647SOL    HW217841   6.682   5.920   3.091
 5648SOL     OW17842   4.194   6.537   2.594
 5648SOL    HW117843   4.185   6.574   2.501
 5648SOL    HW217844   4.291   6.528   2.616
 5649SOL     OW17845   0.389   6.063   3.927
 5649SOL    HW117846   0.381   6.149   3.877
 5649SOL    HW217847   0.485   6.037   3.935
 5650SOL     OW17848   6.808   4.241   0.754
 5650SOL    HW117849   6.828   4.276   0.663
 5650SOL    HW217850   6.867   4.162   0.773
 5651SOL     OW17851   1.594   0.600   1.319
 5651SOL    HW117852   1.518   0.540   1.345
 5651SOL    HW217853   1.571   0.695   1.341
 5652SOL     OW17854   1.384   5.602   1.570
 5652SOL    HW117855   1.291   5.640   1.567
 5652SOL    HW217856   1.402   5.553   1.484
 5653SOL     OW17857   0.284   6.516   1.559
 5653SOL    HW117858   0.206   6.455   1.570
 5653SOL    HW217859   0.286   6.581   1.635
 5654SOL     OW17860   2.545   5.973   5.022
 5654SOL    HW117861   2.475   6.039   4.992
 5654SOL    HW217862   2.512   5.881   5.004
 5655SOL     OW17863   6.404   2.910   4.464
 5655SOL    HW117864   6.318   2.936   4.508
 5655SOL    HW217865   6.410   2.954   4.375
 5656SOL     OW17866   0.440   3.318   6.995
 5656SOL    HW117867   0.450   3.222   7.021
 5656SOL    HW217868   0.412   3.324   6.899
 5657SOL     OW17869   4.510   5.571   5.023
 5657SOL    HW117870   4.571   5.527   4.958
 5657SOL    HW217871   4.460   5.645   4.978
 5658SOL     OW17872   1.937   1.866   5.451
 5658SOL    HW117873   1.915   1.962   5.433
 5658SOL    HW217874   1.981   1.858   5.540
 5659SOL     OW17875   3.739   4.116   6.490
 5659SOL    HW117876   3.815   4.163   6.446
 5659SOL    HW217877   3.653   4.149   6.452
 5660SOL     OW17878   4.209   0.663   6.693
 5660SOL    HW117879   4.245   0.642   6.784
 5660SOL    HW217880   4.282   0.652   6.626
 5661SOL     OW17881   1.048   5.272   5.804
 5661SOL    HW117882   0.967   5.215   5.820
 5661SOL    HW217883   1.020   5.367   5.793
 5662SOL     OW17884   2.432   6.151   2.329
 5662SOL    HW117885   2.500   6.077   2.328
 5662SOL    HW217886   2.422   6.187   2.236
 5663SOL     OW17887   0.636   2.414   0.425
 5663SOL    HW117888   0.670   2.506   0.443
 5663SOL    HW217889   0.699   2.366   0.365
 5664SOL     OW17890   5.035   4.320   4.338
 5664SOL    HW117891   5.088   4.402   4.318
 5664SOL    HW217892   4.978   4.297   4.259
 5665SOL     OW17893   2.742   1.200   1.197
 5665SOL    HW117894   2.837   1.193   1.226
 5665SOL    HW217895   2.686   1.237   1.271
 5666SOL     OW17896   5.442   1.360   4.944
 5666SOL    HW117897   5.420   1.418   4.866
 5666SOL    HW217898   5.393   1.273   4.936
 5667SOL     OW17899   2.540   5.221   4.904
 5667SOL    HW117900   2.535   5.123   4.887
 5667SOL    HW217901   2.601   5.238   4.982
 5668SOL     OW17902   5.150   3.143   3.458
 5668SOL    HW117903   5.156   3.072   3.528
 5668SOL    HW217904   5.068   3.130   3.403
 5669SOL     OW17905   6.598   4.316   6.825
 5669SOL    HW117906   6.623   4.257   6.901
 5669SOL    HW217907   6.517   4.371   6.850
 5670SOL     OW17908   1.381   2.207   2.237
 5670SOL    HW117909   1.306   2.268   2.209
 5670SOL    HW217910   1.346   2.114   2.246
 5671SOL     OW17911   0.353   6.927   3.299
 5671SOL    HW117912   0.337   6.865   3.376
 5671SOL    HW217913   0.317   7.017   3.321
 5672SOL     OW17914   5.241   3.737   5.276
 5672SOL    HW117915   5.156   3.687   5.262
 5672SOL    HW217916   5.228   3.804   5.349
 5673SOL     OW17917   0.704   0.701   0.832
 5673SOL    HW117918   0.660   0.635   0.893
 5673SOL    HW217919   0.658   0.701   0.744
 5674SOL     OW17920   2.057   5.376   5.635
 5674SOL    HW117921   2.070   5.472   5.609
 5674SOL    HW217922   2.146   5.333   5.648
 5675SOL     OW17923   2.247   1.857   0.519
 5675SOL    HW117924   2.149   1.857   0.501
 5675SOL    HW217925   2.296   1.889   0.438
 5676SOL     OW17926   2.798   2.140   1.631
 5676SOL    HW117927   2.768   2.129   1.726
 5676SOL    HW217928   2.858   2.063   1.607
 5677SOL     OW17929   6.879   0.647   1.544
 5677SOL    HW117930   6.806   0.663   1.477
 5677SOL    HW217931   6.854   0.570   1.602
 5678SOL     OW17932   3.399   2.066   2.075
 5678SOL    HW117933   3.353   2.053   2.163
 5678SOL    HW217934   3.495   2.039   2.084
 5679SOL     OW17935   6.026   3.579   5.341
 5679SOL    HW117936   5.976   3.564   5.256
 5679SOL    HW217937   6.046   3.676   5.351
 5680SOL     OW17938   1.814   6.093   5.527
 5680SOL    HW117939   1.858   6.093   5.437
 5680SOL    HW217940   1.795   6.187   5.555
 5681SOL     OW17941   0.916   3.807   3.533
 5681SOL    HW117942   1.007   3.766   3.545
 5681SOL    HW217943   0.846   3.740   3.558
 5682SOL     OW17944   2.235   4.129   1.619
 5682SOL    HW117945   2.162   4.066   1.592
 5682SOL    HW217946   2.218   4.219   1.579
 5683SOL     OW17947   5.819   1.419   6.450
 5683SOL    HW117948   5.862   1.474   6.379
 5683SOL    HW217949   5.889   1.384   6.512
 5684SOL     OW17950   1.862   3.020   5.508
 5684SOL    HW117951   1.918   3.102   5.518
 5684SOL    HW217952   1.831   3.011   5.413
 5685SOL     OW17953   2.556   1.362   3.780
 5685SOL    HW117954   2.518   1.272   3.798
 5685SOL    HW217955   2.628   1.355   3.711
 5686SOL     OW17956   3.369   6.230   6.232
 5686SOL    HW117957   3.463   6.200   6.221
 5686SOL    HW217958   3.350   6.246   6.329
 5687SOL     OW17959   2.528   6.534   6.235
 5687SOL    HW117960   2.552   6.629   6.253
 5687SOL    HW217961   2.500   6.523   6.140
 5688SOL     OW17962   2.273   2.831   3.516
 5688SOL    HW117963   2.289   2.903   3.449
 5688SOL    HW217964   2.290   2.742   3.475
 5689SOL     OW17965   0.546   1.999   1.665
 5689SOL    HW117966   0.622   2.041   1.714
 5689SOL    HW217967   0.487   2.071   1.628
 5690SOL     OW17968   1.502   5.917   0.173
 5690SOL    HW117969   1.410   5.899   0.138
 5690SOL    HW217970   1.498   5.931   0.272
 5691SOL     OW17971   3.146   1.139   2.667
 5691SOL    HW117972   3.185   1.049   2.646
 5691SOL    HW217973   3.084   1.167   2.594
 5692SOL     OW17974   4.368   4.955   1.255
 5692SOL    HW117975   4.341   4.882   1.317
 5692SOL    HW217976   4.436   4.920   1.190
 5693SOL     OW17977   3.739   1.158   1.489
 5693SOL    HW117978   3.766   1.119   1.401
 5693SOL    HW217979   3.807   1.132   1.558
 5694SOL     OW17980   0.939   6.556   1.839
 5694SOL    HW117981   0.875   6.480   1.851
 5694SOL    HW217982   0.997   6.563   1.920
 5695SOL     OW17983   1.647   0.587   0.776
 5695SOL    HW117984   1.574   0.540   0.726
 5695SOL    HW217985   1.646   0.558   0.872
 5696SOL     OW17986   1.599   6.988   3.839
 5696SOL    HW117987   1.591   0.021   3.759
 5696SOL    HW217988   1.678   7.015   3.893
 5697SOL     OW17989   6.267   2.806   0.505
 5697SOL    HW117990   6.357   2.839   0.476
 5697SOL    HW217991   6.219   2.878   0.554
 5698SOL     OW17992   2.570   2.441   3.735
 5698SOL    HW117993   2.484   2.481   3.704
 5698SOL    HW217994   2.632   2.431   3.657
 5699SOL     OW17995   2.155   2.404   2.789
 5699SOL    HW117996   2.106   2.490   2.803
 5699SOL    HW217997   2.091   2.336   2.753
 5700SOL     OW17998   6.045   0.978   3.386
 5700SOL    HW117999   6.103   1.057   3.369
 5700SOL    HW218000   6.074   0.932   3.469
 5701SOL     OW18001   0.338   0.832   1.351
 5701SOL    HW118002   0.239   0.816   1.343
 5701SOL    HW218003   0.367   0.817   1.445
 5702SOL     OW18004   2.661   6.778   4.459
 5702SOL    HW118005   2.656   6.852   4.393
 5702SOL    HW218006   2.756   6.748   4.469
 5703SOL     OW18007   0.106   2.782   6.662
 5703SOL    HW118008   0.159   2.867   6.667
 5703SOL    HW218009   0.068   2.761   6.752
 5704SOL     OW18010   5.174   4.183   3.826
 5704SOL    HW118011   5.077   4.170   3.803
 5704SOL    HW218012   5.191   4.146   3.917
 5705SOL     OW18013   6.158   6.695   5.820
 5705SOL    HW118014   6.099   6.694   5.739
 5705SOL    HW218015   6.131   6.770   5.880
 5706SOL     OW18016   4.789   2.304   6.840
 5706SOL    HW118017   4.763   2.396   6.869
 5706SOL    HW218018   4.788   2.242   6.918
 5707SOL     OW18019   5.919   5.730   2.533
 5707SOL    HW118020   5.830   5.711   2.492
 5707SOL    HW218021   5.922   5.825   2.564
 5708SOL     OW18022   4.463   5.806   2.880
 5708SOL    HW118023   4.498   5.737   2.943
 5708SOL    HW218024   4.539   5.845   2.828
 5709SOL     OW18025   0.903   1.599   2.384
 5709SOL    HW118026   0.902   1.506   2.419
 5709SOL    HW218027   0.897   1.597   2.284
 5710SOL     OW18028   2.725   2.174   0.975
 5710SOL    HW118029   2.822   2.176   1.002
 5710SOL    HW218030   2.707   2.250   0.913
 5711SOL     OW18031   5.471   2.279   2.184
 5711SOL    HW118032   5.533   2.203   2.163
 5711SOL    HW218033   5.507   2.363   2.143
 5712SOL     OW18034   6.185   6.364   1.449
 5712SOL    HW118035   6.218   6.437   1.390
 5712SOL    HW218036   6.230   6.369   1.538
 5713SOL     OW18037   2.448   6.390   0.746
 5713SOL    HW118038   2.398   6.438   0.674
 5713SOL    HW218039   2.528   6.444   0.773
 5714SOL     OW18040   6.230   6.946   1.389
 5714SOL    HW118041   6.260   6.983   1.477
 5714SOL    HW218042   6.306   6.950   1.324
 5715SOL     OW18043   0.956   0.257   1.533
 5715SOL    HW118044   0.879   0.261   1.596
 5715SOL    HW218045   1.019   0.333   1.551
 5716SOL     OW18046   6.585   4.666   5.890
 5716SOL    HW118047   6.492   4.693   5.865
 5716SOL    HW218048   6.624   4.735   5.951
 5717SOL     OW18049   1.300   4.983   2.849
 5717SOL    HW118050   1.306   4.929   2.765
 5717SOL    HW218051   1.223   4.950   2.904
 5718SOL     OW18052   0.846   3.290   0.313
 5718SOL    HW118053   0.768   3.350   0.298
 5718SOL    HW218054   0.928   3.345   0.327
 5719SOL     OW18055   2.402   3.828   0.782
 5719SOL    HW118056   2.402   3.924   0.809
 5719SOL    HW218057   2.326   3.811   0.720
 5720SOL     OW18058   2.450   4.643   5.846
 5720SOL    HW118059   2.537   4.595   5.841
 5720SOL    HW218060   2.391   4.614   5.771
 5721SOL     OW18061   3.823   4.276   0.395
 5721SOL    HW118062   3.790   4.192   0.437
 5721SOL    HW218063   3.749   4.344   0.393
 5722SOL     OW18064   0.907   1.183   5.619
 5722SOL    HW118065   0.936   1.233   5.538
 5722SOL    HW218066   0.972   1.199   5.693
 5723SOL     OW18067   4.272   3.061   6.819
 5723SOL    HW118068   4.242   3.078   6.913
 5723SOL    HW218069   4.217   2.987   6.780
 5724SOL     OW18070   5.973   2.726   3.631
 5724SOL    HW118071   5.969   2.812   3.682
 5724SOL    HW218072   5.885   2.708   3.588
 5725SOL     OW18073   6.593   4.156   3.853
 5725SOL    HW118074   6.656   4.203   3.914
 5725SOL    HW218075   6.499   4.184   3.873
 5726SOL     OW18076   5.426   4.914   2.707
 5726SOL    HW118077   5.513   4.863   2.708
 5726SOL    HW218078   5.352   4.854   2.738
 5727SOL     OW18079   0.208   2.399   5.088
 5727SOL    HW118080   0.109   2.394   5.074
 5727SOL    HW218081   0.244   2.306   5.098
 5728SOL     OW18082   4.925   6.534   4.779
 5728SOL    HW118083   4.828   6.557   4.774
 5728SOL    HW218084   4.943   6.484   4.863
 5729SOL     OW18085   2.069   1.770   5.243
 5729SOL    HW118086   2.091   1.848   5.186
 5729SOL    HW218087   2.024   1.801   5.327
 5730SOL     OW18088   6.658   4.187   5.174
 5730SOL    HW118089   6.648   4.123   5.097
 5730SOL    HW218090   6.748   4.230   5.169
 5731SOL     OW18091   0.460   6.195   1.958
 5731SOL    HW118092   0.512   6.233   2.034
 5731SOL    HW218093   0.421   6.270   1.904
 5732SOL     OW18094   1.183   7.007   3.601
 5732SOL    HW118095   1.126   6.962   3.532
 5732SOL    HW218096   1.170   0.081   3.595
 5733SOL     OW18097   3.721   0.769   5.513
 5733SOL    HW118098   3.699   0.679   5.549
 5733SOL    HW218099   3.645   0.832   5.532
 5734SOL     OW18100   1.987   6.338   2.947
 5734SOL    HW118101   2.009   6.241   2.947
 5734SOL    HW218102   2.001   6.375   2.855
 5735SOL     OW18103   3.028   1.629   1.995
 5735SOL    HW118104   3.080   1.668   1.920
 5735SOL    HW218105   2.944   1.682   2.009
 5736SOL     OW18106   1.603   5.197   0.243
 5736SOL    HW118107   1.613   5.133   0.319
 5736SOL    HW218108   1.510   5.191   0.206
 5737SOL     OW18109   5.317   4.814   0.941
 5737SOL    HW118110   5.270   4.731   0.909
 5737SOL    HW218111   5.311   4.885   0.871
 5738SOL     OW18112   1.275   3.983   5.967
 5738SOL    HW118113   1.273   3.950   6.061
 5738SOL    HW218114   1.214   4.062   5.957
 5739SOL     OW18115   1.030   1.195   1.193
 5739SOL    HW118116   1.129   1.205   1.202
 5739SOL    HW218117   1.006   1.098   1.198
 5740SOL     OW18118   4.156   5.733   6.402
 5740SOL    HW118119   4.097   5.683   6.338
 5740SOL    HW218120   4.125   5.717   6.496
 5741SOL     OW18121   0.631   4.876   3.561
 5741SOL    HW118122   0.595   4.837   3.476
 5741SOL    HW218123   0.705   4.818   3.595
 5742SOL     OW18124   6.633   6.582   4.284
 5742SOL    HW118125   6.647   6.558   4.380
 5742SOL    HW218126   6.721   6.585   4.237
 5743SOL     OW18127   1.786   6.648   5.333
 5743SOL    HW118128   1.752   6.597   5.255
 5743SOL    HW218129   1.848   6.590   5.387
 5744SOL     OW18130   5.666   6.668   2.425
 5744SOL    HW118131   5.631   6.670   2.331
 5744SOL    HW218132   5.684   6.761   2.455
 5745SOL     OW18133   0.946   1.956   3.810
 5745SOL    HW118134   0.900   1.908   3.734
 5745SOL    HW218135   0.943   2.054   3.794
 5746SOL     OW18136   5.773   3.800   0.209
 5746SOL    HW118137   5.719   3.728   0.253
 5746SOL    HW218138   5.722   3.886   0.211
 5747SOL     OW18139   1.150   6.022   3.158
 5747SOL    HW118140   1.122   6.076   3.079
 5747SOL    HW218141   1.101   6.055   3.239
 5748SOL     OW18142   2.388   6.281   2.680
 5748SOL    HW118143   2.397   6.182   2.666
 5748SOL    HW218144   2.407   6.303   2.775
 5749SOL     OW18145   2.327   1.473   3.669
 5749SOL    HW118146   2.288   1.515   3.751
 5749SOL    HW218147   2.402   1.412   3.694
 5750SOL     OW18148   6.768   5.540   2.679
 5750SOL    HW118149   6.707   5.602   2.630
 5750SOL    HW218150   6.830   5.497   2.614
 5751SOL     OW18151   2.482   4.301   6.057
 5751SOL    HW118152   2.471   4.205   6.032
 5751SOL    HW218153   2.515   4.306   6.151
 5752SOL     OW18154   6.442   0.237   7.004
 5752SOL    HW118155   6.458   0.256   0.075
 5752SOL    HW218156   6.344   0.221   6.990
 5753SOL     OW18157   3.519   2.304   0.334
 5753SOL    HW118158   3.492   2.254   0.416
 5753SOL    HW218159   3.617   2.291   0.318
 5754SOL     OW18160   6.322   4.504   1.234
 5754SOL    HW118161   6.291   4.539   1.146
 5754SOL    HW218162   6.243   4.486   1.292
 5755SOL     OW18163   3.552   3.945   1.604
 5755SOL    HW118164   3.515   3.993   1.683
 5755SOL    HW218165   3.579   3.853   1.630
 5756SOL     OW18166   0.280   6.307   4.484
 5756SOL    HW118167   0.299   6.234   4.418
 5756SOL    HW218168   0.191   6.290   4.528
 5757SOL     OW18169   0.588   5.399   1.334
 5757SOL    HW118170   0.633   5.408   1.423
 5757SOL    HW218171   0.563   5.303   1.319
 5758SOL     OW18172   1.047   1.746   5.616
 5758SOL    HW118173   1.047   1.829   5.560
 5758SOL    HW218174   0.992   1.675   5.572
 5759SOL     OW18175   5.297   1.871   5.060
 5759SOL    HW118176   5.299   1.925   4.976
 5759SOL    HW218177   5.221   1.902   5.118
 5760SOL     OW18178   1.571   5.689   2.248
 5760SOL    HW118179   1.500   5.735   2.301
 5760SOL    HW218180   1.529   5.615   2.195
 5761SOL     OW18181   4.853   0.012   5.010
 5761SOL    HW118182   4.852   6.945   4.970
 5761SOL    HW218183   4.943   0.053   4.995
 5762SOL     OW18184   5.611   6.023   1.301
 5762SOL    HW118185   5.664   6.067   1.373
 5762SOL    HW218186   5.517   6.009   1.333
 5763SOL     OW18187   1.056   1.159   1.467
 5763SOL    HW118188   1.156   1.158   1.471
 5763SOL    HW218189   1.026   1.245   1.426
 5764SOL     OW18190   4.424   3.868   5.478
 5764SOL    HW118191   4.457   3.956   5.443
 5764SOL    HW218192   4.475   3.846   5.562
 5765SOL     OW18193   5.691   4.690   0.550
 5765SOL    HW118194   5.779   4.726   0.580
 5765SOL    HW218195   5.664   4.734   0.465
 5766SOL     OW18196   3.027   1.385   3.269
 5766SOL    HW118197   2.962   1.349   3.337
 5766SOL    HW218198   3.112   1.333   3.273
 5767SOL     OW18199   0.199   6.513   1.267
 5767SOL    HW118200   0.250   6.483   1.348
 5767SOL    HW218201   0.244   6.478   1.184
 5768SOL     OW18202   6.685   1.108   2.879
 5768SOL    HW118203   6.647   1.181   2.822
 5768SOL    HW218204   6.614   1.073   2.940
 5769SOL     OW18205   2.388   5.360   3.764
 5769SOL    HW118206   2.297   5.319   3.750
 5769SOL    HW218207   2.447   5.293   3.809
 5770SOL     OW18208   6.289   0.320   1.922
 5770SOL    HW118209   6.245   0.328   1.833
 5770SOL    HW218210   6.389   0.324   1.910
 5771SOL     OW18211   0.835   1.818   1.962
 5771SOL    HW118212   0.762   1.851   2.022
 5771SOL    HW218213   0.797   1.755   1.894
 5772SOL     OW18214   6.613   4.110   0.035
 5772SOL    HW118215   6.657   4.024   0.059
 5772SOL    HW218216   6.522   4.092   7.023
 5773SOL     OW18217   5.771   5.659   3.945
 5773SOL    HW118218   5.735   5.628   3.857
 5773SOL    HW218219   5.695   5.686   4.004
 5774SOL     OW18220   2.244   5.216   3.270
 5774SOL    HW118221   2.300   5.178   3.196
 5774SOL    HW218222   2.185   5.144   3.306
 5775SOL     OW18223   0.037   0.447   0.512
 5775SOL    HW118224   6.967   0.420   0.528
 5775SOL    HW218225   0.072   0.494   0.593
 5776SOL     OW18226   5.321   1.079   5.659
 5776SOL    HW118227   5.402   1.082   5.717
 5776SOL    HW218228   5.269   0.996   5.678
 5777SOL     OW18229   6.653   0.460   5.193
 5777SOL    HW118230   6.746   0.433   5.167
 5777SOL    HW218231   6.658   0.531   5.263
 5778SOL     OW18232   2.636   0.087   3.796
 5778SOL    HW118233   2.663   0.159   3.732
 5778SOL    HW218234   2.700   0.011   3.790
 5779SOL     OW18235   4.162   1.303   2.596
 5779SOL    HW118236   4.067   1.299   2.628
 5779SOL    HW218237   4.168   1.262   2.505
 5780SOL     OW18238   6.161   3.860   1.674
 5780SOL    HW118239   6.185   3.952   1.705
 5780SOL    HW218240   6.074   3.862   1.625
 5781SOL     OW18241   2.315   5.321   5.098
 5781SOL    HW118242   2.362   5.308   5.010
 5781SOL    HW218243   2.255   5.243   5.116
 5782SOL     OW18244   2.575   1.295   2.978
 5782SOL    HW118245   2.540   1.307   2.885
 5782SOL    HW218246   2.674   1.305   2.977
 5783SOL     OW18247   2.241   6.754   1.005
 5783SOL    HW118248   2.246   6.670   1.059
 5783SOL    HW218249   2.148   6.765   0.970
 5784SOL     OW18250   1.805   5.481   6.954
 5784SOL    HW118251   1.868   5.498   0.005
 5784SOL    HW218252   1.844   5.414   6.892
 5785SOL     OW18253   2.543   1.318   0.396
 5785SOL    HW118254   2.496   1.367   0.469
 5785SOL    HW218255   2.491   1.237   0.371
 5786SOL     OW18256   1.457   3.378   0.845
 5786SOL    HW118257   1.420   3.451   0.903
 5786SOL    HW218258   1.436   3.289   0.886
 5787SOL     OW18259   6.930   2.963   5.878
 5787SOL    HW118260   6.905   2.997   5.787
 5787SOL    HW218261   6.850   2.968   5.938
 5788SOL     OW18262   1.951   2.338   1.782
 5788SOL    HW118263   1.893   2.418   1.792
 5788SOL    HW218264   1.929   2.292   1.695
 5789SOL     OW18265   3.142   5.062   6.862
 5789SOL    HW118266   3.204   5.022   6.795
 5789SOL    HW218267   3.149   5.013   6.949
 5790SOL     OW18268   6.502   5.670   3.558
 5790SOL    HW118269   6.520   5.641   3.464
 5790SOL    HW218270   6.542   5.604   3.621
 5791SOL     OW18271   4.142   1.222   2.126
 5791SOL    HW118272   4.151   1.198   2.222
 5791SOL    HW218273   4.112   1.317   2.118
 5792SOL     OW18274   4.725   2.822   2.840
 5792SOL    HW118275   4.671   2.751   2.795
 5792SOL    HW218276   4.741   2.796   2.935
 5793SOL     OW18277   4.041   2.590   6.376
 5793SOL    HW118278   4.124   2.534   6.372
 5793SOL    HW218279   3.960   2.531   6.374
 5794SOL     OW18280   3.691   6.501   0.047
 5794SOL    HW118281   3.741   6.580   0.084
 5794SOL    HW218282   3.753   6.423   0.040
 5795SOL     OW18283   2.249   6.000   1.428
 5795SOL    HW118284   2.207   6.018   1.339
 5795SOL    HW218285   2.332   6.055   1.438
 5796SOL     OW18286   5.385   0.771   6.554
 5796SOL    HW118287   5.385   0.732   6.646
 5796SOL    HW218288   5.291   0.790   6.525
 5797SOL     OW18289   6.570   2.667   1.172
 5797SOL    HW118290   6.600   2.759   1.198
 5797SOL    HW218291   6.487   2.674   1.115
 5798SOL     OW18292   1.691   3.684   4.815
 5798SOL    HW118293   1.700   3.698   4.914
 5798SOL    HW218294   1.608   3.729   4.782
 5799SOL     OW18295   2.606   0.064   3.504
 5799SOL    HW118296   2.624   7.003   3.457
 5799SOL    HW218297   2.596   0.048   3.602
 5800SOL     OW18298   1.985   0.480   1.486
 5800SOL    HW118299   2.050   0.406   1.471
 5800SOL    HW218300   1.897   0.443   1.516
 5801SOL     OW18301   2.235   1.717   2.080
 5801SOL    HW118302   2.327   1.755   2.068
 5801SOL    HW218303   2.170   1.770   2.024
 5802SOL     OW18304   0.889   0.266   1.867
 5802SOL    HW118305   0.962   0.323   1.904
 5802SOL    HW218306   0.844   0.217   1.942
 5803SOL     OW18307   0.415   5.731   3.958
 5803SOL    HW118308   0.353   5.673   3.905
 5803SOL    HW218309   0.367   5.815   3.984
 5804SOL     OW18310   6.343   1.910   2.820
 5804SOL    HW118311   6.276   1.891   2.893
 5804SOL    HW218312   6.365   2.008   2.821
 5805SOL     OW18313   1.461   2.795   2.189
 5805SOL    HW118314   1.362   2.798   2.196
 5805SOL    HW218315   1.494   2.876   2.140
 5806SOL     OW18316   6.629   4.280   1.971
 5806SOL    HW118317   6.656   4.184   1.972
 5806SOL    HW218318   6.640   4.316   1.878
 5807SOL     OW18319   2.115   1.111   1.441
 5807SOL    HW118320   2.188   1.043   1.431
 5807SOL    HW218321   2.048   1.077   1.507
 5808SOL     OW18322   6.730   0.519   5.626
 5808SOL    HW118323   6.780   0.478   5.550
 5808SOL    HW218324   6.775   0.604   5.654
 5809SOL     OW18325   0.019   2.518   5.452
 5809SOL    HW118326   0.115   2.527   5.427
 5809SOL    HW218327   6.987   2.551   5.377
 5810SOL     OW18328   3.101   6.608   5.018
 5810SOL    HW118329   3.104   6.690   5.075
 5810SOL    HW218330   3.098   6.527   5.077
 5811SOL     OW18331   4.055   4.727   6.439
 5811SOL    HW118332   4.075   4.805   6.379
 5811SOL    HW218333   4.132   4.711   6.500
 5812SOL     OW18334   5.275   2.969   6.650
 5812SOL    HW118335   5.336   3.011   6.583
 5812SOL    HW218336   5.328   2.909   6.710
 5813SOL     OW18337   4.833   5.632   0.683
 5813SOL    HW118338   4.783   5.545   0.677
 5813SOL    HW218339   4.779   5.698   0.734
 5814SOL     OW18340   5.567   1.183   2.151
 5814SOL    HW118341   5.590   1.244   2.076
 5814SOL    HW218342   5.635   1.109   2.156
 5815SOL     OW18343   6.329   2.844   3.899
 5815SOL    HW118344   6.380   2.793   3.829
 5815SOL    HW218345   6.248   2.793   3.926
 5816SOL     OW18346   0.240   3.855   2.596
 5816SOL    HW118347   0.257   3.780   2.531
 5816SOL    HW218348   0.215   3.937   2.545
 5817SOL     OW18349   5.891   3.737   3.328
 5817SOL    HW118350   5.868   3.761   3.422
 5817SOL    HW218351   5.835   3.791   3.265
 5818SOL     OW18352   2.434   0.668   4.369
 5818SOL    HW118353   2.338   0.639   4.367
 5818SOL    HW218354   2.438   0.768   4.373
 5819SOL     OW18355   3.889   4.313   0.761
 5819SOL    HW118356   3.964   4.366   0.723
 5819SOL    HW218357   3.906   4.215   0.747
 5820SOL     OW18358   6.031   6.306   2.661
 5820SOL    HW118359   6.108   6.272   2.715
 5820SOL    HW218360   6.016   6.247   2.583
 5821SOL     OW18361   0.131   6.990   1.690
 5821SOL    HW118362   0.054   7.012   1.630
 5821SOL    HW218363   0.209   0.023   1.667
 5822SOL     OW18364   1.388   3.732   3.129
 5822SOL    HW118365   1.352   3.748   3.221
 5822SOL    HW218366   1.383   3.635   3.108
 5823SOL     OW18367   1.706   6.335   3.661
 5823SOL    HW118368   1.769   6.329   3.583
 5823SOL    HW218369   1.677   6.430   3.673
 5824SOL     OW18370   1.614   0.038   2.522
 5824SOL    HW118371   1.662   7.012   2.451
 5824SOL    HW218372   1.539   0.091   2.481
 5825SOL     OW18373   4.909   1.585   4.060
 5825SOL    HW118374   4.928   1.659   3.995
 5825SOL    HW218375   4.988   1.524   4.064
 5826SOL     OW18376   1.220   6.945   5.789
 5826SOL    HW118377   1.180   6.904   5.872
 5826SOL    HW218378   1.280   6.879   5.745
 5827SOL     OW18379   1.847   4.285   3.790
 5827SOL    HW118380   1.786   4.342   3.735
 5827SOL    HW218381   1.873   4.334   3.873
 5828SOL     OW18382   3.955   0.929   5.430
 5828SOL    HW118383   3.980   0.948   5.335
 5828SOL    HW218384   3.868   0.880   5.433
 5829SOL     OW18385   2.255   0.459   3.280
 5829SOL    HW118386   2.315   0.387   3.244
 5829SOL    HW218387   2.311   0.531   3.322
 5830SOL     OW18388   4.122   5.151   4.240
 5830SOL    HW118389   4.044   5.194   4.195
 5830SOL    HW218390   4.193   5.132   4.172
 5831SOL     OW18391   1.747   2.021   4.960
 5831SOL    HW118392   1.756   2.082   4.881
 5831SOL    HW218393   1.719   1.930   4.930
 5832SOL     OW18394   2.896   5.400   2.094
 5832SOL    HW118395   2.824   5.417   2.026
 5832SOL    HW218396   2.861   5.422   2.185
 5833SOL     OW18397   3.939   5.237   0.197
 5833SOL    HW118398   3.942   5.183   0.113
 5833SOL    HW218399   3.868   5.200   0.257
 5834SOL     OW18400   5.992   2.693   6.708
 5834SOL    HW118401   6.070   2.714   6.650
 5834SOL    HW218402   5.993   2.752   6.788
 5835SOL     OW18403   4.910   2.135   2.821
 5835SOL    HW118404   4.990   2.081   2.847
 5835SOL    HW218405   4.926   2.180   2.734
 5836SOL     OW18406   5.246   6.047   2.728
 5836SOL    HW118407   5.227   6.045   2.629
 5836SOL    HW218408   5.191   5.977   2.773
 5837SOL     OW18409   2.949   5.260   6.147
 5837SOL    HW118410   2.876   5.240   6.213
 5837SOL    HW218411   2.910   5.270   6.056
 5838SOL     OW18412   3.892   2.798   0.534
 5838SOL    HW118413   3.815   2.846   0.576
 5838SOL    HW218414   3.870   2.779   0.438
 5839SOL     OW18415   1.578   2.358   0.621
 5839SOL    HW118416   1.674   2.338   0.639
 5839SOL    HW218417   1.529   2.366   0.708
 5840SOL     OW18418   6.992   3.551   3.533
 5840SOL    HW118419   6.899   3.587   3.539
 5840SOL    HW218420   7.016   3.534   3.437
 5841SOL     OW18421   4.892   1.151   0.902
 5841SOL    HW118422   4.954   1.082   0.939
 5841SOL    HW218423   4.804   1.109   0.882
 5842SOL     OW18424   2.584   1.935   1.061
 5842SOL    HW118425   2.642   1.877   1.003
 5842SOL    HW218426   2.630   2.022   1.078
 5843SOL     OW18427   2.730   3.559   0.874
 5843SOL    HW118428   2.741   3.459   0.871
 5843SOL    HW218429   2.793   3.597   0.941
 5844SOL     OW18430   0.561   5.827   4.872
 5844SOL    HW118431   0.609   5.843   4.958
 5844SOL    HW218432   0.618   5.771   4.812
 5845SOL     OW18433   1.740   6.941   2.315
 5845SOL    HW118434   1.788   6.990   2.242
 5845SOL    HW218435   1.803   6.880   2.362
 5846SOL     OW18436   0.151   3.803   5.570
 5846SOL    HW118437   0.080   3.873   5.561
 5846SOL    HW218438   0.185   3.779   5.479
 5847SOL     OW18439   1.507   4.298   6.634
 5847SOL    HW118440   1.449   4.219   6.619
 5847SOL    HW218441   1.546   4.328   6.547
 5848SOL     OW18442   1.761   5.595   2.459
 5848SOL    HW118443   1.706   5.621   2.380
 5848SOL    HW218444   1.815   5.514   2.436
 5849SOL     OW18445   3.059   6.066   6.087
 5849SOL    HW118446   2.975   6.072   6.141
 5849SOL    HW218447   3.038   6.083   5.990
 5850SOL     OW18448   0.713   1.263   2.045
 5850SOL    HW118449   0.714   1.185   1.983
 5850SOL    HW218450   0.806   1.298   2.056
 5851SOL     OW18451   6.247   3.617   4.379
 5851SOL    HW118452   6.181   3.557   4.333
 5851SOL    HW218453   6.199   3.692   4.423
 5852SOL     OW18454   5.079   4.277   1.998
 5852SOL    HW118455   5.111   4.368   1.970
 5852SOL    HW218456   5.146   4.208   1.970
 5853SOL     OW18457   4.815   4.980   6.448
 5853SOL    HW118458   4.903   4.953   6.408
 5853SOL    HW218459   4.786   5.067   6.410
 5854SOL     OW18460   3.592   5.061   5.531
 5854SOL    HW118461   3.507   5.023   5.495
 5854SOL    HW218462   3.626   5.132   5.469
 5855SOL     OW18463   2.287   2.708   3.090
 5855SOL    HW118464   2.234   2.757   3.021
 5855SOL    HW218465   2.336   2.774   3.147
 5856SOL     OW18466   1.107   5.826   2.929
 5856SOL    HW118467   1.047   5.845   3.006
 5856SOL    HW218468   1.130   5.912   2.883
 5857SOL     OW18469   5.537   5.034   6.607
 5857SOL    HW118470   5.627   5.073   6.587
 5857SOL    HW218471   5.468   5.107   6.606
 5858SOL     OW18472   1.742   0.762   2.413
 5858SOL    HW118473   1.777   0.762   2.507
 5858SOL    HW218474   1.750   0.854   2.374
 5859SOL     OW18475   5.449   5.566   1.372
 5859SOL    HW118476   5.436   5.487   1.431
 5859SOL    HW218477   5.438   5.538   1.276
 5860SOL     OW18478   0.402   4.027   3.054
 5860SOL    HW118479   0.477   4.070   3.004
 5860SOL    HW218480   0.353   4.096   3.108
 5861SOL     OW18481   4.809   0.910   4.923
 5861SOL    HW118482   4.864   0.976   4.873
 5861SOL    HW218483   4.818   0.925   5.021
 5862SOL     OW18484   6.496   5.511   2.827
 5862SOL    HW118485   6.564   5.457   2.778
 5862SOL    HW218486   6.435   5.555   2.762
 5863SOL     OW18487   4.200   0.008   6.333
 5863SOL    HW118488   4.222   0.092   6.383
 5863SOL    HW218489   4.148   0.030   6.251
 5864SOL     OW18490   3.324   4.068   2.364
 5864SOL    HW118491   3.405   4.097   2.314
 5864SOL    HW218492   3.245   4.071   2.303
 5865SOL     OW18493   6.725   0.314   6.224
 5865SOL    HW118494   6.672   0.377   6.281
 5865SOL    HW218495   6.807   0.361   6.191
 5866SOL     OW18496   3.128   3.076   2.676
 5866SOL    HW118497   3.212   3.064   2.623
 5866SOL    HW218498   3.051   3.039   2.625
 5867SOL     OW18499   2.695   1.701   1.794
 5867SOL    HW118500   2.716   1.783   1.846
 5867SOL    HW218501   2.643   1.637   1.851
 5868SOL     OW18502   0.910   1.401   6.292
 5868SOL    HW118503   0.849   1.460   6.345
 5868SOL    HW218504   0.915   1.311   6.335
 5869SOL     OW18505   1.307   6.167   3.497
 5869SOL    HW118506   1.402   6.152   3.468
 5869SOL    HW218507   1.288   6.114   3.579
 5870SOL     OW18508   3.397   5.878   4.391
 5870SOL    HW118509   3.385   5.881   4.291
 5870SOL    HW218510   3.494   5.882   4.412
 5871SOL     OW18511   3.181   3.256   3.639
 5871SOL    HW118512   3.246   3.217   3.574
 5871SOL    HW218513   3.183   3.204   3.724
 5872SOL     OW18514   4.734   5.842   0.883
 5872SOL    HW118515   4.643   5.803   0.898
 5872SOL    HW218516   4.799   5.801   0.947
 5873SOL     OW18517   4.310   6.086   2.620
 5873SOL    HW118518   4.305   6.172   2.568
 5873SOL    HW218519   4.394   6.085   2.673
 5874SOL     OW18520   1.288   4.141   5.209
 5874SOL    HW118521   1.272   4.072   5.279
 5874SOL    HW218522   1.284   4.232   5.250
 5875SOL     OW18523   3.222   1.942   1.277
 5875SOL    HW118524   3.289   2.007   1.243
 5875SOL    HW218525   3.139   1.991   1.304
 5876SOL     OW18526   3.362   2.887   1.689
 5876SOL    HW118527   3.362   2.820   1.615
 5876SOL    HW218528   3.309   2.852   1.766
 5877SOL     OW18529   5.851   4.469   1.116
 5877SOL    HW118530   5.772   4.429   1.069
 5877SOL    HW218531   5.884   4.406   1.186
 5878SOL     OW18532   2.263   4.683   2.585
 5878SOL    HW118533   2.341   4.689   2.648
 5878SOL    HW218534   2.208   4.766   2.593
 5879SOL     OW18535   0.465   4.219   4.351
 5879SOL    HW118536   0.529   4.165   4.297
 5879SOL    HW218537   0.480   4.202   4.448
 5880SOL     OW18538   3.126   5.584   0.424
 5880SOL    HW118539   3.054   5.651   0.441
 5880SOL    HW218540   3.140   5.574   0.326
 5881SOL     OW18541   1.395   5.926   4.558
 5881SOL    HW118542   1.480   5.972   4.532
 5881SOL    HW218543   1.321   5.957   4.498
 5882SOL     OW18544   4.685   0.698   2.568
 5882SOL    HW118545   4.774   0.731   2.539
 5882SOL    HW218546   4.685   0.598   2.570
 5883SOL     OW18547   0.156   3.306   5.455
 5883SOL    HW118548   0.190   3.385   5.507
 5883SOL    HW218549   0.184   3.222   5.500
 5884SOL     OW18550   0.640   1.565   3.721
 5884SOL    HW118551   0.735   1.578   3.693
 5884SOL    HW218552   0.608   1.475   3.690
 5885SOL     OW18553   5.762   6.963   0.856
 5885SOL    HW118554   5.751   7.011   0.769
 5885SOL    HW218555   5.852   6.919   0.859
 5886SOL     OW18556   0.061   1.197   6.800
 5886SOL    HW118557   6.986   1.192   6.797
 5886SOL    HW218558   0.100   1.119   6.752
 5887SOL     OW18559   4.448   6.577   2.912
 5887SOL    HW118560   4.409   6.493   2.950
 5887SOL    HW218561   4.450   6.647   2.984
 5888SOL     OW18562   1.285   0.389   3.204
 5888SOL    HW118563   1.283   0.470   3.145
 5888SOL    HW218564   1.192   0.355   3.217
 5889SOL     OW18565   2.754   0.552   0.435
 5889SOL    HW118566   2.817   0.476   0.450
 5889SOL    HW218567   2.805   0.638   0.427
 5890SOL     OW18568   3.400   5.096   5.972
 5890SOL    HW118569   3.492   5.112   5.938
 5890SOL    HW218570   3.389   5.139   6.062
 5891SOL     OW18571   1.895   3.490   6.847
 5891SOL    HW118572   1.916   3.435   6.927
 5891SOL    HW218573   1.975   3.495   6.787
 5892SOL     OW18574   1.412   0.221   2.438
 5892SOL    HW118575   1.312   0.227   2.434
 5892SOL    HW218576   1.452   0.297   2.388
 5893SOL     OW18577   1.958   0.928   2.983
 5893SOL    HW118578   1.904   0.979   3.051
 5893SOL    HW218579   2.021   0.867   3.030
 5894SOL     OW18580   0.633   3.389   3.787
 5894SOL    HW118581   0.615   3.485   3.806
 5894SOL    HW218582   0.729   3.377   3.762
 5895SOL     OW18583   5.356   3.920   3.703
 5895SOL    HW118584   5.289   3.986   3.669
 5895SOL    HW218585   5.335   3.829   3.668
 5896SOL     OW18586   4.744   2.166   5.456
 5896SOL    HW118587   4.645   2.168   5.472
 5896SOL    HW218588   4.782   2.258   5.468
 5897SOL     OW18589   4.066   0.285   1.718
 5897SOL    HW118590   4.057   0.357   1.787
 5897SOL    HW218591   4.148   0.231   1.737
 5898SOL     OW18592   1.659   0.229   2.086
 5898SOL    HW118593   1.591   0.295   2.119
 5898SOL    HW218594   1.612   0.148   2.051
 5899SOL     OW18595   5.396   6.867   3.882
 5899SOL    HW118596   5.467   6.831   3.822
 5899SOL    HW218597   5.346   6.940   3.835
 5900SOL     OW18598   4.328   5.146   2.194
 5900SOL    HW118599   4.324   5.182   2.287
 5900SOL    HW218600   4.255   5.080   2.180
 5901SOL     OW18601   3.335   0.046   5.349
 5901SOL    HW118602   3.283   6.997   5.392
 5901SOL    HW218603   3.426   0.014   5.323
 5902SOL     OW18604   6.177   1.064   6.655
 5902SOL    HW118605   6.254   1.115   6.615
 5902SOL    HW218606   6.173   0.973   6.613
 5903SOL     OW18607   6.684   3.363   6.310
 5903SOL    HW118608   6.714   3.458   6.316
 5903SOL    HW218609   6.750   3.310   6.256
 5904SOL     OW18610   0.153   4.265   2.571
 5904SOL    HW118611   0.149   4.258   2.670
 5904SOL    HW218612   0.195   4.352   2.545
 5905SOL     OW18613   6.645   4.893   2.284
 5905SOL    HW118614   6.666   4.971   2.342
 5905SOL    HW218615   6.668   4.914   2.189
 5906SOL     OW18616   6.618   1.513   4.088
 5906SOL    HW118617   6.615   1.451   4.010
 5906SOL    HW218618   6.553   1.588   4.074
 5907SOL     OW18619   2.049   0.278   1.910
 5907SOL    HW118620   2.005   0.289   1.999
 5907SOL    HW218621   2.003   0.206   1.859
 5908SOL     OW18622   0.325   2.798   6.167
 5908SOL    HW118623   0.306   2.700   6.161
 5908SOL    HW218624   0.423   2.813   6.172
 5909SOL     OW18625   6.737   3.854   0.766
 5909SOL    HW118626   6.820   3.908   0.783
 5909SOL    HW218627   6.665   3.913   0.732
 5910SOL     OW18628   2.243   1.568   3.915
 5910SOL    HW118629   2.304   1.576   3.993
 5910SOL    HW218630   2.192   1.653   3.903
 5911SOL     OW18631   0.438   5.203   6.377
 5911SOL    HW118632   0.389   5.146   6.311
 5911SOL    HW218633   0.372   5.247   6.438
 5912SOL     OW18634   0.665   0.978   3.814
 5912SOL    HW118635   0.720   1.029   3.747
 5912SOL    HW218636   0.571   1.012   3.813
 5913SOL     OW18637   5.367   1.464   6.857
 5913SOL    HW118638   5.461   1.474   6.890
 5913SOL    HW218639   5.303   1.483   6.932
 5914SOL     OW18640   0.205   6.171   0.605
 5914SOL    HW118641   0.168   6.210   0.689
 5914SOL    HW218642   0.130   6.155   0.540
 5915SOL     OW18643   3.891   1.713   5.818
 5915SOL    HW118644   3.963   1.782   5.824
 5915SOL    HW218645   3.910   1.639   5.881
 5916SOL     OW18646   0.739   6.243   2.612
 5916SOL    HW118647   0.657   6.297   2.626
 5916SOL    HW218648   0.743   6.213   2.516
 5917SOL     OW18649   3.420   4.934   0.334
 5917SOL    HW118650   3.464   4.849   0.362
 5917SOL    HW218651   3.403   4.990   0.415
 5918SOL     OW18652   2.968   6.689   5.330
 5918SOL    HW118653   2.992   6.773   5.379
 5918SOL    HW218654   2.884   6.650   5.369
 5919SOL     OW18655   3.241   3.215   4.230
 5919SOL    HW118656   3.183   3.217   4.311
 5919SOL    HW218657   3.262   3.120   4.206
 5920SOL     OW18658   5.683   0.901   5.088
 5920SOL    HW118659   5.751   0.882   5.158
 5920SOL    HW218660   5.680   0.824   5.024
 5921SOL     OW18661   2.764   4.316   6.205
 5921SOL    HW118662   2.716   4.229   6.213
 5921SOL    HW218663   2.861   4.299   6.191
 5922SOL     OW18664   5.486   3.511   2.568
 5922SOL    HW118665   5.467   3.441   2.637
 5922SOL    HW218666   5.569   3.561   2.593
 5923SOL     OW18667   6.528   0.251   3.387
 5923SOL    HW118668   6.477   0.175   3.346
 5923SOL    HW218669   6.609   0.216   3.433
 5924SOL     OW18670   5.523   0.196   3.310
 5924SOL    HW118671   5.477   0.245   3.383
 5924SOL    HW218672   5.458   0.136   3.263
 5925SOL     OW18673   4.489   0.582   1.376
 5925SOL    HW118674   4.488   0.482   1.368
 5925SOL    HW218675   4.425   0.610   1.448
 5926SOL     OW18676   4.858   4.978   4.154
 5926SOL    HW118677   4.759   4.977   4.137
 5926SOL    HW218678   4.875   4.968   4.252
 5927SOL     OW18679   0.754   4.535   1.871
 5927SOL    HW118680   0.749   4.588   1.956
 5927SOL    HW218681   0.790   4.444   1.891
 5928SOL     OW18682   2.896   0.776   0.380
 5928SOL    HW118683   2.989   0.742   0.367
 5928SOL    HW218684   2.866   0.823   0.297
 5929SOL     OW18685   1.714   1.048   6.531
 5929SOL    HW118686   1.814   1.053   6.533
 5929SOL    HW218687   1.682   1.065   6.438
 5930SOL     OW18688   1.528   3.495   2.123
 5930SOL    HW118689   1.529   3.470   2.220
 5930SOL    HW218690   1.434   3.509   2.094
 5931SOL     OW18691   4.977   6.258   2.872
 5931SOL    HW118692   4.916   6.334   2.847
 5931SOL    HW218693   5.014   6.217   2.789
 5932SOL     OW18694   2.757   0.898   6.488
 5932SOL    HW118695   2.683   0.959   6.460
 5932SOL    HW218696   2.721   0.828   6.551
 5933SOL     OW18697   6.075   5.951   4.172
 5933SOL    HW118698   6.114   5.962   4.263
 5933SOL    HW218699   5.999   6.015   4.161
 5934SOL     OW18700   3.296   3.492   6.405
 5934SOL    HW118701   3.337   3.579   6.432
 5934SOL    HW218702   3.367   3.430   6.373
 5935SOL     OW18703   1.265   5.922   5.959
 5935SOL    HW118704   1.224   5.941   6.048
 5935SOL    HW218705   1.249   5.826   5.935
 5936SOL     OW18706   3.117   3.074   1.929
 5936SOL    HW118707   3.075   3.089   2.018
 5936SOL    HW218708   3.081   3.141   1.864
 5937SOL     OW18709   0.217   3.211   1.595
 5937SOL    HW118710   0.193   3.308   1.604
 5937SOL    HW218711   0.139   3.155   1.621
 5938SOL     OW18712   0.344   4.590   4.581
 5938SOL    HW118713   0.330   4.557   4.674
 5938SOL    HW218714   0.264   4.569   4.525
 5939SOL     OW18715   3.522   1.020   4.861
 5939SOL    HW118716   3.523   0.986   4.767
 5939SOL    HW218717   3.473   1.107   4.864
 5940SOL     OW18718   5.459   5.701   2.278
 5940SOL    HW118719   5.421   5.789   2.252
 5940SOL    HW218720   5.386   5.633   2.284
 5941SOL     OW18721   0.288   2.535   2.627
 5941SOL    HW118722   0.234   2.580   2.697
 5941SOL    HW218723   0.377   2.509   2.664
 5942SOL     OW18724   5.196   2.862   6.167
 5942SOL    HW118725   5.216   2.942   6.111
 5942SOL    HW218726   5.194   2.780   6.110
 5943SOL     OW18727   3.014   4.224   1.755
 5943SOL    HW118728   2.966   4.306   1.786
 5943SOL    HW218729   2.955   4.173   1.692
 5944SOL     OW18730   0.103   3.589   6.839
 5944SOL    HW118731   0.146   3.500   6.850
 5944SOL    HW218732   0.076   3.624   6.929
 5945SOL     OW18733   6.946   5.984   4.962
 5945SOL    HW118734   7.008   5.990   4.884
 5945SOL    HW218735   6.870   6.048   4.949
 5946SOL     OW18736   2.807   4.149   0.929
 5946SOL    HW118737   2.849   4.191   0.849
 5946SOL    HW218738   2.735   4.209   0.965
 5947SOL     OW18739   3.666   3.290   4.752
 5947SOL    HW118740   3.693   3.331   4.665
 5947SOL    HW218741   3.736   3.224   4.781
 5948SOL     OW18742   4.799   3.720   1.701
 5948SOL    HW118743   4.763   3.628   1.717
 5948SOL    HW218744   4.797   3.772   1.787
 5949SOL     OW18745   6.664   4.135   2.556
 5949SOL    HW118746   6.751   4.164   2.516
 5949SOL    HW218747   6.674   4.044   2.596
 5950SOL     OW18748   4.266   0.653   5.061
 5950SOL    HW118749   4.179   0.629   5.104
 5950SOL    HW218750   4.320   0.708   5.125
 5951SOL     OW18751   0.327   3.768   6.362
 5951SOL    HW118752   0.258   3.697   6.348
 5951SOL    HW218753   0.417   3.725   6.370
 5952SOL     OW18754   3.988   4.812   0.965
 5952SOL    HW118755   3.968   4.720   0.996
 5952SOL    HW218756   4.020   4.867   1.042
 5953SOL     OW18757   6.475   2.907   4.986
 5953SOL    HW118758   6.492   2.861   5.074
 5953SOL    HW218759   6.496   3.004   4.995
 5954SOL     OW18760   1.681   5.753   4.129
 5954SOL    HW118761   1.609   5.684   4.124
 5954SOL    HW218762   1.761   5.715   4.177
 5955SOL     OW18763   5.482   3.462   0.551
 5955SOL    HW118764   5.411   3.393   0.567
 5955SOL    HW218765   5.564   3.438   0.603
 5956SOL     OW18766   5.403   2.602   5.329
 5956SOL    HW118767   5.316   2.587   5.375
 5956SOL    HW218768   5.408   2.697   5.298
 5957SOL     OW18769   0.834   1.750   3.075
 5957SOL    HW118770   0.758   1.725   3.136
 5957SOL    HW218771   0.880   1.831   3.110
 5958SOL     OW18772   3.666   0.065   2.538
 5958SOL    HW118773   3.608   0.028   2.611
 5958SOL    HW218774   3.611   0.083   2.457
 5959SOL     OW18775   5.188   2.423   4.251
 5959SOL    HW118776   5.110   2.454   4.196
 5959SOL    HW218777   5.161   2.342   4.303
 5960SOL     OW18778   4.145   0.640   6.214
 5960SOL    HW118779   4.223   0.585   6.183
 5960SOL    HW218780   4.090   0.668   6.135
 5961SOL     OW18781   2.764   2.017   3.267
 5961SOL    HW118782   2.803   2.031   3.359
 5961SOL    HW218783   2.785   1.925   3.236
 5962SOL     OW18784   4.986   6.320   1.177
 5962SOL    HW118785   4.892   6.310   1.143
 5962SOL    HW218786   5.050   6.309   1.102
 5963SOL     OW18787   3.296   4.607   0.079
 5963SOL    HW118788   3.338   4.519   0.059
 5963SOL    HW218789   3.328   4.676   0.014
 5964SOL     OW18790   2.552   6.899   2.418
 5964SOL    HW118791   2.639   6.919   2.375
 5964SOL    HW218792   2.488   6.863   2.350
 5965SOL     OW18793   2.096   0.487   0.008
 5965SOL    HW118794   2.043   0.532   0.080
 5965SOL    HW218795   2.147   0.410   0.047
 5966SOL     OW18796   2.550   1.032   4.817
 5966SOL    HW118797   2.452   1.049   4.809
 5966SOL    HW218798   2.566   0.961   4.886
 5967SOL     OW18799   3.474   2.066   4.109
 5967SOL    HW118800   3.396   2.128   4.117
 5967SOL    HW218801   3.512   2.049   4.200
 5968SOL     OW18802   5.623   2.552   1.453
 5968SOL    HW118803   5.655   2.585   1.364
 5968SOL    HW218804   5.691   2.572   1.523
 5969SOL     OW18805   5.148   0.578   0.225
 5969SOL    HW118806   5.065   0.633   0.225
 5969SOL    HW218807   5.202   0.600   0.306
 5970SOL     OW18808   0.191   3.192   0.787
 5970SOL    HW118809   0.191   3.092   0.794
 5970SOL    HW218810   0.129   3.230   0.855
 5971SOL     OW18811   0.361   6.772   3.527
 5971SOL    HW118812   0.455   6.743   3.509
 5971SOL    HW218813   0.305   6.692   3.548
 5972SOL     OW18814   4.809   5.047   0.968
 5972SOL    HW118815   4.709   5.057   0.971
 5972SOL    HW218816   4.842   5.067   0.876
 5973SOL     OW18817   2.561   2.000   2.875
 5973SOL    HW118818   2.549   1.926   2.941
 5973SOL    HW218819   2.568   2.087   2.924
 5974SOL     OW18820   5.655   1.939   5.746
 5974SOL    HW118821   5.634   2.033   5.720
 5974SOL    HW218822   5.630   1.877   5.672
 5975SOL     OW18823   4.661   4.956   0.555
 5975SOL    HW118824   4.664   4.964   0.455
 5975SOL    HW218825   4.570   4.924   0.583
 5976SOL     OW18826   2.399   3.517   5.870
 5976SOL    HW118827   2.410   3.420   5.847
 5976SOL    HW218828   2.470   3.543   5.935
 5977SOL     OW18829   6.429   4.039   0.466
 5977SOL    HW118830   6.450   4.089   0.383
 5977SOL    HW218831   6.362   3.967   0.447
 5978SOL     OW18832   2.591   4.094   0.585
 5978SOL    HW118833   2.544   4.101   0.673
 5978SOL    HW218834   2.537   4.035   0.524
 5979SOL     OW18835   5.818   0.703   1.677
 5979SOL    HW118836   5.881   0.712   1.600
 5979SOL    HW218837   5.780   0.611   1.678
 5980SOL     OW18838   3.011   3.196   1.083
 5980SOL    HW118839   3.029   3.154   1.171
 5980SOL    HW218840   3.077   3.269   1.066
 5981SOL     OW18841   2.609   2.352   0.764
 5981SOL    HW118842   2.531   2.333   0.704
 5981SOL    HW218843   2.677   2.406   0.714
 5982SOL     OW18844   5.703   2.772   0.842
 5982SOL    HW118845   5.613   2.741   0.875
 5982SOL    HW218846   5.718   2.866   0.872
 5983SOL     OW18847   0.023   0.946   3.560
 5983SOL    HW118848   7.023   0.882   3.488
 5983SOL    HW218849   7.024   0.908   3.649
 5984SOL     OW18850   6.395   6.816   3.600
 5984SOL    HW118851   6.369   6.788   3.692
 5984SOL    HW218852   6.377   6.742   3.536
 5985SOL     OW18853   5.664   3.054   2.825
 5985SOL    HW118854   5.695   3.144   2.792
 5985SOL    HW218855   5.596   3.017   2.762
 5986SOL     OW18856   4.224   3.561   5.144
 5986SOL    HW118857   4.300   3.589   5.202
 5986SOL    HW218858   4.235   3.600   5.052
 5987SOL     OW18859   7.024   7.014   5.427
 5987SOL    HW118860   6.950   0.048   5.459
 5987SOL    HW218861   6.990   6.954   5.354
 5988SOL     OW18862   1.266   2.365   6.415
 5988SOL    HW118863   1.277   2.316   6.329
 5988SOL    HW218864   1.203   2.314   6.475
 5989SOL     OW18865   0.636   5.913   6.632
 5989SOL    HW118866   0.669   5.940   6.722
 5989SOL    HW218867   0.710   5.867   6.582
 5990SOL     OW18868   3.533   4.966   1.827
 5990SOL    HW118869   3.568   4.904   1.898
 5990SOL    HW218870   3.466   4.917   1.771
 5991SOL     OW18871   5.213   6.690   0.990
 5991SOL    HW118872   5.120   6.652   0.997
 5991SOL    HW218873   5.245   6.683   0.895
 5992SOL     OW18874   4.063   6.117   1.803
 5992SOL    HW118875   4.135   6.175   1.765
 5992SOL    HW218876   4.063   6.124   1.902
 5993SOL     OW18877   6.303   1.882   0.196
 5993SOL    HW118878   6.380   1.917   0.250
 5993SOL    HW218879   6.305   1.782   0.197
 5994SOL     OW18880   0.647   3.535   0.522
 5994SOL    HW118881   0.620   3.548   0.427
 5994SOL    HW218882   0.735   3.581   0.538
 5995SOL     OW18883   4.688   4.091   1.468
 5995SOL    HW118884   4.691   4.115   1.565
 5995SOL    HW218885   4.732   4.003   1.454
 5996SOL     OW18886   2.741   5.466   1.313
 5996SOL    HW118887   2.786   5.551   1.287
 5996SOL    HW218888   2.642   5.475   1.299
 5997SOL     OW18889   6.540   6.997   3.880
 5997SOL    HW118890   6.460   6.974   3.824
 5997SOL    HW218891   6.548   0.071   3.887
 5998SOL     OW18892   5.902   6.403   1.225
 5998SOL    HW118893   5.964   6.333   1.261
 5998SOL    HW218894   5.823   6.360   1.182
 5999SOL     OW18895   5.099   2.935   1.219
 5999SOL    HW118896   5.182   2.886   1.191
 5999SOL    HW218897   5.121   3.031   1.234
 6000SOL     OW18898   0.610   4.020   1.330
 6000SOL    HW118899   0.614   4.120   1.330
 6000SOL    HW218900   0.560   3.989   1.249
 6001SOL     OW18901   6.727   5.303   5.803
 6001SOL    HW118902   6.709   5.382   5.863
 6001SOL    HW218903   6.826   5.291   5.793
 6002SOL     OW18904   6.322   5.076   4.664
 6002SOL    HW118905   6.292   5.166   4.694
 6002SOL    HW218906   6.244   5.025   4.627
 6003SOL     OW18907   0.844   2.809   4.687
 6003SOL    HW118908   0.904   2.878   4.728
 6003SOL    HW218909   0.868   2.797   4.590
 6004SOL     OW18910   5.107   2.937   4.518
 6004SOL    HW118911   5.042   2.974   4.453
 6004SOL    HW218912   5.082   2.965   4.611
 6005SOL     OW18913   3.988   5.163   6.344
 6005SOL    HW118914   3.935   5.165   6.429
 6005SOL    HW218915   4.049   5.243   6.341
 6006SOL     OW18916   3.132   6.099   5.784
 6006SOL    HW118917   3.171   6.114   5.694
 6006SOL    HW218918   3.037   6.128   5.785
 6007SOL     OW18919   2.593   5.760   6.570
 6007SOL    HW118920   2.580   5.851   6.610
 6007SOL    HW218921   2.513   5.737   6.514
 6008SOL     OW18922   3.188   3.955   6.232
 6008SOL    HW118923   3.253   4.002   6.292
 6008SOL    HW218924   3.233   3.880   6.184
 6009SOL     OW18925   3.312   4.871   3.119
 6009SOL    HW118926   3.224   4.852   3.163
 6009SOL    HW218927   3.382   4.884   3.189
 6010SOL     OW18928   0.740   5.675   4.744
 6010SOL    HW118929   0.762   5.622   4.826
 6010SOL    HW218930   0.700   5.615   4.675
 6011SOL     OW18931   6.340   1.949   1.360
 6011SOL    HW118932   6.346   1.995   1.449
 6011SOL    HW218933   6.334   1.850   1.374
 6012SOL     OW18934   6.891   0.383   6.020
 6012SOL    HW118935   6.943   0.466   5.998
 6012SOL    HW218936   6.952   0.316   6.062
 6013SOL     OW18937   6.016   1.723   2.348
 6013SOL    HW118938   6.112   1.718   2.322
 6013SOL    HW218939   5.990   1.641   2.398
 6014SOL     OW18940   3.939   3.439   3.915
 6014SOL    HW118941   4.014   3.373   3.904
 6014SOL    HW218942   3.977   3.530   3.928
 6015SOL     OW18943   5.759   1.441   4.352
 6015SOL    HW118944   5.856   1.417   4.364
 6015SOL    HW218945   5.703   1.359   4.365
 6016SOL     OW18946   5.013   0.973   4.446
 6016SOL    HW118947   4.970   1.060   4.422
 6016SOL    HW218948   5.041   0.975   4.542
 6017SOL     OW18949   6.982   2.218   5.486
 6017SOL    HW118950   0.032   2.161   5.519
 6017SOL    HW218951   7.009   2.314   5.492
 6018SOL     OW18952   3.247   0.996   5.540
 6018SOL    HW118953   3.191   1.071   5.576
 6018SOL    HW218954   3.226   0.982   5.444
 6019SOL     OW18955   6.792   3.668   0.003
 6019SOL    HW118956   6.774   3.711   6.940
 6019SOL    HW218957   6.839   3.581   7.014
 6020SOL     OW18958   0.879   4.825   6.868
 6020SOL    HW118959   0.891   4.803   6.965
 6020SOL    HW218960   0.791   4.870   6.855
 6021SOL     OW18961   5.352   0.017   3.503
 6021SOL    HW118962   5.412   0.085   3.547
 6021SOL    HW218963   5.379   0.006   3.407
 6022SOL     OW18964   6.172   1.604   1.557
 6022SOL    HW118965   6.249   1.625   1.496
 6022SOL    HW218966   6.197   1.529   1.618
 6023SOL     OW18967   4.175   0.393   2.258
 6023SOL    HW118968   4.214   0.378   2.167
 6023SOL    HW218969   4.113   0.319   2.281
 6024SOL     OW18970   0.832   5.872   0.146
 6024SOL    HW118971   0.906   5.908   0.090
 6024SOL    HW218972   0.870   5.819   0.223
 6025SOL     OW18973   3.526   0.426   4.668
 6025SOL    HW118974   3.487   0.502   4.616
 6025SOL    HW218975   3.454   0.364   4.696
 6026SOL     OW18976   6.169   4.690   4.500
 6026SOL    HW118977   6.269   4.679   4.501
 6026SOL    HW218978   6.139   4.705   4.406
 6027SOL     OW18979   5.881   4.081   6.598
 6027SOL    HW118980   5.977   4.053   6.608
 6027SOL    HW218981   5.857   4.084   6.501
 6028SOL     OW18982   5.960   5.523   6.115
 6028SOL    HW118983   5.928   5.501   6.023
 6028SOL    HW218984   5.889   5.575   6.163
 6029SOL     OW18985   2.046   0.696   3.141
 6029SOL    HW118986   2.138   0.692   3.102
 6029SOL    HW218987   2.027   0.611   3.192
 6030SOL     OW18988   5.484   3.531   4.024
 6030SOL    HW118989   5.522   3.577   3.944
 6030SOL    HW218990   5.392   3.566   4.041
 6031SOL     OW18991   0.716   6.325   4.591
 6031SOL    HW118992   0.618   6.307   4.577
 6031SOL    HW218993   0.735   6.329   4.689
 6032SOL     OW18994   3.526   6.288   3.459
 6032SOL    HW118995   3.532   6.388   3.456
 6032SOL    HW218996   3.512   6.259   3.554
 6033SOL     OW18997   1.606   1.927   2.532
 6033SOL    HW118998   1.554   1.862   2.477
 6033SOL    HW218999   1.683   1.962   2.479
 6034SOL     OW19000   0.456   0.529   0.502
 6034SOL    HW119001   0.445   0.445   0.450
 6034SOL    HW219002   0.408   0.604   0.455
 6035SOL     OW19003   2.164   0.569   2.809
 6035SOL    HW119004   2.222   0.622   2.871
 6035SOL    HW219005   2.071   0.564   2.847
 6036SOL     OW19006   6.490   3.034   1.125
 6036SOL    HW119007   6.583   2.998   1.133
 6036SOL    HW219008   6.439   3.016   1.209
 6037SOL     OW19009   5.062   2.160   6.961
 6037SOL    HW119010   5.062   2.240   6.901
 6037SOL    HW219011   4.982   2.164   7.022
 6038SOL     OW19012   0.106   1.568   5.818
 6038SOL    HW119013   0.047   1.643   5.849
 6038SOL    HW219014   0.169   1.602   5.748
 6039SOL     OW19015   3.742   3.373   3.291
 6039SOL    HW119016   3.742   3.400   3.195
 6039SOL    HW219017   3.814   3.306   3.307
 6040SOL     OW19018   0.449   1.659   0.284
 6040SOL    HW119019   0.351   1.656   0.265
 6040SOL    HW219020   0.477   1.754   0.302
 6041SOL     OW19021   2.484   3.262   5.781
 6041SOL    HW119022   2.442   3.222   5.862
 6041SOL    HW219023   2.556   3.201   5.747
 6042SOL     OW19024   3.351   6.078   3.446
 6042SOL    HW119025   3.374   6.167   3.405
 6042SOL    HW219026   3.432   6.020   3.449
 6043SOL     OW19027   2.326   0.465   3.580
 6043SOL    HW119028   2.396   0.402   3.546
 6043SOL    HW219029   2.366   0.521   3.653
 6044SOL     OW19030   0.884   3.097   1.657
 6044SOL    HW119031   0.785   3.109   1.670
 6044SOL    HW219032   0.930   3.183   1.677
 6045SOL     OW19033   4.729   1.992   3.239
 6045SOL    HW119034   4.694   2.047   3.315
 6045SOL    HW219035   4.763   2.053   3.167
 6046SOL     OW19036   3.456   2.869   2.086
 6046SOL    HW119037   3.412   2.957   2.069
 6046SOL    HW219038   3.407   2.797   2.035
 6047SOL     OW19039   6.097   1.703   1.113
 6047SOL    HW119040   6.112   1.680   1.209
 6047SOL    HW219041   6.074   1.621   1.062
 6048SOL     OW19042   6.187   5.904   4.440
 6048SOL    HW119043   6.141   5.866   4.520
 6048SOL    HW219044   6.246   5.834   4.399
 6049SOL     OW19045   4.597   5.312   5.339
 6049SOL    HW119046   4.653   5.357   5.409
 6049SOL    HW219047   4.604   5.213   5.349
 6050SOL     OW19048   3.755   6.424   1.815
 6050SOL    HW119049   3.811   6.450   1.736
 6050SOL    HW219050   3.767   6.492   1.888
 6051SOL     OW19051   0.984   0.885   3.329
 6051SOL    HW119052   0.975   0.893   3.230
 6051SOL    HW219053   1.074   0.917   3.357
 6052SOL     OW19054   5.466   6.687   0.268
 6052SOL    HW119055   5.372   6.651   0.275
 6052SOL    HW219056   5.496   6.682   0.173
 6053SOL     OW19057   4.017   3.119   6.336
 6053SOL    HW119058   3.928   3.084   6.306
 6053SOL    HW219059   4.066   3.047   6.385
 6054SOL     OW19060   3.974   4.207   1.132
 6054SOL    HW119061   3.912   4.241   1.062
 6054SOL    HW219062   3.923   4.191   1.217
 6055SOL     OW19063   3.214   4.437   0.736
 6055SOL    HW119064   3.209   4.362   0.802
 6055SOL    HW219065   3.123   4.454   0.698
 6056SOL     OW19066   5.259   5.734   4.859
 6056SOL    HW119067   5.252   5.649   4.912
 6056SOL    HW219068   5.181   5.742   4.798
 6057SOL     OW19069   4.769   0.339   4.284
 6057SOL    HW119070   4.793   0.331   4.381
 6057SOL    HW219071   4.736   0.251   4.250
 6058SOL     OW19072   5.456   2.337   5.995
 6058SOL    HW119073   5.378   2.283   6.025
 6058SOL    HW219074   5.541   2.289   6.017
 6059SOL     OW19075   3.930   3.309   7.022
 6059SOL    HW119076   3.964   3.299   6.928
 6059SOL    HW219077   3.934   3.405   0.023
 6060SOL     OW19078   2.732   3.473   6.780
 6060SOL    HW119079   2.634   3.469   6.761
 6060SOL    HW219080   2.748   3.456   6.877
 6061SOL     OW19081   3.596   5.109   6.940
 6061SOL    HW119082   3.620   5.206   6.934
 6061SOL    HW219083   3.535   5.086   6.864
 6062SOL     OW19084   2.144   2.018   0.070
 6062SOL    HW119085   2.136   1.933   0.017
 6062SOL    HW219086   2.150   2.096   0.008
 6063SOL     OW19087   4.665   4.009   6.232
 6063SOL    HW119088   4.590   4.027   6.296
 6063SOL    HW219089   4.668   4.082   6.164
 6064SOL     OW19090   0.252   5.694   0.946
 6064SOL    HW119091   0.214   5.631   0.878
 6064SOL    HW219092   0.315   5.757   0.901
 6065SOL     OW19093   0.534   6.426   2.650
 6065SOL    HW119094   0.619   6.446   2.698
 6065SOL    HW219095   0.491   6.511   2.620
 6066SOL     OW19096   5.513   6.184   3.363
 6066SOL    HW119097   5.511   6.178   3.462
 6066SOL    HW219098   5.424   6.158   3.326
 6067SOL     OW19099   5.551   0.192   6.176
 6067SOL    HW119100   5.621   0.141   6.227
 6067SOL    HW219101   5.467   0.137   6.172
 6068SOL     OW19102   4.605   1.902   5.057
 6068SOL    HW119103   4.624   1.995   5.087
 6068SOL    HW219104   4.520   1.901   5.005
 6069SOL     OW19105   7.010   3.818   6.331
 6069SOL    HW119106   6.974   3.732   6.294
 6069SOL    HW219107   6.933   3.877   6.358
 6070SOL     OW19108   2.813   1.328   0.445
 6070SOL    HW119109   2.822   1.331   0.544
 6070SOL    HW219110   2.717   1.313   0.421
 6071SOL     OW19111   6.148   0.461   5.331
 6071SOL    HW119112   6.141   0.396   5.255
 6071SOL    HW219113   6.176   0.550   5.296
 6072SOL     OW19114   7.007   2.617   0.959
 6072SOL    HW119115   6.913   2.589   0.978
 6072SOL    HW219116   0.017   2.566   0.881
 6073SOL     OW19117   4.604   2.525   0.526
 6073SOL    HW119118   4.594   2.602   0.589
 6073SOL    HW219119   4.631   2.559   0.436
 6074SOL     OW19120   0.267   6.508   2.469
 6074SOL    HW119121   0.311   6.426   2.432
 6074SOL    HW219122   0.224   6.486   2.557
 6075SOL     OW19123   4.903   6.880   6.550
 6075SOL    HW119124   4.969   6.939   6.598
 6075SOL    HW219125   4.816   6.928   6.541
 6076SOL     OW19126   1.350   5.086   3.580
 6076SOL    HW119127   1.317   5.180   3.575
 6076SOL    HW219128   1.322   5.045   3.667
 6077SOL     OW19129   5.264   6.923   2.028
 6077SOL    HW119130   5.318   6.924   2.112
 6077SOL    HW219131   5.170   6.900   2.049
 6078SOL     OW19132   3.847   3.599   0.783
 6078SOL    HW119133   3.752   3.582   0.807
 6078SOL    HW219134   3.907   3.566   0.857
 6079SOL     OW19135   3.448   3.694   6.617
 6079SOL    HW119136   3.513   3.754   6.663
 6079SOL    HW219137   3.411   3.628   6.682
 6080SOL     OW19138   6.963   4.637   6.929
 6080SOL    HW119139   6.949   4.725   6.974
 6080SOL    HW219140   6.922   4.639   6.838
 6081SOL     OW19141   1.494   3.448   4.176
 6081SOL    HW119142   1.557   3.442   4.254
 6081SOL    HW219143   1.487   3.358   4.132
 6082SOL     OW19144   4.697   0.858   0.985
 6082SOL    HW119145   4.662   0.923   0.917
 6082SOL    HW219146   4.720   0.908   1.069
 6083SOL     OW19147   4.696   0.300   6.365
 6083SOL    HW119148   4.750   0.359   6.305
 6083SOL    HW219149   4.752   0.270   6.442
 6084SOL     OW19150   6.926   6.692   2.611
 6084SOL    HW119151   6.963   6.759   2.676
 6084SOL    HW219152   6.915   6.604   2.658
 6085SOL     OW19153   0.590   6.420   0.939
 6085SOL    HW119154   0.615   6.401   1.034
 6085SOL    HW219155   0.590   6.334   0.887
 6086SOL     OW19156   3.376   3.965   6.434
 6086SOL    HW119157   3.433   3.896   6.478
 6086SOL    HW219158   3.345   4.032   6.503
 6087SOL     OW19159   5.313   6.685   0.647
 6087SOL    HW119160   5.252   6.739   0.589
 6087SOL    HW219161   5.382   6.744   0.688
 6088SOL     OW19162   5.612   6.410   3.281
 6088SOL    HW119163   5.591   6.317   3.309
 6088SOL    HW219164   5.577   6.475   3.349
 6089SOL     OW19165   6.524   3.800   3.414
 6089SOL    HW119166   6.450   3.798   3.346
 6089SOL    HW219167   6.498   3.861   3.489
 6090SOL     OW19168   3.881   6.176   3.957
 6090SOL    HW119169   3.980   6.161   3.964
 6090SOL    HW219170   3.859   6.208   3.865
 6091SOL     OW19171   1.841   1.175   1.819
 6091SOL    HW119172   1.884   1.093   1.781
 6091SOL    HW219173   1.888   1.256   1.786
 6092SOL     OW19174   3.670   6.190   1.234
 6092SOL    HW119175   3.674   6.265   1.301
 6092SOL    HW219176   3.737   6.120   1.259
 6093SOL     OW19177   2.466   2.078   2.079
 6093SOL    HW119178   2.456   2.145   2.006
 6093SOL    HW219179   2.554   2.092   2.125
 6094SOL     OW19180   0.381   6.088   4.333
 6094SOL    HW119181   0.394   6.009   4.392
 6094SOL    HW219182   0.469   6.131   4.315
 6095SOL     OW19183   4.351   5.253   1.091
 6095SOL    HW119184   4.277   5.220   1.033
 6095SOL    HW219185   4.317   5.266   1.184
 6096SOL     OW19186   5.715   6.612   2.947
 6096SOL    HW119187   5.777   6.535   2.935
 6096SOL    HW219188   5.627   6.579   2.984
 6097SOL     OW19189   1.755   5.752   2.045
 6097SOL    HW119190   1.853   5.743   2.064
 6097SOL    HW219191   1.703   5.717   2.123
 6098SOL     OW19192   6.597   0.975   4.954
 6098SOL    HW119193   6.640   1.038   4.889
 6098SOL    HW219194   6.596   0.883   4.916
 6099SOL     OW19195   4.233   0.886   6.312
 6099SOL    HW119196   4.206   0.796   6.277
 6099SOL    HW219197   4.307   0.923   6.257
 6100SOL     OW19198   0.462   6.337   4.943
 6100SOL    HW119199   0.476   6.354   4.845
 6100SOL    HW219200   0.373   6.294   4.957
 6101SOL     OW19201   6.546   2.878   1.337
 6101SOL    HW119202   6.468   2.841   1.388
 6101SOL    HW219203   6.621   2.898   1.400
 6102SOL     OW19204   4.585   6.968   2.697
 6102SOL    HW119205   4.673   7.013   2.681
 6102SOL    HW219206   4.550   6.995   2.786
 6103SOL     OW19207   6.869   1.717   1.750
 6103SOL    HW119208   6.856   1.670   1.837
 6103SOL    HW219209   6.823   1.806   1.754
 6104SOL     OW19210   6.621   0.627   4.237
 6104SOL    HW119211   6.617   0.727   4.247
 6104SOL    HW219212   6.530   0.589   4.255
 6105SOL     OW19213   3.108   4.718   5.233
 6105SOL    HW119214   3.022   4.666   5.229
 6105SOL    HW219215   3.185   4.655   5.234
 6106SOL     OW19216   6.324   5.355   6.330
 6106SOL    HW119217   6.280   5.270   6.359
 6106SOL    HW219218   6.255   5.428   6.325
 6107SOL     OW19219   5.352   4.650   5.617
 6107SOL    HW119220   5.262   4.652   5.572
 6107SOL    HW219221   5.355   4.720   5.688
 6108SOL     OW19222   2.470   1.689   0.826
 6108SOL    HW119223   2.374   1.715   0.820
 6108SOL    HW219224   2.477   1.597   0.865
 6109SOL     OW19225   6.171   6.788   3.180
 6109SOL    HW119226   6.121   6.874   3.172
 6109SOL    HW219227   6.200   6.757   3.089
 6110SOL     OW19228   2.091   1.904   4.741
 6110SOL    HW119229   2.036   1.935   4.663
 6110SOL    HW219230   2.050   1.822   4.780
 6111SOL     OW19231   1.798   4.729   1.023
 6111SOL    HW119232   1.855   4.663   0.975
 6111SOL    HW219233   1.704   4.722   0.991
 6112SOL     OW19234   4.993   0.223   2.554
 6112SOL    HW119235   5.077   0.236   2.501
 6112SOL    HW219236   4.989   0.291   2.627
 6113SOL     OW19237   2.339   5.324   7.023
 6113SOL    HW119238   2.260   5.381   7.000
 6113SOL    HW219239   2.307   5.236   0.034
 6114SOL     OW19240   5.147   1.653   1.323
 6114SOL    HW119241   5.160   1.727   1.258
 6114SOL    HW219242   5.097   1.686   1.403
 6115SOL     OW19243   0.845   0.538   5.255
 6115SOL    HW119244   0.833   0.467   5.185
 6115SOL    HW219245   0.843   0.496   5.346
 6116SOL     OW19246   5.007   1.884   5.753
 6116SOL    HW119247   5.100   1.846   5.747
 6116SOL    HW219248   4.999   1.939   5.835
 6117SOL     OW19249   1.831   2.319   1.034
 6117SOL    HW119250   1.843   2.249   1.105
 6117SOL    HW219251   1.891   2.397   1.052
 6118SOL     OW19252   6.478   0.725   0.297
 6118SOL    HW119253   6.478   0.665   0.218
 6118SOL    HW219254   6.383   0.740   0.327
 6119SOL     OW19255   6.515   1.608   1.006
 6119SOL    HW119256   6.536   1.696   1.049
 6119SOL    HW219257   6.589   1.584   0.944
 6120SOL     OW19258   2.308   0.944   5.313
 6120SOL    HW119259   2.406   0.963   5.315
 6120SOL    HW219260   2.271   0.967   5.223
 6121SOL     OW19261   0.586   2.879   4.802
 6121SOL    HW119262   0.526   2.949   4.764
 6121SOL    HW219263   0.681   2.900   4.778
 6122SOL     OW19264   5.308   5.358   5.885
 6122SOL    HW119265   5.290   5.433   5.947
 6122SOL    HW219266   5.399   5.368   5.845
 6123SOL     OW19267   5.419   1.806   4.684
 6123SOL    HW119268   5.356   1.882   4.700
 6123SOL    HW219269   5.512   1.836   4.705
 6124SOL     OW19270   2.314   6.929   3.743
 6124SOL    HW119271   2.294   6.843   3.791
 6124SOL    HW219272   2.343   6.910   3.650
 6125SOL     OW19273   2.030   2.007   6.400
 6125SOL    HW119274   2.099   2.078   6.414
 6125SOL    HW219275   1.941   2.041   6.428
 6126SOL     OW19276   6.232   2.685   5.633
 6126SOL    HW119277   6.318   2.733   5.652
 6126SOL    HW219278   6.170   2.748   5.586
 6127SOL     OW19279   3.983   2.318   1.764
 6127SOL    HW119280   3.891   2.280   1.749
 6127SOL    HW219281   4.013   2.294   1.856
 6128SOL     OW19282   6.296   5.831   0.476
 6128SOL    HW119283   6.370   5.770   0.502
 6128SOL    HW219284   6.245   5.791   0.399
 6129SOL     OW19285   1.584   5.332   2.759
 6129SOL    HW119286   1.566   5.430   2.747
 6129SOL    HW219287   1.677   5.311   2.731
 6130SOL     OW19288   5.622   2.006   0.661
 6130SOL    HW119289   5.600   2.013   0.564
 6130SOL    HW219290   5.709   1.957   0.672
 6131SOL     OW19291   6.834   1.755   2.278
 6131SOL    HW119292   6.792   1.665   2.285
 6131SOL    HW219293   6.858   1.788   2.370
 6132SOL     OW19294   3.548   1.435   6.513
 6132SOL    HW119295   3.527   1.409   6.607
 6132SOL    HW219296   3.464   1.463   6.467
 6133SOL     OW19297   1.645   1.264   4.041
 6133SOL    HW119298   1.610   1.236   4.130
 6133SOL    HW219299   1.693   1.352   4.050
 6134SOL     OW19300   5.455   6.746   6.200
 6134SOL    HW119301   5.470   6.732   6.102
 6134SOL    HW219302   5.398   6.673   6.236
 6135SOL     OW19303   6.582   0.060   6.807
 6135SOL    HW119304   6.506   0.010   6.766
 6135SOL    HW219305   6.550   0.105   6.891
 6136SOL     OW19306   1.688   3.046   2.572
 6136SOL    HW119307   1.676   3.117   2.502
 6136SOL    HW219308   1.688   2.956   2.529
 6137SOL     OW19309   0.117   4.229   1.859
 6137SOL    HW119310   0.164   4.295   1.917
 6137SOL    HW219311   0.113   4.265   1.765
 6138SOL     OW19312   3.424   0.040   1.938
 6138SOL    HW119313   3.399   0.132   1.967
 6138SOL    HW219314   3.452   0.042   1.842
 6139SOL     OW19315   1.547   0.721   5.532
 6139SOL    HW119316   1.565   0.623   5.522
 6139SOL    HW219317   1.450   0.735   5.551
 6140SOL     OW19318   1.472   6.849   3.166
 6140SOL    HW119319   1.521   6.763   3.152
 6140SOL    HW219320   1.452   6.891   3.078
 6141SOL     OW19321   0.540   0.830   5.635
 6141SOL    HW119322   0.464   0.766   5.623
 6141SOL    HW219323   0.504   0.918   5.668
 6142SOL     OW19324   0.348   0.190   1.366
 6142SOL    HW119325   0.374   0.173   1.271
 6142SOL    HW219326   0.326   0.287   1.378
 6143SOL     OW19327   6.608   4.283   5.439
 6143SOL    HW119328   6.525   4.337   5.446
 6143SOL    HW219329   6.623   4.256   5.344
 6144SOL     OW19330   4.118   5.051   3.147
 6144SOL    HW119331   4.095   5.147   3.131
 6144SOL    HW219332   4.180   5.020   3.075
 6145SOL     OW19333   4.906   3.275   4.406
 6145SOL    HW119334   4.947   3.193   4.366
 6145SOL    HW219335   4.929   3.355   4.351
 6146SOL     OW19336   5.264   0.032   4.921
 6146SOL    HW119337   5.342   0.006   4.864
 6146SOL    HW219338   5.186   0.054   4.862
 6147SOL     OW19339   1.850   2.280   3.453
 6147SOL    HW119340   1.941   2.241   3.439
 6147SOL    HW219341   1.859   2.373   3.489
 6148SOL     OW19342   3.290   5.939   0.388
 6148SOL    HW119343   3.226   5.943   0.311
 6148SOL    HW219344   3.253   5.991   0.465
 6149SOL     OW19345   2.944   0.326   1.945
 6149SOL    HW119346   2.969   0.406   2.000
 6149SOL    HW219347   2.956   0.348   1.848
 6150SOL     OW19348   6.329   4.234   6.501
 6150SOL    HW119349   6.276   4.316   6.479
 6150SOL    HW219350   6.426   4.254   6.493
 6151SOL     OW19351   4.430   4.529   4.332
 6151SOL    HW119352   4.352   4.591   4.325
 6151SOL    HW219353   4.449   4.509   4.428
 6152SOL     OW19354   1.167   4.769   4.493
 6152SOL    HW119355   1.130   4.679   4.471
 6152SOL    HW219356   1.258   4.758   4.532
 6153SOL     OW19357   5.271   4.973   0.728
 6153SOL    HW119358   5.222   4.914   0.664
 6153SOL    HW219359   5.218   5.056   0.744
 6154SOL     OW19360   5.881   3.179   1.999
 6154SOL    HW119361   5.963   3.172   1.942
 6154SOL    HW219362   5.810   3.118   1.964
 6155SOL     OW19363   1.882   1.587   2.996
 6155SOL    HW119364   1.909   1.549   3.084
 6155SOL    HW219365   1.936   1.669   2.977
 6156SOL     OW19366   4.904   5.141   1.428
 6156SOL    HW119367   4.829   5.146   1.494
 6156SOL    HW219368   4.888   5.063   1.367
 6157SOL     OW19369   0.974   2.306   2.474
 6157SOL    HW119370   1.068   2.273   2.461
 6157SOL    HW219371   0.910   2.237   2.441
 6158SOL     OW19372   3.003   2.943   5.687
 6158SOL    HW119373   3.034   3.035   5.711
 6158SOL    HW219374   3.031   2.878   5.758
 6159SOL     OW19375   5.650   2.940   0.494
 6159SOL    HW119376   5.737   2.969   0.454
 6159SOL    HW219377   5.612   2.865   0.441
 6160SOL     OW19378   0.644   0.099   6.889
 6160SOL    HW119379   0.660   0.016   6.942
 6160SOL    HW219380   0.576   0.156   6.934
 6161SOL     OW19381   4.376   2.758   6.468
 6161SOL    HW119382   4.358   2.669   6.511
 6161SOL    HW219383   4.420   2.818   6.535
 6162SOL     OW19384   6.559   5.289   3.062
 6162SOL    HW119385   6.571   5.383   3.029
 6162SOL    HW219386   6.578   5.286   3.160
 6163SOL     OW19387   5.879   5.824   3.392
 6163SOL    HW119388   5.954   5.851   3.333
 6163SOL    HW219389   5.849   5.732   3.369
 6164SOL     OW19390   3.568   4.171   4.746
 6164SOL    HW119391   3.537   4.197   4.837
 6164SOL    HW219392   3.496   4.190   4.679
 6165SOL     OW19393   3.785   1.562   0.434
 6165SOL    HW119394   3.753   1.568   0.528
 6165SOL    HW219395   3.864   1.622   0.422
 6166SOL     OW19396   1.014   2.102   6.980
 6166SOL    HW119397   1.112   2.084   6.982
 6166SOL    HW219398   0.984   2.133   0.045
 6167SOL     OW19399   1.253   3.870   3.374
 6167SOL    HW119400   1.232   3.800   3.442
 6167SOL    HW219401   1.259   3.959   3.419
 6168SOL     OW19402   0.519   3.808   4.298
 6168SOL    HW119403   0.520   3.779   4.394
 6168SOL    HW219404   0.432   3.783   4.257
 6169SOL     OW19405   2.485   6.568   0.299
 6169SOL    HW119406   2.454   6.642   0.239
 6169SOL    HW219407   2.584   6.558   0.291
 6170SOL     OW19408   3.777   4.227   6.960
 6170SOL    HW119409   3.838   4.167   6.908
 6170SOL    HW219410   3.804   4.225   0.031
 6171SOL     OW19411   2.094   4.583   2.401
 6171SOL    HW119412   2.171   4.633   2.441
 6171SOL    HW219413   2.083   4.496   2.450
 6172SOL     OW19414   1.100   6.065   2.778
 6172SOL    HW119415   1.113   6.133   2.850
 6172SOL    HW219416   1.003   6.048   2.764
 6173SOL     OW19417   1.346   5.376   2.586
 6173SOL    HW119418   1.285   5.355   2.662
 6173SOL    HW219419   1.441   5.366   2.616
 6174SOL     OW19420   5.483   5.333   2.794
 6174SOL    HW119421   5.421   5.365   2.866
 6174SOL    HW219422   5.438   5.260   2.742
 6175SOL     OW19423   5.022   0.538   3.501
 6175SOL    HW119424   5.114   0.499   3.493
 6175SOL    HW219425   5.023   0.613   3.568
 6176SOL     OW19426   6.240   3.522   5.848
 6176SOL    HW119427   6.144   3.538   5.825
 6176SOL    HW219428   6.261   3.425   5.833
 6177SOL     OW19429   5.557   2.174   0.423
 6177SOL    HW119430   5.649   2.211   0.436
 6177SOL    HW219431   5.549   2.140   0.329
 6178SOL     OW19432   5.729   3.494   0.741
 6178SOL    HW119433   5.751   3.426   0.811
 6178SOL    HW219434   5.805   3.503   0.677
 6179SOL     OW19435   6.908   2.340   5.899
 6179SOL    HW119436   6.983   2.278   5.921
 6179SOL    HW219437   6.842   2.339   5.974
 6180SOL     OW19438   4.255   6.721   0.731
 6180SOL    HW119439   4.222   6.668   0.653
 6180SOL    HW219440   4.182   6.778   0.767
 6181SOL     OW19441   5.030   6.505   6.748
 6181SOL    HW119442   4.966   6.428   6.744
 6181SOL    HW219443   5.124   6.471   6.744
 6182SOL     OW19444   4.769   6.565   6.595
 6182SOL    HW119445   4.671   6.568   6.574
 6182SOL    HW219446   4.806   6.475   6.572
 6183SOL     OW19447   3.166   0.333   3.372
 6183SOL    HW119448   3.261   0.361   3.386
 6183SOL    HW219449   3.164   0.236   3.348
 6184SOL     OW19450   0.533   0.370   6.506
 6184SOL    HW119451   0.507   0.341   6.414
 6184SOL    HW219452   0.564   0.291   6.559
 6185SOL     OW19453   6.871   3.575   6.226
 6185SOL    HW119454   6.901   3.515   6.152
 6185SOL    HW219455   6.792   3.629   6.196
 6186SOL     OW19456   5.257   0.307   4.671
 6186SOL    HW119457   5.218   0.352   4.590
 6186SOL    HW219458   5.183   0.266   4.724
 6187SOL     OW19459   4.544   4.622   4.027
 6187SOL    HW119460   4.512   4.564   4.102
 6187SOL    HW219461   4.565   4.713   4.062
 6188SOL     OW19462   3.031   6.485   1.220
 6188SOL    HW119463   3.114   6.536   1.245
 6188SOL    HW219464   2.951   6.542   1.237
 6189SOL     OW19465   5.372   5.121   3.472
 6189SOL    HW119466   5.361   5.166   3.383
 6189SOL    HW219467   5.440   5.048   3.463
 6190SOL     OW19468   5.587   2.428   6.979
 6190SOL    HW119469   5.606   2.511   6.927
 6190SOL    HW219470   5.639   2.352   6.940
 6191SOL     OW19471   5.881   1.697   6.966
 6191SOL    HW119472   5.795   1.720   6.921
 6191SOL    HW219473   5.948   1.769   6.950
 6192SOL     OW19474   2.887   2.871   6.595
 6192SOL    HW119475   2.940   2.955   6.594
 6192SOL    HW219476   2.930   2.805   6.657
 6193SOL     OW19477   5.186   0.502   1.893
 6193SOL    HW119478   5.114   0.541   1.950
 6193SOL    HW219479   5.271   0.553   1.906
 6194SOL     OW19480   2.740   0.730   0.818
 6194SOL    HW119481   2.764   0.633   0.811
 6194SOL    HW219482   2.783   0.769   0.899
 6195SOL     OW19483   3.162   0.374   6.341
 6195SOL    HW119484   3.090   0.395   6.275
 6195SOL    HW219485   3.132   0.400   6.433
 6196SOL     OW19486   0.955   1.776   6.209
 6196SOL    HW119487   1.044   1.752   6.170
 6196SOL    HW219488   0.884   1.721   6.167
 6197SOL     OW19489   2.284   3.545   0.509
 6197SOL    HW119490   2.290   3.515   0.604
 6197SOL    HW219491   2.375   3.575   0.479
 6198SOL     OW19492   3.747   4.940   2.449
 6198SOL    HW119493   3.733   4.937   2.350
 6198SOL    HW219494   3.812   5.012   2.471
 6199SOL     OW19495   1.707   6.777   0.116
 6199SOL    HW119496   1.706   6.789   0.215
 6199SOL    HW219497   1.622   6.813   0.078
 6200SOL     OW19498   4.155   1.163   6.507
 6200SOL    HW119499   4.121   1.084   6.560
 6200SOL    HW219500   4.255   1.164   6.509
 6201SOL     OW19501   1.936   3.906   5.582
 6201SOL    HW119502   1.920   3.871   5.674
 6201SOL    HW219503   2.034   3.910   5.565
 6202SOL     OW19504   3.579   1.845   0.939
 6202SOL    HW119505   3.672   1.870   0.911
 6202SOL    HW219506   3.513   1.895   0.884
 6203SOL     OW19507   4.947   1.253   4.048
 6203SOL    HW119508   5.004   1.278   4.127
 6203SOL    HW219509   4.928   1.155   4.051
 6204SOL     OW19510   2.322   6.331   5.334
 6204SOL    HW119511   2.413   6.288   5.336
 6204SOL    HW219512   2.252   6.259   5.330
 6205SOL     OW19513   5.075   6.044   0.165
 6205SOL    HW119514   4.987   6.007   0.196
 6205SOL    HW219515   5.065   6.079   0.072
 6206SOL     OW19516   5.423   0.102   2.674
 6206SOL    HW119517   5.371   0.091   2.759
 6206SOL    HW219518   5.517   0.071   2.688
 6207SOL     OW19519   1.471   4.164   4.866
 6207SOL    HW119520   1.514   4.202   4.948
 6207SOL    HW219521   1.541   4.129   4.804
 6208SOL     OW19522   6.009   6.530   6.239
 6208SOL    HW119523   6.103   6.559   6.223
 6208SOL    HW219524   5.950   6.567   6.167
 6209SOL     OW19525   4.153   6.551   0.414
 6209SOL    HW119526   4.252   6.559   0.428
 6209SOL    HW219527   4.118   6.475   0.468
 6210SOL     OW19528   5.452   4.245   3.830
 6210SOL    HW119529   5.366   4.194   3.830
 6210SOL    HW219530   5.496   4.237   3.741
 6211SOL     OW19531   2.835   0.009   4.597
 6211SOL    HW119532   2.819   6.980   4.680
 6211SOL    HW219533   2.749   0.020   4.548
 6212SOL     OW19534   7.025   6.556   3.702
 6212SOL    HW119535   0.017   6.467   3.745
 6212SOL    HW219536   6.948   6.547   3.638
 6213SOL     OW19537   6.414   0.321   6.630
 6213SOL    HW119538   6.447   0.376   6.708
 6213SOL    HW219539   6.489   0.265   6.595
 6214SOL     OW19540   6.635   4.299   2.778
 6214SOL    HW119541   6.647   4.260   2.687
 6214SOL    HW219542   6.550   4.264   2.818
 6215SOL     OW19543   3.015   3.018   0.891
 6215SOL    HW119544   3.030   3.077   0.970
 6215SOL    HW219545   2.961   2.938   0.918
 6216SOL     OW19546   5.332   1.922   2.212
 6216SOL    HW119547   5.430   1.940   2.216
 6216SOL    HW219548   5.309   1.882   2.123
 6217SOL     OW19549   4.860   2.473   1.051
 6217SOL    HW119550   4.792   2.422   1.103
 6217SOL    HW219551   4.925   2.517   1.113
 6218SOL     OW19552   2.759   5.034   4.625
 6218SOL    HW119553   2.821   4.983   4.565
 6218SOL    HW219554   2.744   5.125   4.587
 6219SOL     OW19555   0.907   2.400   5.134
 6219SOL    HW119556   0.939   2.490   5.104
 6219SOL    HW219557   0.930   2.387   5.230
 6220SOL     OW19558   2.142   4.787   5.085
 6220SOL    HW119559   2.111   4.704   5.038
 6220SOL    HW219560   2.101   4.790   5.176
 6221SOL     OW19561   3.957   4.835   4.054
 6221SOL    HW119562   3.935   4.865   4.147
 6221SOL    HW219563   3.901   4.755   4.030
 6222SOL     OW19564   6.445   6.879   1.798
 6222SOL    HW119565   6.539   6.864   1.770
 6222SOL    HW219566   6.385   6.817   1.748
 6223SOL     OW19567   5.378   3.014   4.966
 6223SOL    HW119568   5.452   3.029   4.901
 6223SOL    HW219569   5.385   2.921   5.003
 6224SOL     OW19570   2.728   1.676   5.480
 6224SOL    HW119571   2.631   1.697   5.488
 6224SOL    HW219572   2.779   1.759   5.456
 6225SOL     OW19573   3.516   3.103   0.540
 6225SOL    HW119574   3.538   3.030   0.474
 6225SOL    HW219575   3.589   3.110   0.607
 6226SOL     OW19576   5.745   0.791   4.425
 6226SOL    HW119577   5.672   0.858   4.416
 6226SOL    HW219578   5.725   0.711   4.369
 6227SOL     OW19579   3.489   4.528   5.953
 6227SOL    HW119580   3.456   4.480   5.872
 6227SOL    HW219581   3.562   4.476   5.996
 6228SOL     OW19582   0.435   1.177   3.294
 6228SOL    HW119583   0.464   1.225   3.212
 6228SOL    HW219584   0.339   1.199   3.312
 6229SOL     OW19585   2.491   2.482   2.522
 6229SOL    HW119586   2.464   2.398   2.570
 6229SOL    HW219587   2.501   2.557   2.588
 6230SOL     OW19588   2.285   2.330   3.983
 6230SOL    HW119589   2.365   2.273   3.962
 6230SOL    HW219590   2.293   2.366   4.076
 6231SOL     OW19591   0.049   5.602   1.422
 6231SOL    HW119592   0.092   5.512   1.425
 6231SOL    HW219593   0.090   5.656   1.348
 6232SOL     OW19594   0.334   0.715   0.345
 6232SOL    HW119595   0.412   0.722   0.282
 6232SOL    HW219596   0.301   0.806   0.367
 6233SOL     OW19597   4.419   2.268   6.801
 6233SOL    HW119598   4.379   2.321   6.876
 6233SOL    HW219599   4.495   2.213   6.837
 6234SOL     OW19600   1.798   1.762   4.268
 6234SOL    HW119601   1.840   1.745   4.357
 6234SOL    HW219602   1.844   1.839   4.223
 6235SOL     OW19603   2.189   0.248   2.557
 6235SOL    HW119604   2.265   0.306   2.528
 6235SOL    HW219605   2.200   0.226   2.654
 6236SOL     OW19606   6.971   4.016   0.747
 6236SOL    HW119607   0.014   4.037   0.817
 6236SOL    HW219608   7.017   3.993   0.661
 6237SOL     OW19609   4.211   6.813   1.172
 6237SOL    HW119610   4.307   6.835   1.157
 6237SOL    HW219611   4.165   6.891   1.214
 6238SOL     OW19612   4.922   5.446   1.251
 6238SOL    HW119613   4.944   5.453   1.348
 6238SOL    HW219614   4.828   5.414   1.240
 6239SOL     OW19615   2.287   6.759   2.807
 6239SOL    HW119616   2.326   6.672   2.777
 6239SOL    HW219617   2.313   6.831   2.742
 6240SOL     OW19618   1.516   3.326   0.430
 6240SOL    HW119619   1.564   3.341   0.516
 6240SOL    HW219620   1.427   3.284   0.448
 6241SOL     OW19621   3.146   7.015   1.360
 6241SOL    HW119622   3.101   6.979   1.441
 6241SOL    HW219623   3.109   6.970   1.278
 6242SOL     OW19624   4.946   2.464   4.160
 6242SOL    HW119625   4.893   2.543   4.129
 6242SOL    HW219626   4.942   2.392   4.091
 6243SOL     OW19627   5.569   6.269   4.314
 6243SOL    HW119628   5.521   6.340   4.367
 6243SOL    HW219629   5.522   6.256   4.227
 6244SOL     OW19630   2.910   1.896   1.920
 6244SOL    HW119631   2.854   1.976   1.899
 6244SOL    HW219632   3.004   1.926   1.938
 6245SOL     OW19633   3.030   4.942   1.270
 6245SOL    HW119634   3.021   4.997   1.354
 6245SOL    HW219635   2.940   4.906   1.245
 6246SOL     OW19636   2.789   2.437   5.545
 6246SOL    HW119637   2.848   2.408   5.620
 6246SOL    HW219638   2.841   2.436   5.459
 6247SOL     OW19639   0.304   6.507   3.166
 6247SOL    HW119640   0.331   6.526   3.071
 6247SOL    HW219641   0.386   6.491   3.221
 6248SOL     OW19642   0.805   4.951   1.156
 6248SOL    HW119643   0.711   4.967   1.126
 6248SOL    HW219644   0.806   4.915   1.249
 6249SOL     OW19645   0.080   4.084   0.265
 6249SOL    HW119646   7.016   4.129   0.275
 6249SOL    HW219647   0.088   4.012   0.333
 6250SOL     OW19648   6.113   6.442   0.182
 6250SOL    HW119649   6.075   6.449   0.274
 6250SOL    HW219650   6.212   6.429   0.188
 6251SOL     OW19651   4.423   1.653   0.422
 6251SOL    HW119652   4.335   1.685   0.456
 6251SOL    HW219653   4.432   1.675   0.325
 6252SOL     OW19654   3.155   6.099   4.895
 6252SOL    HW119655   3.130   6.022   4.953
 6252SOL    HW219656   3.125   6.081   4.801
 6253SOL     OW19657   2.393   3.852   1.774
 6253SOL    HW119658   2.299   3.818   1.761
 6253SOL    HW219659   2.392   3.924   1.843
 6254SOL     OW19660   5.623   6.946   0.306
 6254SOL    HW119661   5.543   6.915   0.358
 6254SOL    HW219662   5.628   0.021   0.311
 6255SOL     OW19663   0.472   1.308   2.393
 6255SOL    HW119664   0.381   1.316   2.434
 6255SOL    HW219665   0.467   1.337   2.297
 6256SOL     OW19666   3.898   4.901   2.734
 6256SOL    HW119667   3.818   4.916   2.792
 6256SOL    HW219668   3.871   4.911   2.638
 6257SOL     OW19669   5.431   2.678   0.206
 6257SOL    HW119670   5.365   2.603   0.204
 6257SOL    HW219671   5.496   2.663   0.281
 6258SOL     OW19672   4.510   1.888   2.045
 6258SOL    HW119673   4.444   1.937   2.102
 6258SOL    HW219674   4.589   1.863   2.101
 6259SOL     OW19675   3.067   2.296   1.681
 6259SOL    HW119676   2.998   2.272   1.613
 6259SOL    HW219677   3.023   2.318   1.767
 6260SOL     OW19678   3.394   4.042   0.120
 6260SOL    HW119679   3.488   4.022   0.149
 6260SOL    HW219680   3.395   4.082   0.028
 6261SOL     OW19681   4.047   1.461   0.615
 6261SOL    HW119682   4.093   1.527   0.673
 6261SOL    HW219683   4.043   1.496   0.521
 6262SOL     OW19684   1.268   4.864   6.697
 6262SOL    HW119685   1.240   4.816   6.780
 6262SOL    HW219686   1.275   4.799   6.621
 6263SOL     OW19687   6.954   6.662   0.658
 6263SOL    HW119688   6.912   6.750   0.677
 6263SOL    HW219689   0.025   6.665   0.683
 6264SOL     OW19690   2.652   1.835   0.255
 6264SOL    HW119691   2.698   1.893   0.322
 6264SOL    HW219692   2.681   1.740   0.269
 6265SOL     OW19693   3.968   3.498   1.331
 6265SOL    HW119694   4.025   3.494   1.412
 6265SOL    HW219695   3.992   3.578   1.276
 6266SOL     OW19696   3.257   0.594   2.914
 6266SOL    HW119697   3.194   0.664   2.948
 6266SOL    HW219698   3.326   0.637   2.855
 6267SOL     OW19699   3.428   0.248   6.388
 6267SOL    HW119700   3.348   0.309   6.391
 6267SOL    HW219701   3.425   0.186   6.466
 6268SOL     OW19702   3.449   5.062   2.959
 6268SOL    HW119703   3.393   5.022   3.031
 6268SOL    HW219704   3.426   5.159   2.948
 6269SOL     OW19705   5.772   5.503   1.357
 6269SOL    HW119706   5.839   5.551   1.414
 6269SOL    HW219707   5.701   5.568   1.327
 6270SOL     OW19708   0.884   0.420   4.532
 6270SOL    HW119709   0.884   0.455   4.439
 6270SOL    HW219710   0.834   0.482   4.592
 6271SOL     OW19711   7.021   1.433   0.523
 6271SOL    HW119712   6.965   1.475   0.595
 6271SOL    HW219713   7.024   1.494   0.444
 6272SOL     OW19714   2.024   2.311   3.723
 6272SOL    HW119715   2.098   2.299   3.789
 6272SOL    HW219716   2.046   2.263   3.638
 6273SOL     OW19717   3.121   1.474   1.552
 6273SOL    HW119718   3.039   1.515   1.593
 6273SOL    HW219719   3.188   1.546   1.533
 6274SOL     OW19720   3.291   6.589   5.895
 6274SOL    HW119721   3.294   6.492   5.916
 6274SOL    HW219722   3.235   6.636   5.964
 6275SOL     OW19723   1.695   0.266   4.707
 6275SOL    HW119724   1.640   0.198   4.755
 6275SOL    HW219725   1.635   0.336   4.667
 6276SOL     OW19726   1.514   5.488   4.025
 6276SOL    HW119727   1.445   5.488   3.952
 6276SOL    HW219728   1.472   5.453   4.109
 6277SOL     OW19729   4.972   2.944   2.801
 6277SOL    HW119730   4.875   2.939   2.825
 6277SOL    HW219731   5.023   2.874   2.850
 6278SOL     OW19732   5.283   0.301   4.210
 6278SOL    HW119733   5.207   0.365   4.213
 6278SOL    HW219734   5.251   0.209   4.233
 6279SOL     OW19735   3.995   1.958   0.697
 6279SOL    HW119736   4.093   1.967   0.680
 6279SOL    HW219737   3.979   1.888   0.767
 6280SOL     OW19738   0.301   4.548   5.674
 6280SOL    HW119739   0.395   4.583   5.669
 6280SOL    HW219740   0.274   4.516   5.583
 6281SOL     OW19741   2.321   0.453   5.196
 6281SOL    HW119742   2.294   0.367   5.238
 6281SOL    HW219743   2.253   0.480   5.128
 6282SOL     OW19744   2.657   6.906   4.182
 6282SOL    HW119745   2.593   6.830   4.177
 6282SOL    HW219746   2.751   6.872   4.176
 6283SOL     OW19747   6.903   2.578   5.242
 6283SOL    HW119748   6.862   2.666   5.217
 6283SOL    HW219749   6.925   2.527   5.158
 6284SOL     OW19750   1.251   4.400   5.297
 6284SOL    HW119751   1.245   4.397   5.397
 6284SOL    HW219752   1.165   4.436   5.260
 6285SOL     OW19753   1.443   3.465   3.162
 6285SOL    HW119754   1.424   3.470   3.260
 6285SOL    HW219755   1.541   3.460   3.147
 6286SOL     OW19756   5.537   1.072   3.337
 6286SOL    HW119757   5.488   1.107   3.417
 6286SOL    HW219758   5.625   1.119   3.330
 6287SOL     OW19759   4.965   4.216   1.698
 6287SOL    HW119760   5.028   4.154   1.651
 6287SOL    HW219761   5.008   4.252   1.780
 6288SOL     OW19762   5.618   3.658   0.368
 6288SOL    HW119763   5.625   3.562   0.394
 6288SOL    HW219764   5.567   3.708   0.437
 6289SOL     OW19765   1.571   1.623   3.935
 6289SOL    HW119766   1.649   1.574   3.974
 6289SOL    HW219767   1.604   1.700   3.880
 6290SOL     OW19768   4.834   3.978   3.349
 6290SOL    HW119769   4.782   4.057   3.382
 6290SOL    HW219770   4.837   3.980   3.249
 6291SOL     OW19771   3.473   4.115   3.474
 6291SOL    HW119772   3.417   4.068   3.543
 6291SOL    HW219773   3.552   4.058   3.451
 6292SOL     OW19774   1.612   1.273   2.187
 6292SOL    HW119775   1.595   1.250   2.283
 6292SOL    HW219776   1.710   1.279   2.170
 6293SOL     OW19777   4.477   6.824   0.392
 6293SOL    HW119778   4.548   6.870   0.338
 6293SOL    HW219779   4.401   6.888   0.408
 6294SOL     OW19780   4.372   4.992   2.998
 6294SOL    HW119781   4.431   4.987   3.078
 6294SOL    HW219782   4.384   5.081   2.953
 6295SOL     OW19783   6.198   6.107   6.266
 6295SOL    HW119784   6.216   6.198   6.229
 6295SOL    HW219785   6.115   6.070   6.224
 6296SOL     OW19786   6.108   1.017   2.770
 6296SOL    HW119787   6.025   0.979   2.811
 6296SOL    HW219788   6.132   0.964   2.689
 6297SOL     OW19789   6.025   6.237   6.009
 6297SOL    HW119790   6.012   6.143   5.976
 6297SOL    HW219791   5.940   6.269   6.050
 6298SOL     OW19792   0.395   3.166   5.272
 6298SOL    HW119793   0.309   3.199   5.232
 6298SOL    HW219794   0.459   3.142   5.200
 6299SOL     OW19795   6.451   3.063   6.831
 6299SOL    HW119796   6.409   3.064   6.922
 6299SOL    HW219797   6.380   3.056   6.761
 6300SOL     OW19798   5.048   0.916   3.504
 6300SOL    HW119799   5.075   0.905   3.408
 6300SOL    HW219800   5.116   0.870   3.563
 6301SOL     OW19801   3.324   6.702   0.653
 6301SOL    HW119802   3.339   6.604   0.642
 6301SOL    HW219803   3.386   6.738   0.722
 6302SOL     OW19804   1.490   1.249   3.298
 6302SOL    HW119805   1.450   1.338   3.281
 6302SOL    HW219806   1.424   1.177   3.276
 6303SOL     OW19807   1.489   6.261   4.829
 6303SOL    HW119808   1.536   6.323   4.892
 6303SOL    HW219809   1.414   6.310   4.784
 6304SOL     OW19810   2.910   1.355   6.941
 6304SOL    HW119811   2.948   1.420   7.006
 6304SOL    HW219812   2.924   1.262   6.975
 6305SOL     OW19813   6.696   7.006   1.448
 6305SOL    HW119814   6.624   7.016   1.380
 6305SOL    HW219815   6.700   6.910   1.478
 6306SOL     OW19816   6.586   3.003   3.822
 6306SOL    HW119817   6.542   2.918   3.851
 6306SOL    HW219818   6.524   3.053   3.762
 6307SOL     OW19819   1.884   5.094   0.065
 6307SOL    HW119820   1.824   5.026   0.107
 6307SOL    HW219821   1.858   5.108   6.995
 6308SOL     OW19822   3.175   2.005   5.102
 6308SOL    HW119823   3.258   1.949   5.090
 6308SOL    HW219824   3.195   2.100   5.078
 6309SOL     OW19825   5.546   1.944   3.869
 6309SOL    HW119826   5.474   2.012   3.877
 6309SOL    HW219827   5.579   1.941   3.774
 6310SOL     OW19828   1.418   4.775   4.604
 6310SOL    HW119829   1.500   4.749   4.553
 6310SOL    HW219830   1.409   4.718   4.685
 6311SOL     OW19831   5.818   0.441   4.743
 6311SOL    HW119832   5.765   0.526   4.741
 6311SOL    HW219833   5.809   0.398   4.833
 6312SOL     OW19834   4.280   5.264   5.771
 6312SOL    HW119835   4.187   5.292   5.796
 6312SOL    HW219836   4.280   5.222   5.681
 6313SOL     OW19837   2.349   5.892   3.196
 6313SOL    HW119838   2.337   5.795   3.177
 6313SOL    HW219839   2.400   5.904   3.281
 6314SOL     OW19840   2.624   6.105   2.546
 6314SOL    HW119841   2.640   6.193   2.589
 6314SOL    HW219842   2.526   6.083   2.551
 6315SOL     OW19843   3.200   3.865   0.239
 6315SOL    HW119844   3.263   3.917   0.182
 6315SOL    HW219845   3.165   3.787   0.188
 6316SOL     OW19846   4.577   2.593   5.681
 6316SOL    HW119847   4.609   2.683   5.652
 6316SOL    HW219848   4.641   2.556   5.749
 6317SOL     OW19849   5.155   6.669   3.839
 6317SOL    HW119850   5.132   6.572   3.847
 6317SOL    HW219851   5.187   6.704   3.927
 6318SOL     OW19852   2.243   2.390   5.373
 6318SOL    HW119853   2.268   2.414   5.280
 6318SOL    HW219854   2.157   2.436   5.397
 6319SOL     OW19855   0.949   1.880   3.490
 6319SOL    HW119856   0.899   1.943   3.429
 6319SOL    HW219857   1.023   1.929   3.535
 6320SOL     OW19858   5.528   3.826   2.981
 6320SOL    HW119859   5.498   3.922   2.974
 6320SOL    HW219860   5.615   3.815   2.933
 6321SOL     OW19861   2.601   4.589   0.366
 6321SOL    HW119862   2.523   4.624   0.419
 6321SOL    HW219863   2.595   4.490   0.360
 6322SOL     OW19864   0.834   1.065   6.698
 6322SOL    HW119865   0.902   1.003   6.736
 6322SOL    HW219866   0.854   1.159   6.727
 6323SOL     OW19867   3.466   2.733   0.431
 6323SOL    HW119868   3.511   2.800   0.372
 6323SOL    HW219869   3.535   2.683   0.484
 6324SOL     OW19870   4.153   1.353   6.099
 6324SOL    HW119871   4.234   1.366   6.157
 6324SOL    HW219872   4.078   1.316   6.154
 6325SOL     OW19873   0.709   2.460   2.464
 6325SOL    HW119874   0.756   2.496   2.544
 6325SOL    HW219875   0.635   2.522   2.438
 6326SOL     OW19876   5.073   5.720   1.666
 6326SOL    HW119877   5.078   5.820   1.662
 6326SOL    HW219878   5.019   5.687   1.588
 6327SOL     OW19879   5.897   5.613   5.749
 6327SOL    HW119880   5.810   5.646   5.786
 6327SOL    HW219881   5.895   5.616   5.650
 6328SOL     OW19882   3.033   4.130   6.709
 6328SOL    HW119883   3.032   4.202   6.639
 6328SOL    HW219884   3.052   4.042   6.666
 6329SOL     OW19885   1.046   1.632   3.231
 6329SOL    HW119886   1.115   1.649   3.161
 6329SOL    HW219887   0.958   1.669   3.201
 6330SOL     OW19888   3.899   1.412   0.106
 6330SOL    HW119889   3.935   1.332   0.058
 6330SOL    HW219890   3.832   1.383   0.174
 6331SOL     OW19891   6.444   2.471   1.565
 6331SOL    HW119892   6.537   2.451   1.596
 6331SOL    HW219893   6.437   2.453   1.467
 6332SOL     OW19894   6.169   5.381   1.399
 6332SOL    HW119895   6.121   5.353   1.482
 6332SOL    HW219896   6.267   5.386   1.416
 6333SOL     OW19897   3.551   4.894   3.273
 6333SOL    HW119898   3.627   4.829   3.281
 6333SOL    HW219899   3.588   4.987   3.269
 6334SOL     OW19900   2.060   0.965   2.150
 6334SOL    HW119901   2.126   0.991   2.080
 6334SOL    HW219902   2.097   0.891   2.205
 6335SOL     OW19903   6.597   1.266   6.387
 6335SOL    HW119904   6.560   1.346   6.340
 6335SOL    HW219905   6.660   1.218   6.326
 6336SOL     OW19906   6.628   2.494   4.468
 6336SOL    HW119907   6.642   2.416   4.408
 6336SOL    HW219908   6.693   2.566   4.445
 6337SOL     OW19909   6.011   4.371   5.556
 6337SOL    HW119910   6.051   4.389   5.466
 6337SOL    HW219911   5.913   4.391   5.554
 6338SOL     OW19912   3.736   1.110   3.073
 6338SOL    HW119913   3.702   1.021   3.104
 6338SOL    HW219914   3.743   1.110   2.974
 6339SOL     OW19915   0.336   1.830   3.980
 6339SOL    HW119916   0.334   1.849   3.881
 6339SOL    HW219917   0.421   1.782   4.002
 6340SOL     OW19918   2.497   5.425   4.176
 6340SOL    HW119919   2.509   5.486   4.098
 6340SOL    HW219920   2.457   5.339   4.145
 6341SOL     OW19921   0.071   4.221   3.540
 6341SOL    HW119922   0.124   4.137   3.536
 6341SOL    HW219923   0.132   4.299   3.551
 6342SOL     OW19924   1.186   2.330   1.288
 6342SOL    HW119925   1.130   2.391   1.344
 6342SOL    HW219926   1.132   2.250   1.262
 6343SOL     OW19927   3.735   1.336   6.783
 6343SOL    HW119928   3.715   1.281   6.702
 6343SOL    HW219929   3.649   1.361   6.828
 6344SOL     OW19930   0.827   4.390   4.538
 6344SOL    HW119931   0.877   4.328   4.598
 6344SOL    HW219932   0.734   4.402   4.572
 6345SOL     OW19933   3.810   1.240   2.182
 6345SOL    HW119934   3.822   1.261   2.085
 6345SOL    HW219935   3.847   1.315   2.237
 6346SOL     OW19936   0.512   4.077   3.725
 6346SOL    HW119937   0.527   3.981   3.704
 6346SOL    HW219938   0.458   4.085   3.809
 6347SOL     OW19939   3.033   0.022   0.951
 6347SOL    HW119940   3.028   0.079   0.869
 6347SOL    HW219941   2.972   0.060   1.022
 6348SOL     OW19942   0.654   3.059   4.342
 6348SOL    HW119943   0.628   3.051   4.438
 6348SOL    HW219944   0.719   3.134   4.331
 6349SOL     OW19945   2.968   0.858   0.638
 6349SOL    HW119946   2.972   0.857   0.538
 6349SOL    HW219947   2.872   0.852   0.667
 6350SOL     OW19948   1.489   6.056   2.337
 6350SOL    HW119949   1.584   6.066   2.308
 6350SOL    HW219950   1.470   6.118   2.413
 6351SOL     OW19951   0.255   1.317   2.589
 6351SOL    HW119952   0.161   1.315   2.557
 6351SOL    HW219953   0.262   1.377   2.669
 6352SOL     OW19954   0.479   5.314   2.473
 6352SOL    HW119955   0.494   5.379   2.399
 6352SOL    HW219956   0.401   5.255   2.452
 6353SOL     OW19957   0.398   0.205   1.093
 6353SOL    HW119958   0.433   0.113   1.074
 6353SOL    HW219959   0.342   0.236   1.017
 6354SOL     OW19960   0.763   6.593   3.126
 6354SOL    HW119961   0.861   6.591   3.146
 6354SOL    HW219962   0.721   6.672   3.172
 6355SOL     OW19963   1.757   2.655   3.184
 6355SOL    HW119964   1.802   2.743   3.200
 6355SOL    HW219965   1.790   2.615   3.099
 6356SOL     OW19966   3.578   4.005   1.353
 6356SOL    HW119967   3.555   3.954   1.436
 6356SOL    HW219968   3.568   3.945   1.274
 6357SOL     OW19969   4.123   2.099   0.284
 6357SOL    HW119970   4.034   2.071   0.319
 6357SOL    HW219971   4.111   2.141   0.193
 6358SOL     OW19972   0.320   2.148   3.312
 6358SOL    HW119973   0.378   2.218   3.270
 6358SOL    HW219974   0.351   2.129   3.405
 6359SOL     OW19975   6.921   0.608   6.500
 6359SOL    HW119976   6.876   0.545   6.563
 6359SOL    HW219977   6.866   0.690   6.488
 6360SOL     OW19978   3.073   5.488   3.812
 6360SOL    HW119979   3.171   5.487   3.793
 6360SOL    HW219980   3.059   5.475   3.910
 6361SOL     OW19981   4.441   5.987   6.007
 6361SOL    HW119982   4.509   6.015   5.939
 6361SOL    HW219983   4.350   6.010   5.973
 6362SOL     OW19984   5.929   5.256   6.175
 6362SOL    HW119985   5.913   5.345   6.134
 6362SOL    HW219986   5.999   5.264   6.247
 6363SOL     OW19987   1.559   5.973   4.254
 6363SOL    HW119988   1.573   5.887   4.207
 6363SOL    HW219989   1.476   6.017   4.221
 6364SOL     OW19990   2.384   2.897   5.562
 6364SOL    HW119991   2.419   2.804   5.567
 6364SOL    HW219992   2.404   2.936   5.472
 6365SOL     OW19993   4.840   6.582   2.924
 6365SOL    HW119994   4.767   6.650   2.933
 6365SOL    HW219995   4.929   6.627   2.928
 6366SOL     OW19996   0.520   5.833   5.393
 6366SOL    HW119997   0.535   5.893   5.471
 6366SOL    HW219998   0.426   5.843   5.359
 6367SOL     OW19999   5.233   6.623   4.256
 6367SOL    HW120000   5.141   6.609   4.291
 6367SOL    HW220001   5.233   6.700   4.191
 6368SOL     OW20002   3.064   6.886   4.620
 6368SOL    HW120003   3.007   6.953   4.573
 6368SOL    HW220004   3.157   6.921   4.628
 6369SOL     OW20005   2.505   5.047   4.293
 6369SOL    HW120006   2.506   5.135   4.342
 6369SOL    HW220007   2.544   4.976   4.352
 6370SOL     OW20008   6.126   2.284   1.440
 6370SOL    HW120009   6.102   2.339   1.359
 6370SOL    HW220010   6.082   2.195   1.435
 6371SOL     OW20011   4.884   2.103   2.393
 6371SOL    HW120012   4.806   2.163   2.412
 6371SOL    HW220013   4.953   2.115   2.464
 6372SOL     OW20014   3.321   5.982   2.327
 6372SOL    HW120015   3.227   5.993   2.294
 6372SOL    HW220016   3.382   6.040   2.273
 6373SOL     OW20017   4.486   3.977   6.453
 6373SOL    HW120018   4.407   3.933   6.409
 6373SOL    HW220019   4.453   4.035   6.529
 6374SOL     OW20020   2.996   3.308   2.764
 6374SOL    HW120021   3.068   3.249   2.728
 6374SOL    HW220022   2.962   3.270   2.850
 6375SOL     OW20023   1.456   6.227   2.556
 6375SOL    HW120024   1.394   6.298   2.591
 6375SOL    HW220025   1.550   6.261   2.557
 6376SOL     OW20026   6.722   2.327   5.136
 6376SOL    HW120027   6.751   2.382   5.215
 6376SOL    HW220028   6.679   2.386   5.068
 6377SOL     OW20029   0.576   1.339   4.570
 6377SOL    HW120030   0.581   1.328   4.470
 6377SOL    HW220031   0.590   1.435   4.593
 6378SOL     OW20032   4.889   4.161   4.137
 6378SOL    HW120033   4.978   4.122   4.113
 6378SOL    HW220034   4.853   4.211   4.059
 6379SOL     OW20035   2.325   4.223   3.554
 6379SOL    HW120036   2.253   4.189   3.614
 6379SOL    HW220037   2.285   4.258   3.470
 6380SOL     OW20038   0.535   0.674   5.971
 6380SOL    HW120039   0.596   0.753   5.960
 6380SOL    HW220040   0.546   0.636   6.063
 6381SOL     OW20041   3.007   3.893   2.932
 6381SOL    HW120042   2.964   3.918   2.845
 6381SOL    HW220043   3.064   3.968   2.964
 6382SOL     OW20044   1.110   3.612   5.857
 6382SOL    HW120045   1.187   3.578   5.910
 6382SOL    HW220046   1.080   3.542   5.792
 6383SOL     OW20047   2.572   1.465   4.180
 6383SOL    HW120048   2.656   1.440   4.133
 6383SOL    HW220049   2.529   1.383   4.217
 6384SOL     OW20050   6.882   4.481   2.761
 6384SOL    HW120051   6.803   4.470   2.701
 6384SOL    HW220052   6.947   4.407   2.745
 6385SOL     OW20053   0.734   5.272   4.734
 6385SOL    HW120054   0.728   5.267   4.635
 6385SOL    HW220055   0.828   5.293   4.761
 6386SOL     OW20056   2.735   4.752   1.184
 6386SOL    HW120057   2.655   4.770   1.125
 6386SOL    HW220058   2.704   4.713   1.271
 6387SOL     OW20059   6.341   0.947   5.079
 6387SOL    HW120060   6.430   0.957   5.036
 6387SOL    HW220061   6.352   0.921   5.175
 6388SOL     OW20062   3.327   5.009   2.298
 6388SOL    HW120063   3.390   4.955   2.354
 6388SOL    HW220064   3.323   4.971   2.206
 6389SOL     OW20065   1.577   5.442   3.517
 6389SOL    HW120066   1.659   5.387   3.505
 6389SOL    HW220067   1.587   5.529   3.469
 6390SOL     OW20068   0.795   2.948   4.034
 6390SOL    HW120069   0.716   2.973   4.089
 6390SOL    HW220070   0.847   2.876   4.081
 6391SOL     OW20071   3.007   1.751   0.323
 6391SOL    HW120072   3.075   1.689   0.362
 6391SOL    HW220073   2.939   1.698   0.271
 6392SOL     OW20074   1.688   6.496   3.990
 6392SOL    HW120075   1.634   6.423   3.949
 6392SOL    HW220076   1.784   6.485   3.966
 6393SOL     OW20077   6.362   5.961   0.121
 6393SOL    HW120078   6.412   6.047   0.127
 6393SOL    HW220079   6.302   5.952   0.201
 6394SOL     OW20080   2.262   5.013   7.024
 6394SOL    HW120081   2.311   4.996   6.938
 6394SOL    HW220082   2.179   4.957   7.025
 6395SOL     OW20083   6.316   1.484   0.849
 6395SOL    HW120084   6.373   1.532   0.917
 6395SOL    HW220085   6.321   1.532   0.762
 6396SOL     OW20086   5.141   4.197   5.579
 6396SOL    HW120087   5.224   4.230   5.534
 6396SOL    HW220088   5.154   4.199   5.678
 6397SOL     OW20089   6.614   1.230   0.811
 6397SOL    HW120090   6.692   1.169   0.799
 6397SOL    HW220091   6.532   1.187   0.772
 6398SOL     OW20092   3.332   1.456   1.274
 6398SOL    HW120093   3.354   1.538   1.326
 6398SOL    HW220094   3.403   1.387   1.289
 6399SOL     OW20095   2.297   5.600   6.629
 6399SOL    HW120096   2.360   5.536   6.586
 6399SOL    HW220097   2.215   5.609   6.573
 6400SOL     OW20098   2.488   5.898   3.439
 6400SOL    HW120099   2.513   5.982   3.485
 6400SOL    HW220100   2.443   5.836   3.504
 6401SOL     OW20101   0.572   4.492   3.949
 6401SOL    HW120102   0.561   4.497   4.048
 6401SOL    HW220103   0.587   4.583   3.911
 6402SOL     OW20104   2.396   0.953   2.912
 6402SOL    HW120105   2.450   0.992   2.838
 6402SOL    HW220106   2.306   0.997   2.914
 6403SOL     OW20107   0.812   5.227   6.969
 6403SOL    HW120108   0.727   5.177   6.953
 6403SOL    HW220109   0.874   5.213   6.892
 6404SOL     OW20110   5.535   1.375   3.369
 6404SOL    HW120111   5.444   1.369   3.408
 6404SOL    HW220112   5.535   1.439   3.292
 6405SOL     OW20113   2.681   1.504   2.633
 6405SOL    HW120114   2.694   1.600   2.655
 6405SOL    HW220115   2.769   1.457   2.633
 6406SOL     OW20116   2.326   1.131   4.086
 6406SOL    HW120117   2.259   1.188   4.132
 6406SOL    HW220118   2.414   1.138   4.133
 6407SOL     OW20119   3.659   5.650   5.893
 6407SOL    HW120120   3.615   5.656   5.982
 6407SOL    HW220121   3.669   5.554   5.866
 6408SOL     OW20122   5.571   1.393   6.528
 6408SOL    HW120123   5.522   1.401   6.441
 6408SOL    HW220124   5.669   1.384   6.511
 6409SOL     OW20125   0.388   4.111   2.214
 6409SOL    HW120126   0.453   4.050   2.259
 6409SOL    HW220127   0.362   4.073   2.126
 6410SOL     OW20128   1.686   1.402   0.379
 6410SOL    HW120129   1.629   1.481   0.357
 6410SOL    HW220130   1.747   1.425   0.455
 6411SOL     OW20131   0.779   1.069   3.370
 6411SOL    HW120132   0.793   1.107   3.462
 6411SOL    HW220133   0.855   1.009   3.347
 6412SOL     OW20134   0.472   2.829   5.427
 6412SOL    HW120135   0.373   2.841   5.427
 6412SOL    HW220136   0.500   2.774   5.349
 6413SOL     OW20137   6.826   4.629   0.747
 6413SOL    HW120138   6.910   4.682   0.737
 6413SOL    HW220139   6.823   4.558   0.677
 6414SOL     OW20140   5.973   6.765   2.421
 6414SOL    HW120141   5.894   6.721   2.464
 6414SOL    HW220142   5.943   6.846   2.371
 6415SOL     OW20143   1.896   1.304   1.561
 6415SOL    HW120144   1.947   1.374   1.611
 6415SOL    HW220145   1.827   1.348   1.503
 6416SOL     OW20146   1.393   0.450   6.636
 6416SOL    HW120147   1.297   0.463   6.611
 6416SOL    HW220148   1.417   0.511   6.712
 6417SOL     OW20149   0.847   0.043   3.412
 6417SOL    HW120150   0.823   7.021   3.497
 6417SOL    HW220151   0.946   0.038   3.398
 6418SOL     OW20152   6.887   6.177   2.236
 6418SOL    HW120153   6.922   6.151   2.146
 6418SOL    HW220154   6.821   6.252   2.226
 6419SOL     OW20155   3.403   4.924   1.435
 6419SOL    HW120156   3.419   5.018   1.466
 6419SOL    HW220157   3.412   4.861   1.512
 6420SOL     OW20158   2.159   4.384   6.394
 6420SOL    HW120159   2.185   4.384   6.490
 6420SOL    HW220160   2.087   4.452   6.379
 6421SOL     OW20161   5.944   1.162   1.565
 6421SOL    HW120162   5.849   1.179   1.542
 6421SOL    HW220163   6.003   1.186   1.488
 6422SOL     OW20164   6.124   1.491   3.330
 6422SOL    HW120165   6.132   1.469   3.233
 6422SOL    HW220166   6.201   1.547   3.359
 6423SOL     OW20167   5.120   3.646   0.565
 6423SOL    HW120168   5.048   3.716   0.565
 6423SOL    HW220169   5.180   3.659   0.644
 6424SOL     OW20170   6.756   4.234   5.776
 6424SOL    HW120171   6.765   4.326   5.815
 6424SOL    HW220172   6.693   4.181   5.832
 6425SOL     OW20173   0.838   4.925   2.187
 6425SOL    HW120174   0.837   4.999   2.119
 6425SOL    HW220175   0.813   4.962   2.277
 6426SOL     OW20176   1.006   2.561   3.579
 6426SOL    HW120177   1.047   2.647   3.549
 6426SOL    HW220178   0.930   2.580   3.641
 6427SOL     OW20179   1.421   3.642   5.604
 6427SOL    HW120180   1.334   3.690   5.603
 6427SOL    HW220181   1.455   3.634   5.698
 6428SOL     OW20182   6.984   3.249   1.996
 6428SOL    HW120183   6.952   3.156   1.981
 6428SOL    HW220184   0.025   3.250   2.071
 6429SOL     OW20185   1.338   0.253   3.988
 6429SOL    HW120186   1.405   0.304   3.934
 6429SOL    HW220187   1.353   0.155   3.975
 6430SOL     OW20188   5.794   2.345   1.032
 6430SOL    HW120189   5.697   2.365   1.049
 6430SOL    HW220190   5.802   2.255   0.988
 6431SOL     OW20191   5.423   6.734   2.642
 6431SOL    HW120192   5.408   6.712   2.545
 6431SOL    HW220193   5.475   6.659   2.685
 6432SOL     OW20194   4.992   3.373   0.900
 6432SOL    HW120195   4.985   3.442   0.828
 6432SOL    HW220196   4.941   3.291   0.874
 6433SOL     OW20197   2.855   4.029   1.602
 6433SOL    HW120198   2.767   3.983   1.591
 6433SOL    HW220199   2.927   3.961   1.618
 6434SOL     OW20200   1.156   3.974   0.662
 6434SOL    HW120201   1.240   4.011   0.700
 6434SOL    HW220202   1.174   3.938   0.570
 6435SOL     OW20203   4.437   4.133   6.683
 6435SOL    HW120204   4.442   4.158   6.780
 6435SOL    HW220205   4.444   4.215   6.626
 6436SOL     OW20206   1.770   2.861   3.672
 6436SOL    HW120207   1.776   2.764   3.694
 6436SOL    HW220208   1.735   2.872   3.579
 6437SOL     OW20209   1.434   0.104   6.577
 6437SOL    HW120210   1.497   0.030   6.554
 6437SOL    HW220211   1.452   0.183   6.518
 6438SOL     OW20212   0.765   3.994   4.008
 6438SOL    HW120213   0.748   4.071   3.946
 6438SOL    HW220214   0.762   3.909   3.957
 6439SOL     OW20215   1.281   0.012   1.364
 6439SOL    HW120216   1.260   6.955   1.418
 6439SOL    HW220217   1.227   0.089   1.399
 6440SOL     OW20218   1.288   1.680   2.508
 6440SOL    HW120219   1.234   1.757   2.542
 6440SOL    HW220220   1.374   1.715   2.469
 6441SOL     OW20221   1.886   0.877   3.525
 6441SOL    HW120222   1.877   0.976   3.512
 6441SOL    HW220223   1.796   0.836   3.535
 6442SOL     OW20224   2.624   1.942   4.182
 6442SOL    HW120225   2.717   1.911   4.196
 6442SOL    HW220226   2.624   2.023   4.124
 6443SOL     OW20227   2.706   2.005   0.482
 6443SOL    HW120228   2.630   1.969   0.536
 6443SOL    HW220229   2.792   1.979   0.525
 6444SOL     OW20230   0.708   1.313   2.891
 6444SOL    HW120231   0.757   1.400   2.885
 6444SOL    HW220232   0.766   1.245   2.936
 6445SOL     OW20233   4.050   2.978   5.311
 6445SOL    HW120234   4.071   2.987   5.409
 6445SOL    HW220235   3.953   2.958   5.300
 6446SOL     OW20236   5.966   1.137   0.024
 6446SOL    HW120237   5.900   1.081   6.999
 6446SOL    HW220238   6.051   1.144   6.996
 6447SOL     OW20239   1.537   0.420   2.214
 6447SOL    HW120240   1.605   0.428   2.287
 6447SOL    HW220241   1.500   0.510   2.193
 6448SOL     OW20242   5.573   2.481   3.394
 6448SOL    HW120243   5.502   2.542   3.430
 6448SOL    HW220244   5.531   2.408   3.340
 6449SOL     OW20245   3.113   3.555   0.754
 6449SOL    HW120246   3.085   3.529   0.661
 6449SOL    HW220247   3.136   3.472   0.806
 6450SOL     OW20248   6.002   3.750   0.830
 6450SOL    HW120249   6.024   3.659   0.864
 6450SOL    HW220250   6.083   3.809   0.836
 6451SOL     OW20251   2.780   5.669   5.055
 6451SOL    HW120252   2.706   5.626   5.004
 6451SOL    HW220253   2.859   5.682   4.995
 6452SOL     OW20254   3.583   6.304   3.992
 6452SOL    HW120255   3.534   6.223   4.025
 6452SOL    HW220256   3.555   6.325   3.898
 6453SOL     OW20257   1.837   6.065   6.239
 6453SOL    HW120258   1.738   6.061   6.255
 6453SOL    HW220259   1.880   5.982   6.275
 6454SOL     OW20260   3.453   1.632   4.339
 6454SOL    HW120261   3.451   1.588   4.429
 6454SOL    HW220262   3.398   1.716   4.342
 6455SOL     OW20263   5.962   2.887   5.056
 6455SOL    HW120264   5.883   2.943   5.031
 6455SOL    HW220265   6.003   2.848   4.973
 6456SOL     OW20266   0.387   0.419   3.490
 6456SOL    HW120267   0.399   0.409   3.391
 6456SOL    HW220268   0.475   0.440   3.532
 6457SOL     OW20269   6.442   2.397   0.947
 6457SOL    HW120270   6.506   2.469   0.974
 6457SOL    HW220271   6.409   2.350   1.029
 6458SOL     OW20272   2.017   5.814   3.435
 6458SOL    HW120273   2.108   5.782   3.459
 6458SOL    HW220274   2.018   5.914   3.428
 6459SOL     OW20275   5.326   4.522   6.845
 6459SOL    HW120276   5.238   4.566   6.824
 6459SOL    HW220277   5.336   4.515   6.945
 6460SOL     OW20278   3.541   4.806   6.288
 6460SOL    HW120279   3.451   4.850   6.282
 6460SOL    HW220280   3.591   4.823   6.203
 6461SOL     OW20281   3.843   5.158   4.945
 6461SOL    HW120282   3.853   5.246   4.990
 6461SOL    HW220283   3.873   5.085   5.006
 6462SOL     OW20284   2.111   3.570   4.882
 6462SOL    HW120285   2.141   3.656   4.840
 6462SOL    HW220286   2.058   3.590   4.964
 6463SOL     OW20287   1.799   4.163   6.236
 6463SOL    HW120288   1.756   4.096   6.297
 6463SOL    HW220289   1.883   4.125   6.199
 6464SOL     OW20290   0.397   5.257   2.998
 6464SOL    HW120291   0.445   5.199   2.932
 6464SOL    HW220292   0.378   5.346   2.957
 6465SOL     OW20293   6.468   1.830   3.228
 6465SOL    HW120294   6.418   1.898   3.174
 6465SOL    HW220295   6.563   1.827   3.197
 6466SOL     OW20296   0.299   2.478   5.404
 6466SOL    HW120297   0.303   2.379   5.420
 6466SOL    HW220298   0.341   2.499   5.315
 6467SOL     OW20299   2.339   0.929   6.352
 6467SOL    HW120300   2.312   1.016   6.393
 6467SOL    HW220301   2.396   0.946   6.272
 6468SOL     OW20302   5.087   5.937   1.314
 6468SOL    HW120303   5.039   5.893   1.390
 6468SOL    HW220304   5.099   6.034   1.333
 6469SOL     OW20305   6.833   1.176   5.663
 6469SOL    HW120306   6.831   1.129   5.574
 6469SOL    HW220307   6.884   1.261   5.655
 6470SOL     OW20308   6.262   7.005   5.720
 6470SOL    HW120309   6.245   0.038   5.799
 6470SOL    HW220310   6.335   6.939   5.743
 6471SOL     OW20311   6.093   4.846   6.304
 6471SOL    HW120312   6.165   4.783   6.273
 6471SOL    HW220313   6.050   4.808   6.386
 6472SOL     OW20314   0.751   6.089   1.993
 6472SOL    HW120315   0.730   6.052   2.084
 6472SOL    HW220316   0.688   6.051   1.926
 6473SOL     OW20317   2.243   1.803   6.482
 6473SOL    HW120318   2.189   1.725   6.451
 6473SOL    HW220319   2.182   1.881   6.500
 6474SOL     OW20320   1.523   3.195   5.091
 6474SOL    HW120321   1.582   3.235   5.021
 6474SOL    HW220322   1.513   3.259   5.167
 6475SOL     OW20323   4.431   6.253   4.170
 6475SOL    HW120324   4.514   6.284   4.123
 6475SOL    HW220325   4.386   6.182   4.116
 6476SOL     OW20326   4.635   4.815   2.383
 6476SOL    HW120327   4.686   4.892   2.421
 6476SOL    HW220328   4.697   4.753   2.335
 6477SOL     OW20329   6.495   5.758   0.727
 6477SOL    HW120330   6.555   5.745   0.806
 6477SOL    HW220331   6.550   5.763   0.644
 6478SOL     OW20332   5.499   6.629   1.793
 6478SOL    HW120333   5.431   6.616   1.721
 6478SOL    HW220334   5.516   6.726   1.807
 6479SOL     OW20335   4.055   5.061   2.200
 6479SOL    HW120336   4.018   5.126   2.267
 6479SOL    HW220337   4.036   4.968   2.229
 6480SOL     OW20338   3.140   2.221   0.069
 6480SOL    HW120339   3.180   2.168   0.144
 6480SOL    HW220340   3.167   2.317   0.079
 6481SOL     OW20341   4.216   1.008   1.518
 6481SOL    HW120342   4.216   0.955   1.433
 6481SOL    HW220343   4.291   1.074   1.516
 6482SOL     OW20344   0.025   0.270   6.674
 6482SOL    HW120345   0.033   0.171   6.663
 6482SOL    HW220346   0.101   0.315   6.629
 6483SOL     OW20347   1.485   6.607   2.467
 6483SOL    HW120348   1.519   6.639   2.378
 6483SOL    HW220349   1.546   6.537   2.502
 6484SOL     OW20350   4.610   6.828   3.471
 6484SOL    HW120351   4.665   6.810   3.389
 6484SOL    HW220352   4.648   6.906   3.520
 6485SOL     OW20353   1.928   2.409   3.010
 6485SOL    HW120354   1.966   2.482   2.953
 6485SOL    HW220355   1.944   2.320   2.965
 6486SOL     OW20356   1.630   3.534   3.681
 6486SOL    HW120357   1.693   3.456   3.690
 6486SOL    HW220358   1.614   3.573   3.772
 6487SOL     OW20359   5.953   6.629   4.536
 6487SOL    HW120360   6.043   6.650   4.498
 6487SOL    HW220361   5.890   6.606   4.462
 6488SOL     OW20362   3.305   5.091   5.723
 6488SOL    HW120363   3.309   4.998   5.686
 6488SOL    HW220364   3.328   5.090   5.820
 6489SOL     OW20365   2.299   1.746   5.396
 6489SOL    HW120366   2.331   1.697   5.478
 6489SOL    HW220367   2.205   1.721   5.377
 6490SOL     OW20368   3.511   1.430   0.465
 6490SOL    HW120369   3.536   1.493   0.539
 6490SOL    HW220370   3.591   1.375   0.440
 6491SOL     OW20371   4.118   2.149   6.430
 6491SOL    HW120372   4.176   2.073   6.402
 6491SOL    HW220373   4.114   2.153   6.530
 6492SOL     OW20374   6.188   6.127   0.279
 6492SOL    HW120375   6.193   6.098   0.375
 6492SOL    HW220376   6.249   6.204   0.263
 6493SOL     OW20377   1.548   6.464   5.773
 6493SOL    HW120378   1.458   6.497   5.799
 6493SOL    HW220379   1.618   6.512   5.826
 6494SOL     OW20380   1.040   0.558   3.412
 6494SOL    HW120381   0.956   0.609   3.395
 6494SOL    HW220382   1.111   0.621   3.445
 6495SOL     OW20383   5.535   4.870   3.118
 6495SOL    HW120384   5.503   4.937   3.051
 6495SOL    HW220385   5.512   4.778   3.087
 6496SOL     OW20386   0.627   6.884   2.628
 6496SOL    HW120387   0.562   6.854   2.698
 6496SOL    HW220388   0.719   6.884   2.666
 6497SOL     OW20389   1.588   4.139   0.333
 6497SOL    HW120390   1.587   4.092   0.245
 6497SOL    HW220391   1.565   4.235   0.319
 6498SOL     OW20392   2.347   4.309   3.995
 6498SOL    HW120393   2.287   4.343   3.923
 6498SOL    HW220394   2.331   4.211   4.007
 6499SOL     OW20395   5.694   1.408   3.604
 6499SOL    HW120396   5.640   1.404   3.520
 6499SOL    HW220397   5.791   1.413   3.581
 6500SOL     OW20398   4.787   4.749   3.801
 6500SOL    HW120399   4.812   4.696   3.882
 6500SOL    HW220400   4.869   4.765   3.745
 6501SOL     OW20401   6.522   3.925   1.314
 6501SOL    HW120402   6.593   3.970   1.261
 6501SOL    HW220403   6.506   3.975   1.399
 6502SOL     OW20404   1.052   4.937   2.960
 6502SOL    HW120405   1.036   4.984   2.873
 6502SOL    HW220406   1.043   4.838   2.946
 6503SOL     OW20407   4.601   6.763   4.404
 6503SOL    HW120408   4.508   6.799   4.402
 6503SOL    HW220409   4.654   6.809   4.476
 6504SOL     OW20410   3.332   0.619   0.721
 6504SOL    HW120411   3.410   0.672   0.687
 6504SOL    HW220412   3.305   0.551   0.653
 6505SOL     OW20413   5.961   4.894   1.166
 6505SOL    HW120414   6.054   4.876   1.199
 6505SOL    HW220415   5.903   4.815   1.184
 6506SOL     OW20416   1.978   2.902   1.122
 6506SOL    HW120417   1.904   2.839   1.145
 6506SOL    HW220418   2.019   2.938   1.205
 6507SOL     OW20419   2.366   0.066   1.784
 6507SOL    HW120420   2.444   0.128   1.788
 6507SOL    HW220421   2.340   0.052   1.688
 6508SOL     OW20422   2.508   1.770   3.378
 6508SOL    HW120423   2.431   1.707   3.375
 6508SOL    HW220424   2.485   1.849   3.435
 6509SOL     OW20425   0.956   2.692   4.451
 6509SOL    HW120426   0.959   2.681   4.351
 6509SOL    HW220427   1.046   2.670   4.490
 6510SOL     OW20428   5.938   4.809   6.535
 6510SOL    HW120429   5.967   4.892   6.583
 6510SOL    HW220430   5.964   4.729   6.590
 6511SOL     OW20431   6.577   6.257   6.394
 6511SOL    HW120432   6.637   6.200   6.338
 6511SOL    HW220433   6.632   6.303   6.464
 6512SOL     OW20434   5.232   6.641   3.560
 6512SOL    HW120435   5.155   6.584   3.532
 6512SOL    HW220436   5.204   6.700   3.636
 6513SOL     OW20437   3.979   6.394   2.653
 6513SOL    HW120438   4.059   6.454   2.644
 6513SOL    HW220439   3.957   6.353   2.565
 6514SOL     OW20440   4.262   0.111   4.307
 6514SOL    HW120441   4.199   0.035   4.321
 6514SOL    HW220442   4.216   0.182   4.252
 6515SOL     OW20443   0.852   7.016   4.728
 6515SOL    HW120444   0.893   0.074   4.763
 6515SOL    HW220445   0.756   0.007   4.704
 6516SOL     OW20446   0.720   1.706   5.233
 6516SOL    HW120447   0.736   1.800   5.263
 6516SOL    HW220448   0.779   1.643   5.284
 6517SOL     OW20449   0.616   1.365   0.084
 6517SOL    HW120450   0.674   1.334   0.160
 6517SOL    HW220451   0.527   1.321   0.090
 6518SOL     OW20452   6.779   6.456   1.522
 6518SOL    HW120453   6.834   6.378   1.552
 6518SOL    HW220454   6.779   6.459   1.422
 6519SOL     OW20455   1.934   2.018   4.235
 6519SOL    HW120456   1.849   2.043   4.282
 6519SOL    HW220457   1.965   2.096   4.179
 6520SOL     OW20458   5.886   5.668   1.512
 6520SOL    HW120459   5.975   5.686   1.470
 6520SOL    HW220460   5.856   5.750   1.562
 6521SOL     OW20461   6.909   1.859   4.840
 6521SOL    HW120462   6.890   1.909   4.925
 6521SOL    HW220463   6.963   1.916   4.779
 6522SOL     OW20464   2.541   5.487   6.022
 6522SOL    HW120465   2.483   5.562   5.990
 6522SOL    HW220466   2.637   5.514   6.018
 6523SOL     OW20467   1.926   2.067   5.828
 6523SOL    HW120468   1.963   1.999   5.766
 6523SOL    HW220469   1.999   2.128   5.859
 6524SOL     OW20470   4.098   3.395   3.583
 6524SOL    HW120471   4.103   3.453   3.501
 6524SOL    HW220472   4.054   3.308   3.559
 6525SOL     OW20473   0.475   2.996   3.627
 6525SOL    HW120474   0.445   2.911   3.582
 6525SOL    HW220475   0.575   3.002   3.622
 6526SOL     OW20476   1.306   6.378   5.074
 6526SOL    HW120477   1.387   6.427   5.042
 6526SOL    HW220478   1.242   6.367   4.997
 6527SOL     OW20479   1.598   6.924   4.895
 6527SOL    HW120480   1.659   6.879   4.829
 6527SOL    HW220481   1.653   6.976   4.961
 6528SOL     OW20482   0.126   1.564   4.506
 6528SOL    HW120483   0.039   1.571   4.458
 6528SOL    HW220484   0.188   1.504   4.455
 6529SOL     OW20485   6.848   1.385   1.848
 6529SOL    HW120486   6.831   1.318   1.920
 6529SOL    HW220487   6.872   1.473   1.890
 6530SOL     OW20488   0.044   1.608   0.307
 6530SOL    HW120489   0.005   1.548   0.237
 6530SOL    HW220490   0.063   1.697   0.267
 6531SOL     OW20491   5.169   2.891   4.113
 6531SOL    HW120492   5.168   2.867   4.016
 6531SOL    HW220493   5.206   2.814   4.165
 6532SOL     OW20494   6.553   1.526   6.234
 6532SOL    HW120495   6.574   1.494   6.141
 6532SOL    HW220496   6.585   1.620   6.245
 6533SOL     OW20497   4.494   0.067   1.342
 6533SOL    HW120498   4.470   0.049   1.246
 6533SOL    HW220499   4.592   0.056   1.354
 6534SOL     OW20500   2.204   4.215   1.020
 6534SOL    HW120501   2.206   4.229   0.921
 6534SOL    HW220502   2.262   4.137   1.044
 6535SOL     OW20503   0.213   3.591   5.252
 6535SOL    HW120504   0.269   3.558   5.327
 6535SOL    HW220505   0.125   3.543   5.252
 6536SOL     OW20506   6.402   2.187   0.080
 6536SOL    HW120507   6.389   2.101   0.032
 6536SOL    HW220508   6.482   2.235   0.044
 6537SOL     OW20509   0.678   6.902   0.024
 6537SOL    HW120510   0.663   6.974   0.091
 6537SOL    HW220511   0.616   6.826   0.043
 6538SOL     OW20512   2.902   3.221   0.241
 6538SOL    HW120513   2.908   3.180   0.150
 6538SOL    HW220514   2.810   3.256   0.256
 6539SOL     OW20515   2.799   1.737   6.759
 6539SOL    HW120516   2.869   1.775   6.699
 6539SOL    HW220517   2.812   1.772   6.852
 6540SOL     OW20518   2.776   1.313   4.888
 6540SOL    HW120519   2.763   1.356   4.798
 6540SOL    HW220520   2.846   1.363   4.939
 6541SOL     OW20521   2.255   2.556   6.160
 6541SOL    HW120522   2.212   2.617   6.093
 6541SOL    HW220523   2.310   2.610   6.224
 6542SOL     OW20524   5.868   4.177   4.043
 6542SOL    HW120525   5.917   4.246   3.991
 6542SOL    HW220526   5.769   4.187   4.027
 6543SOL     OW20527   6.540   6.100   6.707
 6543SOL    HW120528   6.611   6.170   6.713
 6543SOL    HW220529   6.515   6.086   6.611
 6544SOL     OW20530   6.377   6.549   4.219
 6544SOL    HW120531   6.474   6.544   4.239
 6544SOL    HW220532   6.352   6.642   4.192
 6545SOL     OW20533   4.943   1.724   5.512
 6545SOL    HW120534   4.992   1.706   5.426
 6545SOL    HW220535   4.989   1.796   5.562
 6546SOL     OW20536   3.256   4.809   5.734
 6546SOL    HW120537   3.199   4.845   5.808
 6546SOL    HW220538   3.214   4.830   5.646
 6547SOL     OW20539   4.938   2.227   6.612
 6547SOL    HW120540   4.935   2.319   6.571
 6547SOL    HW220541   4.890   2.229   6.700
 6548SOL     OW20542   6.788   4.495   5.862
 6548SOL    HW120543   6.833   4.457   5.943
 6548SOL    HW220544   6.709   4.549   5.890
 6549SOL     OW20545   3.332   2.246   0.805
 6549SOL    HW120546   3.402   2.318   0.806
 6549SOL    HW220547   3.242   2.287   0.792
 6550SOL     OW20548   0.845   5.878   3.284
 6550SOL    HW120549   0.918   5.832   3.233
 6550SOL    HW220550   0.804   5.950   3.227
 6551SOL     OW20551   1.917   4.878   1.607
 6551SOL    HW120552   1.966   4.937   1.543
 6551SOL    HW220553   1.966   4.877   1.694
 6552SOL     OW20554   3.312   5.048   5.385
 6552SOL    HW120555   3.334   5.014   5.294
 6552SOL    HW220556   3.268   5.138   5.378
 6553SOL     OW20557   1.199   3.232   2.713
 6553SOL    HW120558   1.099   3.240   2.721
 6553SOL    HW220559   1.235   3.186   2.794
 6554SOL     OW20560   6.533   2.418   5.468
 6554SOL    HW120561   6.457   2.414   5.533
 6554SOL    HW220562   6.516   2.355   5.392
 6555SOL     OW20563   0.867   1.364   1.619
 6555SOL    HW120564   0.901   1.451   1.585
 6555SOL    HW220565   0.933   1.291   1.597
 6556SOL     OW20566   3.690   5.911   4.446
 6556SOL    HW120567   3.750   5.976   4.399
 6556SOL    HW220568   3.678   5.939   4.541
 6557SOL     OW20569   6.490   5.057   1.143
 6557SOL    HW120570   6.424   5.111   1.195
 6557SOL    HW220571   6.530   5.114   1.072
 6558SOL     OW20572   6.652   5.662   6.611
 6558SOL    HW120573   6.630   5.721   6.533
 6558SOL    HW220574   6.653   5.716   6.695
 6559SOL     OW20575   3.982   3.842   0.882
 6559SOL    HW120576   3.983   3.754   0.834
 6559SOL    HW220577   4.018   3.830   0.974
 6560SOL     OW20578   3.769   2.192   0.305
 6560SOL    HW120579   3.781   2.097   0.336
 6560SOL    HW220580   3.838   2.250   0.348
 6561SOL     OW20581   4.122   3.174   3.193
 6561SOL    HW120582   4.121   3.118   3.110
 6561SOL    HW220583   4.076   3.124   3.267
 6562SOL     OW20584   6.302   4.008   6.330
 6562SOL    HW120585   6.314   4.102   6.363
 6562SOL    HW220586   6.228   4.007   6.262
 6563SOL     OW20587   1.259   5.269   1.896
 6563SOL    HW120588   1.284   5.357   1.855
 6563SOL    HW220589   1.205   5.285   1.979
 6564SOL     OW20590   1.266   4.707   2.105
 6564SOL    HW120591   1.328   4.721   2.028
 6564SOL    HW220592   1.223   4.794   2.130
 6565SOL     OW20593   6.456   2.828   5.672
 6565SOL    HW120594   6.510   2.861   5.750
 6565SOL    HW220595   6.511   2.765   5.618
 6566SOL     OW20596   3.520   6.751   1.151
 6566SOL    HW120597   3.571   6.667   1.169
 6566SOL    HW220598   3.567   6.829   1.193
 6567SOL     OW20599   5.354   2.731   1.440
 6567SOL    HW120600   5.429   2.674   1.474
 6567SOL    HW220601   5.377   2.767   1.350
 6568SOL     OW20602   4.284   4.394   1.465
 6568SOL    HW120603   4.262   4.297   1.462
 6568SOL    HW220604   4.306   4.426   1.373
 6569SOL     OW20605   1.111   4.389   6.989
 6569SOL    HW120606   1.133   4.340   0.048
 6569SOL    HW220607   1.114   4.325   6.912
 6570SOL     OW20608   5.879   2.168   1.726
 6570SOL    HW120609   5.812   2.094   1.729
 6570SOL    HW220610   5.895   2.193   1.630
 6571SOL     OW20611   2.698   5.774   3.300
 6571SOL    HW120612   2.618   5.786   3.359
 6571SOL    HW220613   2.712   5.857   3.246
 6572SOL     OW20614   0.507   4.399   5.940
 6572SOL    HW120615   0.512   4.344   5.857
 6572SOL    HW220616   0.412   4.428   5.955
 6573SOL     OW20617   2.380   1.345   2.410
 6573SOL    HW120618   2.343   1.380   2.324
 6573SOL    HW220619   2.430   1.419   2.456
 6574SOL     OW20620   3.111   4.897   2.862
 6574SOL    HW120621   3.174   4.846   2.804
 6574SOL    HW220622   3.065   4.968   2.809
 6575SOL     OW20623   1.054   1.856   2.166
 6575SOL    HW120624   0.967   1.853   2.214
 6575SOL    HW220625   1.047   1.803   2.081
 6576SOL     OW20626   1.410   6.302   6.187
 6576SOL    HW120627   1.322   6.344   6.210
 6576SOL    HW220628   1.415   6.286   6.089
 6577SOL     OW20629   7.004   2.105   3.697
 6577SOL    HW120630   6.926   2.057   3.658
 6577SOL    HW220631   6.978   2.146   3.784
 6578SOL     OW20632   6.153   4.948   3.873
 6578SOL    HW120633   6.136   4.992   3.961
 6578SOL    HW220634   6.248   4.965   3.845
 6579SOL     OW20635   6.801   4.035   3.337
 6579SOL    HW120636   6.750   4.043   3.422
 6579SOL    HW220637   6.738   4.013   3.263
 6580SOL     OW20638   5.963   1.935   2.140
 6580SOL    HW120639   6.023   1.960   2.064
 6580SOL    HW220640   6.009   1.866   2.197
 6581SOL     OW20641   2.972   1.826   6.540
 6581SOL    HW120642   3.069   1.805   6.532
 6581SOL    HW220643   2.926   1.803   6.454
 6582SOL     OW20644   6.048   0.605   2.774
 6582SOL    HW120645   6.135   0.558   2.789
 6582SOL    HW220646   5.974   0.538   2.768
 6583SOL     OW20647   5.268   1.833   6.060
 6583SOL    HW120648   5.266   1.838   6.160
 6583SOL    HW220649   5.351   1.878   6.027
 6584SOL     OW20650   6.023   1.905   6.616
 6584SOL    HW120651   5.931   1.872   6.637
 6584SOL    HW220652   6.090   1.844   6.657
 6585SOL     OW20653   0.954   1.496   6.624
 6585SOL    HW120654   0.866   1.520   6.583
 6585SOL    HW220655   1.007   1.580   6.639
 6586SOL     OW20656   6.397   2.509   6.112
 6586SOL    HW120657   6.368   2.453   6.035
 6586SOL    HW220658   6.359   2.473   6.197
 6587SOL     OW20659   2.036   6.498   3.198
 6587SOL    HW120660   2.100   6.512   3.123
 6587SOL    HW220661   1.975   6.423   3.176
 6588SOL     OW20662   1.488   2.958   0.390
 6588SOL    HW120663   1.395   2.978   0.360
 6588SOL    HW220664   1.553   3.009   0.334
 6589SOL     OW20665   4.493   1.595   5.514
 6589SOL    HW120666   4.488   1.592   5.614
 6589SOL    HW220667   4.403   1.571   5.476
 6590SOL     OW20668   0.383   1.474   5.486
 6590SOL    HW120669   0.355   1.564   5.520
 6590SOL    HW220670   0.429   1.484   5.398
 6591SOL     OW20671   5.845   0.966   2.852
 6591SOL    HW120672   5.799   0.887   2.813
 6591SOL    HW220673   5.784   1.045   2.848
 6592SOL     OW20674   4.676   5.476   4.833
 6592SOL    HW120675   4.750   5.541   4.851
 6592SOL    HW220676   4.618   5.510   4.759
 6593SOL     OW20677   3.483   1.666   2.600
 6593SOL    HW120678   3.547   1.730   2.643
 6593SOL    HW220679   3.526   1.623   2.521
 6594SOL     OW20680   5.383   0.261   6.580
 6594SOL    HW120681   5.396   0.162   6.581
 6594SOL    HW220682   5.436   0.303   6.653
 6595SOL     OW20683   1.745   3.670   1.199
 6595SOL    HW120684   1.667   3.612   1.222
 6595SOL    HW220685   1.787   3.639   1.114
 6596SOL     OW20686   4.433   6.859   5.267
 6596SOL    HW120687   4.389   6.839   5.180
 6596SOL    HW220688   4.519   6.908   5.252
 6597SOL     OW20689   0.487   5.414   5.114
 6597SOL    HW120690   0.570   5.370   5.148
 6597SOL    HW220691   0.475   5.393   5.017
 6598SOL     OW20692   1.819   5.546   5.313
 6598SOL    HW120693   1.772   5.546   5.224
 6598SOL    HW220694   1.796   5.463   5.363
 6599SOL     OW20695   4.299   4.542   5.798
 6599SOL    HW120696   4.230   4.584   5.739
 6599SOL    HW220697   4.324   4.606   5.870
 6600SOL     OW20698   4.643   5.997   3.848
 6600SOL    HW120699   4.556   6.045   3.843
 6600SOL    HW220700   4.699   6.039   3.920
 6601SOL     OW20701   0.495   0.091   0.189
 6601SOL    HW120702   0.432   0.057   0.120
 6601SOL    HW220703   0.463   0.180   0.222
 6602SOL     OW20704   6.849   1.346   1.581
 6602SOL    HW120705   6.945   1.340   1.553
 6602SOL    HW220706   6.844   1.380   1.675
 6603SOL     OW20707   2.161   3.677   3.196
 6603SOL    HW120708   2.254   3.666   3.160
 6603SOL    HW220709   2.109   3.738   3.135
 6604SOL     OW20710   3.469   5.690   2.617
 6604SOL    HW120711   3.557   5.650   2.645
 6604SOL    HW220712   3.436   5.643   2.536
 6605SOL     OW20713   5.946   6.026   0.233
 6605SOL    HW120714   5.926   6.026   0.135
 6605SOL    HW220715   6.027   6.081   0.251
 6606SOL     OW20716   5.314   1.107   2.526
 6606SOL    HW120717   5.306   1.013   2.559
 6606SOL    HW220718   5.235   1.160   2.556
 6607SOL     OW20719   1.834   1.653   1.999
 6607SOL    HW120720   1.906   1.720   2.018
 6607SOL    HW220721   1.770   1.650   2.076
 6608SOL     OW20722   5.912   3.626   3.920
 6608SOL    HW120723   5.973   3.608   3.843
 6608SOL    HW220724   5.851   3.702   3.898
 6609SOL     OW20725   5.518   1.107   5.832
 6609SOL    HW120726   5.527   1.054   5.916
 6609SOL    HW220727   5.499   1.203   5.854
 6610SOL     OW20728   2.379   0.491   7.000
 6610SOL    HW120729   2.286   0.490   6.963
 6610SOL    HW220730   2.375   0.511   0.073
 6611SOL     OW20731   5.603   2.364   2.606
 6611SOL    HW120732   5.608   2.455   2.647
 6611SOL    HW220733   5.637   2.296   2.671
 6612SOL     OW20734   1.721   6.633   6.726
 6612SOL    HW120735   1.642   6.679   6.685
 6612SOL    HW220736   1.715   6.535   6.708
 6613SOL     OW20737   4.904   5.211   1.886
 6613SOL    HW120738   4.885   5.302   1.923
 6613SOL    HW220739   4.973   5.217   1.814
 6614SOL     OW20740   4.926   5.780   6.253
 6614SOL    HW120741   4.853   5.800   6.188
 6614SOL    HW220742   5.010   5.826   6.224
 6615SOL     OW20743   0.934   3.919   5.295
 6615SOL    HW120744   1.012   3.892   5.239
 6615SOL    HW220745   0.946   4.014   5.324
 6616SOL     OW20746   4.855   0.793   4.599
 6616SOL    HW120747   4.912   0.849   4.538
 6616SOL    HW220748   4.904   0.777   4.685
 6617SOL     OW20749   3.930   6.991   5.408
 6617SOL    HW120750   4.001   6.929   5.442
 6617SOL    HW220751   3.972   0.052   5.381
 6618SOL     OW20752   0.963   4.471   1.675
 6618SOL    HW120753   0.893   4.499   1.740
 6618SOL    HW220754   1.051   4.509   1.701
 6619SOL     OW20755   4.890   5.699   2.456
 6619SOL    HW120756   4.831   5.648   2.520
 6619SOL    HW220757   4.931   5.777   2.503
 6620SOL     OW20758   1.455   2.754   5.716
 6620SOL    HW120759   1.460   2.766   5.816
 6620SOL    HW220760   1.530   2.805   5.673
 6621SOL     OW20761   2.719   4.333   0.239
 6621SOL    HW120762   2.782   4.410   0.226
 6621SOL    HW220763   2.769   4.254   0.273
 6622SOL     OW20764   0.008   6.144   0.386
 6622SOL    HW120765   0.045   6.088   0.312
 6622SOL    HW220766   6.944   6.179   0.360
 6623SOL     OW20767   3.176   3.524   2.224
 6623SOL    HW120768   3.095   3.469   2.240
 6623SOL    HW220769   3.171   3.608   2.278
 6624SOL     OW20770   4.196   4.730   4.178
 6624SOL    HW120771   4.119   4.791   4.156
 6624SOL    HW220772   4.214   4.734   4.276
 6625SOL     OW20773   6.081   0.740   6.951
 6625SOL    HW120774   6.144   0.669   6.920
 6625SOL    HW220775   6.125   0.796   7.022
 6626SOL     OW20776   3.983   5.287   3.408
 6626SOL    HW120777   3.984   5.342   3.324
 6626SOL    HW220778   3.933   5.335   3.479
 6627SOL     OW20779   2.149   0.198   0.704
 6627SOL    HW120780   2.190   0.142   0.776
 6627SOL    HW220781   2.136   0.292   0.738
 6628SOL     OW20782   4.142   5.725   3.020
 6628SOL    HW120783   4.220   5.664   3.005
 6628SOL    HW220784   4.145   5.799   2.953
 6629SOL     OW20785   3.015   5.061   0.775
 6629SOL    HW120786   2.961   5.070   0.859
 6629SOL    HW220787   3.080   5.137   0.768
 6630SOL     OW20788   3.323   1.806   0.168
 6630SOL    HW120789   3.397   1.754   0.208
 6630SOL    HW220790   3.285   1.868   0.236
 6631SOL     OW20791   5.080   0.577   2.569
 6631SOL    HW120792   5.007   0.644   2.567
 6631SOL    HW220793   5.141   0.591   2.490
 6632SOL     OW20794   6.728   0.815   1.227
 6632SOL    HW120795   6.671   0.893   1.253
 6632SOL    HW220796   6.703   0.785   1.134
 6633SOL     OW20797   1.833   6.613   1.033
 6633SOL    HW120798   1.902   6.568   0.976
 6633SOL    HW220799   1.742   6.591   0.999
 6634SOL     OW20800   6.954   2.617   6.160
 6634SOL    HW120801   7.004   2.533   6.180
 6634SOL    HW220802   7.006   2.672   6.095
 6635SOL     OW20803   4.590   4.739   3.099
 6635SOL    HW120804   4.516   4.676   3.075
 6635SOL    HW220805   4.678   4.694   3.084
 6636SOL     OW20806   2.351   2.350   4.253
 6636SOL    HW120807   2.276   2.390   4.306
 6636SOL    HW220808   2.356   2.252   4.270
 6637SOL     OW20809   6.957   0.131   1.064
 6637SOL    HW120810   0.010   0.121   1.125
 6637SOL    HW220811   6.934   0.228   1.055
 6638SOL     OW20812   2.530   5.857   5.677
 6638SOL    HW120813   2.465   5.926   5.708
 6638SOL    HW220814   2.487   5.798   5.609
 6639SOL     OW20815   5.626   5.566   6.852
 6639SOL    HW120816   5.619   5.489   6.916
 6639SOL    HW220817   5.678   5.640   6.895
 6640SOL     OW20818   6.671   2.449   3.343
 6640SOL    HW120819   6.719   2.363   3.326
 6640SOL    HW220820   6.640   2.452   3.438
 6641SOL     OW20821   2.212   4.315   6.100
 6641SOL    HW120822   2.181   4.377   6.172
 6641SOL    HW220823   2.309   4.330   6.082
 6642SOL     OW20824   0.368   5.862   6.696
 6642SOL    HW120825   0.308   5.923   6.643
 6642SOL    HW220826   0.456   5.854   6.650
 6643SOL     OW20827   5.008   4.629   6.529
 6643SOL    HW120828   5.037   4.545   6.482
 6643SOL    HW220829   5.039   4.626   6.624
 6644SOL     OW20830   3.056   4.802   2.141
 6644SOL    HW120831   3.144   4.833   2.104
 6644SOL    HW220832   3.035   4.712   2.103
 6645SOL     OW20833   0.400   5.175   5.648
 6645SOL    HW120834   0.417   5.116   5.570
 6645SOL    HW220835   0.302   5.177   5.668
 6646SOL     OW20836   2.444   5.577   3.931
 6646SOL    HW120837   2.419   5.498   3.876
 6646SOL    HW220838   2.362   5.632   3.949
 6647SOL     OW20839   3.532   1.813   2.008
 6647SOL    HW120840   3.512   1.831   1.912
 6647SOL    HW220841   3.512   1.717   2.029
 6648SOL     OW20842   5.147   5.657   2.376
 6648SOL    HW120843   5.058   5.692   2.402
 6648SOL    HW220844   5.136   5.579   2.314
 6649SOL     OW20845   3.928   2.264   6.614
 6649SOL    HW120846   3.870   2.182   6.613
 6649SOL    HW220847   3.940   2.297   6.521
 6650SOL     OW20848   4.106   1.949   3.442
 6650SOL    HW120849   4.060   2.034   3.467
 6650SOL    HW220850   4.054   1.871   3.478
 6651SOL     OW20851   0.502   2.969   6.727
 6651SOL    HW120852   0.565   3.046   6.735
 6651SOL    HW220853   0.549   2.891   6.688
 6652SOL     OW20854   6.935   5.690   2.399
 6652SOL    HW120855   6.845   5.732   2.415
 6652SOL    HW220856   6.923   5.598   2.363
 6653SOL     OW20857   3.392   3.864   3.952
 6653SOL    HW120858   3.304   3.910   3.949
 6653SOL    HW220859   3.410   3.833   4.045
 6654SOL     OW20860   2.359   3.202   1.753
 6654SOL    HW120861   2.385   3.290   1.792
 6654SOL    HW220862   2.441   3.144   1.744
 6655SOL     OW20863   2.871   6.525   1.827
 6655SOL    HW120864   2.893   6.594   1.758
 6655SOL    HW220865   2.780   6.487   1.809
 6656SOL     OW20866   6.459   2.454   1.301
 6656SOL    HW120867   6.497   2.533   1.253
 6656SOL    HW220868   6.377   2.421   1.253
 6657SOL     OW20869   3.019   6.359   6.459
 6657SOL    HW120870   2.923   6.346   6.435
 6657SOL    HW220871   3.067   6.405   6.384
 6658SOL     OW20872   5.501   1.501   5.225
 6658SOL    HW120873   5.480   1.431   5.157
 6658SOL    HW220874   5.505   1.590   5.180
 6659SOL     OW20875   2.026   2.933   0.333
 6659SOL    HW120876   2.107   2.875   0.322
 6659SOL    HW220877   1.972   2.900   0.411
 6660SOL     OW20878   6.732   6.806   2.936
 6660SOL    HW120879   6.651   6.863   2.947
 6660SOL    HW220880   6.732   6.734   3.006
 6661SOL     OW20881   0.549   5.974   3.381
 6661SOL    HW120882   0.556   5.875   3.383
 6661SOL    HW220883   0.468   6.001   3.330
 6662SOL     OW20884   1.566   2.104   0.121
 6662SOL    HW120885   1.534   2.050   0.199
 6662SOL    HW220886   1.507   2.086   0.043
 6663SOL     OW20887   6.983   5.845   2.740
 6663SOL    HW120888   0.032   5.831   2.675
 6663SOL    HW220889   6.924   5.918   2.707
 6664SOL     OW20890   1.465   0.880   2.753
 6664SOL    HW120891   1.408   0.801   2.776
 6664SOL    HW220892   1.550   0.877   2.806
 6665SOL     OW20893   2.011   6.538   2.714
 6665SOL    HW120894   2.082   6.562   2.648
 6665SOL    HW220895   1.921   6.559   2.676
 6666SOL     OW20896   5.883   0.603   6.245
 6666SOL    HW120897   5.864   0.567   6.154
 6666SOL    HW220898   5.799   0.641   6.284
 6667SOL     OW20899   6.643   4.622   5.087
 6667SOL    HW120900   6.661   4.717   5.063
 6667SOL    HW220901   6.694   4.562   5.026
 6668SOL     OW20902   1.254   4.653   1.675
 6668SOL    HW120903   1.315   4.597   1.620
 6668SOL    HW220904   1.305   4.695   1.750
 6669SOL     OW20905   1.815   5.708   2.950
 6669SOL    HW120906   1.896   5.725   3.006
 6669SOL    HW220907   1.733   5.707   3.007
 6670SOL     OW20908   3.696   4.912   0.569
 6670SOL    HW120909   3.610   4.962   0.577
 6670SOL    HW220910   3.766   4.970   0.527
 6671SOL     OW20911   6.651   3.185   4.871
 6671SOL    HW120912   6.556   3.215   4.864
 6671SOL    HW220913   6.681   3.192   4.966
 6672SOL     OW20914   1.073   1.188   5.823
 6672SOL    HW120915   1.064   1.173   5.922
 6672SOL    HW220916   1.155   1.142   5.790
 6673SOL     OW20917   4.645   4.718   1.568
 6673SOL    HW120918   4.717   4.777   1.604
 6673SOL    HW220919   4.628   4.643   1.632
 6674SOL     OW20920   0.820   6.400   4.364
 6674SOL    HW120921   0.739   6.446   4.327
 6674SOL    HW220922   0.794   6.349   4.447
 6675SOL     OW20923   5.848   4.895   0.388
 6675SOL    HW120924   5.828   4.993   0.394
 6675SOL    HW220925   5.764   4.845   0.373
 6676SOL     OW20926   0.729   2.275   6.027
 6676SOL    HW120927   0.825   2.278   6.001
 6676SOL    HW220928   0.678   2.345   5.977
 6677SOL     OW20929   0.836   3.123   0.531
 6677SOL    HW120930   0.736   3.121   0.527
 6677SOL    HW220931   0.870   3.200   0.478
 6678SOL     OW20932   0.647   2.944   5.928
 6678SOL    HW120933   0.741   2.976   5.917
 6678SOL    HW220934   0.620   2.891   5.848
 6679SOL     OW20935   2.139   2.359   4.844
 6679SOL    HW120936   2.199   2.382   4.768
 6679SOL    HW220937   2.154   2.264   4.871
 6680SOL     OW20938   3.377   6.773   6.406
 6680SOL    HW120939   3.438   6.706   6.362
 6680SOL    HW220940   3.386   6.861   6.359
 6681SOL     OW20941   5.173   5.208   0.879
 6681SOL    HW120942   5.177   5.249   0.788
 6681SOL    HW220943   5.141   5.276   0.945
 6682SOL     OW20944   0.712   5.433   2.337
 6682SOL    HW120945   0.808   5.413   2.356
 6682SOL    HW220946   0.680   5.373   2.264
 6683SOL     OW20947   5.216   1.880   4.509
 6683SOL    HW120948   5.139   1.860   4.569
 6683SOL    HW220949   5.295   1.823   4.534
 6684SOL     OW20950   1.927   6.773   2.475
 6684SOL    HW120951   1.984   6.853   2.492
 6684SOL    HW220952   1.875   6.750   2.558
 6685SOL     OW20953   4.737   3.352   6.574
 6685SOL    HW120954   4.779   3.262   6.558
 6685SOL    HW220955   4.730   3.368   6.672
 6686SOL     OW20956   6.358   3.805   2.897
 6686SOL    HW120957   6.275   3.765   2.933
 6686SOL    HW220958   6.336   3.861   2.816
 6687SOL     OW20959   0.911   2.007   0.701
 6687SOL    HW120960   0.968   2.074   0.654
 6687SOL    HW220961   0.912   1.921   0.651
 6688SOL     OW20962   0.785   4.614   2.503
 6688SOL    HW120963   0.873   4.567   2.505
 6688SOL    HW220964   0.729   4.576   2.429
 6689SOL     OW20965   4.622   4.797   0.110
 6689SOL    HW120966   4.680   4.797   0.191
 6689SOL    HW220967   4.543   4.856   0.126
 6690SOL     OW20968   2.094   2.412   0.765
 6690SOL    HW120969   2.132   2.375   0.850
 6690SOL    HW220970   2.123   2.507   0.753
 6691SOL     OW20971   2.634   4.579   1.387
 6691SOL    HW120972   2.721   4.561   1.433
 6691SOL    HW220973   2.559   4.567   1.452
 6692SOL     OW20974   3.457   4.195   5.493
 6692SOL    HW120975   3.505   4.281   5.473
 6692SOL    HW220976   3.426   4.196   5.588
 6693SOL     OW20977   4.307   3.387   5.338
 6693SOL    HW120978   4.251   3.412   5.259
 6693SOL    HW220979   4.383   3.451   5.346
 6694SOL     OW20980   3.818   5.607   0.986
 6694SOL    HW120981   3.823   5.591   1.085
 6694SOL    HW220982   3.862   5.531   0.938
 6695SOL     OW20983   1.500   1.717   6.815
 6695SOL    HW120984   1.549   1.643   6.862
 6695SOL    HW220985   1.402   1.705   6.828
 6696SOL     OW20986   1.825   3.078   1.954
 6696SOL    HW120987   1.918   3.042   1.955
 6696SOL    HW220988   1.825   3.172   1.989
 6697SOL     OW20989   4.783   1.322   3.134
 6697SOL    HW120990   4.802   1.380   3.055
 6697SOL    HW220991   4.848   1.245   3.135
 6698SOL     OW20992   3.663   3.528   0.095
 6698SOL    HW120993   3.589   3.595   0.087
 6698SOL    HW220994   3.741   3.557   0.040
 6699SOL     OW20995   2.004   4.154   6.770
 6699SOL    HW120996   1.918   4.159   6.719
 6699SOL    HW220997   2.038   4.060   6.770
 6700SOL     OW20998   0.132   5.471   0.780
 6700SOL    HW120999   0.129   5.527   0.698
 6700SOL    HW221000   0.051   5.488   0.836
 6701SOL     OW21001   0.106   1.733   0.789
 6701SOL    HW121002   0.083   1.820   0.832
 6701SOL    HW221003   0.133   1.667   0.860
 6702SOL     OW21004   2.843   1.722   1.352
 6702SOL    HW121005   2.880   1.766   1.270
 6702SOL    HW221006   2.744   1.730   1.352
 6703SOL     OW21007   6.950   1.610   6.646
 6703SOL    HW121008   6.980   1.647   6.734
 6703SOL    HW221009   6.874   1.547   6.660
 6704SOL     OW21010   5.281   1.667   2.355
 6704SOL    HW121011   5.245   1.583   2.315
 6704SOL    HW221012   5.271   1.742   2.290
 6705SOL     OW21013   5.493   1.633   0.279
 6705SOL    HW121014   5.495   1.585   0.191
 6705SOL    HW221015   5.535   1.723   0.268
 6706SOL     OW21016   0.384   4.332   6.256
 6706SOL    HW121017   0.318   4.265   6.221
 6706SOL    HW221018   0.476   4.293   6.253
 6707SOL     OW21019   1.029   5.879   2.567
 6707SOL    HW121020   1.002   5.901   2.474
 6707SOL    HW221021   1.125   5.903   2.580
 6708SOL     OW21022   1.995   6.421   1.563
 6708SOL    HW121023   1.937   6.352   1.606
 6708SOL    HW221024   1.991   6.506   1.616
 6709SOL     OW21025   4.743   1.371   2.438
 6709SOL    HW121026   4.746   1.275   2.466
 6709SOL    HW221027   4.648   1.398   2.420
 6710SOL     OW21028   3.092   2.500   0.293
 6710SOL    HW121029   3.058   2.593   0.307
 6710SOL    HW221030   3.192   2.502   0.283
 6711SOL     OW21031   4.071   4.336   0.513
 6711SOL    HW121032   3.979   4.324   0.478
 6711SOL    HW221033   4.126   4.256   0.491
 6712SOL     OW21034   3.915   6.077   0.136
 6712SOL    HW121035   3.957   6.042   0.219
 6712SOL    HW221036   3.843   6.015   0.106
 6713SOL     OW21037   1.940   2.012   1.532
 6713SOL    HW121038   1.910   1.937   1.474
 6713SOL    HW221039   1.976   1.976   1.618
 6714SOL     OW21040   6.398   0.594   4.425
 6714SOL    HW121041   6.323   0.618   4.488
 6714SOL    HW221042   6.365   0.527   4.358
 6715SOL     OW21043   0.520   1.113   0.830
 6715SOL    HW121044   0.583   1.138   0.756
 6715SOL    HW221045   0.568   1.119   0.917
 6716SOL     OW21046   1.860   6.193   1.019
 6716SOL    HW121047   1.801   6.112   1.023
 6716SOL    HW221048   1.904   6.197   0.929
 6717SOL     OW21049   3.942   1.794   6.567
 6717SOL    HW121050   3.895   1.735   6.633
 6717SOL    HW221051   3.890   1.878   6.553
 6718SOL     OW21052   3.223   0.183   0.689
 6718SOL    HW121053   3.124   0.183   0.703
 6718SOL    HW221054   3.251   0.095   0.650
 6719SOL     OW21055   6.706   0.062   5.053
 6719SOL    HW121056   6.736   0.104   5.139
 6719SOL    HW221057   6.774   0.079   4.982
 6720SOL     OW21058   2.128   4.392   1.590
 6720SOL    HW121059   2.159   4.477   1.547
 6720SOL    HW221060   2.031   4.400   1.613
 6721SOL     OW21061   5.419   6.270   3.871
 6721SOL    HW121062   5.357   6.329   3.819
 6721SOL    HW221063   5.457   6.200   3.810
 6722SOL     OW21064   4.252   3.288   6.648
 6722SOL    HW121065   4.327   3.333   6.601
 6722SOL    HW221066   4.286   3.211   6.701
 6723SOL     OW21067   4.466   6.563   2.642
 6723SOL    HW121068   4.447   6.553   2.739
 6723SOL    HW221069   4.541   6.627   2.629
 6724SOL     OW21070   3.280   5.092   4.854
 6724SOL    HW121071   3.200   5.068   4.909
 6724SOL    HW221072   3.272   5.049   4.764
 6725SOL     OW21073   0.263   4.508   2.522
 6725SOL    HW121074   0.323   4.548   2.591
 6725SOL    HW221075   0.174   4.553   2.525
 6726SOL     OW21076   2.484   2.250   3.483
 6726SOL    HW121077   2.494   2.237   3.384
 6726SOL    HW221078   2.403   2.306   3.501
 6727SOL     OW21079   3.546   3.738   7.011
 6727SOL    HW121080   3.602   3.775   6.936
 6727SOL    HW221081   3.449   3.749   6.988
 6728SOL     OW21082   4.090   1.379   3.755
 6728SOL    HW121083   4.020   1.347   3.820
 6728SOL    HW221084   4.055   1.371   3.662
 6729SOL     OW21085   5.940   0.816   2.152
 6729SOL    HW121086   5.931   0.754   2.074
 6729SOL    HW221087   6.024   0.795   2.202
 6730SOL     OW21088   2.538   1.052   0.742
 6730SOL    HW121089   2.600   1.031   0.666
 6730SOL    HW221090   2.591   1.088   0.819
 6731SOL     OW21091   2.739   4.742   1.794
 6731SOL    HW121092   2.809   4.699   1.851
 6731SOL    HW221093   2.655   4.688   1.798
 6732SOL     OW21094   2.220   5.135   1.051
 6732SOL    HW121095   2.241   5.088   1.137
 6732SOL    HW221096   2.198   5.231   1.070
 6733SOL     OW21097   5.243   5.986   5.423
 6733SOL    HW121098   5.258   6.085   5.418
 6733SOL    HW221099   5.231   5.959   5.518
 6734SOL     OW21100   2.443   3.721   5.668
 6734SOL    HW121101   2.495   3.708   5.584
 6734SOL    HW221102   2.442   3.635   5.720
 6735SOL     OW21103   0.347   5.174   6.091
 6735SOL    HW121104   0.377   5.267   6.071
 6735SOL    HW221105   0.250   5.175   6.117
 6736SOL     OW21106   2.124   3.497   2.207
 6736SOL    HW121107   2.192   3.490   2.134
 6736SOL    HW221108   2.091   3.591   2.213
 6737SOL     OW21109   2.793   0.805   1.301
 6737SOL    HW121110   2.853   0.726   1.288
 6737SOL    HW221111   2.791   0.829   1.398
 6738SOL     OW21112   3.390   1.285   2.559
 6738SOL    HW121113   3.434   1.328   2.638
 6738SOL    HW221114   3.298   1.257   2.584
 6739SOL     OW21115   3.640   6.343   4.685
 6739SOL    HW121116   3.669   6.257   4.643
 6739SOL    HW221117   3.624   6.328   4.783
 6740SOL     OW21118   0.136   2.264   4.456
 6740SOL    HW121119   0.117   2.362   4.450
 6740SOL    HW221120   0.218   2.249   4.511
 6741SOL     OW21121   6.359   0.009   6.204
 6741SOL    HW121122   6.338   0.040   6.111
 6741SOL    HW221123   6.301   0.059   6.269
 6742SOL     OW21124   6.350   5.950   5.996
 6742SOL    HW121125   6.402   5.882   6.047
 6742SOL    HW221126   6.254   5.921   5.989
 6743SOL     OW21127   4.666   3.369   0.842
 6743SOL    HW121128   4.759   3.377   0.806
 6743SOL    HW221129   4.654   3.279   0.884
 6744SOL     OW21130   4.883   4.586   5.526
 6744SOL    HW121131   4.805   4.524   5.517
 6744SOL    HW221132   4.885   4.649   5.448
 6745SOL     OW21133   0.231   4.430   3.678
 6745SOL    HW121134   0.200   4.525   3.684
 6745SOL    HW221135   0.256   4.397   3.769
 6746SOL     OW21136   0.292   1.289   0.780
 6746SOL    HW121137   0.376   1.237   0.793
 6746SOL    HW221138   0.216   1.243   0.827
 6747SOL     OW21139   5.557   6.248   5.668
 6747SOL    HW121140   5.579   6.243   5.570
 6747SOL    HW221141   5.466   6.211   5.683
 6748SOL     OW21142   0.221   0.358   2.182
 6748SOL    HW121143   0.132   0.404   2.182
 6748SOL    HW221144   0.232   0.305   2.266
 6749SOL     OW21145   3.936   6.394   1.247
 6749SOL    HW121146   3.980   6.327   1.188
 6749SOL    HW221147   4.005   6.450   1.291
 6750SOL     OW21148   2.591   3.276   5.319
 6750SOL    HW121149   2.675   3.223   5.330
 6750SOL    HW221150   2.524   3.222   5.267
 6751SOL     OW21151   3.304   2.036   5.485
 6751SOL    HW121152   3.343   1.965   5.426
 6751SOL    HW221153   3.245   2.096   5.432
 6752SOL     OW21154   6.233   1.598   0.148
 6752SOL    HW121155   6.248   1.522   0.212
 6752SOL    HW221156   6.301   1.594   0.075
 6753SOL     OW21157   5.056   1.993   6.590
 6753SOL    HW121158   5.013   2.084   6.591
 6753SOL    HW221159   5.150   2.000   6.623
 6754SOL     OW21160   5.856   0.667   0.311
 6754SOL    HW121161   5.879   0.587   0.255
 6754SOL    HW221162   5.773   0.710   0.275
 6755SOL     OW21163   4.634   2.174   3.461
 6755SOL    HW121164   4.604   2.262   3.497
 6755SOL    HW221165   4.572   2.102   3.492
 6756SOL     OW21166   5.030   4.616   4.521
 6756SOL    HW121167   5.110   4.569   4.484
 6756SOL    HW221168   5.054   4.712   4.539
 6757SOL     OW21169   5.723   5.228   1.761
 6757SOL    HW121170   5.684   5.264   1.676
 6757SOL    HW221171   5.655   5.237   1.834
 6758SOL     OW21172   5.419   2.624   2.787
 6758SOL    HW121173   5.393   2.718   2.764
 6758SOL    HW221174   5.388   2.562   2.715
 6759SOL     OW21175   0.159   4.687   3.655
 6759SOL    HW121176   0.202   4.751   3.719
 6759SOL    HW221177   0.122   4.737   3.577
 6760SOL     OW21178   6.914   4.138   4.641
 6760SOL    HW121179   6.909   4.214   4.576
 6760SOL    HW221180   6.834   4.079   4.629
 6761SOL     OW21181   5.102   3.337   6.478
 6761SOL    HW121182   5.121   3.417   6.534
 6761SOL    HW221183   5.016   3.295   6.507
 6762SOL     OW21184   5.696   5.017   4.243
 6762SOL    HW121185   5.767   5.039   4.176
 6762SOL    HW221186   5.625   5.087   4.242
 6763SOL     OW21187   5.414   6.451   5.823
 6763SOL    HW121188   5.320   6.424   5.845
 6763SOL    HW221189   5.454   6.383   5.762
 6764SOL     OW21190   2.412   4.061   6.780
 6764SOL    HW121191   2.489   4.007   6.814
 6764SOL    HW221192   2.338   4.000   6.753
 6765SOL     OW21193   5.822   5.091   2.802
 6765SOL    HW121194   5.843   5.168   2.862
 6765SOL    HW221195   5.768   5.122   2.725
 6766SOL     OW21196   1.418   1.219   5.314
 6766SOL    HW121197   1.509   1.188   5.342
 6766SOL    HW221198   1.375   1.149   5.257
 6767SOL     OW21199   0.334   2.518   6.299
 6767SOL    HW121200   0.421   2.539   6.343
 6767SOL    HW221201   0.350   2.479   6.208
 6768SOL     OW21202   0.467   0.192   5.420
 6768SOL    HW121203   0.435   0.162   5.510
 6768SOL    HW221204   0.567   0.198   5.420
 6769SOL     OW21205   2.207   3.388   6.349
 6769SOL    HW121206   2.256   3.311   6.310
 6769SOL    HW221207   2.108   3.370   6.346
 6770SOL     OW21208   0.322   1.767   3.350
 6770SOL    HW121209   0.248   1.750   3.285
 6770SOL    HW221210   0.317   1.700   3.424
 6771SOL     OW21211   3.928   1.305   2.740
 6771SOL    HW121212   3.888   1.393   2.713
 6771SOL    HW221213   3.861   1.252   2.792
 6772SOL     OW21214   1.040   0.823   2.272
 6772SOL    HW121215   1.013   0.917   2.249
 6772SOL    HW221216   0.959   0.765   2.275
 6773SOL     OW21217   1.088   6.971   1.089
 6773SOL    HW121218   1.058   6.935   1.177
 6773SOL    HW221219   1.043   6.922   1.015
 6774SOL     OW21220   2.632   2.340   6.193
 6774SOL    HW121221   2.658   2.327   6.097
 6774SOL    HW221222   2.660   2.260   6.246
 6775SOL     OW21223   0.555   2.427   4.761
 6775SOL    HW121224   0.566   2.339   4.809
 6775SOL    HW221225   0.623   2.433   4.688
 6776SOL     OW21226   3.878   3.651   3.129
 6776SOL    HW121227   3.796   3.669   3.184
 6776SOL    HW221228   3.851   3.624   3.037
 6777SOL     OW21229   7.023   6.239   6.386
 6777SOL    HW121230   6.974   6.197   6.462
 6777SOL    HW221231   6.963   6.306   6.342
 6778SOL     OW21232   5.993   6.227   1.698
 6778SOL    HW121233   6.044   6.268   1.774
 6778SOL    HW221234   5.954   6.299   1.641
 6779SOL     OW21235   4.965   3.966   6.592
 6779SOL    HW121236   4.903   4.027   6.542
 6779SOL    HW221237   5.045   4.018   6.622
 6780SOL     OW21238   3.776   2.162   2.776
 6780SOL    HW121239   3.722   2.112   2.708
 6780SOL    HW221240   3.862   2.192   2.735
 6781SOL     OW21241   6.447   2.182   3.169
 6781SOL    HW121242   6.525   2.128   3.136
 6781SOL    HW221243   6.376   2.185   3.099
 6782SOL     OW21244   0.029   2.110   2.980
 6782SOL    HW121245   0.078   2.122   2.894
 6782SOL    HW221246   0.089   2.064   3.046
 6783SOL     OW21247   0.278   5.515   6.347
 6783SOL    HW121248   0.200   5.481   6.399
 6783SOL    HW221249   0.351   5.542   6.410
 6784SOL     OW21250   2.087   3.998   1.451
 6784SOL    HW121251   2.004   4.037   1.411
 6784SOL    HW221252   2.166   4.024   1.395
 6785SOL     OW21253   5.708   5.396   4.307
 6785SOL    HW121254   5.803   5.363   4.311
 6785SOL    HW221255   5.647   5.320   4.288
 6786SOL     OW21256   5.522   1.908   6.010
 6786SOL    HW121257   5.571   1.849   6.075
 6786SOL    HW221258   5.575   1.915   5.926
 6787SOL     OW21259   3.032   2.085   0.438
 6787SOL    HW121260   3.003   2.007   0.493
 6787SOL    HW221261   3.012   2.067   0.342
 6788SOL     OW21262   0.571   4.617   1.705
 6788SOL    HW121263   0.602   4.633   1.611
 6788SOL    HW221264   0.649   4.600   1.764
 6789SOL     OW21265   5.224   4.715   3.345
 6789SOL    HW121266   5.147   4.668   3.388
 6789SOL    HW221267   5.244   4.672   3.257
 6790SOL     OW21268   0.982   4.984   6.671
 6790SOL    HW121269   1.067   4.935   6.652
 6790SOL    HW221270   0.926   4.932   6.736
 6791SOL     OW21271   2.750   6.735   2.827
 6791SOL    HW121272   2.740   6.664   2.897
 6791SOL    HW221273   2.703   6.706   2.744
 6792SOL     OW21274   4.431   0.021   5.915
 6792SOL    HW121275   4.436   0.009   5.816
 6792SOL    HW221276   4.492   0.095   5.943
 6793SOL     OW21277   2.086   3.566   5.859
 6793SOL    HW121278   2.060   3.622   5.937
 6793SOL    HW221279   2.175   3.524   5.876
 6794SOL     OW21280   6.038   2.415   5.440
 6794SOL    HW121281   6.109   2.483   5.420
 6794SOL    HW221282   5.957   2.435   5.384
 6795SOL     OW21283   1.426   0.964   1.695
 6795SOL    HW121284   1.360   0.962   1.771
 6795SOL    HW221285   1.513   0.926   1.726
 6796SOL     OW21286   6.896   1.670   2.559
 6796SOL    HW121287   6.978   1.627   2.598
 6796SOL    HW221288   6.835   1.698   2.633
 6797SOL     OW21289   1.228   3.389   1.144
 6797SOL    HW121290   1.178   3.458   1.091
 6797SOL    HW221291   1.248   3.310   1.086
 6798SOL     OW21292   5.316   0.767   1.882
 6798SOL    HW121293   5.310   0.828   1.961
 6798SOL    HW221294   5.376   0.808   1.813
 6799SOL     OW21295   5.924   6.504   3.422
 6799SOL    HW121296   5.878   6.546   3.343
 6799SOL    HW221297   6.006   6.556   3.444
 6800SOL     OW21298   6.615   3.266   1.600
 6800SOL    HW121299   6.540   3.297   1.658
 6800SOL    HW221300   6.582   3.248   1.508
 6801SOL     OW21301   0.736   6.143   6.510
 6801SOL    HW121302   0.679   6.061   6.511
 6801SOL    HW221303   0.790   6.148   6.594
 6802SOL     OW21304   3.090   4.739   1.816
 6802SOL    HW121305   3.037   4.669   1.865
 6802SOL    HW221306   3.077   4.827   1.861
 6803SOL     OW21307   5.239   5.507   6.131
 6803SOL    HW121308   5.274   5.417   6.156
 6803SOL    HW221309   5.201   5.551   6.212
 6804SOL     OW21310   3.557   5.391   2.826
 6804SOL    HW121311   3.612   5.463   2.783
 6804SOL    HW221312   3.525   5.327   2.755
 6805SOL     OW21313   0.188   4.257   4.302
 6805SOL    HW121314   0.288   4.263   4.299
 6805SOL    HW221315   0.150   4.315   4.230
 6806SOL     OW21316   6.313   3.166   1.584
 6806SOL    HW121317   6.228   3.123   1.553
 6806SOL    HW221318   6.344   3.232   1.516
 6807SOL     OW21319   3.144   4.027   2.170
 6807SOL    HW121320   3.073   3.977   2.218
 6807SOL    HW221321   3.117   4.041   2.074
 6808SOL     OW21322   3.346   1.129   3.924
 6808SOL    HW121323   3.385   1.049   3.880
 6808SOL    HW221324   3.410   1.205   3.918
 6809SOL     OW21325   5.883   2.891   6.931
 6809SOL    HW121326   5.960   2.948   6.959
 6809SOL    HW221327   5.801   2.948   6.922
 6810SOL     OW21328   2.826   0.886   4.491
 6810SOL    HW121329   2.870   0.875   4.402
 6810SOL    HW221330   2.840   0.805   4.547
 6811SOL     OW21331   6.127   0.678   0.531
 6811SOL    HW121332   6.190   0.753   0.514
 6811SOL    HW221333   6.077   0.695   0.616
 6812SOL     OW21334   3.632   4.440   5.467
 6812SOL    HW121335   3.608   4.535   5.447
 6812SOL    HW221336   3.687   4.436   5.551
 6813SOL     OW21337   0.204   3.446   2.582
 6813SOL    HW121338   0.115   3.417   2.617
 6813SOL    HW221339   0.208   3.546   2.580
 6814SOL     OW21340   5.612   0.484   0.587
 6814SOL    HW121341   5.621   0.386   0.567
 6814SOL    HW221342   5.516   0.511   0.581
 6815SOL     OW21343   0.983   5.614   6.388
 6815SOL    HW121344   1.028   5.579   6.307
 6815SOL    HW221345   0.979   5.543   6.458
 6816SOL     OW21346   7.001   0.255   4.037
 6816SOL    HW121347   6.973   0.247   4.133
 6816SOL    HW221348   0.013   0.167   4.006
 6817SOL     OW21349   4.081   2.040   1.266
 6817SOL    HW121350   4.031   2.086   1.193
 6817SOL    HW221351   4.125   2.109   1.325
 6818SOL     OW21352   1.367   6.798   4.994
 6818SOL    HW121353   1.373   6.711   5.044
 6818SOL    HW221354   1.453   6.847   5.003
 6819SOL     OW21355   4.633   4.437   1.760
 6819SOL    HW121356   4.631   4.397   1.668
 6819SOL    HW221357   4.579   4.380   1.822
 6820SOL     OW21358   2.640   5.177   1.912
 6820SOL    HW121359   2.582   5.102   1.943
 6820SOL    HW221360   2.736   5.147   1.908
 6821SOL     OW21361   3.605   2.699   5.300
 6821SOL    HW121362   3.530   2.749   5.258
 6821SOL    HW221363   3.581   2.602   5.306
 6822SOL     OW21364   5.811   3.274   5.288
 6822SOL    HW121365   5.735   3.231   5.238
 6822SOL    HW221366   5.822   3.368   5.256
 6823SOL     OW21367   0.173   2.797   5.428
 6823SOL    HW121368   0.094   2.815   5.486
 6823SOL    HW221369   0.142   2.752   5.344
 6824SOL     OW21370   0.681   6.828   5.244
 6824SOL    HW121371   0.707   6.776   5.325
 6824SOL    HW221372   0.760   6.838   5.184
 6825SOL     OW21373   4.175   4.197   0.973
 6825SOL    HW121374   4.099   4.217   1.034
 6825SOL    HW221375   4.251   4.159   1.026
 6826SOL     OW21376   6.225   6.931   3.871
 6826SOL    HW121377   6.199   0.002   3.881
 6826SOL    HW221378   6.142   6.875   3.867
 6827SOL     OW21379   4.690   5.672   5.178
 6827SOL    HW121380   4.609   5.627   5.141
 6827SOL    HW221381   4.698   5.763   5.139
 6828SOL     OW21382   3.430   1.922   2.505
 6828SOL    HW121383   3.402   1.924   2.409
 6828SOL    HW221384   3.411   1.832   2.544
 6829SOL     OW21385   3.952   6.912   3.205
 6829SOL    HW121386   3.941   6.937   3.301
 6829SOL    HW221387   3.919   6.986   3.147
 6830SOL     OW21388   4.370   4.844   2.460
 6830SOL    HW121389   4.361   4.920   2.523
 6830SOL    HW221390   4.463   4.841   2.424
 6831SOL     OW21391   1.447   1.761   6.142
 6831SOL    HW121392   1.517   1.736   6.075
 6831SOL    HW221393   1.459   1.857   6.169
 6832SOL     OW21394   2.610   2.458   6.579
 6832SOL    HW121395   2.619   2.422   6.672
 6832SOL    HW221396   2.548   2.400   6.527
 6833SOL     OW21397   3.810   5.418   6.181
 6833SOL    HW121398   3.744   5.404   6.254
 6833SOL    HW221399   3.765   5.412   6.092
 6834SOL     OW21400   6.412   6.706   6.701
 6834SOL    HW121401   6.420   6.687   6.799
 6834SOL    HW221402   6.334   6.655   6.664
 6835SOL     OW21403   2.531   1.152   4.257
 6835SOL    HW121404   2.631   1.159   4.262
 6835SOL    HW221405   2.497   1.101   4.336
 6836SOL     OW21406   1.546   4.874   6.798
 6836SOL    HW121407   1.584   4.965   6.783
 6836SOL    HW221408   1.454   4.869   6.760
 6837SOL     OW21409   6.382   0.746   2.438
 6837SOL    HW121410   6.463   0.758   2.382
 6837SOL    HW221411   6.361   0.649   2.447
 6838SOL     OW21412   2.949   4.146   5.270
 6838SOL    HW121413   3.007   4.096   5.205
 6838SOL    HW221414   2.917   4.231   5.227
 6839SOL     OW21415   6.017   3.222   4.433
 6839SOL    HW121416   5.973   3.246   4.519
 6839SOL    HW221417   6.111   3.192   4.451
 6840SOL     OW21418   3.006   6.444   4.371
 6840SOL    HW121419   3.011   6.461   4.272
 6840SOL    HW221420   3.077   6.379   4.397
 6841SOL     OW21421   5.322   6.632   1.235
 6841SOL    HW121422   5.265   6.609   1.156
 6841SOL    HW221423   5.385   6.556   1.254
 6842SOL     OW21424   0.197   3.319   4.588
 6842SOL    HW121425   0.204   3.263   4.670
 6842SOL    HW221426   0.258   3.282   4.517
 6843SOL     OW21427   4.131   2.203   1.490
 6843SOL    HW121428   4.155   2.184   1.585
 6843SOL    HW221429   4.038   2.241   1.487
 6844SOL     OW21430   3.763   5.436   4.290
 6844SOL    HW121431   3.737   5.486   4.207
 6844SOL    HW221432   3.680   5.403   4.336
 6845SOL     OW21433   3.845   4.514   0.989
 6845SOL    HW121434   3.843   4.478   0.896
 6845SOL    HW221435   3.779   4.589   0.997
 6846SOL     OW21436   3.220   2.986   2.407
 6846SOL    HW121437   3.259   3.076   2.388
 6846SOL    HW221438   3.209   2.936   2.322
 6847SOL     OW21439   6.267   3.587   1.923
 6847SOL    HW121440   6.296   3.524   1.852
 6847SOL    HW221441   6.312   3.565   2.009
 6848SOL     OW21442   6.683   6.586   3.641
 6848SOL    HW121443   6.692   6.553   3.735
 6848SOL    HW221444   6.762   6.643   3.618
 6849SOL     OW21445   3.564   6.638   4.286
 6849SOL    HW121446   3.579   6.539   4.283
 6849SOL    HW221447   3.467   6.656   4.304
 6850SOL     OW21448   5.386   3.278   1.189
 6850SOL    HW121449   5.309   3.280   1.126
 6850SOL    HW221450   5.401   3.369   1.227
 6851SOL     OW21451   1.829   6.116   5.249
 6851SOL    HW121452   1.919   6.149   5.221
 6851SOL    HW221453   1.806   6.034   5.197
 6852SOL     OW21454   0.576   4.818   1.879
 6852SOL    HW121455   0.555   4.750   1.809
 6852SOL    HW221456   0.623   4.773   1.955
 6853SOL     OW21457   6.685   3.812   5.674
 6853SOL    HW121458   6.760   3.792   5.738
 6853SOL    HW221459   6.606   3.757   5.697
 6854SOL     OW21460   0.416   1.885   6.585
 6854SOL    HW121461   0.363   1.805   6.558
 6854SOL    HW221462   0.380   1.922   6.670
 6855SOL     OW21463   3.405   6.046   1.622
 6855SOL    HW121464   3.355   6.087   1.545
 6855SOL    HW221465   3.465   6.115   1.662
 6856SOL     OW21466   0.063   4.295   5.359
 6856SOL    HW121467   0.140   4.351   5.391
 6856SOL    HW221468   7.010   4.309   5.420
 6857SOL     OW21469   4.722   1.312   5.532
 6857SOL    HW121470   4.628   1.306   5.567
 6857SOL    HW221471   4.738   1.404   5.496
 6858SOL     OW21472   3.796   3.052   4.996
 6858SOL    HW121473   3.734   3.121   5.033
 6858SOL    HW221474   3.827   2.992   5.069
 6859SOL     OW21475   3.354   0.167   0.148
 6859SOL    HW121476   3.444   0.122   0.142
 6859SOL    HW221477   3.363   0.252   0.198
 6860SOL     OW21478   4.795   4.829   0.325
 6860SOL    HW121479   4.805   4.776   0.409
 6860SOL    HW221480   4.867   4.803   0.261
 6861SOL     OW21481   5.961   4.409   0.826
 6861SOL    HW121482   5.912   4.330   0.791
 6861SOL    HW221483   5.921   4.437   0.914
 6862SOL     OW21484   3.646   5.672   3.546
 6862SOL    HW121485   3.564   5.657   3.602
 6862SOL    HW221486   3.711   5.728   3.597
 6863SOL     OW21487   6.984   2.629   4.256
 6863SOL    HW121488   7.021   2.614   4.165
 6863SOL    HW221489   6.889   2.659   4.249
 6864SOL     OW21490   4.272   5.770   5.449
 6864SOL    HW121491   4.224   5.682   5.444
 6864SOL    HW221492   4.211   5.843   5.417
 6865SOL     OW21493   5.813   3.468   4.284
 6865SOL    HW121494   5.891   3.494   4.227
 6865SOL    HW221495   5.786   3.374   4.262
 6866SOL     OW21496   0.598   3.616   2.275
 6866SOL    HW121497   0.539   3.595   2.197
 6866SOL    HW221498   0.694   3.606   2.248
 6867SOL     OW21499   2.442   4.334   2.274
 6867SOL    HW121500   2.514   4.327   2.206
 6867SOL    HW221501   2.441   4.427   2.311
 6868SOL     OW21502   2.105   5.511   5.070
 6868SOL    HW121503   2.162   5.430   5.059
 6868SOL    HW221504   2.074   5.518   5.166
 6869SOL     OW21505   6.084   3.855   5.261
 6869SOL    HW121506   6.178   3.830   5.241
 6869SOL    HW221507   6.081   3.943   5.308
 6870SOL     OW21508   5.077   4.243   2.717
 6870SOL    HW121509   5.133   4.326   2.706
 6870SOL    HW221510   5.130   4.174   2.766
 6871SOL     OW21511   5.271   0.238   1.979
 6871SOL    HW121512   5.250   0.330   1.945
 6871SOL    HW221513   5.195   0.204   2.034
 6872SOL     OW21514   3.055   3.670   6.852
 6872SOL    HW121515   2.981   3.727   6.814
 6872SOL    HW221516   3.064   3.587   6.797
 6873SOL     OW21517   4.959   4.341   5.992
 6873SOL    HW121518   4.893   4.356   5.918
 6873SOL    HW221519   5.040   4.398   5.978
 6874SOL     OW21520   0.946   2.734   5.690
 6874SOL    HW121521   1.035   2.695   5.667
 6874SOL    HW221522   0.895   2.753   5.606
 6875SOL     OW21523   2.914   1.909   4.152
 6875SOL    HW121524   2.904   1.992   4.207
 6875SOL    HW221525   2.936   1.934   4.058
 6876SOL     OW21526   3.292   5.964   6.082
 6876SOL    HW121527   3.196   5.988   6.095
 6876SOL    HW221528   3.349   6.033   6.127
 6877SOL     OW21529   2.830   4.495   6.758
 6877SOL    HW121530   2.813   4.399   6.737
 6877SOL    HW221531   2.768   4.552   6.704
 6878SOL     OW21532   1.683   1.765   4.883
 6878SOL    HW121533   1.613   1.770   4.812
 6878SOL    HW221534   1.646   1.716   4.962
 6879SOL     OW21535   1.076   1.458   5.870
 6879SOL    HW121536   1.071   1.361   5.849
 6879SOL    HW221537   1.099   1.471   5.966
 6880SOL     OW21538   1.993   4.644   4.771
 6880SOL    HW121539   1.901   4.675   4.798
 6880SOL    HW221540   2.026   4.576   4.837
 6881SOL     OW21541   6.577   4.650   1.378
 6881SOL    HW121542   6.641   4.645   1.301
 6881SOL    HW221543   6.486   4.626   1.347
 6882SOL     OW21544   1.967   6.972   5.037
 6882SOL    HW121545   1.986   6.936   4.945
 6882SOL    HW221546   2.042   6.948   5.098
 6883SOL     OW21547   3.309   5.603   1.534
 6883SOL    HW121548   3.232   5.634   1.590
 6883SOL    HW221549   3.358   5.530   1.581
 6884SOL     OW21550   2.939   4.753   3.000
 6884SOL    HW121551   3.014   4.763   2.934
 6884SOL    HW221552   2.968   4.787   3.089
 6885SOL     OW21553   3.344   5.348   4.753
 6885SOL    HW121554   3.249   5.350   4.721
 6885SOL    HW221555   3.354   5.277   4.822
 6886SOL     OW21556   5.760   2.073   2.995
 6886SOL    HW121557   5.797   2.121   2.915
 6886SOL    HW221558   5.674   2.029   2.970
 6887SOL     OW21559   5.621   0.659   4.937
 6887SOL    HW121560   5.542   0.603   4.916
 6887SOL    HW221561   5.676   0.672   4.855
 6888SOL     OW21562   5.741   5.972   4.610
 6888SOL    HW121563   5.819   5.996   4.669
 6888SOL    HW221564   5.756   6.010   4.519
 6889SOL     OW21565   1.591   3.933   5.684
 6889SOL    HW121566   1.558   3.905   5.594
 6889SOL    HW221567   1.654   3.864   5.720
 6890SOL     OW21568   2.253   0.644   0.222
 6890SOL    HW121569   2.338   0.628   0.274
 6890SOL    HW221570   2.181   0.584   0.257
 6891SOL     OW21571   3.484   4.973   4.259
 6891SOL    HW121572   3.570   5.023   4.270
 6891SOL    HW221573   3.415   5.033   4.219
 6892SOL     OW21574   3.685   0.803   3.928
 6892SOL    HW121575   3.725   0.745   3.857
 6892SOL    HW221576   3.590   0.823   3.904
 6893SOL     OW21577   5.568   6.734   2.153
 6893SOL    HW121578   5.504   6.782   2.213
 6893SOL    HW221579   5.525   6.652   2.116
 6894SOL     OW21580   6.124   4.418   6.350
 6894SOL    HW121581   6.025   4.405   6.343
 6894SOL    HW221582   6.167   4.397   6.263
 6895SOL     OW21583   4.146   5.393   6.328
 6895SOL    HW121584   4.104   5.480   6.304
 6895SOL    HW221585   4.217   5.371   6.261
 6896SOL     OW21586   4.410   6.805   3.103
 6896SOL    HW121587   4.406   6.740   3.179
 6896SOL    HW221588   4.395   6.897   3.138
 6897SOL     OW21589   3.386   1.888   0.422
 6897SOL    HW121590   3.481   1.870   0.394
 6897SOL    HW221591   3.367   1.838   0.506
 6898SOL     OW21592   4.187   1.642   2.701
 6898SOL    HW121593   4.104   1.673   2.656
 6898SOL    HW221594   4.164   1.582   2.777
 6899SOL     OW21595   5.239   6.408   6.994
 6899SOL    HW121596   5.184   6.459   0.035
 6899SOL    HW221597   5.335   6.412   7.021
 6900SOL     OW21598   3.840   1.489   5.524
 6900SOL    HW121599   3.880   1.549   5.455
 6900SOL    HW221600   3.775   1.540   5.580
 6901SOL     OW21601   1.147   0.565   0.116
 6901SOL    HW121602   1.145   0.637   0.185
 6901SOL    HW221603   1.065   0.572   0.058
 6902SOL     OW21604   6.596   5.246   0.926
 6902SOL    HW121605   6.556   5.323   0.878
 6902SOL    HW221606   6.686   5.225   0.887
 6903SOL     OW21607   4.364   3.490   1.281
 6903SOL    HW121608   4.352   3.538   1.194
 6903SOL    HW221609   4.319   3.542   1.354
 6904SOL     OW21610   0.372   1.877   2.830
 6904SOL    HW121611   0.385   1.779   2.847
 6904SOL    HW221612   0.342   1.921   2.914
 6905SOL     OW21613   4.295   5.226   1.365
 6905SOL    HW121614   4.262   5.224   1.459
 6905SOL    HW221615   4.351   5.145   1.347
 6906SOL     OW21616   4.610   6.345   3.218
 6906SOL    HW121617   4.654   6.425   3.177
 6906SOL    HW221618   4.681   6.283   3.254
 6907SOL     OW21619   3.712   1.613   1.613
 6907SOL    HW121620   3.788   1.673   1.586
 6907SOL    HW221621   3.625   1.654   1.586
 6908SOL     OW21622   0.737   6.818   6.228
 6908SOL    HW121623   0.823   6.773   6.203
 6908SOL    HW221624   0.691   6.766   6.300
 6909SOL     OW21625   4.719   3.342   6.851
 6909SOL    HW121626   4.798   3.377   6.901
 6909SOL    HW221627   4.639   3.397   6.872
 6910SOL     OW21628   6.716   1.467   2.252
 6910SOL    HW121629   6.781   1.450   2.178
 6910SOL    HW221630   6.633   1.414   2.236
 6911SOL     OW21631   4.039   0.723   4.855
 6911SOL    HW121632   4.109   0.755   4.919
 6911SOL    HW221633   4.009   0.632   4.881
 6912SOL     OW21634   4.748   5.374   0.731
 6912SOL    HW121635   4.713   5.396   0.822
 6912SOL    HW221636   4.785   5.281   0.730
 6913SOL     OW21637   5.373   5.359   5.252
 6913SOL    HW121638   5.400   5.303   5.331
 6913SOL    HW221639   5.441   5.349   5.180
 6914SOL     OW21640   6.020   5.026   0.678
 6914SOL    HW121641   5.929   5.058   0.653
 6914SOL    HW221642   6.070   5.000   0.595
 6915SOL     OW21643   1.033   5.537   1.100
 6915SOL    HW121644   0.937   5.559   1.120
 6915SOL    HW221645   1.037   5.479   1.018
 6916SOL     OW21646   6.786   1.251   6.827
 6916SOL    HW121647   6.700   1.204   6.851
 6916SOL    HW221648   6.767   1.347   6.807
 6917SOL     OW21649   4.415   6.894   6.497
 6917SOL    HW121650   4.342   6.907   6.429
 6917SOL    HW221651   4.442   6.798   6.498
 6918SOL     OW21652   1.983   2.957   3.379
 6918SOL    HW121653   1.955   3.024   3.449
 6918SOL    HW221654   2.061   2.993   3.328
 6919SOL     OW21655   1.781   6.405   3.204
 6919SOL    HW121656   1.710   6.334   3.204
 6919SOL    HW221657   1.741   6.493   3.180
 6920SOL     OW21658   4.880   6.321   5.019
 6920SOL    HW121659   4.792   6.299   4.977
 6920SOL    HW221660   4.876   6.412   5.062
 6921SOL     OW21661   7.025   0.167   3.202
 6921SOL    HW121662   6.973   0.087   3.233
 6921SOL    HW221663   0.097   0.151   3.216
 6922SOL     OW21664   1.686   5.869   0.532
 6922SOL    HW121665   1.605   5.839   0.483
 6922SOL    HW221666   1.687   5.827   0.623
 6923SOL     OW21667   4.569   6.782   4.099
 6923SOL    HW121668   4.640   6.841   4.059
 6923SOL    HW221669   4.590   6.767   4.196
 6924SOL     OW21670   0.162   5.781   1.230
 6924SOL    HW121671   0.256   5.773   1.264
 6924SOL    HW221672   0.164   5.785   1.130
 6925SOL     OW21673   5.938   6.016   2.556
 6925SOL    HW121674   5.947   6.079   2.479
 6925SOL    HW221675   5.851   6.033   2.603
 6926SOL     OW21676   3.002   3.558   4.968
 6926SOL    HW121677   3.024   3.486   4.901
 6926SOL    HW221678   2.938   3.521   5.036
 6927SOL     OW21679   4.507   3.892   5.991
 6927SOL    HW121680   4.561   3.975   5.974
 6927SOL    HW221681   4.541   3.846   6.073
 6928SOL     OW21682   5.753   0.054   6.329
 6928SOL    HW121683   5.704   7.023   6.396
 6928SOL    HW221684   5.837   0.089   6.371
 6929SOL     OW21685   3.253   5.331   0.024
 6929SOL    HW121686   3.210   5.305   6.963
 6929SOL    HW221687   3.291   5.249   0.067
 6930SOL     OW21688   1.063   6.151   3.373
 6930SOL    HW121689   1.146   6.134   3.425
 6930SOL    HW221690   1.005   6.216   3.422
 6931SOL     OW21691   1.764   1.396   1.302
 6931SOL    HW121692   1.845   1.340   1.285
 6931SOL    HW221693   1.735   1.438   1.216
 6932SOL     OW21694   2.687   2.771   0.765
 6932SOL    HW121695   2.591   2.746   0.779
 6932SOL    HW221696   2.693   2.841   0.694
 6933SOL     OW21697   3.610   6.540   6.360
 6933SOL    HW121698   3.668   6.613   6.394
 6933SOL    HW221699   3.603   6.467   6.429
 6934SOL     OW21700   5.955   3.359   6.364
 6934SOL    HW121701   5.922   3.317   6.448
 6934SOL    HW221702   5.986   3.452   6.382
 6935SOL     OW21703   4.259   5.449   3.035
 6935SOL    HW121704   4.210   5.376   2.988
 6935SOL    HW221705   4.303   5.413   3.117
 6936SOL     OW21706   1.735   4.598   1.541
 6936SOL    HW121707   1.710   4.679   1.595
 6936SOL    HW221708   1.756   4.626   1.448
 6937SOL     OW21709   4.667   6.663   5.514
 6937SOL    HW121710   4.659   6.725   5.592
 6937SOL    HW221711   4.760   6.625   5.512
 6938SOL     OW21712   5.009   2.083   5.053
 6938SOL    HW121713   5.078   2.138   5.005
 6938SOL    HW221714   4.964   2.140   5.123
 6939SOL     OW21715   1.071   4.324   2.597
 6939SOL    HW121716   1.059   4.323   2.696
 6939SOL    HW221717   1.096   4.232   2.566
 6940SOL     OW21718   4.436   0.740   5.330
 6940SOL    HW121719   4.464   0.645   5.319
 6940SOL    HW221720   4.356   0.745   5.390
 6941SOL     OW21721   3.827   3.097   3.082
 6941SOL    HW121722   3.741   3.046   3.084
 6941SOL    HW221723   3.860   3.112   3.175
 6942SOL     OW21724   6.557   1.783   0.035
 6942SOL    HW121725   6.633   1.799   0.097
 6942SOL    HW221726   6.542   1.864   7.003
 6943SOL     OW21727   4.906   6.110   6.294
 6943SOL    HW121728   5.004   6.107   6.274
 6943SOL    HW221729   4.855   6.124   6.209
 6944SOL     OW21730   1.832   6.498   5.913
 6944SOL    HW121731   1.802   6.525   6.004
 6944SOL    HW221732   1.837   6.398   5.907
 6945SOL     OW21733   5.076   2.682   6.334
 6945SOL    HW121734   5.119   2.765   6.297
 6945SOL    HW221735   5.148   2.619   6.365
 6946SOL     OW21736   6.178   4.367   3.529
 6946SOL    HW121737   6.195   4.463   3.553
 6946SOL    HW221738   6.083   4.344   3.550
 6947SOL     OW21739   3.474   6.990   2.926
 6947SOL    HW121740   3.558   6.942   2.953
 6947SOL    HW221741   3.395   6.935   2.951
 6948SOL     OW21742   3.870   1.744   5.417
 6948SOL    HW121743   3.815   1.807   5.472
 6948SOL    HW221744   3.954   1.790   5.388
 6949SOL     OW21745   5.303   0.478   2.705
 6949SOL    HW121746   5.226   0.500   2.646
 6949SOL    HW221747   5.374   0.431   2.652
 6950SOL     OW21748   1.606   0.928   3.354
 6950SOL    HW121749   1.615   0.922   3.453
 6950SOL    HW221750   1.580   0.838   3.317
 6951SOL     OW21751   6.068   5.159   5.873
 6951SOL    HW121752   6.097   5.091   5.941
 6951SOL    HW221753   6.021   5.234   5.920
 6952SOL     OW21754   0.506   4.828   4.550
 6952SOL    HW121755   0.589   4.811   4.497
 6952SOL    HW221756   0.456   4.742   4.561
 6953SOL     OW21757   5.359   1.541   4.756
 6953SOL    HW121758   5.375   1.615   4.690
 6953SOL    HW221759   5.326   1.460   4.708
 6954SOL     OW21760   1.143   4.130   3.048
 6954SOL    HW121761   1.235   4.160   3.021
 6954SOL    HW221762   1.113   4.182   3.128
 6955SOL     OW21763   6.385   5.544   2.572
 6955SOL    HW121764   6.357   5.618   2.510
 6955SOL    HW221765   6.365   5.456   2.529
 6956SOL     OW21766   3.358   4.763   1.695
 6956SOL    HW121767   3.429   4.722   1.753
 6956SOL    HW221768   3.268   4.740   1.733
 6957SOL     OW21769   0.779   4.373   0.477
 6957SOL    HW121770   0.841   4.295   0.468
 6957SOL    HW221771   0.711   4.370   0.405
 6958SOL     OW21772   2.493   3.801   6.205
 6958SOL    HW121773   2.451   3.832   6.290
 6958SOL    HW221774   2.582   3.844   6.193
 6959SOL     OW21775   3.178   1.122   4.376
 6959SOL    HW121776   3.242   1.170   4.435
 6959SOL    HW221777   3.084   1.144   4.404
 6960SOL     OW21778   0.212   4.879   0.071
 6960SOL    HW121779   0.168   4.857   0.158
 6960SOL    HW221780   0.205   4.977   0.053
 6961SOL     OW21781   6.974   1.385   2.945
 6961SOL    HW121782   0.040   1.364   2.978
 6961SOL    HW221783   6.924   1.301   2.927
 6962SOL     OW21784   4.254   3.691   0.471
 6962SOL    HW121785   4.287   3.728   0.558
 6962SOL    HW221786   4.194   3.612   0.489
 6963SOL     OW21787   6.618   5.776   2.149
 6963SOL    HW121788   6.655   5.825   2.228
 6963SOL    HW221789   6.526   5.809   2.130
 6964SOL     OW21790   3.973   6.651   5.304
 6964SOL    HW121791   4.017   6.710   5.371
 6964SOL    HW221792   4.004   6.557   5.317
 6965SOL     OW21793   6.610   2.856   5.889
 6965SOL    HW121794   6.557   2.812   5.962
 6965SOL    HW221795   6.680   2.792   5.856
 6966SOL     OW21796   4.748   2.608   4.045
 6966SOL    HW121797   4.686   2.534   4.071
 6966SOL    HW221798   4.743   2.624   3.947
 6967SOL     OW21799   2.062   0.849   6.281
 6967SOL    HW121800   2.053   0.759   6.238
 6967SOL    HW221801   2.158   0.863   6.309
 6968SOL     OW21802   5.007   6.846   2.157
 6968SOL    HW121803   4.914   6.812   2.143
 6968SOL    HW221804   5.028   6.846   2.255
 6969SOL     OW21805   3.282   1.712   1.500
 6969SOL    HW121806   3.370   1.760   1.509
 6969SOL    HW221807   3.223   1.762   1.438
 6970SOL     OW21808   4.990   4.098   0.584
 6970SOL    HW121809   4.934   4.175   0.552
 6970SOL    HW221810   5.047   4.064   0.508
 6971SOL     OW21811   5.206   0.869   2.141
 6971SOL    HW121812   5.293   0.834   2.178
 6971SOL    HW221813   5.208   0.969   2.140
 6972SOL     OW21814   5.767   4.833   4.422
 6972SOL    HW121815   5.849   4.791   4.381
 6972SOL    HW221816   5.728   4.899   4.358
 6973SOL     OW21817   2.006   4.954   3.825
 6973SOL    HW121818   2.106   4.958   3.817
 6973SOL    HW221819   1.978   4.996   3.911
 6974SOL     OW21820   3.637   3.909   4.687
 6974SOL    HW121821   3.543   3.879   4.669
 6974SOL    HW221822   3.642   4.009   4.682
 6975SOL     OW21823   3.663   1.608   5.693
 6975SOL    HW121824   3.622   1.561   5.771
 6975SOL    HW221825   3.719   1.684   5.725
 6976SOL     OW21826   2.203   5.079   6.211
 6976SOL    HW121827   2.205   5.099   6.113
 6976SOL    HW221828   2.279   5.019   6.234
 6977SOL     OW21829   3.802   2.039   3.018
 6977SOL    HW121830   3.795   2.071   2.923
 6977SOL    HW221831   3.839   2.113   3.075
 6978SOL     OW21832   6.245   0.305   3.011
 6978SOL    HW121833   6.334   0.338   2.981
 6978SOL    HW221834   6.202   0.374   3.070
 6979SOL     OW21835   0.654   4.502   2.853
 6979SOL    HW121836   0.735   4.462   2.809
 6979SOL    HW221837   0.680   4.584   2.902
 6980SOL     OW21838   3.465   0.977   4.571
 6980SOL    HW121839   3.416   0.892   4.553
 6980SOL    HW221840   3.412   1.054   4.535
 6981SOL     OW21841   2.931   4.968   6.445
 6981SOL    HW121842   2.952   4.882   6.491
 6981SOL    HW221843   2.851   4.955   6.386
 6982SOL     OW21844   0.233   0.015   4.687
 6982SOL    HW121845   0.187   7.020   4.601
 6982SOL    HW221846   0.329   7.011   4.681
 6983SOL     OW21847   6.234   0.590   3.725
 6983SOL    HW121848   6.188   0.509   3.690
 6983SOL    HW221849   6.284   0.566   3.809
 6984SOL     OW21850   1.771   1.239   5.996
 6984SOL    HW121851   1.674   1.261   5.991
 6984SOL    HW221852   1.800   1.198   5.909
 6985SOL     OW21853   5.532   5.674   1.614
 6985SOL    HW121854   5.474   5.617   1.673
 6985SOL    HW221855   5.521   5.646   1.519
 6986SOL     OW21856   2.012   0.005   4.758
 6986SOL    HW121857   2.106   6.999   4.742
 6986SOL    HW221858   2.000   0.096   4.718
 6987SOL     OW21859   0.351   3.560   6.590
 6987SOL    HW121860   0.255   3.541   6.573
 6987SOL    HW221861   0.398   3.578   6.503
 6988SOL     OW21862   5.227   0.638   4.065
 6988SOL    HW121863   5.257   0.721   4.018
 6988SOL    HW221864   5.193   0.662   4.156
 6989SOL     OW21865   1.875   2.470   4.083
 6989SOL    HW121866   1.794   2.512   4.122
 6989SOL    HW221867   1.937   2.541   4.050
 6990SOL     OW21868   3.805   3.206   0.427
 6990SOL    HW121869   3.783   3.304   0.427
 6990SOL    HW221870   3.849   3.182   0.514
 6991SOL     OW21871   4.093   4.526   5.608
 6991SOL    HW121872   4.111   4.452   5.673
 6991SOL    HW221873   4.012   4.577   5.636
 6992SOL     OW21874   5.198   6.664   4.819
 6992SOL    HW121875   5.233   6.679   4.912
 6992SOL    HW221876   5.119   6.602   4.824
 6993SOL     OW21877   0.468   0.335   3.218
 6993SOL    HW121878   0.470   0.298   3.125
 6993SOL    HW221879   0.559   0.330   3.258
 6994SOL     OW21880   1.582   2.685   0.000
 6994SOL    HW121881   1.609   2.731   0.085
 6994SOL    HW221882   1.618   2.592   0.000
 6995SOL     OW21883   0.514   5.853   3.031
 6995SOL    HW121884   0.437   5.797   3.063
 6995SOL    HW221885   0.591   5.793   3.010
 6996SOL     OW21886   2.445   6.947   5.857
 6996SOL    HW121887   2.393   6.863   5.872
 6996SOL    HW221888   2.383   0.000   5.858
 6997SOL     OW21889   4.739   0.286   4.771
 6997SOL    HW121890   4.677   0.362   4.788
 6997SOL    HW221891   4.688   0.200   4.769
 6998SOL     OW21892   1.271   2.747   3.249
 6998SOL    HW121893   1.319   2.722   3.165
 6998SOL    HW221894   1.331   2.733   3.327
 6999SOL     OW21895   3.508   1.885   6.341
 6999SOL    HW121896   3.447   1.840   6.276
 6999SOL    HW221897   3.465   1.969   6.375
 7000SOL     OW21898   0.306   6.380   1.808
 7000SOL    HW121899   0.312   6.418   1.716
 7000SOL    HW221900   0.238   6.431   1.861
 7001SOL     OW21901   2.767   2.746   5.697
 7001SOL    HW121902   2.758   2.715   5.602
 7001SOL    HW221903   2.857   2.720   5.732
 7002SOL     OW21904   1.504   4.699   3.336
 7002SOL    HW121905   1.416   4.721   3.379
 7002SOL    HW221906   1.491   4.625   3.270
 7003SOL     OW21907   2.719   6.027   0.618
 7003SOL    HW121908   2.726   5.929   0.640
 7003SOL    HW221909   2.769   6.080   0.686
 7004SOL     OW21910   1.469   4.392   1.299
 7004SOL    HW121911   1.480   4.467   1.364
 7004SOL    HW221912   1.457   4.429   1.207
 7005SOL     OW21913   5.195   6.830   5.457
 7005SOL    HW121914   5.172   6.924   5.432
 7005SOL    HW221915   5.289   6.826   5.491
 7006SOL     OW21916   4.314   4.751   4.830
 7006SOL    HW121917   4.328   4.664   4.877
 7006SOL    HW221918   4.365   4.752   4.744
 7007SOL     OW21919   4.930   5.011   2.823
 7007SOL    HW121920   4.880   4.924   2.822
 7007SOL    HW221921   4.870   5.083   2.859
 7008SOL     OW21922   0.552   4.939   4.227
 7008SOL    HW121923   0.616   5.016   4.219
 7008SOL    HW221924   0.600   4.860   4.265
 7009SOL     OW21925   0.451   4.907   2.475
 7009SOL    HW121926   0.376   4.893   2.540
 7009SOL    HW221927   0.419   4.888   2.382
 7010SOL     OW21928   4.143   4.943   6.310
 7010SOL    HW121929   4.236   4.968   6.335
 7010SOL    HW221930   4.083   5.022   6.321
 7011SOL     OW21931   2.764   1.211   5.182
 7011SOL    HW121932   2.744   1.297   5.229
 7011SOL    HW221933   2.737   1.218   5.086
 7012SOL     OW21934   1.247   1.013   2.206
 7012SOL    HW121935   1.192   0.930   2.218
 7012SOL    HW221936   1.323   1.012   2.272
 7013SOL     OW21937   1.005   0.675   1.986
 7013SOL    HW121938   0.947   0.692   2.065
 7013SOL    HW221939   0.967   0.721   1.906
 7014SOL     OW21940   2.424   4.590   1.562
 7014SOL    HW121941   2.480   4.560   1.640
 7014SOL    HW221942   2.360   4.660   1.591
 7015SOL     OW21943   5.097   2.958   2.503
 7015SOL    HW121944   5.083   2.876   2.558
 7015SOL    HW221945   5.008   2.997   2.477
 7016SOL     OW21946   3.373   5.384   1.288
 7016SOL    HW121947   3.329   5.439   1.359
 7016SOL    HW221948   3.465   5.358   1.319
 7017SOL     OW21949   3.814   1.050   3.864
 7017SOL    HW121950   3.806   1.131   3.921
 7017SOL    HW221951   3.745   0.983   3.893
 7018SOL     OW21952   0.716   5.413   4.063
 7018SOL    HW121953   0.715   5.371   3.972
 7018SOL    HW221954   0.644   5.482   4.069
 7019SOL     OW21955   2.173   5.983   7.009
 7019SOL    HW121956   2.151   5.929   0.065
 7019SOL    HW221957   2.232   5.929   6.949
 7020SOL     OW21958   6.229   6.349   6.144
 7020SOL    HW121959   6.159   6.304   6.088
 7020SOL    HW221960   6.231   6.447   6.124
 7021SOL     OW21961   2.690   1.493   5.769
 7021SOL    HW121962   2.616   1.483   5.702
 7021SOL    HW221963   2.777   1.468   5.726
 7022SOL     OW21964   5.054   4.882   0.012
 7022SOL    HW121965   5.012   4.934   6.963
 7022SOL    HW221966   5.083   4.944   0.084
 7023SOL     OW21967   6.081   3.970   2.741
 7023SOL    HW121968   6.036   4.006   2.659
 7023SOL    HW221969   6.079   3.870   2.738
 7024SOL     OW21970   0.296   6.008   0.199
 7024SOL    HW121971   0.294   6.104   0.171
 7024SOL    HW221972   0.314   6.002   0.297
 7025SOL     OW21973   2.370   1.210   5.484
 7025SOL    HW121974   2.319   1.221   5.398
 7025SOL    HW221975   2.441   1.140   5.472
 7026SOL     OW21976   4.061   2.407   0.895
 7026SOL    HW121977   4.083   2.446   0.985
 7026SOL    HW221978   4.141   2.360   0.859
 7027SOL     OW21979   4.365   6.860   4.485
 7027SOL    HW121980   4.330   6.885   4.576
 7027SOL    HW221981   4.290   6.865   4.419
 7028SOL     OW21982   3.999   0.234   4.521
 7028SOL    HW121983   3.975   0.285   4.438
 7028SOL    HW221984   3.918   0.224   4.579
 7029SOL     OW21985   3.230   0.881   5.930
 7029SOL    HW121986   3.198   0.813   5.996
 7029SOL    HW221987   3.158   0.899   5.863
 7030SOL     OW21988   1.812   4.077   4.812
 7030SOL    HW121989   1.850   3.986   4.832
 7030SOL    HW221990   1.738   4.068   4.745
 7031SOL     OW21991   2.479   6.067   4.389
 7031SOL    HW121992   2.527   5.985   4.357
 7031SOL    HW221993   2.493   6.142   4.324
 7032SOL     OW21994   6.144   1.377   2.249
 7032SOL    HW121995   6.134   1.449   2.180
 7032SOL    HW221996   6.164   1.418   2.338
 7033SOL     OW21997   6.439   0.519   3.925
 7033SOL    HW121998   6.440   0.437   3.866
 7033SOL    HW221999   6.518   0.576   3.903
 7034SOL     OW22000   6.406   6.078   3.181
 7034SOL    HW122001   6.327   6.061   3.123
 7034SOL    HW222002   6.377   6.125   3.265
 7035SOL     OW22003   6.702   5.522   1.568
 7035SOL    HW122004   6.709   5.570   1.655
 7035SOL    HW222005   6.611   5.537   1.529
 7036SOL     OW22006   6.463   4.313   1.711
 7036SOL    HW122007   6.399   4.386   1.691
 7036SOL    HW222008   6.437   4.268   1.797
 7037SOL     OW22009   1.427   6.889   6.250
 7037SOL    HW122010   1.368   6.953   6.202
 7037SOL    HW222011   1.469   6.826   6.185
 7038SOL     OW22012   1.252   4.093   4.080
 7038SOL    HW122013   1.309   4.155   4.133
 7038SOL    HW222014   1.273   3.998   4.104
 7039SOL     OW22015   4.026   1.271   6.935
 7039SOL    HW122016   3.989   1.326   6.860
 7039SOL    HW222017   4.114   1.233   6.907
 7040SOL     OW22018   4.434   2.769   6.206
 7040SOL    HW122019   4.399   2.677   6.192
 7040SOL    HW222020   4.422   2.795   6.302
 7041SOL     OW22021   2.566   2.003   2.373
 7041SOL    HW122022   2.569   2.101   2.393
 7041SOL    HW222023   2.653   1.975   2.331
 7042SOL     OW22024   2.347   0.453   6.620
 7042SOL    HW122025   2.416   0.525   6.634
 7042SOL    HW222026   2.392   0.364   6.613
 7043SOL     OW22027   1.672   2.021   2.778
 7043SOL    HW122028   1.682   1.967   2.695
 7043SOL    HW222029   1.665   1.960   2.857
 7044SOL     OW22030   4.987   5.919   2.586
 7044SOL    HW122031   4.914   5.974   2.626
 7044SOL    HW222032   5.033   5.972   2.514
 7045SOL     OW22033   5.395   5.444   1.135
 7045SOL    HW122034   5.455   5.364   1.131
 7045SOL    HW222035   5.301   5.416   1.118
 7046SOL     OW22036   2.969   0.510   5.129
 7046SOL    HW122037   2.958   0.595   5.181
 7046SOL    HW222038   3.066   0.487   5.125
 7047SOL     OW22039   1.560   1.159   4.266
 7047SOL    HW122040   1.472   1.112   4.275
 7047SOL    HW222041   1.576   1.215   4.347
 7048SOL     OW22042   6.569   6.567   0.320
 7048SOL    HW122043   6.574   6.663   0.346
 7048SOL    HW222044   6.646   6.517   0.359
 7049SOL     OW22045   2.682   1.206   0.943
 7049SOL    HW122046   2.711   1.205   1.038
 7049SOL    HW222047   2.762   1.199   0.883
 7050SOL     OW22048   3.837   4.142   4.818
 7050SOL    HW122049   3.743   4.160   4.788
 7050SOL    HW222050   3.899   4.205   4.772
 7051SOL     OW22051   6.477   6.678   2.336
 7051SOL    HW122052   6.400   6.728   2.376
 7051SOL    HW222053   6.553   6.676   2.401
 7052SOL     OW22054   6.773   2.251   3.630
 7052SOL    HW122055   6.780   2.225   3.726
 7052SOL    HW222056   6.847   2.315   3.608
 7053SOL     OW22057   0.340   4.796   6.865
 7053SOL    HW122058   0.302   4.704   6.857
 7053SOL    HW222059   0.302   4.841   6.945
 7054SOL     OW22060   6.730   6.848   1.782
 7054SOL    HW122061   6.732   6.788   1.702
 7054SOL    HW222062   6.817   6.896   1.789
 7055SOL     OW22063   3.826   6.886   4.733
 7055SOL    HW122064   3.837   6.930   4.822
 7055SOL    HW222065   3.908   6.902   4.677
 7056SOL     OW22066   5.213   5.050   3.706
 7056SOL    HW122067   5.257   5.076   3.619
 7056SOL    HW222068   5.265   4.978   3.750
 7057SOL     OW22069   0.723   6.221   3.315
 7057SOL    HW122070   0.690   6.152   3.251
 7057SOL    HW222071   0.806   6.189   3.360
 7058SOL     OW22072   1.010   5.687   5.503
 7058SOL    HW122073   1.016   5.615   5.434
 7058SOL    HW222074   0.915   5.717   5.511
 7059SOL     OW22075   1.684   0.444   2.437
 7059SOL    HW122076   1.691   0.533   2.482
 7059SOL    HW222077   1.776   0.406   2.426
 7060SOL     OW22078   3.048   6.514   1.570
 7060SOL    HW122079   3.140   6.477   1.580
 7060SOL    HW222080   2.981   6.440   1.583
 7061SOL     OW22081   0.589   0.977   2.496
 7061SOL    HW122082   0.668   1.016   2.449
 7061SOL    HW222083   0.538   1.050   2.540
 7062SOL     OW22084   5.683   1.918   4.735
 7062SOL    HW122085   5.736   1.902   4.651
 7062SOL    HW222086   5.743   1.958   4.805
 7063SOL     OW22087   3.692   6.553   1.162
 7063SOL    HW122088   3.776   6.591   1.122
 7063SOL    HW222089   3.714   6.468   1.210
 7064SOL     OW22090   3.912   2.566   0.286
 7064SOL    HW122091   3.928   2.484   0.341
 7064SOL    HW222092   3.987   2.631   0.300
 7065SOL     OW22093   4.220   3.586   1.495
 7065SOL    HW122094   4.305   3.581   1.548
 7065SOL    HW222095   4.148   3.536   1.543
 7066SOL     OW22096   3.489   6.240   0.406
 7066SOL    HW122097   3.480   6.251   0.307
 7066SOL    HW222098   3.482   6.143   0.430
 7067SOL     OW22099   0.284   3.948   5.292
 7067SOL    HW122100   0.221   3.960   5.215
 7067SOL    HW222101   0.334   4.033   5.308
 7068SOL     OW22102   1.451   0.587   3.576
 7068SOL    HW122103   1.518   0.607   3.648
 7068SOL    HW222104   1.488   0.616   3.487
 7069SOL     OW22105   1.631   4.547   4.985
 7069SOL    HW122106   1.713   4.594   5.018
 7069SOL    HW222107   1.625   4.456   5.027
 7070SOL     OW22108   6.080   4.970   4.611
 7070SOL    HW122109   6.012   5.043   4.599
 7070SOL    HW222110   6.051   4.909   4.685
 7071SOL     OW22111   1.350   6.526   5.484
 7071SOL    HW122112   1.341   6.604   5.422
 7071SOL    HW222113   1.387   6.448   5.434
 7072SOL     OW22114   0.075   6.614   6.244
 7072SOL    HW122115   0.160   6.658   6.217
 7072SOL    HW222116   0.019   6.679   6.295
 7073SOL     OW22117   0.809   0.796   5.668
 7073SOL    HW122118   0.850   0.842   5.590
 7073SOL    HW222119   0.710   0.791   5.656
 7074SOL     OW22120   3.596   2.306   1.509
 7074SOL    HW122121   3.597   2.385   1.570
 7074SOL    HW222122   3.502   2.283   1.485
 7075SOL     OW22123   1.637   5.752   3.161
 7075SOL    HW122124   1.545   5.758   3.198
 7075SOL    HW222125   1.677   5.664   3.186
 7076SOL     OW22126   2.715   2.313   6.799
 7076SOL    HW122127   2.734   2.218   6.776
 7076SOL    HW222128   2.779   2.344   6.869
 7077SOL     OW22129   2.108   5.690   5.596
 7077SOL    HW122130   2.055   5.729   5.520
 7077SOL    HW222131   2.206   5.703   5.579
 7078SOL     OW22132   5.850   1.018   3.581
 7078SOL    HW122133   5.888   1.030   3.490
 7078SOL    HW222134   5.835   0.921   3.599
 7079SOL     OW22135   5.846   6.045   5.506
 7079SOL    HW122136   5.865   6.060   5.409
 7079SOL    HW222137   5.882   6.122   5.559
 7080SOL     OW22138   4.966   0.457   3.882
 7080SOL    HW122139   5.063   0.473   3.863
 7080SOL    HW222140   4.930   0.390   3.817
 7081SOL     OW22141   3.733   1.022   4.504
 7081SOL    HW122142   3.802   0.957   4.538
 7081SOL    HW222143   3.644   0.999   4.543
 7082SOL     OW22144   5.230   0.418   6.048
 7082SOL    HW122145   5.311   0.464   6.086
 7082SOL    HW222146   5.257   0.365   5.968
 7083SOL     OW22147   3.507   0.224   6.114
 7083SOL    HW122148   3.432   0.270   6.067
 7083SOL    HW222149   3.503   0.244   6.212
 7084SOL     OW22150   6.752   6.464   6.008
 7084SOL    HW122151   6.781   6.382   5.959
 7084SOL    HW222152   6.653   6.464   6.020
 7085SOL     OW22153   2.595   2.073   1.396
 7085SOL    HW122154   2.637   2.082   1.305
 7085SOL    HW222155   2.662   2.099   1.466
 7086SOL     OW22156   6.234   0.082   5.956
 7086SOL    HW122157   6.221   0.180   5.960
 7086SOL    HW222158   6.153   0.035   5.991
 7087SOL     OW22159   1.214   3.364   4.121
 7087SOL    HW122160   1.280   3.303   4.077
 7087SOL    HW222161   1.262   3.420   4.189
 7088SOL     OW22162   6.167   2.664   5.897
 7088SOL    HW122163   6.238   2.729   5.923
 7088SOL    HW222164   6.161   2.660   5.797
 7089SOL     OW22165   2.756   1.579   0.356
 7089SOL    HW122166   2.776   1.483   0.377
 7089SOL    HW222167   2.736   1.628   0.441
 7090SOL     OW22168   2.553   2.054   4.903
 7090SOL    HW122169   2.483   2.052   4.832
 7090SOL    HW222170   2.511   2.035   4.992
 7091SOL     OW22171   6.959   6.107   6.623
 7091SOL    HW122172   6.896   6.142   6.692
 7091SOL    HW222173   6.909   6.053   6.556
 7092SOL     OW22174   3.398   3.942   0.861
 7092SOL    HW122175   3.337   4.004   0.814
 7092SOL    HW222176   3.368   3.848   0.846
 7093SOL     OW22177   3.181   3.400   4.589
 7093SOL    HW122178   3.226   3.344   4.659
 7093SOL    HW222179   3.240   3.477   4.566
 7094SOL     OW22180   0.762   0.506   5.679
 7094SOL    HW122181   0.743   0.604   5.671
 7094SOL    HW222182   0.859   0.492   5.695
 7095SOL     OW22183   0.742   3.127   6.720
 7095SOL    HW122184   0.710   3.186   6.645
 7095SOL    HW222185   0.807   3.178   6.776
 7096SOL     OW22186   4.438   1.517   2.998
 7096SOL    HW122187   4.463   1.550   3.089
 7096SOL    HW222188   4.500   1.555   2.930
 7097SOL     OW22189   0.613   0.432   1.709
 7097SOL    HW122190   0.536   0.437   1.646
 7097SOL    HW222191   0.663   0.346   1.694
 7098SOL     OW22192   1.459   6.747   6.010
 7098SOL    HW122193   1.502   6.812   5.948
 7098SOL    HW222194   1.527   6.681   6.041
 7099SOL     OW22195   0.499   0.795   6.569
 7099SOL    HW122196   0.592   0.769   6.544
 7099SOL    HW222197   0.460   0.853   6.498
 7100SOL     OW22198   5.767   2.972   1.258
 7100SOL    HW122199   5.691   2.984   1.194
 7100SOL    HW222200   5.758   3.037   1.333
 7101SOL     OW22201   2.586   0.194   5.178
 7101SOL    HW122202   2.602   0.096   5.185
 7101SOL    HW222203   2.640   0.231   5.102
 7102SOL     OW22204   4.362   2.280   0.925
 7102SOL    HW122205   4.381   2.359   0.984
 7102SOL    HW222206   4.391   2.300   0.832
 7103SOL     OW22207   3.693   6.805   6.519
 7103SOL    HW122208   3.777   6.755   6.543
 7103SOL    HW222209   3.617   6.771   6.574
 7104SOL     OW22210   1.115   2.349   2.939
 7104SOL    HW122211   1.094   2.362   2.843
 7104SOL    HW222212   1.105   2.436   2.988
 7105SOL     OW22213   3.321   3.698   4.811
 7105SOL    HW122214   3.335   3.784   4.762
 7105SOL    HW222215   3.301   3.626   4.745
 7106SOL     OW22216   3.220   2.974   5.372
 7106SOL    HW122217   3.263   3.021   5.294
 7106SOL    HW222218   3.270   2.890   5.391
 7107SOL     OW22219   2.929   1.853   0.559
 7107SOL    HW122220   2.858   1.796   0.601
 7107SOL    HW222221   2.954   1.815   0.470
 7108SOL     OW22222   4.915   0.324   1.472
 7108SOL    HW122223   4.872   0.414   1.463
 7108SOL    HW222224   4.950   0.314   1.565
 7109SOL     OW22225   3.680   6.984   6.309
 7109SOL    HW122226   3.683   6.920   6.386
 7109SOL    HW222227   3.647   0.047   6.342
 7110SOL     OW22228   4.482   5.258   3.489
 7110SOL    HW122229   4.534   5.337   3.454
 7110SOL    HW222230   4.392   5.257   3.446
 7111SOL     OW22231   2.124   3.294   4.352
 7111SOL    HW122232   2.037   3.306   4.304
 7111SOL    HW222233   2.153   3.382   4.390
 7112SOL     OW22234   0.948   6.365   3.506
 7112SOL    HW122235   1.020   6.428   3.534
 7112SOL    HW222236   0.873   6.367   3.572
 7113SOL     OW22237   4.124   3.411   4.432
 7113SOL    HW122238   4.142   3.475   4.507
 7113SOL    HW222239   4.120   3.461   4.345
 7114SOL     OW22240   3.989   1.155   1.054
 7114SOL    HW122241   3.950   1.165   0.963
 7114SOL    HW222242   4.077   1.108   1.048
 7115SOL     OW22243   4.620   1.572   1.046
 7115SOL    HW122244   4.544   1.637   1.047
 7115SOL    HW222245   4.636   1.538   1.139
 7116SOL     OW22246   5.528   4.370   3.096
 7116SOL    HW122247   5.505   4.426   3.016
 7116SOL    HW222248   5.524   4.427   3.178
 7117SOL     OW22249   5.859   6.443   1.572
 7117SOL    HW122250   5.921   6.514   1.538
 7117SOL    HW222251   5.767   6.458   1.536
 7118SOL     OW22252   6.489   3.138   0.893
 7118SOL    HW122253   6.501   3.096   0.983
 7118SOL    HW222254   6.543   3.223   0.889
 7119SOL     OW22255   6.970   1.781   3.351
 7119SOL    HW122256   6.889   1.835   3.327
 7119SOL    HW222257   0.015   1.842   3.388
 7120SOL     OW22258   5.250   1.092   3.185
 7120SOL    HW122259   5.337   1.104   3.233
 7120SOL    HW222260   5.247   1.152   3.105
 7121SOL     OW22261   3.324   6.524   2.885
 7121SOL    HW122262   3.391   6.460   2.923
 7121SOL    HW222263   3.355   6.555   2.795
 7122SOL     OW22264   5.730   0.748   6.691
 7122SOL    HW122265   5.764   0.663   6.731
 7122SOL    HW222266   5.737   0.744   6.592
 7123SOL     OW22267   2.473   5.221   1.281
 7123SOL    HW122268   2.523   5.166   1.214
 7123SOL    HW222269   2.473   5.317   1.251
 7124SOL     OW22270   0.457   4.975   0.433
 7124SOL    HW122271   0.541   4.961   0.487
 7124SOL    HW222272   0.466   5.058   0.378
 7125SOL     OW22273   6.046   6.556   2.775
 7125SOL    HW122274   6.029   6.533   2.871
 7125SOL    HW222275   6.037   6.473   2.719
 7126SOL     OW22276   1.514   4.401   0.301
 7126SOL    HW122277   1.420   4.424   0.328
 7126SOL    HW222278   1.540   4.456   0.221
 7127SOL     OW22279   3.626   6.617   4.632
 7127SOL    HW122280   3.606   6.528   4.674
 7127SOL    HW222281   3.555   6.683   4.659
 7128SOL     OW22282   3.039   4.023   0.987
 7128SOL    HW122283   3.050   3.955   0.915
 7128SOL    HW222284   2.954   4.073   0.974
 7129SOL     OW22285   2.611   0.050   1.579
 7129SOL    HW122286   2.658   7.017   1.513
 7129SOL    HW222287   2.554   0.116   1.530
 7130SOL     OW22288   2.134   4.543   3.277
 7130SOL    HW122289   2.051   4.542   3.220
 7130SOL    HW222290   2.192   4.620   3.250
 7131SOL     OW22291   2.664   0.870   3.049
 7131SOL    HW122292   2.746   0.916   3.015
 7131SOL    HW222293   2.597   0.863   2.975
 7132SOL     OW22294   3.215   4.084   3.329
 7132SOL    HW122295   3.293   4.082   3.392
 7132SOL    HW222296   3.202   4.177   3.296
 7133SOL     OW22297   5.425   5.051   2.944
 7133SOL    HW122298   5.343   5.098   2.977
 7133SOL    HW222299   5.407   5.010   2.855
 7134SOL     OW22300   5.362   4.129   4.518
 7134SOL    HW122301   5.301   4.056   4.488
 7134SOL    HW222302   5.424   4.153   4.442
 7135SOL     OW22303   0.930   2.279   4.704
 7135SOL    HW122304   0.857   2.343   4.681
 7135SOL    HW222305   0.996   2.275   4.629
 7136SOL     OW22306   1.949   1.644   0.162
 7136SOL    HW122307   1.882   1.637   0.088
 7136SOL    HW222308   2.023   1.578   0.147
 7137SOL     OW22309   4.258   0.741   4.612
 7137SOL    HW122310   4.198   0.784   4.545
 7137SOL    HW222311   4.297   0.658   4.572
 7138SOL     OW22312   2.194   4.179   0.742
 7138SOL    HW122313   2.162   4.273   0.745
 7138SOL    HW222314   2.201   4.149   0.647
 7139SOL     OW22315   3.598   2.467   1.228
 7139SOL    HW122316   3.570   2.407   1.303
 7139SOL    HW222317   3.698   2.465   1.219
 7140SOL     OW22318   6.278   3.646   5.011
 7140SOL    HW122319   6.301   3.667   5.106
 7140SOL    HW222320   6.337   3.573   4.977
 7141SOL     OW22321   2.784   6.553   0.336
 7141SOL    HW122322   2.875   6.555   0.294
 7141SOL    HW222323   2.778   6.625   0.405
 7142SOL     OW22324   4.004   5.785   4.215
 7142SOL    HW122325   4.097   5.821   4.224
 7142SOL    HW222326   3.960   5.826   4.135
 7143SOL     OW22327   1.998   3.579   5.149
 7143SOL    HW122328   1.914   3.623   5.180
 7143SOL    HW222329   2.043   3.535   5.227
 7144SOL     OW22330   0.753   2.673   3.730
 7144SOL    HW122331   0.674   2.681   3.791
 7144SOL    HW222332   0.722   2.644   3.640
 7145SOL     OW22333   4.686   0.075   7.008
 7145SOL    HW122334   4.598   0.119   6.994
 7145SOL    HW222335   4.752   0.142   0.016
 7146SOL     OW22336   3.239   5.228   0.424
 7146SOL    HW122337   3.139   5.230   0.416
 7146SOL    HW222338   3.279   5.195   0.339
 7147SOL     OW22339   0.156   0.580   3.525
 7147SOL    HW122340   0.236   0.523   3.507
 7147SOL    HW222341   0.171   0.633   3.609
 7148SOL     OW22342   0.911   0.912   1.509
 7148SOL    HW122343   0.953   0.993   1.468
 7148SOL    HW222344   0.931   0.910   1.607
 7149SOL     OW22345   6.420   1.544   3.345
 7149SOL    HW122346   6.498   1.482   3.347
 7149SOL    HW222347   6.448   1.632   3.306
 7150SOL     OW22348   6.509   3.193   0.219
 7150SOL    HW122349   6.560   3.145   0.290
 7150SOL    HW222350   6.453   3.265   0.260
 7151SOL     OW22351   2.665   6.106   1.790
 7151SOL    HW122352   2.730   6.065   1.726
 7151SOL    HW222353   2.580   6.129   1.741
 7152SOL     OW22354   1.342   2.912   3.689
 7152SOL    HW122355   1.423   2.968   3.703
 7152SOL    HW222356   1.308   2.880   3.778
 7153SOL     OW22357   3.793   1.448   3.804
 7153SOL    HW122358   3.815   1.429   3.899
 7153SOL    HW222359   3.804   1.364   3.750
 7154SOL     OW22360   4.886   5.780   4.034
 7154SOL    HW122361   4.863   5.744   4.124
 7154SOL    HW222362   4.836   5.729   3.964
 7155SOL     OW22363   2.863   0.125   1.114
 7155SOL    HW122364   2.864   0.171   1.203
 7155SOL    HW222365   2.770   0.122   1.079
 7156SOL     OW22366   0.170   5.806   5.042
 7156SOL    HW122367   0.215   5.719   5.019
 7156SOL    HW222368   0.148   5.854   4.957
 7157SOL     OW22369   4.659   4.644   1.221
 7157SOL    HW122370   4.717   4.639   1.140
 7157SOL    HW222371   4.643   4.739   1.245
 7158SOL     OW22372   6.655   6.542   3.910
 7158SOL    HW122373   6.567   6.588   3.901
 7158SOL    HW222374   6.700   6.574   3.994
 7159SOL     OW22375   1.004   5.351   0.360
 7159SOL    HW122376   0.998   5.298   0.275
 7159SOL    HW222377   1.100   5.367   0.383
 7160SOL     OW22378   5.529   0.311   1.862
 7160SOL    HW122379   5.573   0.237   1.810
 7160SOL    HW222380   5.440   0.281   1.896
 7161SOL     OW22381   3.562   3.185   3.912
 7161SOL    HW122382   3.638   3.186   3.977
 7161SOL    HW222383   3.529   3.279   3.899
 7162SOL     OW22384   3.376   4.938   3.520
 7162SOL    HW122385   3.452   4.912   3.579
 7162SOL    HW222386   3.392   4.905   3.428
 7163SOL     OW22387   2.598   0.570   2.967
 7163SOL    HW122388   2.673   0.631   2.942
 7163SOL    HW222389   2.629   0.475   2.960
 7164SOL     OW22390   2.087   1.204   3.187
 7164SOL    HW122391   2.031   1.231   3.109
 7164SOL    HW222392   2.059   1.114   3.219
 7165SOL     OW22393   5.293   1.229   1.222
 7165SOL    HW122394   5.206   1.276   1.210
 7165SOL    HW222395   5.317   1.181   1.137
 7166SOL     OW22396   4.971   4.863   1.304
 7166SOL    HW122397   4.948   4.832   1.212
 7166SOL    HW222398   4.944   4.793   1.370
 7167SOL     OW22399   4.974   3.245   4.992
 7167SOL    HW122400   5.064   3.217   5.025
 7167SOL    HW222401   4.918   3.277   5.068
 7168SOL     OW22402   1.080   0.641   3.896
 7168SOL    HW122403   1.179   0.657   3.898
 7168SOL    HW222404   1.052   0.615   3.803
 7169SOL     OW22405   1.519   2.353   5.448
 7169SOL    HW122406   1.522   2.288   5.524
 7169SOL    HW222407   1.475   2.311   5.369
 7170SOL     OW22408   6.531   4.628   4.215
 7170SOL    HW122409   6.508   4.620   4.312
 7170SOL    HW222410   6.481   4.558   4.164
 7171SOL     OW22411   4.198   3.188   5.518
 7171SOL    HW122412   4.128   3.238   5.569
 7171SOL    HW222413   4.266   3.253   5.484
 7172SOL     OW22414   1.374   0.428   0.325
 7172SOL    HW122415   1.418   0.464   0.407
 7172SOL    HW222416   1.279   0.405   0.345
 7173SOL     OW22417   6.877   6.022   5.706
 7173SOL    HW122418   6.906   5.995   5.615
 7173SOL    HW222419   6.885   5.944   5.768
 7174SOL     OW22420   1.581   5.294   0.540
 7174SOL    HW122421   1.585   5.263   0.635
 7174SOL    HW222422   1.656   5.254   0.489
 7175SOL     OW22423   6.469   4.198   6.049
 7175SOL    HW122424   6.462   4.294   6.076
 7175SOL    HW222425   6.490   4.142   6.130
 7176SOL     OW22426   5.922   3.902   1.547
 7176SOL    HW122427   5.837   3.865   1.511
 7176SOL    HW222428   5.922   4.002   1.537
 7177SOL     OW22429   0.381   6.249   2.445
 7177SOL    HW122430   0.446   6.295   2.506
 7177SOL    HW222431   0.336   6.175   2.493
 7178SOL     OW22432   0.905   2.642   6.265
 7178SOL    HW122433   0.902   2.702   6.185
 7178SOL    HW222434   0.956   2.559   6.243
 7179SOL     OW22435   2.834   3.617   5.945
 7179SOL    HW122436   2.862   3.521   5.945
 7179SOL    HW222437   2.737   3.623   5.969
 7180SOL     OW22438   0.215   6.046   2.021
 7180SOL    HW122439   0.300   6.067   1.972
 7180SOL    HW222440   0.204   6.109   2.098
 7181SOL     OW22441   5.211   0.517   1.510
 7181SOL    HW122442   5.159   0.538   1.428
 7181SOL    HW222443   5.172   0.565   1.588
 7182SOL     OW22444   2.862   4.284   5.731
 7182SOL    HW122445   2.844   4.376   5.695
 7182SOL    HW222446   2.906   4.229   5.660
 7183SOL     OW22447   1.197   5.348   2.787
 7183SOL    HW122448   1.227   5.291   2.863
 7183SOL    HW222449   1.145   5.425   2.822
 7184SOL     OW22450   2.250   6.665   3.857
 7184SOL    HW122451   2.174   6.682   3.794
 7184SOL    HW222452   2.283   6.571   3.845
 7185SOL     OW22453   4.679   2.560   6.905
 7185SOL    HW122454   4.611   2.614   6.856
 7185SOL    HW222455   4.766   2.609   6.908
 7186SOL     OW22456   0.632   6.669   4.616
 7186SOL    HW122457   0.640   6.691   4.713
 7186SOL    HW222458   0.635   6.569   4.604
 7187SOL     OW22459   2.089   4.297   1.276
 7187SOL    HW122460   2.092   4.296   1.176
 7187SOL    HW222461   2.173   4.338   1.311
 7188SOL     OW22462   5.345   1.284   1.631
 7188SOL    HW122463   5.329   1.324   1.541
 7188SOL    HW222464   5.428   1.325   1.671
 7189SOL     OW22465   6.118   1.027   4.940
 7189SOL    HW122466   6.213   1.006   4.963
 7189SOL    HW222467   6.113   1.118   4.899
 7190SOL     OW22468   4.698   4.771   3.393
 7190SOL    HW122469   4.743   4.686   3.420
 7190SOL    HW222470   4.703   4.781   3.293
 7191SOL     OW22471   1.844   3.345   2.091
 7191SOL    HW122472   1.900   3.383   2.017
 7191SOL    HW222473   1.773   3.411   2.115
 7192SOL     OW22474   3.124   4.581   5.802
 7192SOL    HW122475   3.092   4.571   5.707
 7192SOL    HW222476   3.187   4.659   5.807
 7193SOL     OW22477   4.222   2.259   3.696
 7193SOL    HW122478   4.240   2.263   3.598
 7193SOL    HW222479   4.125   2.241   3.711
 7194SOL     OW22480   2.588   1.641   2.206
 7194SOL    HW122481   2.578   1.685   2.295
 7194SOL    HW222482   2.555   1.703   2.134
 7195SOL     OW22483   0.988   5.631   1.375
 7195SOL    HW122484   1.007   5.533   1.370
 7195SOL    HW222485   0.943   5.660   1.290
 7196SOL     OW22486   3.274   3.252   2.337
 7196SOL    HW122487   3.365   3.285   2.359
 7196SOL    HW222488   3.212   3.329   2.322
 7197SOL     OW22489   6.967   1.807   5.883
 7197SOL    HW122490   7.004   1.818   5.975
 7197SOL    HW222491   6.990   1.886   5.828
 7198SOL     OW22492   1.161   6.360   0.029
 7198SOL    HW122493   1.100   6.367   0.108
 7198SOL    HW222494   1.253   6.337   0.061
 7199SOL     OW22495   6.772   6.506   3.058
 7199SOL    HW122496   6.828   6.432   3.096
 7199SOL    HW222497   6.676   6.483   3.068
 7200SOL     OW22498   1.976   1.196   1.211
 7200SOL    HW122499   2.047   1.226   1.148
 7200SOL    HW222500   2.016   1.172   1.299
 7201SOL     OW22501   2.156   4.437   3.815
 7201SOL    HW122502   2.067   4.476   3.838
 7201SOL    HW222503   2.190   4.478   3.731
 7202SOL     OW22504   4.099   0.929   6.697
 7202SOL    HW122505   4.134   0.836   6.687
 7202SOL    HW222506   4.019   0.928   6.758
 7203SOL     OW22507   5.275   0.839   0.116
 7203SOL    HW122508   5.184   0.858   0.152
 7203SOL    HW222509   5.303   0.914   0.056
 7204SOL     OW22510   6.381   1.644   3.049
 7204SOL    HW122511   6.395   1.702   3.130
 7204SOL    HW222512   6.467   1.600   3.023
 7205SOL     OW22513   1.969   4.822   2.324
 7205SOL    HW122514   2.002   4.727   2.327
 7205SOL    HW222515   1.871   4.823   2.347
 7206SOL     OW22516   6.345   0.964   1.474
 7206SOL    HW122517   6.264   0.936   1.423
 7206SOL    HW222518   6.339   1.062   1.495
 7207SOL     OW22519   3.595   6.809   1.844
 7207SOL    HW122520   3.626   6.890   1.893
 7207SOL    HW222521   3.500   6.822   1.816
 7208SOL     OW22522   3.253   0.519   5.536
 7208SOL    HW122523   3.256   0.420   5.544
 7208SOL    HW222524   3.159   0.550   5.522
 7209SOL     OW22525   4.115   3.269   4.807
 7209SOL    HW122526   4.207   3.293   4.776
 7209SOL    HW222527   4.118   3.245   4.904
 7210SOL     OW22528   4.510   1.019   4.120
 7210SOL    HW122529   4.584   1.021   4.053
 7210SOL    HW222530   4.536   0.962   4.198
 7211SOL     OW22531   1.728   5.496   3.198
 7211SOL    HW122532   1.724   5.468   3.293
 7211SOL    HW222533   1.694   5.422   3.140
 7212SOL     OW22534   5.915   6.162   4.123
 7212SOL    HW122535   5.864   6.118   4.049
 7212SOL    HW222536   5.943   6.254   4.094
 7213SOL     OW22537   5.497   1.249   5.489
 7213SOL    HW122538   5.428   1.191   5.533
 7213SOL    HW222539   5.510   1.218   5.395
 7214SOL     OW22540   1.724   4.906   4.849
 7214SOL    HW122541   1.739   4.977   4.918
 7214SOL    HW222542   1.695   4.949   4.763
 7215SOL     OW22543   1.166   3.700   3.579
 7215SOL    HW122544   1.188   3.608   3.612
 7215SOL    HW222545   1.159   3.762   3.657
 7216SOL     OW22546   2.299   0.907   1.385
 7216SOL    HW122547   2.232   0.835   1.367
 7216SOL    HW222548   2.385   0.867   1.415
 7217SOL     OW22549   0.876   3.098   2.351
 7217SOL    HW122550   0.880   2.999   2.343
 7217SOL    HW222551   0.786   3.131   2.321
 7218SOL     OW22552   5.244   2.624   5.700
 7218SOL    HW122553   5.275   2.719   5.702
 7218SOL    HW222554   5.220   2.595   5.793
 7219SOL     OW22555   3.632   0.929   2.434
 7219SOL    HW122556   3.695   0.940   2.357
 7219SOL    HW222557   3.539   0.922   2.400
 7220SOL     OW22558   6.912   0.957   2.857
 7220SOL    HW122559   6.897   0.860   2.840
 7220SOL    HW222560   6.824   1.003   2.869
 7221SOL     OW22561   5.791   5.650   6.251
 7221SOL    HW122562   5.785   5.628   6.349
 7221SOL    HW222563   5.744   5.736   6.234
 7222SOL     OW22564   0.075   6.100   1.617
 7222SOL    HW122565   0.008   6.046   1.565
 7222SOL    HW222566   0.031   6.138   1.698
 7223SOL     OW22567   3.518   0.878   5.628
 7223SOL    HW122568   3.453   0.951   5.609
 7223SOL    HW222569   3.474   0.807   5.684
 7224SOL     OW22570   4.971   0.016   4.538
 7224SOL    HW122571   4.934   0.021   4.445
 7224SOL    HW222572   5.031   6.962   4.546
 7225SOL     OW22573   2.604   5.895   0.124
 7225SOL    HW122574   2.638   5.974   0.176
 7225SOL    HW222575   2.504   5.896   0.124
 7226SOL     OW22576   6.537   6.913   1.012
 7226SOL    HW122577   6.517   6.858   0.932
 7226SOL    HW222578   6.636   6.918   1.026
 7227SOL     OW22579   6.662   2.284   0.011
 7227SOL    HW122580   6.742   2.227   0.029
 7227SOL    HW222581   6.685   2.380   0.028
 7228SOL     OW22582   1.287   0.603   3.013
 7228SOL    HW122583   1.236   0.682   3.049
 7228SOL    HW222584   1.262   0.589   2.917
 7229SOL     OW22585   0.614   0.492   3.623
 7229SOL    HW122586   0.680   0.418   3.613
 7229SOL    HW222587   0.650   0.574   3.579
 7230SOL     OW22588   5.199   4.054   3.144
 7230SOL    HW122589   5.191   3.996   3.063
 7230SOL    HW222590   5.261   4.012   3.210
 7231SOL     OW22591   5.025   1.004   6.532
 7231SOL    HW122592   5.069   0.917   6.509
 7231SOL    HW222593   5.078   1.080   6.496
 7232SOL     OW22594   3.711   4.375   1.281
 7232SOL    HW122595   3.756   4.316   1.348
 7232SOL    HW222596   3.725   4.337   1.189
 7233SOL     OW22597   6.306   2.048   6.310
 7233SOL    HW122598   6.284   2.079   6.402
 7233SOL    HW222599   6.233   1.991   6.275
 7234SOL     OW22600   5.819   2.138   2.297
 7234SOL    HW122601   5.878   2.073   2.248
 7234SOL    HW222602   5.728   2.098   2.308
 7235SOL     OW22603   5.820   3.779   5.269
 7235SOL    HW122604   5.912   3.818   5.260
 7235SOL    HW222605   5.796   3.771   5.365
 7236SOL     OW22606   3.008   0.702   3.314
 7236SOL    HW122607   2.911   0.704   3.336
 7236SOL    HW222608   3.032   0.612   3.277
 7237SOL     OW22609   6.055   5.949   5.949
 7237SOL    HW122610   6.059   5.867   6.006
 7237SOL    HW222611   5.986   5.937   5.878
 7238SOL     OW22612   1.641   1.513   1.005
 7238SOL    HW122613   1.572   1.544   1.071
 7238SOL    HW222614   1.636   1.567   0.922
 7239SOL     OW22615   3.994   1.522   1.785
 7239SOL    HW122616   3.901   1.551   1.809
 7239SOL    HW222617   4.055   1.601   1.785
 7240SOL     OW22618   2.724   4.843   0.254
 7240SOL    HW122619   2.737   4.744   0.258
 7240SOL    HW222620   2.632   4.866   0.286
 7241SOL     OW22621   3.693   0.468   4.910
 7241SOL    HW122622   3.656   0.443   4.999
 7241SOL    HW222623   3.619   0.495   4.849
 7242SOL     OW22624   4.791   4.591   6.996
 7242SOL    HW122625   4.705   4.544   7.011
 7242SOL    HW222626   4.774   4.689   6.983
 7243SOL     OW22627   0.532   5.472   0.198
 7243SOL    HW122628   0.464   5.540   0.171
 7243SOL    HW222629   0.615   5.518   0.229
 7244SOL     OW22630   5.918   0.824   1.109
 7244SOL    HW122631   5.859   0.848   1.186
 7244SOL    HW222632   5.882   0.865   1.025
 7245SOL     OW22633   0.382   2.069   3.580
 7245SOL    HW122634   0.352   1.996   3.642
 7245SOL    HW222635   0.420   2.144   3.633
 7246SOL     OW22636   0.262   6.094   5.954
 7246SOL    HW122637   0.176   6.139   5.980
 7246SOL    HW222638   0.266   6.004   5.998
 7247SOL     OW22639   3.661   5.657   2.810
 7247SOL    HW122640   3.573   5.694   2.840
 7247SOL    HW222641   3.735   5.719   2.839
 7248SOL     OW22642   3.130   0.408   4.493
 7248SOL    HW122643   3.196   0.418   4.568
 7248SOL    HW222644   3.169   0.445   4.409
 7249SOL     OW22645   6.132   5.680   6.757
 7249SOL    HW122646   6.134   5.733   6.672
 7249SOL    HW222647   6.203   5.712   6.818
 7250SOL     OW22648   3.072   4.343   6.568
 7250SOL    HW122649   3.121   4.329   6.482
 7250SOL    HW222650   2.983   4.383   6.550
 7251SOL     OW22651   5.733   0.336   4.996
 7251SOL    HW122652   5.790   0.405   5.040
 7251SOL    HW222653   5.678   0.289   5.064
 7252SOL     OW22654   3.739   3.763   4.924
 7252SOL    HW122655   3.679   3.801   4.854
 7252SOL    HW222656   3.810   3.830   4.947
 7253SOL     OW22657   5.393   5.926   1.504
 7253SOL    HW122658   5.297   5.902   1.520
 7253SOL    HW222659   5.451   5.848   1.529
 7254SOL     OW22660   4.835   6.008   5.453
 7254SOL    HW122661   4.860   6.048   5.365
 7254SOL    HW222662   4.837   5.909   5.447
 7255SOL     OW22663   3.622   3.731   2.159
 7255SOL    HW122664   3.567   3.737   2.242
 7255SOL    HW222665   3.576   3.670   2.093
 7256SOL     OW22666   4.820   4.669   4.358
 7256SOL    HW122667   4.886   4.650   4.431
 7256SOL    HW222668   4.778   4.583   4.328
 7257SOL     OW22669   5.690   4.142   3.209
 7257SOL    HW122670   5.642   4.127   3.296
 7257SOL    HW222671   5.637   4.206   3.153
 7258SOL     OW22672   3.497   6.881   4.745
 7258SOL    HW122673   3.578   6.919   4.788
 7258SOL    HW222674   3.443   6.832   4.814
 7259SOL     OW22675   2.125   5.765   5.875
 7259SOL    HW122676   2.106   5.706   5.797
 7259SOL    HW222677   2.171   5.848   5.844
 7260SOL     OW22678   3.745   1.972   1.767
 7260SOL    HW122679   3.695   2.019   1.694
 7260SOL    HW222680   3.727   2.016   1.855
 7261SOL     OW22681   1.847   4.288   2.035
 7261SOL    HW122682   1.913   4.356   2.068
 7261SOL    HW222683   1.896   4.205   2.008
 7262SOL     OW22684   6.107   2.162   5.205
 7262SOL    HW122685   6.030   2.213   5.166
 7262SOL    HW222686   6.183   2.224   5.221
 7263SOL     OW22687   4.369   6.386   2.093
 7263SOL    HW122688   4.350   6.327   2.172
 7263SOL    HW222689   4.457   6.361   2.054
 7264SOL     OW22690   1.059   6.581   5.520
 7264SOL    HW122691   1.134   6.536   5.471
 7264SOL    HW222692   1.057   6.678   5.496
 7265SOL     OW22693   4.173   4.307   5.802
 7265SOL    HW122694   4.130   4.269   5.883
 7265SOL    HW222695   4.248   4.368   5.829
 7266SOL     OW22696   5.748   1.802   1.990
 7266SOL    HW122697   5.824   1.864   2.010
 7266SOL    HW222698   5.736   1.738   2.066
 7267SOL     OW22699   0.250   3.764   4.233
 7267SOL    HW122700   0.204   3.729   4.151
 7267SOL    HW222701   0.194   3.838   4.273
 7268SOL     OW22702   3.286   6.626   1.076
 7268SOL    HW122703   3.370   6.667   1.112
 7268SOL    HW222704   3.293   6.526   1.083
 7269SOL     OW22705   1.707   7.011   1.595
 7269SOL    HW122706   1.705   6.956   1.511
 7269SOL    HW222707   1.771   6.971   1.660
 7270SOL     OW22708   3.065   1.585   2.431
 7270SOL    HW122709   3.120   1.581   2.515
 7270SOL    HW222710   3.070   1.677   2.393
 7271SOL     OW22711   6.161   3.882   3.899
 7271SOL    HW122712   6.168   3.784   3.879
 7271SOL    HW222713   6.235   3.909   3.961
 7272SOL     OW22714   5.788   2.293   1.426
 7272SOL    HW122715   5.831   2.357   1.362
 7272SOL    HW222716   5.704   2.333   1.462
 7273SOL     OW22717   5.863   5.652   6.584
 7273SOL    HW122718   5.764   5.638   6.593
 7273SOL    HW222719   5.910   5.567   6.608
 7274SOL     OW22720   6.706   4.580   5.365
 7274SOL    HW122721   6.673   4.586   5.270
 7274SOL    HW222722   6.680   4.492   5.403
 7275SOL     OW22723   5.871   0.140   1.115
 7275SOL    HW122724   5.878   0.211   1.185
 7275SOL    HW222725   5.916   0.057   1.147
 7276SOL     OW22726   2.651   2.001   3.782
 7276SOL    HW122727   2.701   1.915   3.773
 7276SOL    HW222728   2.714   2.075   3.803
 7277SOL     OW22729   5.877   1.448   4.045
 7277SOL    HW122730   5.787   1.491   4.037
 7277SOL    HW222731   5.895   1.425   4.140
 7278SOL     OW22732   2.694   1.563   3.282
 7278SOL    HW122733   2.693   1.587   3.185
 7278SOL    HW222734   2.621   1.613   3.329
 7279SOL     OW22735   4.348   4.442   0.909
 7279SOL    HW122736   4.425   4.393   0.869
 7279SOL    HW222737   4.262   4.395   0.887
 7280SOL     OW22738   6.166   2.197   5.570
 7280SOL    HW122739   6.179   2.109   5.615
 7280SOL    HW222740   6.203   2.194   5.477
 7281SOL     OW22741   4.021   5.463   1.661
 7281SOL    HW122742   4.068   5.486   1.747
 7281SOL    HW222743   3.950   5.396   1.680
 7282SOL     OW22744   6.283   3.817   2.229
 7282SOL    HW122745   6.305   3.871   2.310
 7282SOL    HW222746   6.245   3.877   2.159
 7283SOL     OW22747   4.560   4.815   2.832
 7283SOL    HW122748   4.560   4.717   2.814
 7283SOL    HW222749   4.558   4.830   2.931
 7284SOL     OW22750   0.063   1.827   2.453
 7284SOL    HW122751   0.138   1.766   2.427
 7284SOL    HW222752   7.016   1.774   2.496
 7285SOL     OW22753   4.686   3.207   1.684
 7285SOL    HW122754   4.621   3.247   1.620
 7285SOL    HW222755   4.646   3.125   1.725
 7286SOL     OW22756   0.155   1.679   3.176
 7286SOL    HW122757   0.106   1.660   3.091
 7286SOL    HW222758   0.092   1.676   3.253
 7287SOL     OW22759   2.260   2.022   3.351
 7287SOL    HW122760   2.295   2.092   3.289
 7287SOL    HW222761   2.331   1.997   3.417
 7288SOL     OW22762   2.442   1.605   2.488
 7288SOL    HW122763   2.541   1.594   2.494
 7288SOL    HW222764   2.401   1.591   2.578
 7289SOL     OW22765   6.803   1.800   1.333
 7289SOL    HW122766   6.883   1.766   1.381
 7289SOL    HW222767   6.746   1.853   1.395
 7290SOL     OW22768   3.932   1.233   4.795
 7290SOL    HW122769   3.870   1.305   4.826
 7290SOL    HW222770   4.027   1.262   4.813
 7291SOL     OW22771   2.900   1.167   0.752
 7291SOL    HW122772   2.931   1.083   0.706
 7291SOL    HW222773   2.980   1.220   0.781
 7292SOL     OW22774   2.397   0.404   2.460
 7292SOL    HW122775   2.378   0.501   2.477
 7292SOL    HW222776   2.482   0.396   2.408
 7293SOL     OW22777   6.884   1.535   4.050
 7293SOL    HW122778   6.785   1.526   4.048
 7293SOL    HW222779   6.926   1.451   4.017
 7294SOL     OW22780   3.469   6.207   2.219
 7294SOL    HW122781   3.535   6.281   2.202
 7294SOL    HW222782   3.392   6.217   2.156
 7295SOL     OW22783   6.103   4.504   1.404
 7295SOL    HW122784   6.034   4.442   1.368
 7295SOL    HW222785   6.066   4.597   1.407
 7296SOL     OW22786   4.852   5.030   2.097
 7296SOL    HW122787   4.753   5.035   2.108
 7296SOL    HW222788   4.881   5.096   2.027
 7297SOL     OW22789   4.140   0.051   1.234
 7297SOL    HW122790   4.226   0.096   1.210
 7297SOL    HW222791   4.066   0.119   1.233
 7298SOL     OW22792   4.121   4.981   0.244
 7298SOL    HW122793   4.180   5.054   0.208
 7298SOL    HW222794   4.157   4.892   0.217
 7299SOL     OW22795   1.205   2.665   6.514
 7299SOL    HW122796   1.234   2.575   6.480
 7299SOL    HW222797   1.107   2.663   6.532
 7300SOL     OW22798   0.296   4.945   2.221
 7300SOL    HW122799   0.307   4.926   2.123
 7300SOL    HW222800   0.202   4.926   2.248
 7301SOL     OW22801   4.541   1.643   5.786
 7301SOL    HW122802   4.618   1.707   5.783
 7301SOL    HW222803   4.462   1.687   5.828
 7302SOL     OW22804   5.854   1.969   6.114
 7302SOL    HW122805   5.944   1.945   6.080
 7302SOL    HW222806   5.823   1.901   6.180
 7303SOL     OW22807   2.494   1.802   2.010
 7303SOL    HW122808   2.474   1.894   2.043
 7303SOL    HW222809   2.478   1.797   1.912
 7304SOL     OW22810   2.633   5.704   0.982
 7304SOL    HW122811   2.669   5.703   0.888
 7304SOL    HW222812   2.658   5.790   1.026
 7305SOL     OW22813   6.289   1.302   0.222
 7305SOL    HW122814   6.322   1.209   0.238
 7305SOL    HW222815   6.366   1.360   0.193
 7306SOL     OW22816   0.664   2.878   1.536
 7306SOL    HW122817   0.628   2.937   1.609
 7306SOL    HW222818   0.677   2.932   1.453
 7307SOL     OW22819   2.091   0.417   0.540
 7307SOL    HW122820   2.008   0.416   0.597
 7307SOL    HW222821   2.105   0.327   0.499
 7308SOL     OW22822   4.409   1.379   2.658
 7308SOL    HW122823   4.402   1.448   2.730
 7308SOL    HW222824   4.317   1.347   2.633
 7309SOL     OW22825   2.629   4.982   3.621
 7309SOL    HW122826   2.564   5.016   3.553
 7309SOL    HW222827   2.583   4.969   3.708
 7310SOL     OW22828   2.308   3.189   5.992
 7310SOL    HW122829   2.297   3.143   6.081
 7310SOL    HW222830   2.217   3.211   5.955
 7311SOL     OW22831   0.331   5.958   6.273
 7311SOL    HW122832   0.282   5.872   6.262
 7311SOL    HW222833   0.271   6.034   6.246
 7312SOL     OW22834   6.806   2.183   3.879
 7312SOL    HW122835   6.783   2.092   3.913
 7312SOL    HW222836   6.788   2.251   3.951
 7313SOL     OW22837   2.558   0.916   2.448
 7313SOL    HW122838   2.537   0.980   2.522
 7313SOL    HW222839   2.507   0.942   2.366
 7314SOL     OW22840   0.476   4.770   5.903
 7314SOL    HW122841   0.554   4.717   5.937
 7314SOL    HW222842   0.496   4.867   5.910
 7315SOL     OW22843   2.098   4.913   2.532
 7315SOL    HW122844   2.029   4.977   2.566
 7315SOL    HW222845   2.067   4.874   2.445
 7316SOL     OW22846   3.425   2.111   1.106
 7316SOL    HW122847   3.478   2.156   1.034
 7316SOL    HW222848   3.406   2.017   1.079
 7317SOL     OW22849   3.894   1.945   0.426
 7317SOL    HW122850   3.918   1.939   0.523
 7317SOL    HW222851   3.917   1.859   0.381
 7318SOL     OW22852   5.499   5.976   0.742
 7318SOL    HW122853   5.511   6.030   0.658
 7318SOL    HW222854   5.469   6.037   0.816
 7319SOL     OW22855   5.871   5.881   6.461
 7319SOL    HW122856   5.808   5.931   6.520
 7319SOL    HW222857   5.887   5.790   6.500
 7320SOL     OW22858   0.420   2.273   1.275
 7320SOL    HW122859   0.380   2.352   1.228
 7320SOL    HW222860   0.448   2.206   1.206
 7321SOL     OW22861   1.155   1.292   6.572
 7321SOL    HW122862   1.076   1.351   6.586
 7321SOL    HW222863   1.229   1.318   6.634
 7322SOL     OW22864   1.188   3.373   3.163
 7322SOL    HW122865   1.138   3.455   3.190
 7322SOL    HW222866   1.284   3.382   3.186
 7323SOL     OW22867   0.822   2.824   0.856
 7323SOL    HW122868   0.902   2.786   0.810
 7323SOL    HW222869   0.848   2.862   0.945
 7324SOL     OW22870   5.577   4.243   4.077
 7324SOL    HW122871   5.533   4.244   3.987
 7324SOL    HW222872   5.570   4.334   4.118
 7325SOL     OW22873   4.285   1.314   5.857
 7325SOL    HW122874   4.255   1.327   5.951
 7325SOL    HW222875   4.216   1.351   5.794
 7326SOL     OW22876   3.719   0.742   0.638
 7326SOL    HW122877   3.730   0.670   0.707
 7326SOL    HW222878   3.624   0.774   0.638
 7327SOL     OW22879   1.458   4.513   3.157
 7327SOL    HW122880   1.394   4.522   3.081
 7327SOL    HW222881   1.504   4.424   3.152
 7328SOL     OW22882   4.502   5.044   4.378
 7328SOL    HW122883   4.574   4.982   4.405
 7328SOL    HW222884   4.423   5.033   4.438
 7329SOL     OW22885   3.084   3.476   1.075
 7329SOL    HW122886   3.147   3.508   1.147
 7329SOL    HW222887   2.996   3.521   1.086
 7330SOL     OW22888   2.757   3.289   1.857
 7330SOL    HW122889   2.711   3.224   1.796
 7330SOL    HW222890   2.722   3.381   1.840
 7331SOL     OW22891   5.436   2.778   2.270
 7331SOL    HW122892   5.505   2.845   2.243
 7331SOL    HW222893   5.480   2.704   2.321
 7332SOL     OW22894   3.116   6.338   6.171
 7332SOL    HW122895   3.108   6.238   6.168
 7332SOL    HW222896   3.050   6.378   6.107
 7333SOL     OW22897   0.664   1.158   1.053
 7333SOL    HW122898   0.729   1.082   1.047
 7333SOL    HW222899   0.650   1.181   1.149
 7334SOL     OW22900   2.936   6.255   3.961
 7334SOL    HW122901   2.891   6.174   3.998
 7334SOL    HW222902   2.918   6.333   4.020
 7335SOL     OW22903   6.832   3.333   2.214
 7335SOL    HW122904   6.760   3.391   2.176
 7335SOL    HW222905   6.886   3.293   2.140
 7336SOL     OW22906   2.404   6.312   2.115
 7336SOL    HW122907   2.488   6.289   2.067
 7336SOL    HW222908   2.416   6.397   2.166
 7337SOL     OW22909   2.372   1.366   3.181
 7337SOL    HW122910   2.458   1.342   3.137
 7337SOL    HW222911   2.309   1.289   3.177
 7338SOL     OW22912   5.135   3.574   1.202
 7338SOL    HW122913   5.105   3.649   1.261
 7338SOL    HW222914   5.088   3.490   1.229
 7339SOL     OW22915   0.114   5.942   4.779
 7339SOL    HW122916   0.066   5.933   4.692
 7339SOL    HW222917   0.213   5.949   4.762
 7340SOL     OW22918   2.931   6.865   0.706
 7340SOL    HW122919   2.894   6.937   0.765
 7340SOL    HW222920   2.954   6.785   0.762
 7341SOL     OW22921   6.698   5.360   4.545
 7341SOL    HW122922   6.642   5.280   4.524
 7341SOL    HW222923   6.639   5.439   4.561
 7342SOL     OW22924   1.278   5.099   1.065
 7342SOL    HW122925   1.196   5.091   1.121
 7342SOL    HW222926   1.343   5.027   1.089
 7343SOL     OW22927   5.346   2.865   2.691
 7343SOL    HW122928   5.269   2.842   2.632
 7343SOL    HW222929   5.392   2.947   2.656
 7344SOL     OW22930   2.531   1.200   0.025
 7344SOL    HW122931   2.618   1.180   7.005
 7344SOL    HW222932   2.499   1.291   7.024
 7345SOL     OW22933   3.608   5.334   0.839
 7345SOL    HW122934   3.669   5.344   0.760
 7345SOL    HW222935   3.564   5.422   0.857
 7346SOL     OW22936   3.810   4.736   1.753
 7346SOL    HW122937   3.716   4.729   1.785
 7346SOL    HW222938   3.861   4.799   1.811
 7347SOL     OW22939   6.368   2.861   2.518
 7347SOL    HW122940   6.418   2.875   2.604
 7347SOL    HW222941   6.280   2.817   2.537
 7348SOL     OW22942   0.845   2.207   4.951
 7348SOL    HW122943   0.886   2.213   4.860
 7348SOL    HW222944   0.859   2.292   5.001
 7349SOL     OW22945   3.918   1.271   0.822
 7349SOL    HW122946   3.823   1.289   0.845
 7349SOL    HW222947   3.944   1.325   0.742
 7350SOL     OW22948   2.137   1.089   2.861
 7350SOL    HW122949   2.061   1.029   2.890
 7350SOL    HW222950   2.106   1.184   2.862
 7351SOL     OW22951   4.344   4.511   6.823
 7351SOL    HW122952   4.259   4.457   6.825
 7351SOL    HW222953   4.347   4.571   6.903
 7352SOL     OW22954   6.573   1.283   3.647
 7352SOL    HW122955   6.501   1.249   3.588
 7352SOL    HW222956   6.660   1.241   3.621
 7353SOL     OW22957   4.931   2.428   4.889
 7353SOL    HW122958   4.945   2.379   4.803
 7353SOL    HW222959   4.834   2.446   4.902
 7354SOL     OW22960   6.376   4.217   5.094
 7354SOL    HW122961   6.470   4.229   5.126
 7354SOL    HW222962   6.365   4.260   5.004
 7355SOL     OW22963   1.291   4.287   1.992
 7355SOL    HW122964   1.370   4.341   1.963
 7355SOL    HW222965   1.209   4.344   1.991
 7356SOL     OW22966   6.185   1.253   5.343
 7356SOL    HW122967   6.140   1.174   5.301
 7356SOL    HW222968   6.120   1.329   5.347
 7357SOL     OW22969   6.649   1.453   0.529
 7357SOL    HW122970   6.562   1.456   0.577
 7357SOL    HW222971   6.691   1.363   0.540
 7358SOL     OW22972   2.944   1.008   4.024
 7358SOL    HW122973   3.030   0.987   4.070
 7358SOL    HW222974   2.963   1.043   3.932
 7359SOL     OW22975   3.491   3.168   3.002
 7359SOL    HW122976   3.494   3.085   3.059
 7359SOL    HW222977   3.525   3.147   2.911
 7360SOL     OW22978   0.343   2.852   5.854
 7360SOL    HW122979   0.344   2.815   5.947
 7360SOL    HW222980   0.419   2.814   5.802
 7361SOL     OW22981   5.427   6.927   2.260
 7361SOL    HW122982   5.498   6.994   2.236
 7361SOL    HW222983   5.383   6.954   2.346
 7362SOL     OW22984   2.042   6.684   5.677
 7362SOL    HW122985   2.059   6.760   5.614
 7362SOL    HW222986   1.995   6.718   5.758
 7363SOL     OW22987   4.913   2.868   6.514
 7363SOL    HW122988   4.813   2.871   6.512
 7363SOL    HW222989   4.945   2.794   6.455
 7364SOL     OW22990   5.630   0.869   1.760
 7364SOL    HW122991   5.635   0.879   1.859
 7364SOL    HW222992   5.705   0.810   1.728
 7365SOL     OW22993   3.265   0.874   2.574
 7365SOL    HW122994   3.295   0.900   2.482
 7365SOL    HW222995   3.338   0.820   2.618
 7366SOL     OW22996   0.878   5.488   0.024
 7366SOL    HW122997   0.865   5.404   6.996
 7366SOL    HW222998   0.830   5.564   7.005
 7367SOL     OW22999   4.937   3.513   6.966
 7367SOL    HW123000   4.936   3.543   0.036
 7367SOL    HW223001   4.916   3.590   6.907
 7368SOL     OW23002   3.399   3.773   3.649
 7368SOL    HW123003   3.334   3.701   3.669
 7368SOL    HW223004   3.365   3.860   3.684
 7369SOL     OW23005   4.312   2.351   0.002
 7369SOL    HW123006   4.232   2.410   0.015
 7369SOL    HW223007   4.383   2.375   0.068
 7370SOL     OW23008   1.776   6.386   1.248
 7370SOL    HW123009   1.854   6.448   1.260
 7370SOL    HW223010   1.776   6.350   1.155
 7371SOL     OW23011   2.496   5.002   4.728
 7371SOL    HW123012   2.581   5.006   4.677
 7371SOL    HW223013   2.432   4.941   4.682
 7372SOL     OW23014   3.135   0.098   5.907
 7372SOL    HW123015   3.044   0.062   5.888
 7372SOL    HW223016   3.192   0.026   5.947
 7373SOL     OW23017   3.946   0.743   1.827
 7373SOL    HW123018   4.024   0.793   1.791
 7373SOL    HW223019   3.879   0.807   1.863
 7374SOL     OW23020   1.832   3.492   6.218
 7374SOL    HW123021   1.812   3.412   6.275
 7374SOL    HW223022   1.806   3.473   6.123
 7375SOL     OW23023   0.801   6.944   3.006
 7375SOL    HW123024   0.837   6.891   3.083
 7375SOL    HW223025   0.764   0.005   3.039
 7376SOL     OW23026   3.007   4.106   5.524
 7376SOL    HW123027   2.988   4.009   5.542
 7376SOL    HW223028   3.019   4.120   5.426
 7377SOL     OW23029   4.540   4.865   1.078
 7377SOL    HW123030   4.526   4.792   1.011
 7377SOL    HW223031   4.563   4.949   1.030
 7378SOL     OW23032   6.693   2.355   5.712
 7378SOL    HW123033   6.779   2.352   5.762
 7378SOL    HW223034   6.709   2.390   5.620
 7379SOL     OW23035   3.588   1.355   1.620
 7379SOL    HW123036   3.631   1.277   1.576
 7379SOL    HW223037   3.646   1.436   1.609
 7380SOL     OW23038   6.810   2.865   5.214
 7380SOL    HW123039   6.886   2.907   5.166
 7380SOL    HW223040   6.789   2.918   5.297
 7381SOL     OW23041   5.803   2.347   0.382
 7381SOL    HW123042   5.818   2.357   0.481
 7381SOL    HW223043   5.830   2.432   0.336
 7382SOL     OW23044   0.091   6.297   3.598
 7382SOL    HW123045   0.176   6.349   3.612
 7382SOL    HW223046   0.052   6.271   3.686
 7383SOL     OW23047   6.851   6.353   3.559
 7383SOL    HW123048   6.945   6.325   3.579
 7383SOL    HW223049   6.799   6.272   3.530
 7384SOL     OW23050   5.944   1.506   2.472
 7384SOL    HW123051   5.958   1.486   2.569
 7384SOL    HW223052   5.855   1.469   2.443
 7385SOL     OW23053   4.825   0.393   1.905
 7385SOL    HW123054   4.769   0.311   1.914
 7385SOL    HW223055   4.898   0.376   1.839
 7386SOL     OW23056   0.099   2.494   5.865
 7386SOL    HW123057   0.086   2.591   5.885
 7386SOL    HW223058   0.011   2.448   5.861
 7387SOL     OW23059   3.968   5.499   3.229
 7387SOL    HW123060   3.873   5.518   3.251
 7387SOL    HW223061   4.026   5.575   3.258
 7388SOL     OW23062   6.724   4.946   4.555
 7388SOL    HW123063   6.681   4.856   4.550
 7388SOL    HW223064   6.796   4.952   4.485
 7389SOL     OW23065   1.061   4.116   5.818
 7389SOL    HW123066   1.042   4.033   5.766
 7389SOL    HW223067   1.034   4.196   5.763
 7390SOL     OW23068   2.269   6.607   5.330
 7390SOL    HW123069   2.302   6.515   5.354
 7390SOL    HW223070   2.203   6.600   5.256
 7391SOL     OW23071   6.781   2.950   0.600
 7391SOL    HW123072   6.707   2.983   0.540
 7391SOL    HW223073   6.742   2.895   0.674
 7392SOL     OW23074   2.562   4.511   3.143
 7392SOL    HW123075   2.541   4.571   3.220
 7392SOL    HW223076   2.494   4.437   3.139
 7393SOL     OW23077   0.791   3.496   1.499
 7393SOL    HW123078   0.851   3.438   1.554
 7393SOL    HW223079   0.846   3.567   1.454
 7394SOL     OW23080   2.929   3.667   6.474
 7394SOL    HW123081   2.950   3.714   6.388
 7394SOL    HW223082   2.877   3.584   6.455
 7395SOL     OW23083   1.301   6.471   0.415
 7395SOL    HW123084   1.366   6.456   0.341
 7395SOL    HW223085   1.333   6.423   0.497
 7396SOL     OW23086   0.904   0.041   0.455
 7396SOL    HW123087   0.857   6.980   0.469
 7396SOL    HW223088   0.903   0.094   0.540
 7397SOL     OW23089   6.688   5.250   4.810
 7397SOL    HW123090   6.714   5.283   4.719
 7397SOL    HW223091   6.738   5.300   4.880
 7398SOL     OW23092   4.081   5.741   3.273
 7398SOL    HW123093   4.096   5.744   3.175
 7398SOL    HW223094   4.129   5.816   3.317
 7399SOL     OW23095   4.813   4.106   4.921
 7399SOL    HW123096   4.758   4.188   4.906
 7399SOL    HW223097   4.881   4.099   4.848
 7400SOL     OW23098   2.147   5.233   6.692
 7400SOL    HW123099   2.173   5.300   6.761
 7400SOL    HW223100   2.165   5.269   6.601
 7401SOL     OW23101   6.074   1.900   4.608
 7401SOL    HW123102   6.108   1.925   4.518
 7401SOL    HW223103   6.028   1.812   4.602
 7402SOL     OW23104   2.118   6.835   3.419
 7402SOL    HW123105   2.114   6.737   3.399
 7402SOL    HW223106   2.208   6.859   3.455
 7403SOL     OW23107   1.799   3.451   1.413
 7403SOL    HW123108   1.759   3.473   1.502
 7403SOL    HW223109   1.773   3.522   1.347
 7404SOL     OW23110   1.491   1.194   2.418
 7404SOL    HW123111   1.416   1.249   2.453
 7404SOL    HW223112   1.475   1.098   2.437
 7405SOL     OW23113   2.693   4.596   6.169
 7405SOL    HW123114   2.673   4.595   6.071
 7405SOL    HW223115   2.708   4.502   6.201
 7406SOL     OW23116   0.571   5.375   1.707
 7406SOL    HW123117   0.651   5.403   1.653
 7406SOL    HW223118   0.509   5.452   1.718
 7407SOL     OW23119   2.013   0.257   6.392
 7407SOL    HW123120   1.925   0.304   6.380
 7407SOL    HW223121   2.022   0.228   6.487
 7408SOL     OW23122   0.750   3.839   5.751
 7408SOL    HW123123   0.655   3.853   5.723
 7408SOL    HW223124   0.811   3.869   5.677
 7409SOL     OW23125   2.955   5.809   5.952
 7409SOL    HW123126   3.050   5.815   5.920
 7409SOL    HW223127   2.894   5.850   5.884
 7410SOL     OW23128   5.675   5.366   0.851
 7410SOL    HW123129   5.588   5.415   0.850
 7410SOL    HW223130   5.728   5.395   0.931
 7411SOL     OW23131   4.796   5.745   5.457
 7411SOL    HW123132   4.732   5.692   5.403
 7411SOL    HW223133   4.771   5.739   5.554
 7412SOL     OW23134   1.125   2.478   0.157
 7412SOL    HW123135   1.064   2.463   0.080
 7412SOL    HW223136   1.147   2.575   0.165
 7413SOL     OW23137   6.819   3.350   4.567
 7413SOL    HW123138   6.854   3.279   4.627
 7413SOL    HW223139   6.855   3.336   4.474
 7414SOL     OW23140   6.923   5.438   3.317
 7414SOL    HW123141   6.941   5.407   3.410
 7414SOL    HW223142   6.971   5.379   3.252
 7415SOL     OW23143   2.292   2.007   2.773
 7415SOL    HW123144   2.383   2.044   2.794
 7415SOL    HW223145   2.285   1.990   2.674
 7416SOL     OW23146   4.871   6.421   4.056
 7416SOL    HW123147   4.970   6.433   4.066
 7416SOL    HW223148   4.824   6.502   4.091
 7417SOL     OW23149   0.661   5.958   0.353
 7417SOL    HW123150   0.616   6.045   0.331
 7417SOL    HW223151   0.743   5.947   0.298
 7418SOL     OW23152   1.524   3.658   0.367
 7418SOL    HW123153   1.519   3.564   0.401
 7418SOL    HW223154   1.577   3.660   0.283
 7419SOL     OW23155   6.159   1.284   4.782
 7419SOL    HW123156   6.245   1.233   4.773
 7419SOL    HW223157   6.169   1.353   4.853
 7420SOL     OW23158   0.038   5.282   2.071
 7420SOL    HW123159   0.023   5.186   2.095
 7420SOL    HW223160   0.003   5.340   2.144
 7421SOL     OW23161   4.022   2.858   1.346
 7421SOL    HW123162   3.985   2.767   1.365
 7421SOL    HW223163   4.122   2.855   1.350
 7422SOL     OW23164   0.905   2.896   1.092
 7422SOL    HW123165   0.956   2.982   1.098
 7422SOL    HW223166   0.811   2.911   1.124
 7423SOL     OW23167   2.004   6.135   6.834
 7423SOL    HW123168   1.928   6.167   6.891
 7423SOL    HW223169   2.060   6.071   6.886
 7424SOL     OW23170   6.220   1.392   4.240
 7424SOL    HW123171   6.246   1.318   4.178
 7424SOL    HW223172   6.250   1.480   4.202
 7425SOL     OW23173   3.855   6.175   5.962
 7425SOL    HW123174   3.846   6.099   5.898
 7425SOL    HW223175   3.809   6.256   5.924
 7426SOL     OW23176   0.999   0.851   6.871
 7426SOL    HW123177   1.050   0.900   6.942
 7426SOL    HW223178   0.907   0.829   6.905
 7427SOL     OW23179   4.380   5.772   4.106
 7427SOL    HW123180   4.450   5.802   4.171
 7427SOL    HW223181   4.405   5.682   4.070
 7428SOL     OW23182   2.973   1.936   6.221
 7428SOL    HW123183   2.983   1.965   6.125
 7428SOL    HW223184   2.897   1.985   6.263
 7429SOL     OW23185   6.151   6.646   3.462
 7429SOL    HW123186   6.226   6.580   3.473
 7429SOL    HW223187   6.145   6.673   3.366
 7430SOL     OW23188   0.058   4.207   4.904
 7430SOL    HW123189   7.023   4.251   4.971
 7430SOL    HW223190   0.005   4.183   4.823
 7431SOL     OW23191   0.888   4.340   2.220
 7431SOL    HW123192   0.894   4.241   2.234
 7431SOL    HW223193   0.940   4.365   2.138
 7432SOL     OW23194   0.861   6.243   4.887
 7432SOL    HW123195   0.849   6.154   4.931
 7432SOL    HW223196   0.958   6.264   4.879
 7433SOL     OW23197   6.340   5.780   1.058
 7433SOL    HW123198   6.295   5.712   1.000
 7433SOL    HW223199   6.438   5.760   1.062
 7434SOL     OW23200   4.790   0.767   6.439
 7434SOL    HW123201   4.807   0.865   6.429
 7434SOL    HW223202   4.855   0.716   6.383
 7435SOL     OW23203   1.556   6.181   0.475
 7435SOL    HW123204   1.603   6.203   0.390
 7435SOL    HW223205   1.623   6.170   0.548
 7436SOL     OW23206   5.393   2.829   6.847
 7436SOL    HW123207   5.441   2.745   6.871
 7436SOL    HW223208   5.326   2.850   6.919
 7437SOL     OW23209   0.352   5.890   5.702
 7437SOL    HW123210   0.441   5.919   5.668
 7437SOL    HW223211   0.281   5.952   5.668
 7438SOL     OW23212   6.245   4.229   2.262
 7438SOL    HW123213   6.225   4.307   2.321
 7438SOL    HW223214   6.327   4.182   2.295
 7439SOL     OW23215   1.390   6.622   3.836
 7439SOL    HW123216   1.479   6.603   3.793
 7439SOL    HW223217   1.330   6.664   3.768
 7440SOL     OW23218   0.855   1.959   4.301
 7440SOL    HW123219   0.907   2.042   4.283
 7440SOL    HW223220   0.831   1.954   4.398
 7441SOL     OW23221   5.218   6.833   4.074
 7441SOL    HW123222   5.152   6.907   4.064
 7441SOL    HW223223   5.290   6.843   4.006
 7442SOL     OW23224   1.799   1.390   6.715
 7442SOL    HW123225   1.715   1.336   6.710
 7442SOL    HW223226   1.845   1.373   6.803
 7443SOL     OW23227   6.655   0.760   0.974
 7443SOL    HW123228   6.638   0.665   0.945
 7443SOL    HW223229   6.623   0.822   0.903
 7444SOL     OW23230   0.101   2.402   6.216
 7444SOL    HW123231   0.178   2.462   6.240
 7444SOL    HW223232   0.061   2.364   6.300
 7445SOL     OW23233   5.323   2.579   2.095
 7445SOL    HW123234   5.400   2.564   2.033
 7445SOL    HW223235   5.352   2.634   2.173
 7446SOL     OW23236   0.120   3.444   1.432
 7446SOL    HW123237   0.133   3.364   1.374
 7446SOL    HW223238   0.163   3.523   1.390
 7447SOL     OW23239   0.832   4.399   5.800
 7447SOL    HW123240   0.781   4.316   5.823
 7447SOL    HW223241   0.862   4.443   5.885
 7448SOL     OW23242   6.832   6.734   5.944
 7448SOL    HW123243   6.829   6.642   5.984
 7448SOL    HW223244   6.767   6.739   5.868
 7449SOL     OW23245   4.643   2.001   2.608
 7449SOL    HW123246   4.663   2.074   2.543
 7449SOL    HW223247   4.705   2.008   2.686
 7450SOL     OW23248   2.830   0.682   2.806
 7450SOL    HW123249   2.901   0.747   2.780
 7450SOL    HW223250   2.761   0.678   2.733
 7451SOL     OW23251   1.635   0.819   3.613
 7451SOL    HW123252   1.658   0.750   3.681
 7451SOL    HW223253   1.579   0.891   3.655
 7452SOL     OW23254   1.555   6.979   5.223
 7452SOL    HW123255   1.634   7.010   5.171
 7452SOL    HW223256   1.496   0.032   5.243
 7453SOL     OW23257   5.824   5.958   5.052
 7453SOL    HW123258   5.895   5.962   5.122
 7453SOL    HW223259   5.771   6.043   5.054
 7454SOL     OW23260   0.322   3.263   0.530
 7454SOL    HW123261   0.405   3.208   0.523
 7454SOL    HW223262   0.261   3.222   0.598
 7455SOL     OW23263   4.896   1.869   0.189
 7455SOL    HW123264   4.962   1.944   0.202
 7455SOL    HW223265   4.935   1.801   0.127
 7456SOL     OW23266   2.057   3.237   4.990
 7456SOL    HW123267   2.083   3.257   5.084
 7456SOL    HW223268   2.064   3.320   4.935
 7457SOL     OW23269   5.742   0.895   5.887
 7457SOL    HW123270   5.812   0.823   5.885
 7457SOL    HW223271   5.786   0.984   5.896
 7458SOL     OW23272   2.839   1.118   0.257
 7458SOL    HW123273   2.798   1.108   0.167
 7458SOL    HW223274   2.831   1.214   0.286
 7459SOL     OW23275   4.560   0.880   4.341
 7459SOL    HW123276   4.610   0.804   4.299
 7459SOL    HW223277   4.599   0.900   4.431
 7460SOL     OW23278   0.526   4.572   0.069
 7460SOL    HW123279   0.438   4.527   0.079
 7460SOL    HW223280   0.548   4.583   6.998
 7461SOL     OW23281   5.028   0.828   3.826
 7461SOL    HW123282   5.039   0.730   3.842
 7461SOL    HW223283   4.966   0.843   3.748
 7462SOL     OW23284   2.253   1.477   2.188
 7462SOL    HW123285   2.293   1.406   2.129
 7462SOL    HW223286   2.250   1.564   2.138
 7463SOL     OW23287   3.773   3.596   2.891
 7463SOL    HW123288   3.737   3.507   2.920
 7463SOL    HW223289   3.843   3.582   2.820
 7464SOL     OW23290   5.698   5.740   0.507
 7464SOL    HW123291   5.635   5.708   0.579
 7464SOL    HW223292   5.645   5.784   0.434
 7465SOL     OW23293   3.101   0.695   1.808
 7465SOL    HW123294   3.032   0.703   1.880
 7465SOL    HW223295   3.177   0.639   1.840
 7466SOL     OW23296   0.899   0.273   6.607
 7466SOL    HW123297   0.902   0.180   6.569
 7466SOL    HW223298   0.808   0.311   6.595
 7467SOL     OW23299   6.824   1.476   1.301
 7467SOL    HW123300   6.847   1.464   1.397
 7467SOL    HW223301   6.746   1.538   1.293
 7468SOL     OW23302   6.538   3.415   3.267
 7468SOL    HW123303   6.480   3.334   3.252
 7468SOL    HW223304   6.513   3.458   3.354
 7469SOL     OW23305   0.383   1.051   1.898
 7469SOL    HW123306   0.412   1.087   1.810
 7469SOL    HW223307   0.463   1.021   1.950
 7470SOL     OW23308   0.138   2.580   2.181
 7470SOL    HW123309   0.090   2.634   2.250
 7470SOL    HW223310   0.125   2.483   2.200
 7471SOL     OW23311   6.432   6.221   5.635
 7471SOL    HW123312   6.478   6.139   5.599
 7471SOL    HW223313   6.345   6.194   5.676
 7472SOL     OW23314   3.198   6.216   2.926
 7472SOL    HW123315   3.176   6.313   2.937
 7472SOL    HW223316   3.273   6.207   2.861
 7473SOL     OW23317   6.920   3.593   4.928
 7473SOL    HW123318   6.828   3.595   4.967
 7473SOL    HW223319   6.954   3.499   4.928
 7474SOL     OW23320   3.724   0.773   2.934
 7474SOL    HW123321   3.798   0.792   2.999
 7474SOL    HW223322   3.754   0.799   2.842
 7475SOL     OW23323   4.120   1.796   0.152
 7475SOL    HW123324   4.026   1.797   0.118
 7475SOL    HW223325   4.162   1.886   0.136
 7476SOL     OW23326   3.414   6.812   4.999
 7476SOL    HW123327   3.434   6.714   4.994
 7476SOL    HW223328   3.331   6.826   5.054
 7477SOL     OW23329   4.845   2.091   3.752
 7477SOL    HW123330   4.921   2.154   3.739
 7477SOL    HW223331   4.855   2.012   3.692
 7478SOL     OW23332   1.491   5.245   1.182
 7478SOL    HW123333   1.417   5.238   1.115
 7478SOL    HW223334   1.467   5.191   1.263
 7479SOL     OW23335   4.751   0.307   6.696
 7479SOL    HW123336   4.804   0.390   6.715
 7479SOL    HW223337   4.658   0.318   6.731
 7480SOL     OW23338   0.153   5.091   0.815
 7480SOL    HW123339   0.056   5.118   0.822
 7480SOL    HW223340   0.161   5.011   0.756
 7481SOL     OW23341   6.031   5.372   0.921
 7481SOL    HW123342   6.045   5.273   0.921
 7481SOL    HW223343   5.962   5.396   0.989
 7482SOL     OW23344   4.912   0.653   4.082
 7482SOL    HW123345   4.885   0.646   3.987
 7482SOL    HW223346   4.956   0.567   4.111
 7483SOL     OW23347   3.250   0.874   6.353
 7483SOL    HW123348   3.181   0.847   6.420
 7483SOL    HW223349   3.342   0.856   6.390
 7484SOL     OW23350   2.159   0.023   1.964
 7484SOL    HW123351   2.147   0.094   2.034
 7484SOL    HW223352   2.232   0.051   1.901
 7485SOL     OW23353   1.693   6.345   6.672
 7485SOL    HW123354   1.737   6.321   6.585
 7485SOL    HW223355   1.601   6.306   6.675
 7486SOL     OW23356   2.232   6.959   5.153
 7486SOL    HW123357   2.269   6.930   5.241
 7486SOL    HW223358   2.303   6.953   5.083
 7487SOL     OW23359   4.218   5.551   3.466
 7487SOL    HW123360   4.168   5.593   3.391
 7487SOL    HW223361   4.176   5.577   3.553
 7488SOL     OW23362   3.652   1.143   6.105
 7488SOL    HW123363   3.576   1.205   6.121
 7488SOL    HW223364   3.713   1.181   6.035
 7489SOL     OW23365   5.487   3.501   3.019
 7489SOL    HW123366   5.553   3.469   3.087
 7489SOL    HW223367   5.490   3.601   3.013
 7490SOL     OW23368   5.872   1.647   1.735
 7490SOL    HW123369   5.795   1.675   1.793
 7490SOL    HW223370   5.903   1.725   1.682
 7491SOL     OW23371   6.587   5.480   6.410
 7491SOL    HW123372   6.633   5.521   6.489
 7491SOL    HW223373   6.491   5.462   6.434
 7492SOL     OW23374   2.128   2.638   4.572
 7492SOL    HW123375   2.170   2.577   4.639
 7492SOL    HW223376   2.115   2.589   4.486
 7493SOL     OW23377   5.166   3.480   0.201
 7493SOL    HW123378   5.190   3.495   0.105
 7493SOL    HW223379   5.231   3.529   0.259
 7494SOL     OW23380   5.675   1.571   1.516
 7494SOL    HW123381   5.743   1.584   1.589
 7494SOL    HW223382   5.715   1.516   1.443
 7495SOL     OW23383   0.581   1.946   2.068
 7495SOL    HW123384   0.551   1.998   1.989
 7495SOL    HW223385   0.558   1.995   2.152
 7496SOL     OW23386   1.055   4.900   5.728
 7496SOL    HW123387   1.104   4.951   5.657
 7496SOL    HW223388   0.973   4.950   5.754
 7497SOL     OW23389   2.305   4.829   1.655
 7497SOL    HW123390   2.341   4.882   1.579
 7497SOL    HW223391   2.320   4.878   1.741
 7498SOL     OW23392   4.120   1.873   4.357
 7498SOL    HW123393   4.192   1.878   4.288
 7498SOL    HW223394   4.071   1.786   4.348
 7499SOL     OW23395   5.037   5.641   4.421
 7499SOL    HW123396   4.991   5.583   4.354
 7499SOL    HW223397   5.130   5.608   4.435
 7500SOL     OW23398   4.832   4.431   1.248
 7500SOL    HW123399   4.896   4.416   1.324
 7500SOL    HW223400   4.766   4.501   1.273
 7501SOL     OW23401   0.106   4.409   4.097
 7501SOL    HW123402   0.031   4.395   4.033
 7501SOL    HW223403   0.183   4.452   4.049
 7502SOL     OW23404   2.181   1.384   4.709
 7502SOL    HW123405   2.110   1.401   4.641
 7502SOL    HW223406   2.270   1.382   4.665
 7503SOL     OW23407   2.372   2.310   6.163
 7503SOL    HW123408   2.466   2.343   6.148
 7503SOL    HW223409   2.311   2.389   6.172
 7504SOL     OW23410   4.071   5.970   3.602
 7504SOL    HW123411   4.031   5.907   3.668
 7504SOL    HW223412   4.003   5.994   3.533
 7505SOL     OW23413   1.741   1.893   4.561
 7505SOL    HW123414   1.663   1.880   4.623
 7505SOL    HW223415   1.801   1.814   4.566
 7506SOL     OW23416   3.460   1.805   2.971
 7506SOL    HW123417   3.453   1.888   2.915
 7506SOL    HW223418   3.380   1.798   3.030
 7507SOL     OW23419   1.366   6.177   5.926
 7507SOL    HW123420   1.306   6.240   5.878
 7507SOL    HW223421   1.317   6.092   5.946
 7508SOL     OW23422   5.504   0.212   3.595
 7508SOL    HW123423   5.515   0.311   3.607
 7508SOL    HW223424   5.540   0.164   3.674
 7509SOL     OW23425   4.794   4.033   5.858
 7509SOL    HW123426   4.860   3.978   5.908
 7509SOL    HW223427   4.816   4.032   5.760
 7510SOL     OW23428   3.518   4.161   5.024
 7510SOL    HW123429   3.594   4.160   5.088
 7510SOL    HW223430   3.438   4.204   5.066
 7511SOL     OW23431   1.335   0.599   2.389
 7511SOL    HW123432   1.365   0.665   2.320
 7511SOL    HW223433   1.413   0.572   2.445
 7512SOL     OW23434   1.829   2.573   1.902
 7512SOL    HW123435   1.777   2.550   1.985
 7512SOL    HW223436   1.918   2.611   1.927
 7513SOL     OW23437   0.965   2.668   6.695
 7513SOL    HW123438   0.927   2.597   6.636
 7513SOL    HW223439   0.932   2.757   6.665
 7514SOL     OW23440   2.718   5.644   3.045
 7514SOL    HW123441   2.669   5.561   3.018
 7514SOL    HW223442   2.716   5.653   3.145
 7515SOL     OW23443   6.152   5.714   2.725
 7515SOL    HW123444   6.163   5.631   2.670
 7515SOL    HW223445   6.211   5.786   2.690
 7516SOL     OW23446   0.357   0.915   2.721
 7516SOL    HW123447   0.436   0.973   2.702
 7516SOL    HW223448   0.289   0.967   2.773
 7517SOL     OW23449   0.256   4.217   1.513
 7517SOL    HW123450   0.184   4.276   1.549
 7517SOL    HW223451   0.327   4.273   1.470
 7518SOL     OW23452   4.984   5.274   3.564
 7518SOL    HW123453   4.925   5.195   3.575
 7518SOL    HW223454   5.061   5.268   3.628
 7519SOL     OW23455   2.508   5.987   3.779
 7519SOL    HW123456   2.413   5.999   3.805
 7519SOL    HW223457   2.515   5.923   3.702
 7520SOL     OW23458   1.697   6.700   4.189
 7520SOL    HW123459   1.706   6.627   4.121
 7520SOL    HW223460   1.784   6.748   4.197
 7521SOL     OW23461   4.796   4.367   5.792
 7521SOL    HW123462   4.829   4.421   5.715
 7521SOL    HW223463   4.729   4.300   5.761
 7522SOL     OW23464   1.817   0.875   1.384
 7522SOL    HW123465   1.817   0.788   1.432
 7522SOL    HW223466   1.804   0.949   1.449
 7523SOL     OW23467   5.926   6.817   6.630
 7523SOL    HW123468   5.862   6.751   6.590
 7523SOL    HW223469   5.949   6.790   6.723
 7524SOL     OW23470   0.249   1.381   4.937
 7524SOL    HW123471   0.262   1.376   4.838
 7524SOL    HW223472   0.151   1.384   4.958
 7525SOL     OW23473   1.645   0.157   0.643
 7525SOL    HW123474   1.597   0.094   0.703
 7525SOL    HW223475   1.628   0.251   0.671
 7526SOL     OW23476   3.550   2.919   4.771
 7526SOL    HW123477   3.640   2.962   4.761
 7526SOL    HW223478   3.526   2.874   4.685
 7527SOL     OW23479   5.153   5.161   3.083
 7527SOL    HW123480   5.134   5.074   3.130
 7527SOL    HW223481   5.066   5.201   3.053
 7528SOL     OW23482   6.787   3.515   6.600
 7528SOL    HW123483   6.874   3.556   6.625
 7528SOL    HW223484   6.770   3.435   6.657
 7529SOL     OW23485   3.313   1.368   5.963
 7529SOL    HW123486   3.302   1.277   5.923
 7529SOL    HW223487   3.224   1.414   5.966
 7530SOL     OW23488   0.521   3.821   2.646
 7530SOL    HW123489   0.435   3.867   2.622
 7530SOL    HW223490   0.500   3.735   2.693
 7531SOL     OW23491   3.940   2.173   3.500
 7531SOL    HW123492   3.876   2.100   3.475
 7531SOL    HW223493   3.942   2.183   3.600
 7532SOL     OW23494   5.336   5.178   2.599
 7532SOL    HW123495   5.242   5.150   2.618
 7532SOL    HW223496   5.397   5.101   2.614
 7533SOL     OW23497   3.640   0.737   4.417
 7533SOL    HW123498   3.707   0.731   4.491
 7533SOL    HW223499   3.644   0.653   4.362
 7534SOL     OW23500   4.900   6.829   4.843
 7534SOL    HW123501   4.994   6.857   4.823
 7534SOL    HW223502   4.875   6.750   4.787
 7535SOL     OW23503   3.309   3.646   6.030
 7535SOL    HW123504   3.253   3.577   6.077
 7535SOL    HW223505   3.300   3.634   5.932
 7536SOL     OW23506   3.634   6.354   4.251
 7536SOL    HW123507   3.612   6.371   4.155
 7536SOL    HW223508   3.585   6.272   4.282
 7537SOL     OW23509   2.199   4.925   5.870
 7537SOL    HW123510   2.203   4.900   5.773
 7537SOL    HW223511   2.232   4.848   5.925
 7538SOL     OW23512   2.933   3.410   2.338
 7538SOL    HW123513   2.909   3.392   2.243
 7538SOL    HW223514   2.916   3.329   2.393
 7539SOL     OW23515   1.914   2.705   4.806
 7539SOL    HW123516   1.896   2.610   4.780
 7539SOL    HW223517   1.947   2.756   4.726
 7540SOL     OW23518   2.316   1.559   0.033
 7540SOL    HW123519   2.370   1.528   6.980
 7540SOL    HW223520   2.343   1.508   0.115
 7541SOL     OW23521   6.337   2.342   5.908
 7541SOL    HW123522   6.330   2.395   5.823
 7541SOL    HW223523   6.416   2.281   5.902
 7542SOL     OW23524   1.513   6.764   6.606
 7542SOL    HW123525   1.557   6.836   6.552
 7542SOL    HW223526   1.414   6.770   6.594
 7543SOL     OW23527   3.651   3.201   0.150
 7543SOL    HW123528   3.711   3.198   0.231
 7543SOL    HW223529   3.653   3.294   0.112
 7544SOL     OW23530   2.331   1.961   2.493
 7544SOL    HW123531   2.291   1.882   2.448
 7544SOL    HW223532   2.429   1.965   2.474
 7545SOL     OW23533   5.377   6.255   4.642
 7545SOL    HW123534   5.345   6.179   4.586
 7545SOL    HW223535   5.423   6.322   4.584
 7546SOL     OW23536   5.012   0.713   6.940
 7546SOL    HW123537   5.071   0.792   6.925
 7546SOL    HW223538   5.068   0.635   6.969
 7547SOL     OW23539   3.102   0.193   0.069
 7547SOL    HW123540   3.116   0.161   7.001
 7547SOL    HW223541   3.190   0.202   0.115
 7548SOL     OW23542   1.634   2.433   1.689
 7548SOL    HW123543   1.585   2.422   1.602
 7548SOL    HW223544   1.574   2.474   1.757
 7549SOL     OW23545   5.790   2.386   2.406
 7549SOL    HW123546   5.807   2.289   2.391
 7549SOL    HW223547   5.716   2.398   2.472
 7550SOL     OW23548   2.098   5.739   1.249
 7550SOL    HW123549   2.001   5.737   1.272
 7550SOL    HW223550   2.109   5.766   1.153
 7551SOL     OW23551   4.765   3.568   6.386
 7551SOL    HW123552   4.853   3.603   6.418
 7551SOL    HW223553   4.739   3.487   6.440
 7552SOL     OW23554   3.704   5.279   3.733
 7552SOL    HW123555   3.625   5.257   3.674
 7552SOL    HW223556   3.777   5.319   3.678
 7553SOL     OW23557   4.323   4.990   5.911
 7553SOL    HW123558   4.417   4.960   5.927
 7553SOL    HW223559   4.323   5.066   5.847
 7554SOL     OW23560   6.412   0.887   1.177
 7554SOL    HW123561   6.466   0.967   1.203
 7554SOL    HW223562   6.456   0.804   1.210
 7555SOL     OW23563   1.345   5.847   5.386
 7555SOL    HW123564   1.369   5.926   5.443
 7555SOL    HW223565   1.428   5.800   5.358
 7556SOL     OW23566   0.594   2.759   5.171
 7556SOL    HW123567   0.574   2.855   5.151
 7556SOL    HW223568   0.645   2.719   5.094
 7557SOL     OW23569   4.737   3.822   7.024
 7557SOL    HW123570   4.693   3.846   6.938
 7557SOL    HW223571   4.832   3.854   7.023
 7558SOL     OW23572   1.413   3.407   3.425
 7558SOL    HW123573   1.463   3.417   3.511
 7558SOL    HW223574   1.382   3.313   3.415
 7559SOL     OW23575   0.683   4.290   1.278
 7559SOL    HW123576   0.739   4.271   1.358
 7559SOL    HW223577   0.740   4.286   1.196
 7560SOL     OW23578   4.353   6.677   6.926
 7560SOL    HW123579   4.323   6.764   6.887
 7560SOL    HW223580   4.403   6.693   7.010
 7561SOL     OW23581   0.309   2.671   0.883
 7561SOL    HW123582   0.401   2.632   0.882
 7561SOL    HW223583   0.268   2.664   0.792
 7562SOL     OW23584   5.807   5.538   5.282
 7562SOL    HW123585   5.751   5.597   5.224
 7562SOL    HW223586   5.819   5.449   5.238
 7563SOL     OW23587   2.137   0.701   2.241
 7563SOL    HW123588   2.203   0.642   2.195
 7563SOL    HW223589   2.048   0.655   2.244
 7564SOL     OW23590   4.883   6.067   4.033
 7564SOL    HW123591   4.929   6.101   4.115
 7564SOL    HW223592   4.888   5.967   4.031
 7565SOL     OW23593   4.804   4.518   0.991
 7565SOL    HW123594   4.894   4.553   0.965
 7565SOL    HW223595   4.808   4.482   1.085
 7566SOL     OW23596   1.164   6.063   4.426
 7566SOL    HW123597   1.207   6.131   4.365
 7566SOL    HW223598   1.108   6.110   4.494
 7567SOL     OW23599   2.842   4.083   0.303
 7567SOL    HW123600   2.937   4.053   0.293
 7567SOL    HW223601   2.800   4.035   0.380
 7568SOL     OW23602   4.825   4.778   2.733
 7568SOL    HW123603   4.737   4.810   2.697
 7568SOL    HW223604   4.871   4.723   2.664
 7569SOL     OW23605   4.382   0.113   0.731
 7569SOL    HW123606   4.314   0.118   0.804
 7569SOL    HW223607   4.440   0.033   0.745
 7570SOL     OW23608   6.450   4.895   4.197
 7570SOL    HW123609   6.450   4.795   4.192
 7570SOL    HW223610   6.429   4.925   4.290
 7571SOL     OW23611   5.131   4.629   2.138
 7571SOL    HW123612   5.101   4.594   2.049
 7571SOL    HW223613   5.219   4.588   2.162
 7572SOL     OW23614   2.538   1.571   4.805
 7572SOL    HW123615   2.494   1.486   4.835
 7572SOL    HW223616   2.576   1.619   4.884
 7573SOL     OW23617   2.501   5.593   4.397
 7573SOL    HW123618   2.473   5.543   4.315
 7573SOL    HW223619   2.558   5.671   4.370
 7574SOL     OW23620   5.215   6.498   2.765
 7574SOL    HW123621   5.254   6.590   2.773
 7574SOL    HW223622   5.188   6.466   2.856
 7575SOL     OW23623   3.594   2.057   4.892
 7575SOL    HW123624   3.682   2.096   4.916
 7575SOL    HW223625   3.604   2.000   4.810
 7576SOL     OW23626   6.080   2.763   0.880
 7576SOL    HW123627   6.034   2.817   0.951
 7576SOL    HW223628   6.067   2.666   0.899
 7577SOL     OW23629   4.900   0.492   4.919
 7577SOL    HW123630   4.859   0.535   4.999
 7577SOL    HW223631   4.832   0.433   4.874
 7578SOL     OW23632   2.550   4.836   4.480
 7578SOL    HW123633   2.454   4.822   4.506
 7578SOL    HW223634   2.609   4.784   4.542
 7579SOL     OW23635   3.926   1.450   3.233
 7579SOL    HW123636   3.835   1.466   3.196
 7579SOL    HW223637   3.988   1.523   3.204
 7580SOL     OW23638   1.741   3.813   2.984
 7580SOL    HW123639   1.788   3.849   3.065
 7580SOL    HW223640   1.684   3.735   3.011
 7581SOL     OW23641   6.008   0.554   1.176
 7581SOL    HW123642   5.969   0.644   1.161
 7581SOL    HW223643   6.058   0.553   1.263
 7582SOL     OW23644   3.214   0.836   1.064
 7582SOL    HW123645   3.117   0.859   1.055
 7582SOL    HW223646   3.242   0.848   1.159
 7583SOL     OW23647   6.643   3.248   2.379
 7583SOL    HW123648   6.717   3.279   2.318
 7583SOL    HW223649   6.655   3.290   2.469
 7584SOL     OW23650   2.687   0.471   0.941
 7584SOL    HW123651   2.603   0.429   0.906
 7584SOL    HW223652   2.665   0.547   1.002
 7585SOL     OW23653   1.787   5.082   6.050
 7585SOL    HW123654   1.706   5.038   6.012
 7585SOL    HW223655   1.835   5.017   6.109
 7586SOL     OW23656   2.356   1.049   2.103
 7586SOL    HW123657   2.321   1.047   2.197
 7586SOL    HW223658   2.436   0.990   2.097
 7587SOL     OW23659   1.570   1.159   5.723
 7587SOL    HW123660   1.619   1.237   5.685
 7587SOL    HW223661   1.631   1.079   5.724
 7588SOL     OW23662   0.102   4.414   1.622
 7588SOL    HW123663   0.175   4.482   1.627
 7588SOL    HW223664   0.013   4.459   1.631
 7589SOL     OW23665   5.588   5.691   0.743
 7589SOL    HW123666   5.517   5.631   0.781
 7589SOL    HW223667   5.559   5.786   0.751
 7590SOL     OW23668   1.519   0.532   5.977
 7590SOL    HW123669   1.550   0.622   6.009
 7590SOL    HW223670   1.597   0.480   5.943
 7591SOL     OW23671   6.933   5.061   0.519
 7591SOL    HW123672   6.953   5.129   0.447
 7591SOL    HW223673   7.019   5.031   0.560
 7592SOL     OW23674   5.442   5.525   0.520
 7592SOL    HW123675   5.417   5.621   0.509
 7592SOL    HW223676   5.538   5.518   0.547
 7593SOL     OW23677   6.278   2.334   6.723
 7593SOL    HW123678   6.356   2.389   6.751
 7593SOL    HW223679   6.194   2.375   6.756
 7594SOL     OW23680   1.294   6.011   3.767
 7594SOL    HW123681   1.387   5.975   3.762
 7594SOL    HW223682   1.240   5.955   3.830
 7595SOL     OW23683   6.241   2.797   0.146
 7595SOL    HW123684   6.280   2.712   0.182
 7595SOL    HW223685   6.154   2.817   0.192
 7596SOL     OW23686   5.620   4.639   2.055
 7596SOL    HW123687   5.549   4.685   2.110
 7596SOL    HW223688   5.663   4.568   2.109
 7597SOL     OW23689   3.352   5.157   1.587
 7597SOL    HW123690   3.416   5.230   1.564
 7597SOL    HW223691   3.383   5.111   1.670
 7598SOL     OW23692   6.832   1.165   3.603
 7598SOL    HW123693   6.881   1.089   3.562
 7598SOL    HW223694   6.891   1.246   3.605
 7599SOL     OW23695   6.337   2.399   2.459
 7599SOL    HW123696   6.242   2.426   2.475
 7599SOL    HW223697   6.381   2.467   2.400
 7600SOL     OW23698   2.225   1.555   1.378
 7600SOL    HW123699   2.221   1.527   1.282
 7600SOL    HW223700   2.255   1.651   1.384
 7601SOL     OW23701   2.018   6.711   4.582
 7601SOL    HW123702   2.093   6.771   4.610
 7601SOL    HW223703   1.937   6.766   4.561
 7602SOL     OW23704   0.531   3.629   4.936
 7602SOL    HW123705   0.548   3.689   5.014
 7602SOL    HW223706   0.452   3.663   4.884
 7603SOL     OW23707   0.988   6.865   1.320
 7603SOL    HW123708   0.944   6.775   1.321
 7603SOL    HW223709   0.921   6.934   1.346
 7604SOL     OW23710   5.318   6.161   5.759
 7604SOL    HW123711   5.260   6.087   5.794
 7604SOL    HW223712   5.263   6.222   5.702
 7605SOL     OW23713   5.976   4.597   6.677
 7605SOL    HW123714   6.037   4.520   6.694
 7605SOL    HW223715   5.912   4.607   6.753
 7606SOL     OW23716   6.044   1.926   2.771
 7606SOL    HW123717   6.018   2.014   2.733
 7606SOL    HW223718   6.085   1.939   2.861
 7607SOL     OW23719   4.646   0.039   6.557
 7607SOL    HW123720   4.643   0.133   6.590
 7607SOL    HW223721   4.553   0.003   6.550
 7608SOL     OW23722   3.424   3.235   3.490
 7608SOL    HW123723   3.379   3.314   3.449
 7608SOL    HW223724   3.515   3.262   3.523
 7609SOL     OW23725   1.206   3.381   4.553
 7609SOL    HW123726   1.299   3.344   4.562
 7609SOL    HW223727   1.211   3.479   4.531
 7610SOL     OW23728   5.312   0.113   1.372
 7610SOL    HW123729   5.289   0.018   1.394
 7610SOL    HW223730   5.234   0.157   1.329
 7611SOL     OW23731   1.761   1.781   0.395
 7611SOL    HW123732   1.692   1.793   0.323
 7611SOL    HW223733   1.839   1.841   0.377
 7612SOL     OW23734   4.181   1.863   3.027
 7612SOL    HW123735   4.192   1.814   2.941
 7612SOL    HW223736   4.203   1.959   3.014
 7613SOL     OW23737   4.738   1.057   2.245
 7613SOL    HW123738   4.714   1.074   2.341
 7613SOL    HW223739   4.737   1.143   2.194
 7614SOL     OW23740   4.200   2.405   0.556
 7614SOL    HW123741   4.217   2.493   0.600
 7614SOL    HW223742   4.274   2.342   0.578
 7615SOL     OW23743   3.613   5.076   5.808
 7615SOL    HW123744   3.708   5.045   5.817
 7615SOL    HW223745   3.589   5.085   5.712
 7616SOL     OW23746   6.130   4.076   3.671
 7616SOL    HW123747   6.149   4.009   3.743
 7616SOL    HW223748   6.031   4.092   3.666
 7617SOL     OW23749   2.767   5.701   2.420
 7617SOL    HW123750   2.800   5.609   2.401
 7617SOL    HW223751   2.844   5.765   2.414
 7618SOL     OW23752   2.054   2.566   0.387
 7618SOL    HW123753   1.959   2.557   0.419
 7618SOL    HW223754   2.069   2.501   0.312
 7619SOL     OW23755   5.076   3.527   6.072
 7619SOL    HW123756   5.131   3.443   6.067
 7619SOL    HW223757   4.980   3.503   6.088
 7620SOL     OW23758   3.349   6.832   1.739
 7620SOL    HW123759   3.320   6.803   1.830
 7620SOL    HW223760   3.342   6.755   1.676
 7621SOL     OW23761   2.552   0.864   1.834
 7621SOL    HW123762   2.483   0.845   1.763
 7621SOL    HW223763   2.623   0.923   1.796
 7622SOL     OW23764   4.221   2.577   0.309
 7622SOL    HW123765   4.224   2.520   0.390
 7622SOL    HW223766   4.221   2.673   0.336
 7623SOL     OW23767   4.611   0.655   5.629
 7623SOL    HW123768   4.542   0.586   5.651
 7623SOL    HW223769   4.567   0.744   5.621
 7624SOL     OW23770   0.668   0.743   3.530
 7624SOL    HW123771   0.617   0.821   3.495
 7624SOL    HW223772   0.760   0.771   3.558
 7625SOL     OW23773   4.369   0.299   1.465
 7625SOL    HW123774   4.402   0.210   1.434
 7625SOL    HW223775   4.415   0.325   1.550
 7626SOL     OW23776   1.812   5.566   4.810
 7626SOL    HW123777   1.900   5.563   4.763
 7626SOL    HW223778   1.794   5.660   4.840
 7627SOL     OW23779   0.020   2.540   0.701
 7627SOL    HW123780   0.112   2.579   0.695
 7627SOL    HW223781   0.012   2.465   0.636
 7628SOL     OW23782   3.329   1.949   0.850
 7628SOL    HW123783   3.239   1.960   0.808
 7628SOL    HW223784   3.384   2.031   0.832
 7629SOL     OW23785   0.068   5.949   3.264
 7629SOL    HW123786   0.022   5.860   3.275
 7629SOL    HW223787   0.035   5.993   3.180
 7630SOL     OW23788   6.165   0.935   2.514
 7630SOL    HW123789   6.246   0.882   2.488
 7630SOL    HW223790   6.159   1.017   2.457
 7631SOL     OW23791   0.641   2.503   3.545
 7631SOL    HW123792   0.545   2.508   3.516
 7631SOL    HW223793   0.697   2.471   3.468
 7632SOL     OW23794   4.803   1.362   0.239
 7632SOL    HW123795   4.748   1.335   0.318
 7632SOL    HW223796   4.807   1.461   0.233
 7633SOL     OW23797   5.384   3.952   6.963
 7633SOL    HW123798   5.406   4.044   6.997
 7633SOL    HW223799   5.429   3.884   7.021
 7634SOL     OW23800   1.437   1.498   1.973
 7634SOL    HW123801   1.473   1.459   1.888
 7634SOL    HW223802   1.381   1.430   2.020
 7635SOL     OW23803   3.050   4.547   5.510
 7635SOL    HW123804   3.111   4.473   5.480
 7635SOL    HW223805   2.978   4.560   5.443
 7636SOL     OW23806   0.768   0.592   3.988
 7636SOL    HW123807   0.859   0.615   3.953
 7636SOL    HW223808   0.698   0.635   3.932
 7637SOL     OW23809   1.913   5.997   4.242
 7637SOL    HW123810   1.981   6.056   4.286
 7637SOL    HW223811   1.877   5.932   4.309
 7638SOL     OW23812   5.322   5.142   2.301
 7638SOL    HW123813   5.226   5.142   2.272
 7638SOL    HW223814   5.327   5.158   2.399
 7639SOL     OW23815   0.830   1.977   5.245
 7639SOL    HW123816   0.843   2.032   5.163
 7639SOL    HW223817   0.915   1.929   5.268
 7640SOL     OW23818   2.524   1.797   6.662
 7640SOL    HW123819   2.619   1.811   6.691
 7640SOL    HW223820   2.465   1.861   6.709
 7641SOL     OW23821   5.748   3.771   2.217
 7641SOL    HW123822   5.708   3.783   2.126
 7641SOL    HW223823   5.746   3.858   2.266
 7642SOL     OW23824   2.716   2.095   2.652
 7642SOL    HW123825   2.693   2.043   2.734
 7642SOL    HW223826   2.777   2.040   2.594
 7643SOL     OW23827   4.877   3.144   3.389
 7643SOL    HW123828   4.870   3.243   3.407
 7643SOL    HW223829   4.830   3.094   3.462
 7644SOL     OW23830   6.908   3.370   2.978
 7644SOL    HW123831   6.996   3.378   2.931
 7644SOL    HW223832   6.868   3.461   2.989
 7645SOL     OW23833   4.436   3.637   6.506
 7645SOL    HW123834   4.339   3.653   6.485
 7645SOL    HW223835   4.492   3.698   6.450
 7646SOL     OW23836   2.093   1.871   1.728
 7646SOL    HW123837   2.188   1.840   1.740
 7646SOL    HW223838   2.051   1.885   1.817
 7647SOL     OW23839   2.561   3.944   1.548
 7647SOL    HW123840   2.544   4.043   1.547
 7647SOL    HW223841   2.527   3.905   1.633
 7648SOL     OW23842   4.318   0.732   3.622
 7648SOL    HW123843   4.383   0.734   3.699
 7648SOL    HW223844   4.329   0.815   3.567
 7649SOL     OW23845   3.176   0.899   1.988
 7649SOL    HW123846   3.229   0.984   1.985
 7649SOL    HW223847   3.172   0.859   1.897
 7650SOL     OW23848   6.376   4.408   2.566
 7650SOL    HW123849   6.341   4.469   2.638
 7650SOL    HW223850   6.342   4.315   2.583
 7651SOL     OW23851   3.843   1.458   6.462
 7651SOL    HW123852   3.760   1.409   6.488
 7651SOL    HW223853   3.823   1.555   6.453
 7652SOL     OW23854   0.861   3.539   2.206
 7652SOL    HW123855   0.915   3.510   2.284
 7652SOL    HW223856   0.914   3.604   2.151
 7653SOL     OW23857   2.864   2.120   1.251
 7653SOL    HW123858   2.884   2.035   1.202
 7653SOL    HW223859   2.948   2.159   1.287
 7654SOL     OW23860   4.949   3.919   3.694
 7654SOL    HW123861   5.012   3.932   3.618
 7654SOL    HW223862   4.939   3.822   3.713
 7655SOL     OW23863   4.014   6.368   5.316
 7655SOL    HW123864   3.983   6.311   5.240
 7655SOL    HW223865   4.112   6.354   5.331
 7656SOL     OW23866   0.800   6.498   4.956
 7656SOL    HW123867   0.809   6.401   4.935
 7656SOL    HW223868   0.872   6.526   5.020
 7657SOL     OW23869   3.781   1.206   3.645
 7657SOL    HW123870   3.718   1.181   3.572
 7657SOL    HW223871   3.793   1.129   3.708
 7658SOL     OW23872   4.016   0.925   5.902
 7658SOL    HW123873   4.042   0.922   5.998
 7658SOL    HW223874   3.936   0.867   5.887
 7659SOL     OW23875   5.804   0.288   0.740
 7659SOL    HW123876   5.740   0.342   0.794
 7659SOL    HW223877   5.882   0.262   0.798
 7660SOL     OW23878   6.158   5.066   4.117
 7660SOL    HW123879   6.188   5.065   4.212
 7660SOL    HW223880   6.059   5.082   4.113
 7661SOL     OW23881   6.645   2.746   3.496
 7661SOL    HW123882   6.550   2.714   3.504
 7661SOL    HW223883   6.682   2.761   3.588
 7662SOL     OW23884   6.693   4.947   2.003
 7662SOL    HW123885   6.646   5.022   1.957
 7662SOL    HW223886   6.690   4.865   1.946
 7663SOL     OW23887   0.127   5.465   6.896
 7663SOL    HW123888   0.140   5.555   6.855
 7663SOL    HW223889   0.146   5.470   6.994
 7664SOL     OW23890   2.610   5.001   4.052
 7664SOL    HW123891   2.544   4.958   3.991
 7664SOL    HW223892   2.579   4.991   4.147
 7665SOL     OW23893   3.176   6.831   5.138
 7665SOL    HW123894   3.182   6.829   5.238
 7665SOL    HW223895   3.141   6.920   5.109
 7666SOL     OW23896   1.074   0.941   1.178
 7666SOL    HW123897   1.146   0.910   1.115
 7666SOL    HW223898   1.002   0.872   1.184
 7667SOL     OW23899   4.064   6.011   6.384
 7667SOL    HW123900   4.113   6.049   6.462
 7667SOL    HW223901   4.095   5.918   6.368
 7668SOL     OW23902   3.187   3.802   1.185
 7668SOL    HW123903   3.122   3.864   1.230
 7668SOL    HW223904   3.154   3.781   1.093
 7669SOL     OW23905   4.494   6.531   4.547
 7669SOL    HW123906   4.503   6.611   4.488
 7669SOL    HW223907   4.554   6.542   4.627
 7670SOL     OW23908   1.625   4.819   0.645
 7670SOL    HW123909   1.679   4.737   0.665
 7670SOL    HW223910   1.574   4.845   0.727
 7671SOL     OW23911   5.660   2.781   4.736
 7671SOL    HW123912   5.635   2.877   4.730
 7671SOL    HW223913   5.582   2.728   4.768
 7672SOL     OW23914   5.545   0.850   2.569
 7672SOL    HW123915   5.447   0.864   2.577
 7672SOL    HW223916   5.586   0.930   2.524
 7673SOL     OW23917   1.062   4.314   0.817
 7673SOL    HW123918   1.124   4.251   0.864
 7673SOL    HW223919   0.988   4.341   0.879
 7674SOL     OW23920   5.765   1.588   4.821
 7674SOL    HW123921   5.832   1.662   4.815
 7674SOL    HW223922   5.708   1.588   4.739
 7675SOL     OW23923   4.386   6.384   3.345
 7675SOL    HW123924   4.467   6.372   3.287
 7675SOL    HW223925   4.371   6.481   3.361
 7676SOL     OW23926   1.843   0.460   0.631
 7676SOL    HW123927   1.797   0.504   0.709
 7676SOL    HW223928   1.798   0.488   0.546
 7677SOL     OW23929   1.993   2.831   2.669
 7677SOL    HW123930   2.051   2.888   2.726
 7677SOL    HW223931   2.046   2.795   2.592
 7678SOL     OW23932   6.280   6.681   0.723
 7678SOL    HW123933   6.256   6.652   0.630
 7678SOL    HW223934   6.238   6.770   0.742
 7679SOL     OW23935   0.868   5.162   5.475
 7679SOL    HW123936   0.887   5.152   5.572
 7679SOL    HW223937   0.796   5.231   5.462
 7680SOL     OW23938   3.975   3.026   0.304
 7680SOL    HW123939   3.930   3.102   0.351
 7680SOL    HW223940   3.920   2.999   0.226
 7681SOL     OW23941   3.048   1.516   0.089
 7681SOL    HW123942   3.096   1.568   0.018
 7681SOL    HW223943   3.113   1.486   0.158
 7682SOL     OW23944   2.926   0.142   1.569
 7682SOL    HW123945   2.832   0.129   1.539
 7682SOL    HW223946   2.950   0.072   1.635
 7683SOL     OW23947   5.680   1.854   3.394
 7683SOL    HW123948   5.594   1.854   3.446
 7683SOL    HW223949   5.707   1.760   3.374
 7684SOL     OW23950   4.356   1.814   5.878
 7684SOL    HW123951   4.333   1.870   5.798
 7684SOL    HW223952   4.289   1.831   5.951
 7685SOL     OW23953   3.312   2.926   0.941
 7685SOL    HW123954   3.268   3.002   0.894
 7685SOL    HW223955   3.330   2.852   0.876
 7686SOL     OW23956   3.833   0.261   4.022
 7686SOL    HW123957   3.746   0.238   4.067
 7686SOL    HW223958   3.825   0.351   3.979
 7687SOL     OW23959   5.051   4.974   5.680
 7687SOL    HW123960   5.100   5.041   5.624
 7687SOL    HW223961   5.075   4.987   5.776
 7688SOL     OW23962   0.145   6.565   4.550
 7688SOL    HW123963   0.139   6.467   4.532
 7688SOL    HW223964   0.210   6.581   4.624
 7689SOL     OW23965   3.996   6.244   4.839
 7689SOL    HW123966   4.094   6.233   4.856
 7689SOL    HW223967   3.980   6.328   4.787
 7690SOL     OW23968   0.420   5.354   3.384
 7690SOL    HW123969   0.367   5.436   3.363
 7690SOL    HW223970   0.483   5.334   3.309
 7691SOL     OW23971   4.958   3.426   4.645
 7691SOL    HW123972   5.050   3.400   4.674
 7691SOL    HW223973   4.909   3.345   4.612
 7692SOL     OW23974   1.889   6.482   1.949
 7692SOL    HW123975   1.824   6.475   2.025
 7692SOL    HW223976   1.892   6.396   1.899
 7693SOL     OW23977   5.168   1.487   6.402
 7693SOL    HW123978   5.228   1.513   6.325
 7693SOL    HW223979   5.150   1.568   6.457
 7694SOL     OW23980   0.501   5.572   4.166
 7694SOL    HW123981   0.462   5.606   4.251
 7694SOL    HW223982   0.502   5.645   4.097
 7695SOL     OW23983   3.614   0.044   0.853
 7695SOL    HW123984   3.582   0.121   0.799
 7695SOL    HW223985   3.619   0.070   0.949
 7696SOL     OW23986   0.182   3.063   5.874
 7696SOL    HW123987   0.241   2.985   5.853
 7696SOL    HW223988   0.086   3.037   5.862
 7697SOL     OW23989   3.912   1.808   2.408
 7697SOL    HW123990   3.949   1.898   2.387
 7697SOL    HW223991   3.822   1.798   2.365
 7698SOL     OW23992   6.532   3.164   5.983
 7698SOL    HW123993   6.501   3.159   5.888
 7698SOL    HW223994   6.579   3.079   6.007
 7699SOL     OW23995   2.601   5.068   6.482
 7699SOL    HW123996   2.588   5.095   6.578
 7699SOL    HW223997   2.522   5.013   6.453
 7700SOL     OW23998   4.936   6.478   4.486
 7700SOL    HW123999   4.862   6.416   4.462
 7700SOL    HW224000   4.950   6.478   4.585
 7701SOL     OW24001   6.339   2.090   4.685
 7701SOL    HW124002   6.342   2.016   4.753
 7701SOL    HW224003   6.244   2.118   4.671
 7702SOL     OW24004   2.729   6.739   5.741
 7702SOL    HW124005   2.756   6.722   5.646
 7702SOL    HW224006   2.636   6.775   5.742
 7703SOL     OW24007   0.561   1.254   5.998
 7703SOL    HW124008   0.599   1.209   5.917
 7703SOL    HW224009   0.476   1.300   5.973
 7704SOL     OW24010   4.444   4.175   6.986
 7704SOL    HW124011   4.355   4.215   7.009
 7704SOL    HW224012   4.517   4.234   7.021
 7705SOL     OW24013   3.564   5.119   4.910
 7705SOL    HW124014   3.519   5.057   4.846
 7705SOL    HW224015   3.652   5.149   4.872
 7706SOL     OW24016   6.945   1.038   4.935
 7706SOL    HW124017   6.970   1.115   4.994
 7706SOL    HW224018   6.916   0.961   4.992
 7707SOL     OW24019   0.147   4.980   6.201
 7707SOL    HW124020   0.158   4.986   6.300
 7707SOL    HW224021   0.057   5.017   6.176
 7708SOL     OW24022   4.265   6.531   4.713
 7708SOL    HW124023   4.166   6.529   4.700
 7708SOL    HW224024   4.310   6.500   4.629
 7709SOL     OW24025   4.232   2.190   2.255
 7709SOL    HW124026   4.260   2.094   2.263
 7709SOL    HW224027   4.263   2.239   2.336
 7710SOL     OW24028   1.936   1.112   0.002
 7710SOL    HW124029   2.004   1.143   0.069
 7710SOL    HW224030   1.976   1.112   6.936
 7711SOL     OW24031   5.426   6.540   5.409
 7711SOL    HW124032   5.468   6.452   5.387
 7711SOL    HW224033   5.343   6.552   5.355
 7712SOL     OW24034   5.558   5.227   1.118
 7712SOL    HW124035   5.531   5.133   1.139
 7712SOL    HW224036   5.587   5.233   1.023
 7713SOL     OW24037   1.149   4.242   6.380
 7713SOL    HW124038   1.083   4.239   6.455
 7713SOL    HW224039   1.172   4.337   6.358
 7714SOL     OW24040   5.554   4.185   4.352
 7714SOL    HW124041   5.532   4.172   4.255
 7714SOL    HW224042   5.647   4.153   4.369
 7715SOL     OW24043   5.153   0.849   1.239
 7715SOL    HW124044   5.120   0.760   1.270
 7715SOL    HW224045   5.085   0.919   1.258
 7716SOL     OW24046   4.414   2.202   3.067
 7716SOL    HW124047   4.415   2.283   3.126
 7716SOL    HW224048   4.385   2.123   3.121
 7717SOL     OW24049   3.224   1.622   5.587
 7717SOL    HW124050   3.322   1.611   5.575
 7717SOL    HW224051   3.188   1.684   5.517
 7718SOL     OW24052   3.112   6.253   3.745
 7718SOL    HW124053   3.164   6.338   3.744
 7718SOL    HW224054   3.065   6.243   3.833
 7719SOL     OW24055   6.682   2.082   4.877
 7719SOL    HW124056   6.769   2.101   4.921
 7719SOL    HW224057   6.661   2.154   4.811
 7720SOL     OW24058   6.065   5.613   2.040
 7720SOL    HW124059   6.074   5.660   2.128
 7720SOL    HW224060   6.100   5.520   2.049
 7721SOL     OW24061   2.089   4.413   2.134
 7721SOL    HW124062   2.112   4.486   2.197
 7721SOL    HW224063   2.135   4.329   2.162
 7722SOL     OW24064   6.932   5.626   3.894
 7722SOL    HW124065   6.980   5.713   3.902
 7722SOL    HW224066   6.987   5.553   3.936
 7723SOL     OW24067   6.542   3.026   0.450
 7723SOL    HW124068   6.477   3.047   0.523
 7723SOL    HW224069   6.561   2.928   0.450
 7724SOL     OW24070   1.426   4.467   1.036
 7724SOL    HW124071   1.519   4.475   1.002
 7724SOL    HW224072   1.361   4.491   0.963
 7725SOL     OW24073   5.295   3.134   4.492
 7725SOL    HW124074   5.358   3.148   4.415
 7725SOL    HW224075   5.237   3.055   4.473
 7726SOL     OW24076   0.464   4.371   3.186
 7726SOL    HW124077   0.530   4.328   3.125
 7726SOL    HW224078   0.508   4.445   3.237
 7727SOL     OW24079   6.452   2.552   1.903
 7727SOL    HW124080   6.507   2.632   1.927
 7727SOL    HW224081   6.454   2.539   1.804
 7728SOL     OW24082   2.215   2.259   3.185
 7728SOL    HW124083   2.271   2.337   3.160
 7728SOL    HW224084   2.158   2.231   3.107
 7729SOL     OW24085   4.882   2.473   0.596
 7729SOL    HW124086   4.818   2.550   0.587
 7729SOL    HW224087   4.851   2.397   0.538
 7730SOL     OW24088   6.144   0.708   2.279
 7730SOL    HW124089   6.209   0.706   2.355
 7730SOL    HW224090   6.141   0.618   2.234
 7731SOL     OW24091   5.594   0.971   6.686
 7731SOL    HW124092   5.635   0.881   6.700
 7731SOL    HW224093   5.516   0.963   6.624
 7732SOL     OW24094   4.326   5.580   0.511
 7732SOL    HW124095   4.355   5.662   0.562
 7732SOL    HW224096   4.386   5.504   0.534
 7733SOL     OW24097   3.438   0.218   2.310
 7733SOL    HW124098   3.526   0.200   2.267
 7733SOL    HW224099   3.367   0.223   2.240
 7734SOL     OW24100   2.057   2.133   2.974
 7734SOL    HW124101   2.116   2.114   2.895
 7734SOL    HW224102   2.057   2.054   3.035
 7735SOL     OW24103   4.567   4.410   0.022
 7735SOL    HW124104   4.483   4.458   7.024
 7735SOL    HW224105   4.573   4.399   0.121
 7736SOL     OW24106   6.334   4.678   6.771
 7736SOL    HW124107   6.288   4.767   6.770
 7736SOL    HW224108   6.342   4.644   6.677
 7737SOL     OW24109   5.035   1.322   0.736
 7737SOL    HW124110   5.083   1.384   0.799
 7737SOL    HW224111   4.975   1.261   0.789
 7738SOL     OW24112   2.963   5.173   6.618
 7738SOL    HW124113   2.951   5.167   6.717
 7738SOL    HW224114   2.937   5.086   6.576
 7739SOL     OW24115   5.922   2.957   1.022
 7739SOL    HW124116   5.859   2.993   0.953
 7739SOL    HW224117   5.882   2.969   1.113
 7740SOL     OW24118   0.583   6.790   3.262
 7740SOL    HW124119   0.502   6.849   3.263
 7740SOL    HW224120   0.632   6.800   3.348
 7741SOL     OW24121   2.437   5.372   4.712
 7741SOL    HW124122   2.383   5.300   4.669
 7741SOL    HW224123   2.502   5.331   4.776
 7742SOL     OW24124   6.314   1.581   3.865
 7742SOL    HW124125   6.305   1.612   3.771
 7742SOL    HW224126   6.385   1.511   3.871
 7743SOL     OW24127   4.463   2.450   3.691
 7743SOL    HW124128   4.496   2.368   3.738
 7743SOL    HW224129   4.364   2.454   3.697
 7744SOL     OW24130   6.653   0.298   4.216
 7744SOL    HW124131   6.709   0.380   4.214
 7744SOL    HW224132   6.617   0.279   4.125
 7745SOL     OW24133   4.315   3.577   6.065
 7745SOL    HW124134   4.403   3.614   6.095
 7745SOL    HW224135   4.325   3.481   6.041
 7746SOL     OW24136   1.465   0.601   0.550
 7746SOL    HW124137   1.458   0.693   0.513
 7746SOL    HW224138   1.373   0.566   0.569
 7747SOL     OW24139   5.193   6.031   0.886
 7747SOL    HW124140   5.121   6.099   0.900
 7747SOL    HW224141   5.261   6.039   0.960
 7748SOL     OW24142   3.198   4.364   6.820
 7748SOL    HW124143   3.154   4.347   6.732
 7748SOL    HW224144   3.140   4.425   6.875
 7749SOL     OW24145   5.525   3.173   5.756
 7749SOL    HW124146   5.583   3.143   5.831
 7749SOL    HW224147   5.486   3.263   5.779
 7750SOL     OW24148   6.334   4.906   2.557
 7750SOL    HW124149   6.344   4.977   2.487
 7750SOL    HW224150   6.312   4.948   2.645
 7751SOL     OW24151   0.830   2.829   2.382
 7751SOL    HW124152   0.741   2.785   2.384
 7751SOL    HW224153   0.902   2.759   2.376
 7752SOL     OW24154   4.583   2.204   3.758
 7752SOL    HW124155   4.665   2.150   3.773
 7752SOL    HW224156   4.517   2.151   3.706
 7753SOL     OW24157   3.136   1.755   4.582
 7753SOL    HW124158   3.201   1.781   4.653
 7753SOL    HW224159   3.050   1.805   4.597
 7754SOL     OW24160   5.047   6.471   2.056
 7754SOL    HW124161   5.120   6.512   2.111
 7754SOL    HW224162   5.088   6.411   1.987
 7755SOL     OW24163   0.290   4.465   5.415
 7755SOL    HW124164   0.256   4.534   5.351
 7755SOL    HW224165   0.342   4.396   5.366
 7756SOL     OW24166   2.532   4.990   2.100
 7756SOL    HW124167   2.460   5.008   2.167
 7756SOL    HW224168   2.608   4.943   2.146
 7757SOL     OW24169   6.949   4.115   2.037
 7757SOL    HW124170   7.023   4.148   1.978
 7757SOL    HW224171   6.883   4.064   1.982
 7758SOL     OW24172   1.522   1.782   4.656
 7758SOL    HW124173   1.433   1.824   4.676
 7758SOL    HW224174   1.511   1.712   4.585
 7759SOL     OW24175   2.352   2.250   0.643
 7759SOL    HW124176   2.269   2.300   0.666
 7759SOL    HW224177   2.352   2.229   0.545
 7760SOL     OW24178   4.379   2.672   0.050
 7760SOL    HW124179   4.372   2.643   0.146
 7760SOL    HW224180   4.410   2.767   0.046
 7761SOL     OW24181   4.971   5.465   4.223
 7761SOL    HW124182   4.894   5.406   4.197
 7761SOL    HW224183   5.028   5.483   4.143
 7762SOL     OW24184   6.233   1.788   2.578
 7762SOL    HW124185   6.148   1.841   2.583
 7762SOL    HW224186   6.291   1.811   2.656
 7763SOL     OW24187   2.304   6.945   4.175
 7763SOL    HW124188   2.317   7.021   4.111
 7763SOL    HW224189   2.213   6.906   4.161
 7764SOL     OW24190   2.593   4.118   5.594
 7764SOL    HW124191   2.646   4.035   5.576
 7764SOL    HW224192   2.653   4.198   5.591
 7765SOL     OW24193   6.066   2.864   5.490
 7765SOL    HW124194   6.006   2.867   5.570
 7765SOL    HW224195   6.060   2.951   5.441
 7766SOL     OW24196   5.583   3.978   6.531
 7766SOL    HW124197   5.675   3.998   6.567
 7766SOL    HW224198   5.581   3.884   6.497
 7767SOL     OW24199   3.618   0.195   4.153
 7767SOL    HW124200   3.644   0.188   4.249
 7767SOL    HW224201   3.543   0.132   4.134
 7768SOL     OW24202   4.598   4.993   3.523
 7768SOL    HW124203   4.624   4.934   3.447
 7768SOL    HW224204   4.541   5.068   3.490
 7769SOL     OW24205   3.636   3.157   5.391
 7769SOL    HW124206   3.584   3.103   5.457
 7769SOL    HW224207   3.601   3.251   5.389
 7770SOL     OW24208   1.870   3.268   4.488
 7770SOL    HW124209   1.955   3.315   4.513
 7770SOL    HW224210   1.835   3.218   4.567
 7771SOL     OW24211   2.333   2.973   6.211
 7771SOL    HW124212   2.283   2.937   6.132
 7771SOL    HW224213   2.360   2.898   6.271
 7772SOL     OW24214   5.327   0.052   1.774
 7772SOL    HW124215   5.344   0.145   1.741
 7772SOL    HW224216   5.310   0.054   1.873
 7773SOL     OW24217   3.079   6.029   6.860
 7773SOL    HW124218   3.148   6.088   6.817
 7773SOL    HW224219   3.124   5.948   6.899
 7774SOL     OW24220   5.113   1.278   2.630
 7774SOL    HW124221   5.108   1.319   2.721
 7774SOL    HW224222   5.122   1.351   2.561
 7775SOL     OW24223   2.421   2.096   0.842
 7775SOL    HW124224   2.510   2.119   0.881
 7775SOL    HW224225   2.398   2.162   0.771
 7776SOL     OW24226   1.283   1.486   4.569
 7776SOL    HW124227   1.366   1.527   4.529
 7776SOL    HW224228   1.287   1.387   4.559
 7777SOL     OW24229   5.981   5.387   4.355
 7777SOL    HW124230   6.071   5.342   4.352
 7777SOL    HW224231   5.941   5.374   4.445
 7778SOL     OW24232   6.887   4.715   2.902
 7778SOL    HW124233   6.971   4.722   2.956
 7778SOL    HW224234   6.873   4.621   2.873
 7779SOL     OW24235   4.835   6.131   1.875
 7779SOL    HW124236   4.782   6.159   1.795
 7779SOL    HW224237   4.923   6.093   1.845
 7780SOL     OW24238   6.300   6.347   4.892
 7780SOL    HW124239   6.315   6.385   4.983
 7780SOL    HW224240   6.202   6.346   4.871
 7781SOL     OW24241   1.581   2.764   1.036
 7781SOL    HW124242   1.616   2.858   1.040
 7781SOL    HW224243   1.566   2.738   0.941
 7782SOL     OW24244   5.777   2.650   4.242
 7782SOL    HW124245   5.723   2.645   4.158
 7782SOL    HW224246   5.726   2.700   4.312
 7783SOL     OW24247   1.518   6.509   4.949
 7783SOL    HW124248   1.590   6.527   5.016
 7783SOL    HW224249   1.527   6.572   4.873
 7784SOL     OW24250   1.668   1.847   1.481
 7784SOL    HW124251   1.743   1.796   1.438
 7784SOL    HW224252   1.652   1.811   1.573
 7785SOL     OW24253   0.255   0.158   3.319
 7785SOL    HW124254   0.342   0.186   3.279
 7785SOL    HW224255   0.262   0.157   3.419
 7786SOL     OW24256   3.957   0.972   5.165
 7786SOL    HW124257   3.881   0.974   5.100
 7786SOL    HW224258   4.042   0.957   5.115
 7787SOL     OW24259   2.622   2.596   1.796
 7787SOL    HW124260   2.643   2.572   1.891
 7787SOL    HW224261   2.667   2.532   1.735
 7788SOL     OW24262   0.034   4.748   1.584
 7788SOL    HW124263   6.962   4.756   1.565
 7788SOL    HW224264   0.050   4.760   1.682
 7789SOL     OW24265   3.104   1.817   5.864
 7789SOL    HW124266   3.066   1.745   5.806
 7789SOL    HW224267   3.202   1.802   5.876
 7790SOL     OW24268   4.324   4.426   1.732
 7790SOL    HW124269   4.308   4.403   1.636
 7790SOL    HW224270   4.377   4.354   1.775
 7791SOL     OW24271   2.700   5.167   2.717
 7791SOL    HW124272   2.657   5.133   2.633
 7791SOL    HW224273   2.693   5.097   2.788
 7792SOL     OW24274   0.792   1.713   2.652
 7792SOL    HW124275   0.822   1.802   2.686
 7792SOL    HW224276   0.853   1.683   2.578
 7793SOL     OW24277   5.208   0.506   6.981
 7793SOL    HW124278   5.131   0.443   6.987
 7793SOL    HW224279   5.209   0.566   0.036
 7794SOL     OW24280   0.976   6.836   3.206
 7794SOL    HW124281   1.048   6.767   3.215
 7794SOL    HW224282   0.950   6.869   3.297
 7795SOL     OW24283   2.767   5.358   0.360
 7795SOL    HW124284   2.835   5.291   0.390
 7795SOL    HW224285   2.790   5.388   0.268
 7796SOL     OW24286   3.459   3.752   0.331
 7796SOL    HW124287   3.518   3.821   0.290
 7796SOL    HW224288   3.364   3.781   0.323
 7797SOL     OW24289   0.665   6.095   3.592
 7797SOL    HW124290   0.646   6.062   3.499
 7797SOL    HW224291   0.662   6.019   3.656
 7798SOL     OW24292   1.025   3.207   0.703
 7798SOL    HW124293   0.948   3.175   0.647
 7798SOL    HW224294   1.000   3.200   0.799
 7799SOL     OW24295   2.645   6.354   3.351
 7799SOL    HW124296   2.650   6.341   3.450
 7799SOL    HW224297   2.675   6.270   3.305
 7800SOL     OW24298   0.190   6.699   2.183
 7800SOL    HW124299   0.285   6.669   2.173
 7800SOL    HW224300   0.182   6.761   2.261
 7801SOL     OW24301   1.567   1.426   1.700
 7801SOL    HW124302   1.558   1.358   1.773
 7801SOL    HW224303   1.660   1.462   1.700
 7802SOL     OW24304   0.016   3.732   4.456
 7802SOL    HW124305   6.960   3.696   4.502
 7802SOL    HW224306   0.045   3.817   4.500
 7803SOL     OW24307   3.355   2.762   5.509
 7803SOL    HW124308   3.299   2.728   5.585
 7803SOL    HW224309   3.357   2.694   5.436
 7804SOL     OW24310   3.449   1.834   5.013
 7804SOL    HW124311   3.420   1.823   4.918
 7804SOL    HW224312   3.528   1.895   5.016
 7805SOL     OW24313   4.905   3.503   0.669
 7805SOL    HW124314   4.995   3.542   0.647
 7805SOL    HW224315   4.877   3.440   0.597
 7806SOL     OW24316   6.578   1.187   5.771
 7806SOL    HW124317   6.662   1.183   5.716
 7806SOL    HW224318   6.500   1.207   5.712
 7807SOL     OW24319   1.646   4.765   5.784
 7807SOL    HW124320   1.737   4.800   5.804
 7807SOL    HW224321   1.587   4.779   5.865
 7808SOL     OW24322   6.124   3.702   2.761
 7808SOL    HW124323   6.208   3.658   2.794
 7808SOL    HW224324   6.085   3.648   2.686
 7809SOL     OW24325   5.056   5.132   2.626
 7809SOL    HW124326   5.005   5.090   2.701
 7809SOL    HW224327   5.018   5.102   2.539
 7810SOL     OW24328   3.174   6.713   6.099
 7810SOL    HW124329   3.075   6.720   6.110
 7810SOL    HW224330   3.209   6.643   6.161
 7811SOL     OW24331   1.731   6.011   3.136
 7811SOL    HW124332   1.736   6.028   3.037
 7811SOL    HW224333   1.721   5.912   3.151
 7812SOL     OW24334   3.041   1.663   6.225
 7812SOL    HW124335   2.998   1.592   6.281
 7812SOL    HW224336   2.988   1.747   6.233
 7813SOL     OW24337   5.455   0.227   0.459
 7813SOL    HW124338   5.405   0.266   0.382
 7813SOL    HW224339   5.417   0.260   0.545
 7814SOL     OW24340   6.901   2.995   1.970
 7814SOL    HW124341   6.845   2.962   2.046
 7814SOL    HW224342   6.845   3.000   1.887
 7815SOL     OW24343   5.850   4.131   5.443
 7815SOL    HW124344   5.935   4.176   5.472
 7815SOL    HW224345   5.841   4.137   5.343
 7816SOL     OW24346   0.765   1.494   5.853
 7816SOL    HW124347   0.863   1.481   5.864
 7816SOL    HW224348   0.716   1.418   5.897
 7817SOL     OW24349   3.486   2.659   6.731
 7817SOL    HW124350   3.435   2.694   6.810
 7817SOL    HW224351   3.583   2.649   6.756
 7818SOL     OW24352   5.566   0.225   4.068
 7818SOL    HW124353   5.609   0.149   4.117
 7818SOL    HW224354   5.496   0.266   4.125
 7819SOL     OW24355   0.982   3.202   4.529
 7819SOL    HW124356   0.999   3.142   4.451
 7819SOL    HW224357   1.044   3.281   4.525
 7820SOL     OW24358   1.078   6.856   5.429
 7820SOL    HW124359   1.052   6.912   5.350
 7820SOL    HW224360   1.032   6.891   5.511
 7821SOL     OW24361   4.504   6.696   0.129
 7821SOL    HW124362   4.461   6.720   0.217
 7821SOL    HW224363   4.526   6.599   0.129
 7822SOL     OW24364   0.515   1.432   4.975
 7822SOL    HW124365   0.428   1.419   4.927
 7822SOL    HW224366   0.578   1.359   4.948
 7823SOL     OW24367   2.488   3.546   5.406
 7823SOL    HW124368   2.391   3.534   5.383
 7823SOL    HW224369   2.536   3.459   5.397
 7824SOL     OW24370   5.194   3.142   2.876
 7824SOL    HW124371   5.122   3.135   2.807
 7824SOL    HW224372   5.230   3.051   2.897
 7825SOL     OW24373   3.465   3.655   2.413
 7825SOL    HW124374   3.505   3.699   2.493
 7825SOL    HW224375   3.371   3.686   2.401
 7826SOL     OW24376   6.305   0.041   1.655
 7826SOL    HW124377   6.230   7.017   1.697
 7826SOL    HW224378   6.391   0.016   1.699
 7827SOL     OW24379   4.588   3.810   0.496
 7827SOL    HW124380   4.501   3.766   0.476
 7827SOL    HW224381   4.621   3.781   0.585
 7828SOL     OW24382   0.703   5.759   0.516
 7828SOL    HW124383   0.722   5.666   0.485
 7828SOL    HW224384   0.668   5.813   0.440
 7829SOL     OW24385   4.068   3.199   2.584
 7829SOL    HW124386   4.037   3.289   2.556
 7829SOL    HW224387   4.130   3.207   2.662
 7830SOL     OW24388   5.959   2.815   0.201
 7830SOL    HW124389   5.860   2.818   0.215
 7830SOL    HW224390   5.980   2.841   0.106
 7831SOL     OW24391   1.877   2.560   0.090
 7831SOL    HW124392   1.888   2.582   7.018
 7831SOL    HW224393   1.942   2.489   0.115
 7832SOL     OW24394   2.647   2.642   5.414
 7832SOL    HW124395   2.605   2.571   5.357
 7832SOL    HW224396   2.711   2.599   5.479
 7833SOL     OW24397   1.824   0.210   0.430
 7833SOL    HW124398   1.765   0.196   0.509
 7833SOL    HW224399   1.918   0.183   0.452
 7834SOL     OW24400   0.306   0.284   1.799
 7834SOL    HW124401   0.218   0.305   1.757
 7834SOL    HW224402   0.294   0.214   1.869
 7835SOL     OW24403   2.441   2.179   4.526
 7835SOL    HW124404   2.431   2.125   4.443
 7835SOL    HW224405   2.536   2.209   4.535
 7836SOL     OW24406   2.037   0.493   6.765
 7836SOL    HW124407   2.126   0.459   6.735
 7836SOL    HW224408   2.040   0.509   6.864
 7837SOL     OW24409   5.734   6.695   3.374
 7837SOL    HW124410   5.766   6.712   3.281
 7837SOL    HW224411   5.740   6.779   3.428
 7838SOL     OW24412   3.592   6.877   4.100
 7838SOL    HW124413   3.555   6.793   4.139
 7838SOL    HW224414   3.527   6.952   4.114
 7839SOL     OW24415   0.121   4.989   4.498
 7839SOL    HW124416   0.121   4.902   4.448
 7839SOL    HW224417   0.151   5.062   4.436
 7840SOL     OW24418   5.215   3.292   6.103
 7840SOL    HW124419   5.204   3.218   6.037
 7840SOL    HW224420   5.208   3.256   6.196
 7841SOL     OW24421   1.175   2.000   6.359
 7841SOL    HW124422   1.113   2.078   6.357
 7841SOL    HW224423   1.150   1.937   6.285
 7842SOL     OW24424   2.939   1.321   2.552
 7842SOL    HW124425   3.005   1.382   2.508
 7842SOL    HW224426   2.873   1.289   2.484
 7843SOL     OW24427   6.308   3.752   1.286
 7843SOL    HW124428   6.381   3.818   1.302
 7843SOL    HW224429   6.297   3.694   1.367
 7844SOL     OW24430   3.891   1.227   4.493
 7844SOL    HW124431   3.904   1.249   4.589
 7844SOL    HW224432   3.823   1.154   4.484
 7845SOL     OW24433   0.620   1.076   4.076
 7845SOL    HW124434   0.570   1.159   4.053
 7845SOL    HW224435   0.654   1.033   3.993
 7846SOL     OW24436   4.020   0.042   1.949
 7846SOL    HW124437   3.998   6.998   2.017
 7846SOL    HW224438   4.113   0.027   1.916
 7847SOL     OW24439   0.072   0.589   0.281
 7847SOL    HW124440   0.146   0.657   0.280
 7847SOL    HW224441   0.085   0.526   0.358
 7848SOL     OW24442   4.578   4.333   0.805
 7848SOL    HW124443   4.658   4.278   0.829
 7848SOL    HW224444   4.571   4.342   0.706
 7849SOL     OW24445   5.860   4.176   5.140
 7849SOL    HW124446   5.950   4.160   5.101
 7849SOL    HW224447   5.841   4.275   5.141
 7850SOL     OW24448   0.820   0.966   4.231
 7850SOL    HW124449   0.764   1.037   4.187
 7850SOL    HW224450   0.821   0.982   4.330
 7851SOL     OW24451   4.693   6.523   6.901
 7851SOL    HW124452   4.664   6.522   6.997
 7851SOL    HW224453   4.689   6.431   6.864
 7852SOL     OW24454   2.444   6.341   6.638
 7852SOL    HW124455   2.490   6.270   6.585
 7852SOL    HW224456   2.465   6.328   6.735
 7853SOL     OW24457   2.457   2.631   0.380
 7853SOL    HW124458   2.459   2.581   0.467
 7853SOL    HW224459   2.545   2.621   0.334
 7854SOL     OW24460   3.562   4.127   2.597
 7854SOL    HW124461   3.586   4.099   2.690
 7854SOL    HW224462   3.468   4.099   2.577
 7855SOL     OW24463   3.479   0.290   5.747
 7855SOL    HW124464   3.398   0.285   5.688
 7855SOL    HW224465   3.454   0.333   5.834
 7856SOL     OW24466   4.609   3.354   6.005
 7856SOL    HW124467   4.575   3.437   5.959
 7856SOL    HW224468   4.531   3.302   6.041
 7857SOL     OW24469   0.587   2.155   4.863
 7857SOL    HW124470   0.601   2.083   4.796
 7857SOL    HW224471   0.675   2.180   4.904
 7858SOL     OW24472   6.191   4.688   3.580
 7858SOL    HW124473   6.101   4.680   3.538
 7858SOL    HW224474   6.183   4.675   3.679
 7859SOL     OW24475   0.846   5.822   6.515
 7859SOL    HW124476   0.887   5.739   6.478
 7859SOL    HW224477   0.866   5.899   6.453
 7860SOL     OW24478   3.322   0.327   1.765
 7860SOL    HW124479   3.228   0.333   1.731
 7860SOL    HW224480   3.386   0.344   1.689
 7861SOL     OW24481   5.740   3.975   0.570
 7861SOL    HW124482   5.768   4.022   0.486
 7861SOL    HW224483   5.641   3.966   0.571
 7862SOL     OW24484   3.246   4.308   1.648
 7862SOL    HW124485   3.205   4.369   1.581
 7862SOL    HW224486   3.174   4.265   1.703
 7863SOL     OW24487   6.762   5.914   2.335
 7863SOL    HW124488   6.811   6.000   2.325
 7863SOL    HW224489   6.719   5.910   2.425
 7864SOL     OW24490   1.116   5.113   4.093
 7864SOL    HW124491   1.049   5.055   4.139
 7864SOL    HW224492   1.179   5.055   4.039
 7865SOL     OW24493   2.895   0.672   2.027
 7865SOL    HW124494   2.895   0.766   2.060
 7865SOL    HW224495   2.898   0.609   2.105
 7866SOL     OW24496   2.497   2.535   4.129
 7866SOL    HW124497   2.449   2.483   4.199
 7866SOL    HW224498   2.590   2.500   4.119
 7867SOL     OW24499   5.627   4.704   2.750
 7867SOL    HW124500   5.665   4.766   2.681
 7867SOL    HW224501   5.700   4.643   2.782
 7868SOL     OW24502   5.146   0.187   0.773
 7868SOL    HW124503   5.153   0.101   0.823
 7868SOL    HW224504   5.237   0.221   0.749
 7869SOL     OW24505   0.261   2.817   3.019
 7869SOL    HW124506   0.246   2.893   3.083
 7869SOL    HW224507   0.353   2.823   2.981
 7870SOL     OW24508   0.069   6.624   3.285
 7870SOL    HW124509   0.166   6.602   3.268
 7870SOL    HW224510   0.013   6.545   3.259
 7871SOL     OW24511   5.136   3.351   3.622
 7871SOL    HW124512   5.160   3.278   3.559
 7871SOL    HW224513   5.114   3.434   3.571
 7872SOL     OW24514   6.725   3.211   3.944
 7872SOL    HW124515   6.823   3.194   3.939
 7872SOL    HW224516   6.675   3.136   3.901
 7873SOL     OW24517   6.795   5.132   5.128
 7873SOL    HW124518   6.834   5.224   5.127
 7873SOL    HW224519   6.701   5.136   5.161
 7874SOL     OW24520   6.115   0.365   0.562
 7874SOL    HW124521   6.148   0.334   0.651
 7874SOL    HW224522   6.085   0.460   0.570
 7875SOL     OW24523   4.508   3.496   6.891
 7875SOL    HW124524   4.425   3.465   6.937
 7875SOL    HW224525   4.486   3.528   6.799
 7876SOL     OW24526   6.928   0.187   4.306
 7876SOL    HW124527   6.844   0.182   4.360
 7876SOL    HW224528   7.006   0.207   4.366
 7877SOL     OW24529   6.649   2.261   1.946
 7877SOL    HW124530   6.558   2.275   1.985
 7877SOL    HW224531   6.709   2.219   2.014
 7878SOL     OW24532   4.676   4.116   1.724
 7878SOL    HW124533   4.602   4.133   1.790
 7878SOL    HW224534   4.764   4.127   1.769
 7879SOL     OW24535   5.174   0.838   5.028
 7879SOL    HW124536   5.174   0.749   5.074
 7879SOL    HW224537   5.149   0.826   4.932
 7880SOL     OW24538   1.286   6.558   5.926
 7880SOL    HW124539   1.189   6.581   5.936
 7880SOL    HW224540   1.342   6.629   5.968
 7881SOL     OW24541   0.749   5.244   3.848
 7881SOL    HW124542   0.832   5.299   3.840
 7881SOL    HW224543   0.773   5.147   3.853
 7882SOL     OW24544   0.189   3.816   2.162
 7882SOL    HW124545   0.178   3.892   2.098
 7882SOL    HW224546   0.211   3.733   2.113
 7883SOL     OW24547   3.483   1.542   4.104
 7883SOL    HW124548   3.468   1.589   4.192
 7883SOL    HW224549   3.397   1.502   4.073
 7884SOL     OW24550   0.584   3.444   4.434
 7884SOL    HW124551   0.503   3.440   4.376
 7884SOL    HW224552   0.581   3.528   4.489
 7885SOL     OW24553   5.971   5.389   3.837
 7885SOL    HW124554   6.051   5.335   3.862
 7885SOL    HW224555   6.000   5.468   3.783
 7886SOL     OW24556   4.865   3.598   3.696
 7886SOL    HW124557   4.863   3.498   3.699
 7886SOL    HW224558   4.843   3.629   3.604
 7887SOL     OW24559   2.149   2.659   0.653
 7887SOL    HW124560   2.146   2.626   0.558
 7887SOL    HW224561   2.082   2.731   0.666
 7888SOL     OW24562   6.071   2.175   4.636
 7888SOL    HW124563   6.045   2.078   4.639
 7888SOL    HW224564   5.995   2.231   4.670
 7889SOL     OW24565   5.615   4.814   0.303
 7889SOL    HW124566   5.612   4.900   0.252
 7889SOL    HW224567   5.621   4.738   0.239
 7890SOL     OW24568   1.773   3.623   4.221
 7890SOL    HW124569   1.746   3.719   4.219
 7890SOL    HW224570   1.732   3.579   4.301
 7891SOL     OW24571   6.910   1.806   4.031
 7891SOL    HW124572   6.915   1.706   4.032
 7891SOL    HW224573   6.941   1.842   4.119
 7892SOL     OW24574   0.267   1.721   5.641
 7892SOL    HW124575   0.226   1.812   5.640
 7892SOL    HW224576   0.338   1.718   5.712
 7893SOL     OW24577   5.887   6.832   0.437
 7893SOL    HW124578   5.859   6.805   0.345
 7893SOL    HW224579   5.828   6.788   0.505
 7894SOL     OW24580   3.711   1.701   6.364
 7894SOL    HW124581   3.642   1.773   6.368
 7894SOL    HW224582   3.681   1.629   6.303
 7895SOL     OW24583   5.168   6.484   3.050
 7895SOL    HW124584   5.107   6.434   3.112
 7895SOL    HW224585   5.121   6.566   3.017
 7896SOL     OW24586   2.741   2.877   1.104
 7896SOL    HW124587   2.671   2.938   1.067
 7896SOL    HW224588   2.771   2.814   1.032
 7897SOL     OW24589   3.423   3.324   0.404
 7897SOL    HW124590   3.332   3.287   0.386
 7897SOL    HW224591   3.480   3.253   0.445
 7898SOL     OW24592   5.814   6.280   3.534
 7898SOL    HW124593   5.849   6.195   3.492
 7898SOL    HW224594   5.867   6.358   3.499
 7899SOL     OW24595   6.223   5.081   3.416
 7899SOL    HW124596   6.155   5.086   3.343
 7899SOL    HW224597   6.278   5.164   3.416
 7900SOL     OW24598   0.829   4.252   1.510
 7900SOL    HW124599   0.922   4.231   1.478
 7900SOL    HW224600   0.829   4.340   1.556
 7901SOL     OW24601   0.229   0.966   6.763
 7901SOL    HW124602   0.328   0.954   6.769
 7901SOL    HW224603   0.188   0.954   6.854
 7902SOL     OW24604   0.965   6.736   2.398
 7902SOL    HW124605   0.946   6.818   2.451
 7902SOL    HW224606   1.042   6.686   2.439
 7903SOL     OW24607   2.985   2.179   4.815
 7903SOL    HW124608   3.074   2.217   4.843
 7903SOL    HW224609   2.912   2.234   4.855
 7904SOL     OW24610   5.038   1.153   2.227
 7904SOL    HW124611   5.009   1.123   2.136
 7904SOL    HW224612   5.134   1.178   2.225
 7905SOL     OW24613   5.650   1.116   1.577
 7905SOL    HW124614   5.661   1.030   1.628
 7905SOL    HW224615   5.568   1.111   1.521
 7906SOL     OW24616   1.514   5.502   0.817
 7906SOL    HW124617   1.420   5.467   0.817
 7906SOL    HW224618   1.575   5.433   0.857
 7907SOL     OW24619   6.380   0.075   3.135
 7907SOL    HW124620   6.328   0.141   3.081
 7907SOL    HW224621   6.329   0.053   3.219
 7908SOL     OW24622   0.743   0.506   6.211
 7908SOL    HW124623   0.783   0.558   6.135
 7908SOL    HW224624   0.745   0.408   6.188
 7909SOL     OW24625   6.101   4.372   1.905
 7909SOL    HW124626   6.029   4.311   1.872
 7909SOL    HW224627   6.189   4.326   1.899
 7910SOL     OW24628   1.055   3.661   0.086
 7910SOL    HW124629   1.136   3.643   0.031
 7910SOL    HW224630   0.979   3.688   0.025
 7911SOL     OW24631   0.643   4.155   6.947
 7911SOL    HW124632   0.547   4.135   6.966
 7911SOL    HW224633   0.650   4.224   6.875
 7912SOL     OW24634   5.771   5.178   0.469
 7912SOL    HW124635   5.742   5.248   0.404
 7912SOL    HW224636   5.693   5.152   0.526
 7913SOL     OW24637   1.215   4.384   1.386
 7913SOL    HW124638   1.309   4.403   1.357
 7913SOL    HW224639   1.212   4.371   1.485
 7914SOL     OW24640   6.562   6.307   4.980
 7914SOL    HW124641   6.485   6.338   4.925
 7914SOL    HW224642   6.622   6.384   5.000
 7915SOL     OW24643   3.897   6.289   2.420
 7915SOL    HW124644   3.874   6.198   2.454
 7915SOL    HW224645   3.959   6.280   2.342
 7916SOL     OW24646   1.372   0.090   4.602
 7916SOL    HW124647   1.369   0.156   4.677
 7916SOL    HW224648   1.279   0.068   4.574
 7917SOL     OW24649   4.052   3.519   0.938
 7917SOL    HW124650   4.075   3.534   1.034
 7917SOL    HW224651   4.097   3.436   0.906
 7918SOL     OW24652   2.076   1.783   3.841
 7918SOL    HW124653   2.140   1.837   3.785
 7918SOL    HW224654   1.997   1.840   3.865
 7919SOL     OW24655   2.297   6.393   4.076
 7919SOL    HW124656   2.361   6.351   4.141
 7919SOL    HW224657   2.203   6.372   4.104
 7920SOL     OW24658   4.991   0.073   1.106
 7920SOL    HW124659   4.962   0.107   1.016
 7920SOL    HW224660   5.049   0.140   1.150
 7921SOL     OW24661   5.321   1.860   0.900
 7921SOL    HW124662   5.400   1.911   0.867
 7921SOL    HW224663   5.276   1.814   0.824
 7922SOL     OW24664   1.315   5.692   0.977
 7922SOL    HW124665   1.308   5.593   0.985
 7922SOL    HW224666   1.397   5.724   1.024
 7923SOL     OW24667   5.114   1.072   0.224
 7923SOL    HW124668   5.093   1.113   0.313
 7923SOL    HW224669   5.066   1.122   0.153
 7924SOL     OW24670   6.391   6.243   0.809
 7924SOL    HW124671   6.394   6.143   0.808
 7924SOL    HW224672   6.422   6.276   0.899
 7925SOL     OW24673   1.542   6.127   6.367
 7925SOL    HW124674   1.533   6.159   6.461
 7925SOL    HW224675   1.489   6.187   6.307
 7926SOL     OW24676   4.705   5.428   0.280
 7926SOL    HW124677   4.749   5.471   0.201
 7926SOL    HW224678   4.774   5.378   0.333
 7927SOL     OW24679   4.161   6.806   2.963
 7927SOL    HW124680   4.259   6.786   2.967
 7927SOL    HW224681   4.132   6.850   3.048
 7928SOL     OW24682   6.791   1.990   3.533
 7928SOL    HW124683   6.768   2.086   3.549
 7928SOL    HW224684   6.712   1.933   3.557
 7929SOL     OW24685   4.030   4.528   6.210
 7929SOL    HW124686   4.127   4.531   6.187
 7929SOL    HW224687   4.012   4.590   6.286
 7930SOL     OW24688   4.423   6.133   5.725
 7930SOL    HW124689   4.323   6.128   5.721
 7930SOL    HW224690   4.462   6.055   5.676
 7931SOL     OW24691   3.627   2.202   0.929
 7931SOL    HW124692   3.691   2.198   0.853
 7931SOL    HW224693   3.675   2.186   1.015
 7932SOL     OW24694   1.608   4.136   2.410
 7932SOL    HW124695   1.664   4.214   2.383
 7932SOL    HW224696   1.666   4.055   2.419
 7933SOL     OW24697   0.645   1.067   7.018
 7933SOL    HW124698   0.728   1.120   7.003
 7933SOL    HW224699   0.669   0.973   0.018
 7934SOL     OW24700   1.096   4.942   1.253
 7934SOL    HW124701   1.059   4.991   1.332
 7934SOL    HW224702   1.150   4.864   1.283
 7935SOL     OW24703   4.857   3.017   3.641
 7935SOL    HW124704   4.802   2.975   3.714
 7935SOL    HW224705   4.862   3.116   3.656
 7936SOL     OW24706   3.439   5.899   3.650
 7936SOL    HW124707   3.530   5.925   3.617
 7936SOL    HW224708   3.402   5.972   3.707
 7937SOL     OW24709   3.646   0.910   7.002
 7937SOL    HW124710   3.689   1.000   6.992
 7937SOL    HW224711   3.623   0.874   6.912
 7938SOL     OW24712   3.267   6.650   4.279
 7938SOL    HW124713   3.241   6.746   4.283
 7938SOL    HW224714   3.226   6.601   4.356
 7939SOL     OW24715   0.533   1.554   4.228
 7939SOL    HW124716   0.615   1.590   4.271
 7939SOL    HW224717   0.531   1.583   4.132
 7940SOL     OW24718   5.745   1.221   3.268
 7940SOL    HW124719   5.669   1.285   3.281
 7940SOL    HW224720   5.783   1.233   3.176
 7941SOL     OW24721   3.667   6.992   1.298
 7941SOL    HW124722   3.685   0.005   1.389
 7941SOL    HW224723   3.620   0.034   1.242
 7942SOL     OW24724   1.166   4.754   0.753
 7942SOL    HW124725   1.081   4.748   0.805
 7942SOL    HW224726   1.218   4.670   0.764
 7943SOL     OW24727   1.615   6.113   5.913
 7943SOL    HW124728   1.621   6.038   5.978
 7943SOL    HW224729   1.519   6.135   5.896
 7944SOL     OW24730   1.502   2.426   1.436
 7944SOL    HW124731   1.500   2.485   1.356
 7944SOL    HW224732   1.501   2.330   1.407
 7945SOL     OW24733   6.152   4.408   3.218
 7945SOL    HW124734   6.235   4.448   3.178
 7945SOL    HW224735   6.177   4.337   3.283
 7946SOL     OW24736   3.552   1.583   6.165
 7946SOL    HW124737   3.523   1.489   6.186
 7946SOL    HW224738   3.472   1.643   6.167
 7947SOL     OW24739   0.629   3.622   6.072
 7947SOL    HW124740   0.589   3.530   6.071
 7947SOL    HW224741   0.681   3.635   6.157
 7948SOL     OW24742   1.512   4.563   2.520
 7948SOL    HW124743   1.514   4.521   2.429
 7948SOL    HW224744   1.434   4.528   2.572
 7949SOL     OW24745   3.696   6.446   6.128
 7949SOL    HW124746   3.670   6.472   6.221
 7949SOL    HW224747   3.719   6.349   6.125
 7950SOL     OW24748   5.724   4.446   5.126
 7950SOL    HW124749   5.810   4.478   5.165
 7950SOL    HW224750   5.679   4.522   5.079
 7951SOL     OW24751   3.577   6.282   2.468
 7951SOL    HW124752   3.523   6.247   2.391
 7951SOL    HW224753   3.609   6.375   2.446
 7952SOL     OW24754   5.961   3.745   6.615
 7952SOL    HW124755   5.942   3.698   6.529
 7952SOL    HW224756   6.010   3.830   6.597
 7953SOL     OW24757   3.079   0.654   0.796
 7953SOL    HW124758   3.035   0.710   0.726
 7953SOL    HW224759   3.175   0.639   0.771
 7954SOL     OW24760   4.041   3.759   6.687
 7954SOL    HW124761   4.016   3.850   6.653
 7954SOL    HW224762   3.970   3.693   6.661
 7955SOL     OW24763   1.394   1.980   6.853
 7955SOL    HW124764   1.423   1.888   6.826
 7955SOL    HW224765   1.307   2.001   6.808
 7956SOL     OW24766   6.542   6.125   0.231
 7956SOL    HW124767   6.641   6.112   0.236
 7956SOL    HW224768   6.519   6.215   0.269
 7957SOL     OW24769   4.689   1.069   5.861
 7957SOL    HW124770   4.669   1.165   5.846
 7957SOL    HW224771   4.613   1.013   5.828
 7958SOL     OW24772   5.948   2.559   0.267
 7958SOL    HW124773   5.959   2.658   0.268
 7958SOL    HW224774   6.003   2.519   0.194
 7959SOL     OW24775   5.646   1.277   6.289
 7959SOL    HW124776   5.724   1.290   6.351
 7959SOL    HW224777   5.633   1.180   6.271
 7960SOL     OW24778   0.089   1.141   5.479
 7960SOL    HW124779   0.024   1.089   5.423
 7960SOL    HW224780   0.053   1.234   5.492
 7961SOL     OW24781   6.356   6.384   0.302
 7961SOL    HW124782   6.330   6.378   0.398
 7961SOL    HW224783   6.430   6.450   0.291
 7962SOL     OW24784   5.424   6.913   5.815
 7962SOL    HW124785   5.495   6.968   5.772
 7962SOL    HW224786   5.390   6.845   5.749
 7963SOL     OW24787   6.900   6.381   4.273
 7963SOL    HW124788   6.984   6.435   4.266
 7963SOL    HW224789   6.858   6.373   4.182
 7964SOL     OW24790   6.830   4.292   1.716
 7964SOL    HW124791   6.783   4.323   1.633
 7964SOL    HW224792   6.882   4.367   1.755
 7965SOL     OW24793   3.339   2.960   6.443
 7965SOL    HW124794   3.240   2.952   6.449
 7965SOL    HW224795   3.365   2.994   6.353
 7966SOL     OW24796   4.987   3.591   4.872
 7966SOL    HW124797   4.956   3.514   4.817
 7966SOL    HW224798   4.920   3.609   4.945
 7967SOL     OW24799   1.874   4.389   1.701
 7967SOL    HW124800   1.834   4.462   1.646
 7967SOL    HW224801   1.833   4.389   1.792
 7968SOL     OW24802   0.229   2.871   5.122
 7968SOL    HW124803   0.247   2.772   5.121
 7968SOL    HW224804   0.314   2.921   5.110
 7969SOL     OW24805   4.795   5.150   0.133
 7969SOL    HW124806   4.707   5.187   0.163
 7969SOL    HW224807   4.781   5.057   0.098
 7970SOL     OW24808   5.746   2.680   2.565
 7970SOL    HW124809   5.683   2.757   2.563
 7970SOL    HW224810   5.812   2.688   2.490
 7971SOL     OW24811   3.256   1.033   0.364
 7971SOL    HW124812   3.171   1.034   0.312
 7971SOL    HW224813   3.331   1.062   0.305
 7972SOL     OW24814   3.783   3.733   3.553
 7972SOL    HW124815   3.770   3.649   3.605
 7972SOL    HW224816   3.880   3.757   3.552
 7973SOL     OW24817   6.476   4.078   2.349
 7973SOL    HW124818   6.523   4.101   2.434
 7973SOL    HW224819   6.510   3.991   2.314
 7974SOL     OW24820   6.463   2.721   6.653
 7974SOL    HW124821   6.466   2.808   6.603
 7974SOL    HW224822   6.503   2.733   6.744
 7975SOL     OW24823   5.578   0.509   1.318
 7975SOL    HW124824   5.529   0.578   1.371
 7975SOL    HW224825   5.512   0.450   1.271
 7976SOL     OW24826   0.958   0.254   0.915
 7976SOL    HW124827   0.884   0.211   0.966
 7976SOL    HW224828   1.045   0.209   0.937
 7977SOL     OW24829   5.555   5.569   3.486
 7977SOL    HW124830   5.493   5.503   3.529
 7977SOL    HW224831   5.632   5.586   3.547
 7978SOL     OW24832   0.199   4.644   1.959
 7978SOL    HW124833   0.222   4.638   1.862
 7978SOL    HW224834   0.281   4.665   2.012
 7979SOL     OW24835   1.657   2.183   4.021
 7979SOL    HW124836   1.755   2.182   4.042
 7979SOL    HW224837   1.610   2.113   4.075
 7980SOL     OW24838   4.295   5.458   0.273
 7980SOL    HW124839   4.295   5.508   0.359
 7980SOL    HW224840   4.293   5.523   0.197
 7981SOL     OW24841   1.887   4.622   3.165
 7981SOL    HW124842   1.877   4.576   3.076
 7981SOL    HW224843   1.808   4.680   3.182
 7982SOL     OW24844   6.446   1.937   5.681
 7982SOL    HW124845   6.521   1.970   5.623
 7982SOL    HW224846   6.359   1.966   5.643
 7983SOL     OW24847   5.106   1.097   1.742
 7983SOL    HW124848   5.093   1.059   1.834
 7983SOL    HW224849   5.203   1.114   1.727
 7984SOL     OW24850   0.952   2.149   3.054
 7984SOL    HW124851   0.860   2.175   3.084
 7984SOL    HW224852   0.998   2.228   3.013
 7985SOL     OW24853   2.690   2.923   5.371
 7985SOL    HW124854   2.674   2.824   5.371
 7985SOL    HW224855   2.627   2.966   5.306
 7986SOL     OW24856   3.501   1.330   3.814
 7986SOL    HW124857   3.478   1.422   3.843
 7986SOL    HW224858   3.553   1.333   3.729
 7987SOL     OW24859   1.307   3.640   6.960
 7987SOL    HW124860   1.344   3.685   6.879
 7987SOL    HW224861   1.358   3.556   6.978
 7988SOL     OW24862   6.483   1.688   1.643
 7988SOL    HW124863   6.434   1.756   1.697
 7988SOL    HW224864   6.490   1.603   1.696
 7989SOL     OW24865   0.157   4.494   0.450
 7989SOL    HW124866   0.237   4.545   0.419
 7989SOL    HW224867   0.109   4.456   0.371
 7990SOL     OW24868   3.783   5.489   5.379
 7990SOL    HW124869   3.684   5.480   5.379
 7990SOL    HW224870   3.816   5.496   5.285
 7991SOL     OW24871   6.034   1.450   5.420
 7991SOL    HW124872   6.025   1.534   5.474
 7991SOL    HW224873   5.943   1.412   5.402
 7992SOL     OW24874   2.644   6.801   6.905
 7992SOL    HW124875   2.662   6.717   6.957
 7992SOL    HW224876   2.579   6.782   6.832
 7993SOL     OW24877   6.620   5.968   1.559
 7993SOL    HW124878   6.561   5.898   1.599
 7993SOL    HW224879   6.648   6.033   1.630
 7994SOL     OW24880   5.657   0.483   3.952
 7994SOL    HW124881   5.607   0.396   3.957
 7994SOL    HW224882   5.702   0.500   4.040
 7995SOL     OW24883   0.621   4.705   1.414
 7995SOL    HW124884   0.697   4.648   1.382
 7995SOL    HW224885   0.657   4.788   1.457
 7996SOL     OW24886   3.153   0.928   3.239
 7996SOL    HW124887   3.151   0.943   3.141
 7996SOL    HW224888   3.114   0.838   3.260
 7997SOL     OW24889   1.594   1.714   6.568
 7997SOL    HW124890   1.585   1.731   6.667
 7997SOL    HW224891   1.529   1.771   6.518
 7998SOL     OW24892   2.462   0.742   0.688
 7998SOL    HW124893   2.562   0.739   0.686
 7998SOL    HW224894   2.431   0.807   0.757
 7999SOL     OW24895   0.714   0.654   4.471
 7999SOL    HW124896   0.707   0.681   4.375
 7999SOL    HW224897   0.641   0.698   4.523
 8000SOL     OW24898   4.504   5.150   6.955
 8000SOL    HW124899   4.531   5.169   0.024
 8000SOL    HW224900   4.473   5.056   6.947
 8001SOL     OW24901   4.632   6.171   1.665
 8001SOL    HW124902   4.547   6.137   1.705
 8001SOL    HW224903   4.627   6.270   1.655
 8002SOL     OW24904   0.853   0.356   5.035
 8002SOL    HW124905   0.837   0.422   4.962
 8002SOL    HW224906   0.884   0.269   4.995
 8003SOL     OW24907   2.179   5.610   2.464
 8003SOL    HW124908   2.261   5.653   2.426
 8003SOL    HW224909   2.197   5.578   2.557
 8004SOL     OW24910   1.546   3.065   3.783
 8004SOL    HW124911   1.620   3.014   3.827
 8004SOL    HW224912   1.583   3.117   3.705
 8005SOL     OW24913   2.141   0.094   3.243
 8005SOL    HW124914   2.224   0.040   3.231
 8005SOL    HW224915   2.081   0.081   3.164
 8006SOL     OW24916   3.923   4.967   5.131
 8006SOL    HW124917   3.887   4.899   5.194
 8006SOL    HW224918   4.003   4.930   5.084
 8007SOL     OW24919   5.991   0.183   6.413
 8007SOL    HW124920   6.070   0.127   6.439
 8007SOL    HW224921   5.966   0.243   6.489
 8008SOL     OW24922   5.522   6.443   7.021
 8008SOL    HW124923   5.602   6.455   0.055
 8008SOL    HW224924   5.521   6.516   6.952
 8009SOL     OW24925   5.014   1.911   6.317
 8009SOL    HW124926   4.957   1.829   6.322
 8009SOL    HW224927   5.040   1.940   6.409
 8010SOL     OW24928   3.114   1.773   5.394
 8010SOL    HW124929   3.169   1.819   5.325
 8010SOL    HW224930   3.019   1.805   5.387
 8011SOL     OW24931   4.326   1.666   2.459
 8011SOL    HW124932   4.371   1.583   2.425
 8011SOL    HW224933   4.288   1.649   2.550
 8012SOL     OW24934   0.182   1.439   5.253
 8012SOL    HW124935   0.276   1.462   5.229
 8012SOL    HW224936   0.151   1.499   5.327
 8013SOL     OW24937   3.690   1.989   2.568
 8013SOL    HW124938   3.763   1.989   2.500
 8013SOL    HW224939   3.610   1.941   2.530
 8014SOL     OW24940   1.968   1.830   2.456
 8014SOL    HW124941   2.048   1.798   2.406
 8014SOL    HW224942   1.930   1.910   2.409
 8015SOL     OW24943   3.303   0.260   5.556
 8015SOL    HW124944   3.209   0.232   5.574
 8015SOL    HW224945   3.330   0.230   5.464
 8016SOL     OW24946   3.560   1.796   4.683
 8016SOL    HW124947   3.520   1.727   4.623
 8016SOL    HW224948   3.650   1.822   4.648
 8017SOL     OW24949   6.427   6.251   1.090
 8017SOL    HW124950   6.511   6.197   1.094
 8017SOL    HW224951   6.358   6.209   1.149
 8018SOL     OW24952   4.370   1.857   6.735
 8018SOL    HW124953   4.303   1.784   6.745
 8018SOL    HW224954   4.431   1.836   6.658
 8019SOL     OW24955   2.455   3.612   0.910
 8019SOL    HW124956   2.440   3.694   0.855
 8019SOL    HW224957   2.548   3.579   0.896
 8020SOL     OW24958   6.748   0.717   5.288
 8020SOL    HW124959   6.825   0.658   5.312
 8020SOL    HW224960   6.779   0.788   5.224
 8021SOL     OW24961   2.100   2.171   1.374
 8021SOL    HW124962   2.042   2.139   1.449
 8021SOL    HW224963   2.069   2.130   1.288
 8022SOL     OW24964   5.016   1.440   2.414
 8022SOL    HW124965   4.924   1.402   2.419
 8022SOL    HW224966   5.040   1.456   2.318
 8023SOL     OW24967   5.352   5.987   2.283
 8023SOL    HW124968   5.441   6.032   2.292
 8023SOL    HW224969   5.305   6.022   2.203
 8024SOL     OW24970   2.319   0.820   6.640
 8024SOL    HW124971   2.312   0.891   6.710
 8024SOL    HW224972   2.330   0.863   6.550
 8025SOL     OW24973   1.366   5.866   2.040
 8025SOL    HW124974   1.341   5.803   2.112
 8025SOL    HW224975   1.308   5.850   1.960
 8026SOL     OW24976   0.641   5.476   6.539
 8026SOL    HW124977   0.738   5.486   6.561
 8026SOL    HW224978   0.610   5.384   6.564
 8027SOL     OW24979   3.145   0.745   6.877
 8027SOL    HW124980   3.141   0.751   6.778
 8027SOL    HW224981   3.115   0.654   6.907
 8028SOL     OW24982   3.114   5.512   4.962
 8028SOL    HW124983   3.114   5.425   5.012
 8028SOL    HW224984   3.138   5.587   5.024
 8029SOL     OW24985   0.099   6.839   0.358
 8029SOL    HW124986   0.031   6.909   0.335
 8029SOL    HW224987   0.125   6.848   0.454
 8030SOL     OW24988   0.605   3.752   0.875
 8030SOL    HW124989   0.574   3.846   0.863
 8030SOL    HW224990   0.566   3.694   0.804
 8031SOL     OW24991   0.277   0.765   3.328
 8031SOL    HW124992   0.257   0.680   3.376
 8031SOL    HW224993   0.376   0.779   3.326
 8032SOL     OW24994   6.152   3.031   1.177
 8032SOL    HW124995   6.083   2.991   1.117
 8032SOL    HW224996   6.230   3.062   1.123
 8033SOL     OW24997   5.179   3.739   0.994
 8033SOL    HW124998   5.151   3.829   1.028
 8033SOL    HW224999   5.149   3.668   1.058
 8034SOL     OW25000   5.928   0.469   5.803
 8034SOL    HW125001   5.985   0.461   5.721
 8034SOL    HW225002   5.930   0.564   5.836
 8035SOL     OW25003   6.162   1.898   3.027
 8035SOL    HW125004   6.160   1.965   3.101
 8035SOL    HW225005   6.075   1.848   3.025
 8036SOL     OW25006   5.979   2.558   3.298
 8036SOL    HW125007   6.065   2.539   3.344
 8036SOL    HW225008   5.916   2.481   3.313
 8037SOL     OW25009   1.488   1.710   5.672
 8037SOL    HW125010   1.410   1.649   5.674
 8037SOL    HW225011   1.519   1.722   5.578
 8038SOL     OW25012   0.016   4.841   2.306
 8038SOL    HW125013   0.025   4.796   2.394
 8038SOL    HW225014   7.025   4.772   2.235
 8039SOL     OW25015   1.352   2.422   5.700
 8039SOL    HW125016   1.297   2.491   5.654
 8039SOL    HW225017   1.394   2.362   5.632
 8040SOL     OW25018   2.107   5.576   6.451
 8040SOL    HW125019   2.012   5.599   6.427
 8040SOL    HW225020   2.125   5.481   6.427
 8041SOL     OW25021   3.499   1.571   3.261
 8041SOL    HW125022   3.492   1.597   3.164
 8041SOL    HW225023   3.563   1.495   3.270
 8042SOL     OW25024   4.296   4.096   5.675
 8042SOL    HW125025   4.242   4.159   5.731
 8042SOL    HW225026   4.266   4.102   5.580
 8043SOL     OW25027   5.127   5.842   6.913
 8043SOL    HW125028   5.152   5.938   6.901
 8043SOL    HW225029   5.196   5.784   6.869
 8044SOL     OW25030   2.685   3.541   1.544
 8044SOL    HW125031   2.597   3.575   1.575
 8044SOL    HW225032   2.758   3.588   1.592
 8045SOL     OW25033   6.983   2.337   3.143
 8045SOL    HW125034   7.016   2.264   3.084
 8045SOL    HW225035   6.917   2.301   3.209
 8046SOL     OW25036   6.978   4.622   2.169
 8046SOL    HW125037   6.926   4.540   2.192
 8046SOL    HW225038   0.001   4.609   2.083
 8047SOL     OW25039   3.524   6.621   6.678
 8047SOL    HW125040   3.547   6.542   6.734
 8047SOL    HW225041   3.464   6.593   6.603
 8048SOL     OW25042   3.696   2.507   6.081
 8048SOL    HW125043   3.621   2.542   6.025
 8048SOL    HW225044   3.726   2.418   6.045
 8049SOL     OW25045   0.948   1.613   0.011
 8049SOL    HW125046   1.036   1.646   0.043
 8049SOL    HW225047   0.882   1.614   0.086
 8050SOL     OW25048   0.701   4.628   5.348
 8050SOL    HW125049   0.604   4.607   5.340
 8050SOL    HW225050   0.719   4.718   5.309
 8051SOL     OW25051   4.220   5.949   3.340
 8051SOL    HW125052   4.210   6.010   3.262
 8051SOL    HW225053   4.177   5.991   3.420
 8052SOL     OW25054   2.687   2.303   2.400
 8052SOL    HW125055   2.651   2.396   2.394
 8052SOL    HW225056   2.683   2.271   2.495
 8053SOL     OW25057   1.896   2.887   6.982
 8053SOL    HW125058   1.987   2.867   7.017
 8053SOL    HW225059   1.850   2.801   6.956
 8054SOL     OW25060   4.867   3.329   5.246
 8054SOL    HW125061   4.810   3.407   5.220
 8054SOL    HW225062   4.875   3.326   5.345
 8055SOL     OW25063   5.967   0.300   6.670
 8055SOL    HW125064   5.968   0.204   6.698
 8055SOL    HW225065   5.873   0.332   6.663
 8056SOL     OW25066   2.290   1.227   5.216
 8056SOL    HW125067   2.279   1.156   5.147
 8056SOL    HW225068   2.363   1.289   5.189
 8057SOL     OW25069   3.037   2.117   2.165
 8057SOL    HW125070   3.070   2.053   2.096
 8057SOL    HW225071   2.991   2.194   2.120
 8058SOL     OW25072   3.723   6.777   2.597
 8058SOL    HW125073   3.762   6.765   2.688
 8058SOL    HW225074   3.631   6.816   2.604
 8059SOL     OW25075   2.824   2.880   6.328
 8059SOL    HW125076   2.841   2.871   6.426
 8059SOL    HW225077   2.795   2.792   6.291
 8060SOL     OW25078   5.993   0.738   5.899
 8060SOL    HW125079   6.023   0.729   5.993
 8060SOL    HW225080   6.070   0.765   5.841
 8061SOL     OW25081   0.242   0.549   2.969
 8061SOL    HW125082   0.219   0.464   2.921
 8061SOL    HW225083   0.338   0.572   2.950
 8062SOL     OW25084   3.983   5.366   5.761
 8062SOL    HW125085   3.888   5.378   5.789
 8062SOL    HW225086   3.986   5.341   5.664
 8063SOL     OW25087   3.528   5.382   3.265
 8063SOL    HW125088   3.533   5.282   3.258
 8063SOL    HW225089   3.448   5.408   3.319
 8064SOL     OW25090   6.314   1.854   0.820
 8064SOL    HW125091   6.401   1.901   0.829
 8064SOL    HW225092   6.286   1.817   0.909
 8065SOL     OW25093   4.099   5.617   6.676
 8065SOL    HW125094   4.049   5.531   6.661
 8065SOL    HW225095   4.036   5.686   6.711
 8066SOL     OW25096   0.136   7.003   5.656
 8066SOL    HW125097   0.087   6.977   5.739
 8066SOL    HW225098   0.071   7.010   5.580
 8067SOL     OW25099   5.383   2.568   3.754
 8067SOL    HW125100   5.461   2.621   3.788
 8067SOL    HW225101   5.378   2.481   3.803
 8068SOL     OW25102   5.963   4.290   1.313
 8068SOL    HW125103   6.027   4.244   1.252
 8068SOL    HW225104   5.954   4.238   1.398
 8069SOL     OW25105   2.891   5.090   3.070
 8069SOL    HW125106   2.794   5.068   3.058
 8069SOL    HW225107   2.947   5.020   3.025
 8070SOL     OW25108   4.118   4.601   0.548
 8070SOL    HW125109   4.053   4.645   0.610
 8070SOL    HW225110   4.096   4.504   0.540
 8071SOL     OW25111   2.506   6.985   6.179
 8071SOL    HW125112   2.428   6.923   6.188
 8071SOL    HW225113   2.509   7.021   6.086
 8072SOL     OW25114   1.314   1.965   5.689
 8072SOL    HW125115   1.357   1.877   5.673
 8072SOL    HW225116   1.236   1.954   5.751
 8073SOL     OW25117   3.794   0.658   6.793
 8073SOL    HW125118   3.808   0.630   6.888
 8073SOL    HW225119   3.843   0.596   6.732
 8074SOL     OW25120   1.295   0.710   6.230
 8074SOL    HW125121   1.377   0.712   6.287
 8074SOL    HW225122   1.306   0.775   6.154
 8075SOL     OW25123   0.043   0.032   0.819
 8075SOL    HW125124   7.015   0.085   0.885
 8075SOL    HW225125   0.114   7.006   0.868
 8076SOL     OW25126   6.834   5.926   0.510
 8076SOL    HW125127   6.891   5.992   0.461
 8076SOL    HW225128   6.807   5.964   0.598
 8077SOL     OW25129   4.861   4.751   0.616
 8077SOL    HW125130   4.814   4.839   0.623
 8077SOL    HW225131   4.805   4.679   0.657
 8078SOL     OW25132   0.815   0.400   2.306
 8078SOL    HW125133   0.906   0.419   2.342
 8078SOL    HW225134   0.800   0.301   2.304
 8079SOL     OW25135   1.190   1.785   6.077
 8079SOL    HW125136   1.283   1.771   6.111
 8079SOL    HW225137   1.194   1.839   5.992
 8080SOL     OW25138   1.455   3.028   3.181
 8080SOL    HW125139   1.441   2.932   3.156
 8080SOL    HW225140   1.441   3.040   3.279
 8081SOL     OW25141   6.341   6.056   4.735
 8081SOL    HW125142   6.384   6.140   4.768
 8081SOL    HW225143   6.295   6.074   4.648
 8082SOL     OW25144   4.089   1.655   2.297
 8082SOL    HW125145   4.181   1.635   2.331
 8082SOL    HW225146   4.043   1.719   2.358
 8083SOL     OW25147   5.903   2.587   4.745
 8083SOL    HW125148   5.822   2.641   4.768
 8083SOL    HW225149   5.874   2.501   4.703
 8084SOL     OW25150   3.784   2.046   5.811
 8084SOL    HW125151   3.698   2.064   5.763
 8084SOL    HW225152   3.792   1.949   5.831
 8085SOL     OW25153   1.558   6.303   4.241
 8085SOL    HW125154   1.614   6.351   4.173
 8085SOL    HW225155   1.485   6.252   4.195
 8086SOL     OW25156   6.894   0.805   2.593
 8086SOL    HW125157   6.942   0.718   2.584
 8086SOL    HW225158   6.802   0.790   2.629
 8087SOL     OW25159   1.130   0.920   0.579
 8087SOL    HW125160   1.055   0.868   0.538
 8087SOL    HW225161   1.120   0.919   0.678
 8088SOL     OW25162   6.287   0.218   4.459
 8088SOL    HW125163   6.297   0.275   4.540
 8088SOL    HW225164   6.194   0.180   4.456
 8089SOL     OW25165   6.026   2.161   6.275
 8089SOL    HW125166   6.041   2.064   6.294
 8089SOL    HW225167   5.931   2.176   6.246
 8090SOL     OW25168   4.442   2.161   5.476
 8090SOL    HW125169   4.432   2.061   5.481
 8090SOL    HW225170   4.355   2.205   5.499
 8091SOL     OW25171   1.858   4.854   4.343
 8091SOL    HW125172   1.844   4.929   4.408
 8091SOL    HW225173   1.821   4.769   4.380
 8092SOL     OW25174   4.770   2.041   5.947
 8092SOL    HW125175   4.826   2.041   6.030
 8092SOL    HW225176   4.750   2.135   5.921
 8093SOL     OW25177   3.815   6.493   2.232
 8093SOL    HW125178   3.880   6.541   2.173
 8093SOL    HW225179   3.863   6.424   2.286
 8094SOL     OW25180   1.658   4.462   3.706
 8094SOL    HW125181   1.638   4.546   3.757
 8094SOL    HW225182   1.680   4.486   3.611
 8095SOL     OW25183   1.197   4.722   5.298
 8095SOL    HW125184   1.184   4.820   5.312
 8095SOL    HW225185   1.153   4.672   5.373
 8096SOL     OW25186   0.828   5.859   1.699
 8096SOL    HW125187   0.845   5.878   1.602
 8096SOL    HW225188   0.761   5.924   1.734
 8097SOL     OW25189   3.796   5.929   5.397
 8097SOL    HW125190   3.809   5.849   5.456
 8097SOL    HW225191   3.714   5.916   5.341
 8098SOL     OW25192   1.699   5.870   5.120
 8098SOL    HW125193   1.603   5.863   5.094
 8098SOL    HW225194   1.723   5.792   5.178
 8099SOL     OW25195   2.349   5.520   3.532
 8099SOL    HW125196   2.272   5.530   3.470
 8099SOL    HW225197   2.351   5.426   3.567
 8100SOL     OW25198   0.128   0.259   0.094
 8100SOL    HW125199   0.051   0.307   0.051
 8100SOL    HW225200   0.199   0.325   0.118
 8101SOL     OW25201   2.121   6.394   1.327
 8101SOL    HW125202   2.076   6.306   1.311
 8101SOL    HW225203   2.078   6.439   1.405
 8102SOL     OW25204   1.791   3.347   5.197
 8102SOL    HW125205   1.773   3.306   5.108
 8102SOL    HW225206   1.889   3.350   5.213
 8103SOL     OW25207   3.385   1.522   2.015
 8103SOL    HW125208   3.336   1.437   1.999
 8103SOL    HW225209   3.457   1.507   2.083
 8104SOL     OW25210   1.797   6.435   0.334
 8104SOL    HW125211   1.833   6.471   0.248
 8104SOL    HW225212   1.783   6.509   0.399
 8105SOL     OW25213   6.917   0.410   3.240
 8105SOL    HW125214   6.910   0.429   3.338
 8105SOL    HW225215   6.958   0.320   3.225
 8106SOL     OW25216   2.305   6.599   5.632
 8106SOL    HW125217   2.332   6.615   5.537
 8106SOL    HW225218   2.206   6.589   5.638
 8107SOL     OW25219   2.165   6.291   6.024
 8107SOL    HW125220   2.082   6.243   5.998
 8107SOL    HW225221   2.147   6.390   6.028
 8108SOL     OW25222   0.681   1.512   6.876
 8108SOL    HW125223   0.682   1.455   6.958
 8108SOL    HW225224   0.586   1.529   6.849
 8109SOL     OW25225   6.337   2.740   0.762
 8109SOL    HW125226   6.312   2.714   0.669
 8109SOL    HW225227   6.255   2.767   0.813
 8110SOL     OW25228   4.086   4.904   1.199
 8110SOL    HW125229   4.140   4.972   1.248
 8110SOL    HW225230   4.138   4.819   1.191
 8111SOL     OW25231   6.279   1.536   2.469
 8111SOL    HW125232   6.367   1.583   2.467
 8111SOL    HW225233   6.206   1.604   2.482
 8112SOL     OW25234   1.137   3.265   5.364
 8112SOL    HW125235   1.221   3.296   5.407
 8112SOL    HW225236   1.087   3.343   5.327
 8113SOL     OW25237   5.613   3.019   6.949
 8113SOL    HW125238   5.600   2.934   7.000
 8113SOL    HW225239   5.525   3.066   6.939
 8114SOL     OW25240   1.963   4.077   1.090
 8114SOL    HW125241   2.034   4.136   1.052
 8114SOL    HW225242   1.873   4.112   1.066
 8115SOL     OW25243   1.970   1.404   6.173
 8115SOL    HW125244   1.884   1.383   6.127
 8115SOL    HW225245   2.043   1.349   6.134
 8116SOL     OW25246   3.467   3.839   1.151
 8116SOL    HW125247   3.488   3.913   1.088
 8116SOL    HW225248   3.375   3.853   1.189
 8117SOL     OW25249   2.972   6.869   2.931
 8117SOL    HW125250   2.884   6.830   2.902
 8117SOL    HW225251   2.988   6.955   2.882
 8118SOL     OW25252   6.642   2.542   0.710
 8118SOL    HW125253   6.632   2.640   0.728
 8118SOL    HW225254   6.634   2.492   0.796
 8119SOL     OW25255   6.222   5.943   6.634
 8119SOL    HW125256   6.261   5.982   6.717
 8119SOL    HW225257   6.270   5.980   6.554
 8120SOL     OW25258   2.471   6.449   1.338
 8120SOL    HW125259   2.379   6.455   1.377
 8120SOL    HW225260   2.534   6.504   1.394
 8121SOL     OW25261   1.274   3.066   2.950
 8121SOL    HW125262   1.347   3.036   3.012
 8121SOL    HW225263   1.214   3.131   2.998
 8122SOL     OW25264   0.699   4.701   2.097
 8122SOL    HW125265   0.687   4.639   2.175
 8122SOL    HW225266   0.757   4.778   2.124
 8123SOL     OW25267   0.451   1.966   6.103
 8123SOL    HW125268   0.404   2.002   6.023
 8123SOL    HW225269   0.384   1.929   6.167
 8124SOL     OW25270   5.183   4.797   4.785
 8124SOL    HW125271   5.253   4.726   4.791
 8124SOL    HW225272   5.184   4.837   4.694
 8125SOL     OW25273   1.320   6.291   3.165
 8125SOL    HW125274   1.247   6.227   3.192
 8125SOL    HW225275   1.408   6.254   3.192
 8126SOL     OW25276   4.129   4.907   3.862
 8126SOL    HW125277   4.188   4.829   3.842
 8126SOL    HW225278   4.057   4.878   3.925
 8127SOL     OW25279   3.548   3.041   7.003
 8127SOL    HW125280   3.549   3.091   6.916
 8127SOL    HW225281   3.569   3.103   0.053
 8128SOL     OW25282   3.718   2.860   1.600
 8128SOL    HW125283   3.764   2.782   1.642
 8128SOL    HW225284   3.662   2.907   1.669
 8129SOL     OW25285   1.044   2.894   1.500
 8129SOL    HW125286   1.137   2.901   1.536
 8129SOL    HW225287   0.983   2.952   1.555
 8130SOL     OW25288   1.381   5.394   6.937
 8130SOL    HW125289   1.298   5.350   6.970
 8130SOL    HW225290   1.449   5.396   7.010
 8131SOL     OW25291   2.008   3.357   0.043
 8131SOL    HW125292   1.969   3.406   0.120
 8131SOL    HW225293   2.024   3.261   0.068
 8132SOL     OW25294   6.782   6.789   4.999
 8132SOL    HW125295   6.880   6.796   4.980
 8132SOL    HW225296   6.754   6.866   5.055
 8133SOL     OW25297   3.246   4.929   0.662
 8133SOL    HW125298   3.217   4.842   0.623
 8133SOL    HW225299   3.167   4.977   0.700
 8134SOL     OW25300   5.556   1.130   5.234
 8134SOL    HW125301   5.545   1.040   5.193
 8134SOL    HW225302   5.626   1.181   5.184
 8135SOL     OW25303   2.306   0.141   1.515
 8135SOL    HW125304   2.333   0.228   1.554
 8135SOL    HW225305   2.257   0.156   1.429
 8136SOL     OW25306   4.492   4.782   2.088
 8136SOL    HW125307   4.393   4.789   2.101
 8136SOL    HW225308   4.523   4.690   2.114
 8137SOL     OW25309   4.169   1.912   4.671
 8137SOL    HW125310   4.141   1.919   4.575
 8137SOL    HW225311   4.120   1.837   4.715
 8138SOL     OW25312   4.893   0.913   1.420
 8138SOL    HW125313   4.820   0.924   1.352
 8138SOL    HW225314   4.852   0.899   1.510
 8139SOL     OW25315   1.060   2.283   3.600
 8139SOL    HW125316   1.152   2.260   3.631
 8139SOL    HW225317   1.049   2.382   3.600
 8140SOL     OW25318   3.906   0.880   3.539
 8140SOL    HW125319   3.953   0.854   3.623
 8140SOL    HW225320   3.958   0.846   3.460
 8141SOL     OW25321   4.245   4.730   4.454
 8141SOL    HW125322   4.306   4.698   4.527
 8141SOL    HW225323   4.234   4.829   4.461
 8142SOL     OW25324   6.135   5.621   0.298
 8142SOL    HW125325   6.059   5.686   0.304
 8142SOL    HW225326   6.106   5.532   0.335
 8143SOL     OW25327   6.063   4.028   4.831
 8143SOL    HW125328   5.986   4.086   4.803
 8143SOL    HW225329   6.089   3.969   4.754
 8144SOL     OW25330   6.088   6.217   6.558
 8144SOL    HW125331   6.037   6.226   6.472
 8144SOL    HW225332   6.024   6.215   6.635
 8145SOL     OW25333   6.210   5.929   2.545
 8145SOL    HW125334   6.113   5.952   2.553
 8145SOL    HW225335   6.262   6.012   2.526
 8146SOL     OW25336   2.975   1.508   4.534
 8146SOL    HW125337   2.969   1.600   4.494
 8146SOL    HW225338   2.924   1.444   4.477
 8147SOL     OW25339   4.613   1.448   3.819
 8147SOL    HW125340   4.534   1.400   3.780
 8147SOL    HW225341   4.693   1.388   3.818
 8148SOL     OW25342   5.507   3.841   3.472
 8148SOL    HW125343   5.500   3.853   3.571
 8148SOL    HW225344   5.532   3.746   3.452
 8149SOL     OW25345   4.398   4.682   3.439
 8149SOL    HW125346   4.488   4.694   3.396
 8149SOL    HW225347   4.398   4.597   3.492
 8150SOL     OW25348   0.519   5.584   6.860
 8150SOL    HW125349   0.616   5.590   6.883
 8150SOL    HW225350   0.471   5.664   6.896
 8151SOL     OW25351   1.143   1.528   5.203
 8151SOL    HW125352   1.163   1.468   5.281
 8151SOL    HW225353   1.113   1.473   5.126
 8152SOL     OW25354   1.481   1.010   3.078
 8152SOL    HW125355   1.502   1.092   3.025
 8152SOL    HW225356   1.516   0.930   3.030
 8153SOL     OW25357   2.135   6.718   0.556
 8153SOL    HW125358   2.100   6.717   0.462
 8153SOL    HW225359   2.150   6.812   0.585
 8154SOL     OW25360   2.137   6.362   3.702
 8154SOL    HW125361   2.168   6.289   3.640
 8154SOL    HW225362   2.217   6.401   3.749
 8155SOL     OW25363   2.961   3.586   3.444
 8155SOL    HW125364   2.908   3.560   3.363
 8155SOL    HW225365   2.999   3.678   3.431
 8156SOL     OW25366   6.138   0.340   5.962
 8156SOL    HW125367   6.089   0.408   5.908
 8156SOL    HW225368   6.099   0.335   6.053
 8157SOL     OW25369   6.370   3.410   6.622
 8157SOL    HW125370   6.291   3.470   6.622
 8157SOL    HW225371   6.434   3.438   6.694
 8158SOL     OW25372   1.657   5.043   2.444
 8158SOL    HW125373   1.668   4.944   2.442
 8158SOL    HW225374   1.734   5.084   2.492
 8159SOL     OW25375   1.751   6.082   2.219
 8159SOL    HW125376   1.784   6.002   2.269
 8159SOL    HW225377   1.828   6.143   2.200
 8160SOL     OW25378   4.518   2.161   1.881
 8160SOL    HW125379   4.609   2.180   1.918
 8160SOL    HW225380   4.505   2.062   1.874
 8161SOL     OW25381   5.206   1.472   0.934
 8161SOL    HW125382   5.293   1.500   0.975
 8161SOL    HW225383   5.145   1.438   1.005
 8162SOL     OW25384   6.105   0.465   2.097
 8162SOL    HW125385   6.030   0.495   2.038
 8162SOL    HW225386   6.171   0.415   2.043
 8163SOL     OW25387   2.099   4.002   5.161
 8163SOL    HW125388   2.176   4.048   5.116
 8163SOL    HW225389   2.133   3.931   5.222
 8164SOL     OW25390   4.126   2.245   2.020
 8164SOL    HW125391   4.160   2.207   2.106
 8164SOL    HW225392   4.190   2.314   1.986
 8165SOL     OW25393   2.347   5.204   1.647
 8165SOL    HW125394   2.399   5.142   1.588
 8165SOL    HW225395   2.323   5.156   1.732
 8166SOL     OW25396   3.026   6.863   2.003
 8166SOL    HW125397   3.000   6.934   1.938
 8166SOL    HW225398   3.053   6.905   2.089
 8167SOL     OW25399   5.767   2.643   3.480
 8167SOL    HW125400   5.696   2.582   3.443
 8167SOL    HW225401   5.841   2.653   3.413
 8168SOL     OW25402   3.439   1.301   2.994
 8168SOL    HW125403   3.357   1.341   3.035
 8168SOL    HW225404   3.455   1.343   2.905
 8169SOL     OW25405   4.949   3.833   6.131
 8169SOL    HW125406   4.946   3.797   6.224
 8169SOL    HW225407   4.938   3.933   6.134
 8170SOL     OW25408   0.858   5.800   4.038
 8170SOL    HW125409   0.900   5.883   4.074
 8170SOL    HW225410   0.892   5.721   4.088
 8171SOL     OW25411   0.922   1.832   5.858
 8171SOL    HW125412   0.861   1.787   5.924
 8171SOL    HW225413   0.954   1.764   5.792
 8172SOL     OW25414   6.886   6.794   0.934
 8172SOL    HW125415   6.958   6.864   0.927
 8172SOL    HW225416   6.928   6.703   0.931
 8173SOL     OW25417   4.444   2.652   6.797
 8173SOL    HW125418   4.429   2.618   6.890
 8173SOL    HW225419   4.394   2.595   6.732
 8174SOL     OW25420   6.039   0.403   2.368
 8174SOL    HW125421   6.024   0.308   2.395
 8174SOL    HW225422   6.041   0.409   2.268
 8175SOL     OW25423   0.985   3.347   6.173
 8175SOL    HW125424   1.053   3.354   6.246
 8175SOL    HW225425   0.976   3.435   6.127
 8176SOL     OW25426   2.575   5.894   2.332
 8176SOL    HW125427   2.629   5.830   2.388
 8176SOL    HW225428   2.631   5.929   2.258
 8177SOL     OW25429   0.433   6.807   5.677
 8177SOL    HW125430   0.407   6.724   5.727
 8177SOL    HW225431   0.386   6.809   5.588
 8178SOL     OW25432   2.232   6.479   6.793
 8178SOL    HW125433   2.300   6.423   6.746
 8178SOL    HW225434   2.246   6.575   6.771
 8179SOL     OW25435   3.282   1.310   0.471
 8179SOL    HW125436   3.372   1.352   0.487
 8179SOL    HW225437   3.290   1.211   0.481
 8180SOL     OW25438   6.057   5.644   5.369
 8180SOL    HW125439   6.098   5.575   5.428
 8180SOL    HW225440   5.968   5.611   5.337
 8181SOL     OW25441   2.424   2.247   2.653
 8181SOL    HW125442   2.490   2.190   2.702
 8181SOL    HW225443   2.352   2.277   2.716
 8182SOL     OW25444   3.790   2.930   5.275
 8182SOL    HW125445   3.732   2.851   5.256
 8182SOL    HW225446   3.737   2.999   5.324
 8183SOL     OW25447   1.142   3.853   5.058
 8183SOL    HW125448   1.138   3.760   5.095
 8183SOL    HW225449   1.231   3.893   5.076
 8184SOL     OW25450   5.589   5.987   5.445
 8184SOL    HW125451   5.537   5.948   5.521
 8184SOL    HW225452   5.679   6.018   5.477
 8185SOL     OW25453   2.016   1.342   2.941
 8185SOL    HW125454   1.942   1.410   2.939
 8185SOL    HW225455   2.103   1.388   2.957
 8186SOL     OW25456   3.821   5.082   6.158
 8186SOL    HW125457   3.732   5.120   6.184
 8186SOL    HW225458   3.890   5.113   6.223
 8187SOL     OW25459   0.812   2.209   5.480
 8187SOL    HW125460   0.783   2.141   5.413
 8187SOL    HW225461   0.796   2.174   5.572
 8188SOL     OW25462   5.769   3.853   2.637
 8188SOL    HW125463   5.676   3.887   2.653
 8188SOL    HW225464   5.824   3.925   2.596
 8189SOL     OW25465   6.031   4.312   2.538
 8189SOL    HW125466   6.110   4.294   2.596
 8189SOL    HW225467   6.060   4.360   2.455
 8190SOL     OW25468   5.135   3.826   2.981
 8190SOL    HW125469   5.191   3.781   2.912
 8190SOL    HW225470   5.044   3.843   2.944
 8191SOL     OW25471   0.821   5.264   2.862
 8191SOL    HW125472   0.761   5.270   2.782
 8191SOL    HW225473   0.879   5.183   2.855
 8192SOL     OW25474   1.472   4.146   1.634
 8192SOL    HW125475   1.547   4.211   1.646
 8192SOL    HW225476   1.493   4.062   1.684
 8193SOL     OW25477   3.601   0.881   6.006
 8193SOL    HW125478   3.625   0.966   6.053
 8193SOL    HW225479   3.546   0.824   6.067
 8194SOL     OW25480   1.347   0.165   0.591
 8194SOL    HW125481   1.364   0.076   0.633
 8194SOL    HW225482   1.276   0.156   0.520
 8195SOL     OW25483   6.071   0.023   0.664
 8195SOL    HW125484   6.152   0.045   0.610
 8195SOL    HW225485   6.070   0.079   0.747
 8196SOL     OW25486   2.410   0.473   6.084
 8196SOL    HW125487   2.459   0.560   6.078
 8196SOL    HW225488   2.471   0.403   6.120
 8197SOL     OW25489   0.782   6.398   6.746
 8197SOL    HW125490   0.729   6.403   6.661
 8197SOL    HW225491   0.860   6.461   6.740
 8198SOL     OW25492   3.686   6.436   2.711
 8198SOL    HW125493   3.652   6.347   2.679
 8198SOL    HW225494   3.781   6.448   2.682
 8199SOL     OW25495   5.937   3.819   0.426
 8199SOL    HW125496   5.882   3.856   0.501
 8199SOL    HW225497   5.880   3.813   0.344
 8200SOL     OW25498   5.026   3.766   1.362
 8200SOL    HW125499   5.093   3.825   1.407
 8200SOL    HW225500   4.934   3.795   1.387
 8201SOL     OW25501   6.496   1.091   4.235
 8201SOL    HW125502   6.480   1.035   4.154
 8201SOL    HW225503   6.453   1.180   4.224
 8202SOL     OW25504   1.508   4.226   3.647
 8202SOL    HW125505   1.442   4.251   3.576
 8202SOL    HW225506   1.538   4.308   3.695
 8203SOL     OW25507   5.999   3.534   1.034
 8203SOL    HW125508   5.943   3.580   1.102
 8203SOL    HW225509   6.081   3.497   1.078
 8204SOL     OW25510   3.528   6.813   0.875
 8204SOL    HW125511   3.536   6.911   0.858
 8204SOL    HW225512   3.519   6.797   0.973
 8205SOL     OW25513   5.931   5.287   3.028
 8205SOL    HW125514   5.835   5.266   3.044
 8205SOL    HW225515   5.954   5.374   3.071
 8206SOL     OW25516   4.403   1.951   3.920
 8206SOL    HW125517   4.479   1.953   3.985
 8206SOL    HW225518   4.361   2.042   3.914
 8207SOL     OW25519   2.692   6.298   0.020
 8207SOL    HW125520   2.767   6.233   0.012
 8207SOL    HW225521   2.641   6.280   0.104
 8208SOL     OW25522   1.453   4.806   5.978
 8208SOL    HW125523   1.371   4.790   6.033
 8208SOL    HW225524   1.459   4.903   5.953
 8209SOL     OW25525   0.498   6.545   5.158
 8209SOL    HW125526   0.583   6.541   5.211
 8209SOL    HW225527   0.500   6.474   5.087
 8210SOL     OW25528   2.890   1.861   7.002
 8210SOL    HW125529   2.922   1.907   0.059
 8210SOL    HW225530   2.838   1.779   0.002
 8211SOL     OW25531   2.906   3.488   4.608
 8211SOL    HW125532   3.004   3.475   4.594
 8211SOL    HW225533   2.871   3.418   4.671
 8212SOL     OW25534   3.820   6.807   0.865
 8212SOL    HW125535   3.744   6.743   0.872
 8212SOL    HW225536   3.785   6.900   0.853
 8213SOL     OW25537   4.328   4.061   1.701
 8213SOL    HW125538   4.238   4.035   1.737
 8213SOL    HW225539   4.374   4.119   1.768
 8214SOL     OW25540   3.899   5.248   4.122
 8214SOL    HW125541   3.908   5.345   4.142
 8214SOL    HW225542   3.818   5.232   4.066
 8215SOL     OW25543   3.436   6.006   6.718
 8215SOL    HW125544   3.362   6.072   6.735
 8215SOL    HW225545   3.397   5.922   6.680
 8216SOL     OW25546   6.237   4.818   1.972
 8216SOL    HW125547   6.226   4.871   2.056
 8216SOL    HW225548   6.310   4.859   1.917
 8217SOL     OW25549   2.638   6.407   3.990
 8217SOL    HW125550   2.638   6.378   3.894
 8217SOL    HW225551   2.687   6.493   3.999
 8218SOL     OW25552   2.868   6.846   4.928
 8218SOL    HW125553   2.878   6.757   4.884
 8218SOL    HW225554   2.959   6.887   4.941
 8219SOL     OW25555   3.940   2.952   1.766
 8219SOL    HW125556   3.861   2.926   1.711
 8219SOL    HW225557   4.023   2.910   1.728
 8220SOL     OW25558   3.544   4.048   4.258
 8220SOL    HW125559   3.558   4.066   4.160
 8220SOL    HW225560   3.618   4.090   4.310
 8221SOL     OW25561   5.395   3.860   3.223
 8221SOL    HW125562   5.448   3.836   3.141
 8221SOL    HW225563   5.456   3.860   3.303
 8222SOL     OW25564   6.557   2.761   0.443
 8222SOL    HW125565   6.626   2.750   0.372
 8222SOL    HW225566   6.514   2.673   0.462
 8223SOL     OW25567   2.177   6.368   5.747
 8223SOL    HW125568   2.091   6.419   5.741
 8223SOL    HW225569   2.200   6.353   5.843
 8224SOL     OW25570   5.057   1.454   0.318
 8224SOL    HW125571   4.996   1.533   0.326
 8224SOL    HW225572   5.004   1.373   0.294
 8225SOL     OW25573   5.482   1.992   0.183
 8225SOL    HW125574   5.400   1.969   0.235
 8225SOL    HW225575   5.560   1.942   0.221
 8226SOL     OW25576   4.238   0.822   0.797
 8226SOL    HW125577   4.294   0.750   0.837
 8226SOL    HW225578   4.290   0.869   0.725
 8227SOL     OW25579   4.404   2.406   2.644
 8227SOL    HW125580   4.417   2.322   2.698
 8227SOL    HW225581   4.317   2.448   2.669
 8228SOL     OW25582   2.341   0.010   4.424
 8228SOL    HW125583   2.319   0.108   4.426
 8228SOL    HW225584   2.316   6.998   4.335
 8229SOL     OW25585   4.530   4.396   0.291
 8229SOL    HW125586   4.556   4.419   0.385
 8229SOL    HW225587   4.553   4.300   0.272
 8230SOL     OW25588   5.381   0.317   5.842
 8230SOL    HW125589   5.372   0.292   5.745
 8230SOL    HW225590   5.476   0.340   5.862
 8231SOL     OW25591   2.655   1.759   2.727
 8231SOL    HW125592   2.726   1.810   2.678
 8231SOL    HW225593   2.587   1.823   2.763
 8232SOL     OW25594   3.743   5.722   3.068
 8232SOL    HW125595   3.737   5.665   3.150
 8232SOL    HW225596   3.656   5.767   3.052
 8233SOL     OW25597   1.111   1.150   6.096
 8233SOL    HW125598   1.183   1.100   6.144
 8233SOL    HW225599   1.130   1.248   6.100
 8234SOL     OW25600   0.477   2.123   0.725
 8234SOL    HW125601   0.472   2.030   0.761
 8234SOL    HW225602   0.384   2.160   0.716
 8235SOL     OW25603   0.795   0.023   1.374
 8235SOL    HW125604   0.822   0.095   1.438
 8235SOL    HW225605   0.727   6.989   1.418
 8236SOL     OW25606   1.058   6.539   1.473
 8236SOL    HW125607   1.052   6.584   1.562
 8236SOL    HW225608   0.969   6.543   1.428
 8237SOL     OW25609   4.067   4.886   6.050
 8237SOL    HW125610   4.155   4.902   6.005
 8237SOL    HW225611   4.072   4.916   6.145
 8238SOL     OW25612   0.402   4.630   0.734
 8238SOL    HW125613   0.417   4.540   0.694
 8238SOL    HW225614   0.482   4.687   0.717
 8239SOL     OW25615   1.969   1.469   5.336
 8239SOL    HW125616   1.971   1.550   5.278
 8239SOL    HW225617   1.999   1.493   5.428
 8240SOL     OW25618   3.879   3.557   4.726
 8240SOL    HW125619   3.892   3.656   4.735
 8240SOL    HW225620   3.835   3.521   4.808
 8241SOL     OW25621   1.879   4.198   5.069
 8241SOL    HW125622   1.882   4.182   4.970
 8241SOL    HW225623   1.935   4.129   5.115
 8242SOL     OW25624   0.567   3.443   2.746
 8242SOL    HW125625   0.527   3.532   2.770
 8242SOL    HW225626   0.570   3.434   2.647
 8243SOL     OW25627   1.714   5.456   4.386
 8243SOL    HW125628   1.722   5.358   4.369
 8243SOL    HW225629   1.756   5.506   4.310
 8244SOL     OW25630   6.606   1.320   3.901
 8244SOL    HW125631   6.667   1.249   3.937
 8244SOL    HW225632   6.587   1.302   3.804
 8245SOL     OW25633   5.470   1.941   3.038
 8245SOL    HW125634   5.418   1.931   2.952
 8245SOL    HW225635   5.411   1.979   3.108
 8246SOL     OW25636   1.656   4.925   6.452
 8246SOL    HW125637   1.638   4.832   6.485
 8246SOL    HW225638   1.582   4.985   6.482
 8247SOL     OW25639   2.953   5.716   2.739
 8247SOL    HW125640   2.999   5.629   2.758
 8247SOL    HW225641   2.940   5.766   2.825
 8248SOL     OW25642   6.803   5.335   3.926
 8248SOL    HW125643   6.886   5.390   3.937
 8248SOL    HW225644   6.768   5.308   4.016
 8249SOL     OW25645   3.255   1.565   6.754
 8249SOL    HW125646   3.234   1.616   6.837
 8249SOL    HW225647   3.263   1.628   6.677
 8250SOL     OW25648   0.786   2.038   6.808
 8250SOL    HW125649   0.744   1.952   6.838
 8250SOL    HW225650   0.859   2.063   6.872
 8251SOL     OW25651   1.177   2.472   5.418
 8251SOL    HW125652   1.226   2.514   5.342
 8251SOL    HW225653   1.133   2.543   5.473
 8252SOL     OW25654   0.803   2.178   6.543
 8252SOL    HW125655   0.811   2.111   6.617
 8252SOL    HW225656   0.876   2.164   6.477
 8253SOL     OW25657   3.938   5.977   0.404
 8253SOL    HW125658   3.975   5.897   0.356
 8253SOL    HW225659   4.010   6.019   0.460
 8254SOL     OW25660   5.546   5.363   0.020
 8254SOL    HW125661   5.482   5.417   0.074
 8254SOL    HW225662   5.497   5.291   6.998
 8255SOL     OW25663   2.491   0.723   5.651
 8255SOL    HW125664   2.443   0.803   5.686
 8255SOL    HW225665   2.430   0.669   5.594
 8256SOL     OW25666   1.546   4.905   5.079
 8256SOL    HW125667   1.589   4.883   4.992
 8256SOL    HW225668   1.496   4.825   5.113
 8257SOL     OW25669   5.280   4.071   2.824
 8257SOL    HW125670   5.344   4.003   2.789
 8257SOL    HW225671   5.328   4.130   2.890
 8258SOL     OW25672   0.597   3.172   2.307
 8258SOL    HW125673   0.580   3.163   2.405
 8258SOL    HW225674   0.552   3.098   2.258
 8259SOL     OW25675   5.096   1.940   3.900
 8259SOL    HW125676   5.109   1.854   3.850
 8259SOL    HW225677   5.111   2.017   3.839
 8260SOL     OW25678   4.278   2.288   1.287
 8260SOL    HW125679   4.361   2.240   1.258
 8260SOL    HW225680   4.251   2.256   1.377
 8261SOL     OW25681   5.427   1.309   2.374
 8261SOL    HW125682   5.402   1.255   2.454
 8261SOL    HW225683   5.472   1.250   2.307
 8262SOL     OW25684   5.309   3.737   1.677
 8262SOL    HW125685   5.371   3.744   1.598
 8262SOL    HW225686   5.356   3.772   1.758
 8263SOL     OW25687   6.174   1.910   5.587
 8263SOL    HW125688   6.123   1.872   5.510
 8263SOL    HW225689   6.177   1.843   5.661
 8264SOL     OW25690   3.349   0.164   2.737
 8264SOL    HW125691   3.366   0.106   2.817
 8264SOL    HW225692   3.276   0.230   2.759
 8265SOL     OW25693   4.609   6.271   0.772
 8265SOL    HW125694   4.605   6.196   0.839
 8265SOL    HW225695   4.517   6.303   0.753
 8266SOL     OW25696   3.092   1.115   3.802
 8266SOL    HW125697   3.166   1.106   3.869
 8266SOL    HW225698   3.131   1.131   3.712
 8267SOL     OW25699   2.066   3.413   2.505
 8267SOL    HW125700   2.002   3.350   2.550
 8267SOL    HW225701   2.048   3.413   2.407
 8268SOL     OW25702   3.288   4.215   6.299
 8268SOL    HW125703   3.328   4.294   6.251
 8268SOL    HW225704   3.356   4.142   6.305
 8269SOL     OW25705   6.157   3.001   4.592
 8269SOL    HW125706   6.082   2.937   4.577
 8269SOL    HW225707   6.217   2.966   4.664
 8270SOL     OW25708   3.891   6.262   6.429
 8270SOL    HW125709   3.981   6.222   6.413
 8270SOL    HW225710   3.898   6.362   6.426
 8271SOL     OW25711   3.309   6.501   6.229
 8271SOL    HW125712   3.251   6.421   6.214
 8271SOL    HW225713   3.398   6.472   6.264
 8272SOL     OW25714   1.312   0.572   1.997
 8272SOL    HW125715   1.230   0.627   1.980
 8272SOL    HW225716   1.302   0.483   1.954
 8273SOL     OW25717   4.045   0.547   0.406
 8273SOL    HW125718   4.039   0.507   0.315
 8273SOL    HW225719   4.069   0.644   0.399
 8274SOL     OW25720   5.116   6.297   5.609
 8274SOL    HW125721   5.153   6.303   5.516
 8274SOL    HW225722   5.033   6.352   5.615
 8275SOL     OW25723   5.475   0.526   4.418
 8275SOL    HW125724   5.440   0.433   4.431
 8275SOL    HW225725   5.405   0.592   4.444
 8276SOL     OW25726   6.813   2.354   6.628
 8276SOL    HW125727   6.720   2.317   6.627
 8276SOL    HW225728   6.871   2.298   6.688
 8277SOL     OW25729   1.188   0.097   6.991
 8277SOL    HW125730   1.229   0.083   6.901
 8277SOL    HW225731   1.093   0.127   6.981
 8278SOL     OW25732   2.832   1.503   0.831
 8278SOL    HW125733   2.860   1.466   0.919
 8278SOL    HW225734   2.911   1.545   0.786
 8279SOL     OW25735   3.714   6.161   5.505
 8279SOL    HW125736   3.763   6.076   5.487
 8279SOL    HW225737   3.646   6.145   5.577
 8280SOL     OW25738   5.153   4.276   0.240
 8280SOL    HW125739   5.218   4.349   0.218
 8280SOL    HW225740   5.199   4.208   0.298
 8281SOL     OW25741   2.830   5.397   0.085
 8281SOL    HW125742   2.840   5.495   0.105
 8281SOL    HW225743   2.739   5.380   0.046
 8282SOL     OW25744   2.914   2.852   1.655
 8282SOL    HW125745   2.830   2.838   1.603
 8282SOL    HW225746   2.968   2.925   1.612
 8283SOL     OW25747   0.418   6.787   4.039
 8283SOL    HW125748   0.477   6.853   3.992
 8283SOL    HW225749   0.353   6.749   3.973
 8284SOL     OW25750   3.588   1.531   2.389
 8284SOL    HW125751   3.510   1.478   2.353
 8284SOL    HW225752   3.628   1.586   2.315
 8285SOL     OW25753   2.451   4.595   6.722
 8285SOL    HW125754   2.479   4.522   6.661
 8285SOL    HW225755   2.414   4.671   6.668
 8286SOL     OW25756   5.569   2.532   5.535
 8286SOL    HW125757   5.653   2.583   5.513
 8286SOL    HW225758   5.498   2.554   5.468
 8287SOL     OW25759   1.798   0.384   3.839
 8287SOL    HW125760   1.753   0.362   3.925
 8287SOL    HW225761   1.810   0.301   3.785
 8288SOL     OW25762   2.369   0.396   2.915
 8288SOL    HW125763   2.284   0.445   2.897
 8288SOL    HW225764   2.441   0.463   2.936
 8289SOL     OW25765   6.328   0.886   6.396
 8289SOL    HW125766   6.230   0.896   6.412
 8289SOL    HW225767   6.346   0.887   6.298
 8290SOL     OW25768   4.616   2.728   1.581
 8290SOL    HW125769   4.673   2.780   1.644
 8290SOL    HW225770   4.556   2.790   1.531
 8291SOL     OW25771   4.398   5.885   6.718
 8291SOL    HW125772   4.363   5.799   6.754
 8291SOL    HW225773   4.459   5.867   6.642
 8292SOL     OW25774   0.620   3.020   5.103
 8292SOL    HW125775   0.700   3.038   5.159
 8292SOL    HW225776   0.640   3.040   5.007
 8293SOL     OW25777   2.843   5.570   3.663
 8293SOL    HW125778   2.760   5.556   3.716
 8293SOL    HW225779   2.918   5.519   3.705
 8294SOL     OW25780   5.229   3.922   5.497
 8294SOL    HW125781   5.284   3.896   5.577
 8294SOL    HW225782   5.186   4.010   5.513
 8295SOL     OW25783   5.031   4.834   2.521
 8295SOL    HW125784   4.952   4.890   2.548
 8295SOL    HW225785   5.038   4.834   2.421
 8296SOL     OW25786   4.304   0.123   1.751
 8296SOL    HW125787   4.320   0.112   1.849
 8296SOL    HW225788   4.335   0.041   1.702
 8297SOL     OW25789   5.443   4.349   3.558
 8297SOL    HW125790   5.414   4.256   3.533
 8297SOL    HW225791   5.362   4.407   3.566
 8298SOL     OW25792   0.288   6.805   6.991
 8298SOL    HW125793   0.302   6.903   6.984
 8298SOL    HW225794   0.328   6.772   0.051
 8299SOL     OW25795   1.083   3.510   0.947
 8299SOL    HW125796   1.069   3.413   0.925
 8299SOL    HW225797   1.010   3.564   0.907
 8300SOL     OW25798   6.266   5.265   3.897
 8300SOL    HW125799   6.324   5.271   3.816
 8300SOL    HW225800   6.290   5.184   3.950
 8301SOL     OW25801   5.714   6.701   0.664
 8301SOL    HW125802   5.661   6.632   0.614
 8301SOL    HW225803   5.785   6.656   0.717
 8302SOL     OW25804   3.748   0.261   5.476
 8302SOL    HW125805   3.841   0.296   5.474
 8302SOL    HW225806   3.725   0.223   5.386
 8303SOL     OW25807   0.221   5.105   2.632
 8303SOL    HW125808   0.145   5.048   2.663
 8303SOL    HW225809   0.191   5.201   2.628
 8304SOL     OW25810   5.973   4.605   3.287
 8304SOL    HW125811   6.010   4.523   3.243
 8304SOL    HW225812   6.029   4.684   3.263
 8305SOL     OW25813   5.259   6.823   5.060
 8305SOL    HW125814   5.201   6.801   5.138
 8305SOL    HW225815   5.226   6.907   5.017
 8306SOL     OW25816   6.990   1.660   2.931
 8306SOL    HW125817   6.921   1.716   2.884
 8306SOL    HW225818   6.952   1.568   2.947
 8307SOL     OW25819   1.704   3.021   2.853
 8307SOL    HW125820   1.677   3.010   2.757
 8307SOL    HW225821   1.655   3.098   2.893
 8308SOL     OW25822   0.869   5.322   0.861
 8308SOL    HW125823   0.901   5.305   0.768
 8308SOL    HW225824   0.773   5.351   0.859
 8309SOL     OW25825   6.430   4.661   4.482
 8309SOL    HW125826   6.491   4.702   4.550
 8309SOL    HW225827   6.395   4.574   4.518
 8310SOL     OW25828   1.982   0.623   0.996
 8310SOL    HW125829   1.897   0.637   1.047
 8310SOL    HW225830   1.974   0.668   0.907
 8311SOL     OW25831   5.193   5.807   3.421
 8311SOL    HW125832   5.203   5.728   3.361
 8311SOL    HW225833   5.192   5.777   3.516
 8312SOL     OW25834   5.843   1.405   0.366
 8312SOL    HW125835   5.757   1.367   0.333
 8312SOL    HW225836   5.885   1.459   0.294
 8313SOL     OW25837   5.767   2.458   5.990
 8313SOL    HW125838   5.731   2.490   5.902
 8313SOL    HW225839   5.789   2.537   6.047
 8314SOL     OW25840   4.697   6.128   4.241
 8314SOL    HW125841   4.752   6.104   4.161
 8314SOL    HW225842   4.623   6.062   4.253
 8315SOL     OW25843   3.376   3.288   4.757
 8315SOL    HW125844   3.472   3.279   4.734
 8315SOL    HW225845   3.337   3.197   4.771
 8316SOL     OW25846   2.685   2.150   5.515
 8316SOL    HW125847   2.634   2.237   5.518
 8316SOL    HW225848   2.782   2.168   5.529
 8317SOL     OW25849   1.542   2.330   4.345
 8317SOL    HW125850   1.616   2.263   4.337
 8317SOL    HW225851   1.572   2.418   4.308
 8318SOL     OW25852   4.276   6.829   5.962
 8318SOL    HW125853   4.335   6.910   5.952
 8318SOL    HW225854   4.200   6.852   6.023
 8319SOL     OW25855   2.398   5.685   5.930
 8319SOL    HW125856   2.309   5.730   5.937
 8319SOL    HW225857   2.465   5.750   5.894
 8320SOL     OW25858   3.640   3.214   5.121
 8320SOL    HW125859   3.630   3.169   5.210
 8320SOL    HW225860   3.561   3.272   5.103
 8321SOL     OW25861   6.904   6.993   0.624
 8321SOL    HW125862   6.929   0.001   0.533
 8321SOL    HW225863   6.966   0.006   0.692
 8322SOL     OW25864   0.574   6.641   0.050
 8322SOL    HW125865   0.558   6.588   6.993
 8322SOL    HW225866   0.526   6.599   0.127
 8323SOL     OW25867   5.678   4.428   0.473
 8323SOL    HW125868   5.621   4.363   0.522
 8323SOL    HW225869   5.669   4.519   0.514
 8324SOL     OW25870   5.225   6.225   0.277
 8324SOL    HW125871   5.174   6.146   0.243
 8324SOL    HW225872   5.309   6.236   0.224
 8325SOL     OW25873   1.418   6.783   5.656
 8325SOL    HW125874   1.399   6.689   5.627
 8325SOL    HW225875   1.505   6.812   5.617
 8326SOL     OW25876   1.594   3.234   6.754
 8326SOL    HW125877   1.586   3.180   6.838
 8326SOL    HW225878   1.503   3.263   6.724
 8327SOL     OW25879   1.272   5.973   4.795
 8327SOL    HW125880   1.324   5.982   4.879
 8327SOL    HW225881   1.334   5.964   4.717
 8328SOL     OW25882   0.531   6.384   6.924
 8328SOL    HW125883   0.629   6.389   6.900
 8328SOL    HW225884   0.504   6.289   6.934
 8329SOL     OW25885   1.379   3.123   4.738
 8329SOL    HW125886   1.404   3.170   4.654
 8329SOL    HW225887   1.317   3.180   4.791
 8330SOL     OW25888   2.841   1.034   7.008
 8330SOL    HW125889   2.864   0.937   7.024
 8330SOL    HW225890   2.852   1.055   6.911
 8331SOL     OW25891   1.528   2.509   6.480
 8331SOL    HW125892   1.449   2.457   6.447
 8331SOL    HW225893   1.524   2.602   6.444
 8332SOL     OW25894   6.324   4.249   1.948
 8332SOL    HW125895   6.405   4.290   1.990
 8332SOL    HW225896   6.321   4.151   1.970
 8333SOL     OW25897   1.661   4.015   0.084
 8333SOL    HW125898   1.622   4.011   7.017
 8333SOL    HW225899   1.756   3.984   0.082
 8334SOL     OW25900   2.946   2.161   5.549
 8334SOL    HW125901   3.005   2.160   5.469
 8334SOL    HW225902   3.000   2.143   5.631
 8335SOL     OW25903   5.506   4.653   6.278
 8335SOL    HW125904   5.477   4.746   6.300
 8335SOL    HW225905   5.601   4.640   6.306
 8336SOL     OW25906   0.741   4.195   3.624
 8336SOL    HW125907   0.718   4.292   3.611
 8336SOL    HW225908   0.661   4.147   3.660
 8337SOL     OW25909   0.184   1.598   4.046
 8337SOL    HW125910   0.112   1.611   3.977
 8337SOL    HW225911   0.211   1.687   4.083
 8338SOL     OW25912   3.149   5.239   1.175
 8338SOL    HW125913   3.226   5.281   1.222
 8338SOL    HW225914   3.078   5.216   1.242
 8339SOL     OW25915   6.217   0.528   1.370
 8339SOL    HW125916   6.216   0.572   1.459
 8339SOL    HW225917   6.199   0.430   1.380
 8340SOL     OW25918   6.111   1.885   6.973
 8340SOL    HW125919   6.166   1.896   0.030
 8340SOL    HW225920   6.146   1.947   6.902
 8341SOL     OW25921   4.032   1.484   0.976
 8341SOL    HW125922   4.084   1.482   1.061
 8341SOL    HW225923   4.006   1.391   0.950
 8342SOL     OW25924   4.556   0.388   0.350
 8342SOL    HW125925   4.489   0.361   0.420
 8342SOL    HW225926   4.644   0.343   0.369
 8343SOL     OW25927   5.909   4.339   3.669
 8343SOL    HW125928   5.939   4.371   3.759
 8343SOL    HW225929   5.882   4.243   3.675
 8344SOL     OW25930   1.218   4.758   6.123
 8344SOL    HW125931   1.196   4.795   6.214
 8344SOL    HW225932   1.151   4.791   6.057
 8345SOL     OW25933   5.116   6.985   3.854
 8345SOL    HW125934   5.090   0.045   3.899
 8345SOL    HW225935   5.034   6.938   3.821
 8346SOL     OW25936   5.710   3.095   4.433
 8346SOL    HW125937   5.810   3.100   4.426
 8346SOL    HW225938   5.675   3.176   4.479
 8347SOL     OW25939   2.253   1.433   6.464
 8347SOL    HW125940   2.247   1.460   6.560
 8347SOL    HW225941   2.192   1.490   6.409
 8348SOL     OW25942   3.112   6.106   2.216
 8348SOL    HW125943   3.126   6.140   2.123
 8348SOL    HW225944   3.148   6.172   2.281
 8349SOL     OW25945   6.223   6.139   2.206
 8349SOL    HW125946   6.316   6.149   2.239
 8349SOL    HW225947   6.225   6.111   2.110
 8350SOL     OW25948   1.980   0.984   6.762
 8350SOL    HW125949   1.900   0.941   6.803
 8350SOL    HW225950   1.998   0.945   6.672
 8351SOL     OW25951   0.451   3.644   2.841
 8351SOL    HW125952   0.362   3.688   2.829
 8351SOL    HW225953   0.492   3.673   2.928
 8352SOL     OW25954   2.763   5.392   0.976
 8352SOL    HW125955   2.792   5.413   1.069
 8352SOL    HW225956   2.698   5.461   0.945
 8353SOL     OW25957   1.268   5.011   1.874
 8353SOL    HW125958   1.231   4.995   1.782
 8353SOL    HW225959   1.268   5.109   1.892
 8354SOL     OW25960   3.427   0.275   3.441
 8354SOL    HW125961   3.367   0.231   3.508
 8354SOL    HW225962   3.483   0.206   3.395
 8355SOL     OW25963   2.992   6.498   6.830
 8355SOL    HW125964   2.994   6.588   6.788
 8355SOL    HW225965   2.918   6.444   6.791
 8356SOL     OW25966   1.891   5.184   0.517
 8356SOL    HW125967   1.969   5.122   0.503
 8356SOL    HW225968   1.909   5.272   0.475
 8357SOL     OW25969   4.633   6.769   5.782
 8357SOL    HW125970   4.554   6.724   5.823
 8357SOL    HW225971   4.647   6.858   5.825
 8358SOL     OW25972   1.183   1.140   4.926
 8358SOL    HW125973   1.278   1.150   4.898
 8358SOL    HW225974   1.177   1.078   5.005
 8359SOL     OW25975   3.660   1.785   5.937
 8359SOL    HW125976   3.672   1.864   5.996
 8359SOL    HW225977   3.749   1.744   5.918
 8360SOL     OW25978   4.648   7.020   0.875
 8360SOL    HW125979   4.635   0.083   0.919
 8360SOL    HW225980   4.713   6.966   0.927
 8361SOL     OW25981   4.045   1.419   6.658
 8361SOL    HW125982   4.079   1.325   6.653
 8361SOL    HW225983   3.963   1.427   6.600
 8362SOL     OW25984   0.441   4.350   1.361
 8362SOL    HW125985   0.535   4.341   1.329
 8362SOL    HW225986   0.419   4.446   1.374
 8363SOL     OW25987   1.682   3.038   1.084
 8363SOL    HW125988   1.699   3.087   1.170
 8363SOL    HW225989   1.720   3.090   1.008
 8364SOL     OW25990   7.010   3.234   4.356
 8364SOL    HW125991   0.041   3.242   4.438
 8364SOL    HW225992   7.002   3.323   4.312
 8365SOL     OW25993   1.436   2.101   1.981
 8365SOL    HW125994   1.389   2.150   2.054
 8365SOL    HW225995   1.375   2.089   1.904
 8366SOL     OW25996   5.709   4.916   2.588
 8366SOL    HW125997   5.713   4.959   2.498
 8366SOL    HW225998   5.794   4.935   2.638
 8367SOL     OW25999   2.330   5.189   4.061
 8367SOL    HW126000   2.311   5.123   4.133
 8367SOL    HW226001   2.245   5.232   4.031
 8368SOL     OW26002   5.905   6.284   6.340
 8368SOL    HW126003   5.930   6.368   6.291
 8368SOL    HW226004   5.830   6.303   6.404
 8369SOL     OW26005   2.179   6.324   0.880
 8369SOL    HW126006   2.256   6.347   0.821
 8369SOL    HW226007   2.109   6.394   0.872
 8370SOL     OW26008   2.996   4.495   7.003
 8370SOL    HW126009   2.910   4.507   6.953
 8370SOL    HW226010   3.027   4.583   0.013
 8371SOL     OW26011   2.158   4.518   4.962
 8371SOL    HW126012   2.211   4.436   4.940
 8371SOL    HW226013   2.100   4.499   5.042
 8372SOL     OW26014   2.257   6.512   1.119
 8372SOL    HW126015   2.196   6.490   1.195
 8372SOL    HW226016   2.322   6.438   1.105
 8373SOL     OW26017   6.724   1.987   4.065
 8373SOL    HW126018   6.690   1.979   4.158
 8373SOL    HW226019   6.787   1.912   4.045
 8374SOL     OW26020   6.927   1.613   4.352
 8374SOL    HW126021   6.921   1.581   4.258
 8374SOL    HW226022   6.887   1.705   4.360
 8375SOL     OW26023   3.099   1.158   4.956
 8375SOL    HW126024   3.108   1.112   5.045
 8375SOL    HW226025   3.011   1.137   4.916
 8376SOL     OW26026   1.362   1.630   3.555
 8376SOL    HW126027   1.324   1.721   3.541
 8376SOL    HW226028   1.461   1.633   3.541
 8377SOL     OW26029   4.916   5.312   0.409
 8377SOL    HW126030   4.947   5.388   0.466
 8377SOL    HW226031   4.952   5.226   0.445
 8378SOL     OW26032   5.093   5.930   4.312
 8378SOL    HW126033   5.083   5.833   4.337
 8378SOL    HW226034   5.013   5.980   4.344
 8379SOL     OW26035   5.618   1.791   1.282
 8379SOL    HW126036   5.666   1.747   1.358
 8379SOL    HW226037   5.542   1.845   1.318
 8380SOL     OW26038   6.946   5.794   0.880
 8380SOL    HW126039   6.973   5.698   0.887
 8380SOL    HW226040   7.004   5.840   0.814
 8381SOL     OW26041   0.371   1.603   2.807
 8381SOL    HW126042   0.454   1.569   2.762
 8381SOL    HW226043   0.371   1.575   2.903
 8382SOL     OW26044   1.824   0.801   0.781
 8382SOL    HW126045   1.771   0.717   0.794
 8382SOL    HW226046   1.789   0.872   0.843
 8383SOL     OW26047   2.834   6.967   6.825
 8383SOL    HW126048   2.877   6.932   6.742
 8383SOL    HW226049   2.769   6.900   6.860
 8384SOL     OW26050   0.681   3.121   2.770
 8384SOL    HW126051   0.651   3.202   2.820
 8384SOL    HW226052   0.751   3.148   2.704
 8385SOL     OW26053   4.517   2.825   1.267
 8385SOL    HW126054   4.587   2.756   1.249
 8385SOL    HW226055   4.561   2.910   1.295
 8386SOL     OW26056   2.268   5.945   1.966
 8386SOL    HW126057   2.228   6.036   1.976
 8386SOL    HW226058   2.364   5.947   1.994
 8387SOL     OW26059   1.391   1.263   2.935
 8387SOL    HW126060   1.334   1.291   3.012
 8387SOL    HW226061   1.452   1.339   2.910
 8388SOL     OW26062   4.596   6.068   0.958
 8388SOL    HW126063   4.640   5.978   0.952
 8388SOL    HW226064   4.507   6.059   1.001
 8389SOL     OW26065   0.412   2.902   4.120
 8389SOL    HW126066   0.335   2.964   4.136
 8389SOL    HW226067   0.485   2.922   4.186
 8390SOL     OW26068   2.751   6.998   5.414
 8390SOL    HW126069   2.696   6.986   5.496
 8390SOL    HW226070   2.842   6.959   5.429
 8391SOL     OW26071   5.366   5.774   1.177
 8391SOL    HW126072   5.375   5.702   1.245
 8391SOL    HW226073   5.273   5.771   1.139
 8392SOL     OW26074   6.207   6.496   5.499
 8392SOL    HW126075   6.130   6.558   5.516
 8392SOL    HW226076   6.265   6.493   5.580
 8393SOL     OW26077   0.304   5.700   3.116
 8393SOL    HW126078   0.315   5.629   3.045
 8393SOL    HW226079   0.309   5.658   3.206
 8394SOL     OW26080   0.885   1.947   2.821
 8394SOL    HW126081   0.856   2.025   2.877
 8394SOL    HW226082   0.903   1.869   2.880
 8395SOL     OW26083   0.813   6.128   5.568
 8395SOL    HW126084   0.862   6.203   5.613
 8395SOL    HW226085   0.810   6.144   5.470
 8396SOL     OW26086   4.892   3.651   1.046
 8396SOL    HW126087   4.951   3.697   1.112
 8396SOL    HW226088   4.947   3.613   0.972
 8397SOL     OW26089   1.795   5.653   3.501
 8397SOL    HW126090   1.885   5.621   3.531
 8397SOL    HW226091   1.802   5.747   3.468
 8398SOL     OW26092   5.101   2.141   0.490
 8398SOL    HW126093   5.054   2.083   0.556
 8398SOL    HW226094   5.187   2.174   0.529
 8399SOL     OW26095   5.934   5.775   0.348
 8399SOL    HW126096   5.866   5.762   0.420
 8399SOL    HW226097   5.949   5.873   0.333
 8400SOL     OW26098   5.980   0.620   4.165
 8400SOL    HW126099   5.961   0.698   4.106
 8400SOL    HW226100   5.897   0.595   4.215
 8401SOL     OW26101   3.163   4.921   5.994
 8401SOL    HW126102   3.228   4.994   5.972
 8401SOL    HW226103   3.181   4.888   6.086
 8402SOL     OW26104   4.258   1.987   0.509
 8402SOL    HW126105   4.354   2.012   0.496
 8402SOL    HW226106   4.199   2.052   0.461
 8403SOL     OW26107   1.368   2.086   4.507
 8403SOL    HW126108   1.398   2.104   4.601
 8403SOL    HW226109   1.403   2.157   4.446
 8404SOL     OW26110   4.388   4.760   5.437
 8404SOL    HW126111   4.321   4.821   5.479
 8404SOL    HW226112   4.440   4.712   5.508
 8405SOL     OW26113   1.027   2.642   5.218
 8405SOL    HW126114   0.979   2.695   5.148
 8405SOL    HW226115   1.123   2.632   5.192
 8406SOL     OW26116   5.220   3.244   1.646
 8406SOL    HW126117   5.218   3.155   1.691
 8406SOL    HW226118   5.308   3.287   1.662
 8407SOL     OW26119   5.058   3.826   2.435
 8407SOL    HW126120   4.996   3.846   2.359
 8407SOL    HW226121   5.121   3.903   2.448
 8408SOL     OW26122   4.704   2.623   3.722
 8408SOL    HW126123   4.622   2.565   3.729
 8408SOL    HW226124   4.764   2.586   3.651
 8409SOL     OW26125   0.938   2.517   3.927
 8409SOL    HW126126   1.037   2.508   3.927
 8409SOL    HW226127   0.913   2.606   3.888
 8410SOL     OW26128   3.645   6.924   2.122
 8410SOL    HW126129   3.551   6.890   2.120
 8410SOL    HW226130   3.695   6.879   2.197
 8411SOL     OW26131   1.969   2.976   3.810
 8411SOL    HW126132   2.048   2.916   3.798
 8411SOL    HW226133   1.893   2.944   3.753
 8412SOL     OW26134   6.095   2.975   2.944
 8412SOL    HW126135   6.019   2.916   2.918
 8412SOL    HW226136   6.084   3.004   3.040
 8413SOL     OW26137   2.469   4.111   0.828
 8413SOL    HW126138   2.516   4.150   0.907
 8413SOL    HW226139   2.385   4.161   0.810
 8414SOL     OW26140   5.250   6.590   2.267
 8414SOL    HW126141   5.224   6.514   2.326
 8414SOL    HW226142   5.212   6.675   2.303
 8415SOL     OW26143   6.410   3.382   2.396
 8415SOL    HW126144   6.493   3.328   2.402
 8415SOL    HW226145   6.334   3.324   2.366
 8416SOL     OW26146   5.101   3.566   2.249
 8416SOL    HW126147   5.058   3.650   2.214
 8416SOL    HW226148   5.121   3.577   2.346
 8417SOL     OW26149   2.667   5.939   6.040
 8417SOL    HW126150   2.666   5.857   6.097
 8417SOL    HW226151   2.727   5.926   5.962
 8418SOL     OW26152   6.025   5.477   2.586
 8418SOL    HW126153   5.973   5.555   2.550
 8418SOL    HW226154   5.966   5.397   2.592
 8419SOL     OW26155   4.021   6.844   3.724
 8419SOL    HW126156   3.982   6.895   3.801
 8419SOL    HW226157   4.116   6.871   3.710
 8420SOL     OW26158   3.757   1.980   6.175
 8420SOL    HW126159   3.668   1.999   6.217
 8420SOL    HW226160   3.803   1.907   6.225
 8421SOL     OW26161   2.210   6.825   1.779
 8421SOL    HW126162   2.207   6.913   1.826
 8421SOL    HW226163   2.254   6.836   1.690
 8422SOL     OW26164   3.955   6.891   1.725
 8422SOL    HW126165   3.911   6.971   1.766
 8422SOL    HW226166   4.032   6.862   1.782
 8423SOL     OW26167   2.714   3.839   1.314
 8423SOL    HW126168   2.811   3.816   1.312
 8423SOL    HW226169   2.675   3.815   1.403
 8424SOL     OW26170   3.001   2.182   2.907
 8424SOL    HW126171   3.096   2.179   2.874
 8424SOL    HW226172   3.002   2.186   3.007
 8425SOL     OW26173   5.589   5.087   0.178
 8425SOL    HW126174   5.650   5.166   0.189
 8425SOL    HW226175   5.584   5.062   0.082
 8426SOL     OW26176   3.983   3.435   2.542
 8426SOL    HW126177   3.905   3.437   2.480
 8426SOL    HW226178   4.021   3.528   2.550
 8427SOL     OW26179   2.258   3.636   6.257
 8427SOL    HW126180   2.356   3.655   6.247
 8427SOL    HW226181   2.246   3.542   6.287
 8428SOL     OW26182   6.086   4.488   2.348
 8428SOL    HW126183   6.091   4.571   2.403
 8428SOL    HW226184   6.105   4.510   2.252
 8429SOL     OW26185   1.801   6.403   2.390
 8429SOL    HW126186   1.791   6.459   2.472
 8429SOL    HW226187   1.776   6.308   2.411
 8430SOL     OW26188   4.684   4.423   3.012
 8430SOL    HW126189   4.753   4.448   2.944
 8430SOL    HW226190   4.594   4.455   2.981
 8431SOL     OW26191   2.981   3.806   0.790
 8431SOL    HW126192   3.016   3.715   0.768
 8431SOL    HW226193   2.923   3.838   0.716
 8432SOL     OW26194   4.382   6.208   6.406
 8432SOL    HW126195   4.325   6.170   6.478
 8432SOL    HW226196   4.443   6.137   6.370
 8433SOL     OW26197   0.858   1.411   5.163
 8433SOL    HW126198   0.783   1.472   5.139
 8433SOL    HW226199   0.910   1.388   5.080
 8434SOL     OW26200   5.737   6.451   5.709
 8434SOL    HW126201   5.722   6.526   5.645
 8434SOL    HW226202   5.665   6.383   5.697
 8435SOL     OW26203   4.533   2.132   1.286
 8435SOL    HW126204   4.562   2.119   1.381
 8435SOL    HW226205   4.571   2.218   1.251
 8436SOL     OW26206   3.757   4.649   1.354
 8436SOL    HW126207   3.772   4.719   1.284
 8436SOL    HW226208   3.744   4.560   1.310
 8437SOL     OW26209   0.153   1.263   1.234
 8437SOL    HW126210   0.120   1.343   1.284
 8437SOL    HW226211   0.082   1.231   1.172
 8438SOL     OW26212   1.963   6.642   1.736
 8438SOL    HW126213   1.943   6.593   1.820
 8438SOL    HW226214   2.046   6.697   1.748
 8439SOL     OW26215   6.674   6.376   2.221
 8439SOL    HW126216   6.713   6.445   2.282
 8439SOL    HW226217   6.575   6.377   2.229
 8440SOL     OW26218   0.289   1.859   3.698
 8440SOL    HW126219   0.336   1.775   3.671
 8440SOL    HW226220   0.192   1.854   3.670
 8441SOL     OW26221   4.208   5.162   0.866
 8441SOL    HW126222   4.122   5.208   0.887
 8441SOL    HW226223   4.189   5.070   0.830
 8442SOL     OW26224   2.033   3.866   6.876
 8442SOL    HW126225   2.125   3.834   6.898
 8442SOL    HW226226   1.984   3.886   6.961
 8443SOL     OW26227   2.020   1.417   1.899
 8443SOL    HW126228   2.052   1.507   1.927
 8443SOL    HW226229   1.951   1.384   1.963
 8444SOL     OW26230   4.187   0.040   3.388
 8444SOL    HW126231   4.238   0.001   3.464
 8444SOL    HW226232   4.112   7.005   3.363
 8445SOL     OW26233   3.840   4.982   1.946
 8445SOL    HW126234   3.812   4.963   2.041
 8445SOL    HW226235   3.761   5.014   1.894
 8446SOL     OW26236   6.920   4.569   3.205
 8446SOL    HW126237   6.900   4.496   3.271
 8446SOL    HW226238   6.868   4.554   3.122
 8447SOL     OW26239   4.873   3.001   1.096
 8447SOL    HW126240   4.837   3.067   1.162
 8447SOL    HW226241   4.958   2.961   1.131
 8448SOL     OW26242   0.781   2.857   6.633
 8448SOL    HW126243   0.776   2.950   6.669
 8448SOL    HW226244   0.789   2.860   6.533
 8449SOL     OW26245   1.594   2.117   5.165
 8449SOL    HW126246   1.644   2.071   5.091
 8449SOL    HW226247   1.558   2.048   5.229
 8450SOL     OW26248   2.176   5.223   2.498
 8450SOL    HW126249   2.263   5.269   2.482
 8450SOL    HW226250   2.101   5.288   2.490
 8451SOL     OW26251   3.732   2.973   0.691
 8451SOL    HW126252   3.780   3.047   0.737
 8451SOL    HW226253   3.705   2.904   0.758
 8452SOL     OW26254   6.624   6.014   1.258
 8452SOL    HW126255   6.626   5.981   1.353
 8452SOL    HW226256   6.672   5.948   1.200
 8453SOL     OW26257   0.345   4.830   5.449
 8453SOL    HW126258   0.414   4.780   5.500
 8453SOL    HW226259   0.255   4.816   5.492
 8454SOL     OW26260   1.817   6.854   4.754
 8454SOL    HW126261   1.892   6.919   4.746
 8454SOL    HW226262   1.754   6.865   4.678
 8455SOL     OW26263   5.959   2.089   1.385
 8455SOL    HW126264   5.949   2.068   1.287
 8455SOL    HW226265   5.910   2.174   1.406
 8456SOL     OW26266   5.281   5.534   3.136
 8456SOL    HW126267   5.245   5.482   3.058
 8456SOL    HW226268   5.299   5.628   3.107
 8457SOL     OW26269   0.008   6.563   6.668
 8457SOL    HW126270   0.069   6.638   6.692
 8457SOL    HW226271   6.994   6.580   6.578
 8458SOL     OW26272   1.152   1.495   1.229
 8458SOL    HW126273   1.207   1.411   1.223
 8458SOL    HW226274   1.126   1.511   1.324
 8459SOL     OW26275   2.761   4.934   2.871
 8459SOL    HW126276   2.823   4.872   2.919
 8459SOL    HW226277   2.675   4.887   2.852
 8460SOL     OW26278   4.353   0.970   0.621
 8460SOL    HW126279   4.289   1.042   0.596
 8460SOL    HW226280   4.362   0.905   0.545
 8461SOL     OW26281   5.202   4.229   2.281
 8461SOL    HW126282   5.184   4.225   2.183
 8461SOL    HW226283   5.124   4.270   2.328
 8462SOL     OW26284   2.677   5.055   0.036
 8462SOL    HW126285   2.687   4.981   0.102
 8462SOL    HW226286   2.611   5.122   0.071
 8463SOL     OW26287   6.186   0.913   0.109
 8463SOL    HW126288   6.187   0.992   0.047
 8463SOL    HW226289   6.187   0.944   0.204
 8464SOL     OW26290   0.424   3.436   6.161
 8464SOL    HW126291   0.332   3.472   6.176
 8464SOL    HW226292   0.426   3.385   6.075
 8465SOL     OW26293   4.534   3.135   1.017
 8465SOL    HW126294   4.597   3.064   1.048
 8465SOL    HW226295   4.493   3.180   1.097
 8466SOL     OW26296   6.000   1.252   5.617
 8466SOL    HW126297   6.053   1.168   5.633
 8466SOL    HW226298   6.053   1.313   5.557
 8467SOL     OW26299   3.760   1.104   1.229
 8467SOL    HW126300   3.679   1.067   1.183
 8467SOL    HW226301   3.824   1.138   1.160
 8468SOL     OW26302   6.118   3.001   0.644
 8468SOL    HW126303   6.067   2.943   0.708
 8468SOL    HW226304   6.073   3.090   0.637
 8469SOL     OW26305   4.376   3.226   6.084
 8469SOL    HW126306   4.318   3.151   6.052
 8469SOL    HW226307   4.382   3.225   6.183
 8470SOL     OW26308   1.533   4.663   1.358
 8470SOL    HW126309   1.612   4.617   1.317
 8470SOL    HW226310   1.565   4.742   1.412
 8471SOL     OW26311   3.610   2.046   4.359
 8471SOL    HW126312   3.615   1.950   4.387
 8471SOL    HW226313   3.680   2.065   4.290
 8472SOL     OW26314   5.771   1.347   5.733
 8472SOL    HW126315   5.851   1.309   5.687
 8472SOL    HW226316   5.701   1.368   5.665
 8473SOL     OW26317   4.618   4.443   6.750
 8473SOL    HW126318   4.532   4.475   6.788
 8473SOL    HW226319   4.653   4.368   6.806
 8474SOL     OW26320   3.513   4.116   2.953
 8474SOL    HW126321   3.604   4.089   2.921
 8474SOL    HW226322   3.520   4.152   3.046
 8475SOL     OW26323   0.424   3.000   2.497
 8475SOL    HW126324   0.407   2.940   2.419
 8475SOL    HW226325   0.479   2.952   2.565
 8476SOL     OW26326   6.268   0.092   2.126
 8476SOL    HW126327   6.311   0.141   2.203
 8476SOL    HW226328   6.259   0.155   2.049
 8477SOL     OW26329   5.685   0.101   1.752
 8477SOL    HW126330   5.657   0.008   1.731
 8477SOL    HW226331   5.767   0.100   1.810
 8478SOL     OW26332   6.389   0.775   5.766
 8478SOL    HW126333   6.462   0.734   5.821
 8478SOL    HW226334   6.410   0.872   5.751
 8479SOL     OW26335   0.777   2.431   0.707
 8479SOL    HW126336   0.737   2.343   0.732
 8479SOL    HW226337   0.820   2.472   0.788
 8480SOL     OW26338   4.052   3.820   6.947
 8480SOL    HW126339   4.030   3.770   6.864
 8480SOL    HW226340   4.148   3.807   6.971
 8481SOL     OW26341   4.302   1.674   3.579
 8481SOL    HW126342   4.218   1.625   3.600
 8481SOL    HW226343   4.324   1.663   3.482
 8482SOL     OW26344   4.833   0.649   0.911
 8482SOL    HW126345   4.832   0.744   0.942
 8482SOL    HW226346   4.752   0.632   0.854
 8483SOL     OW26347   3.350   5.510   2.965
 8483SOL    HW126348   3.331   5.469   3.055
 8483SOL    HW226349   3.440   5.480   2.934
 8484SOL     OW26350   5.506   5.632   4.791
 8484SOL    HW126351   5.432   5.694   4.817
 8484SOL    HW226352   5.562   5.612   4.872
 8485SOL     OW26353   3.394   2.531   0.250
 8485SOL    HW126354   3.406   2.619   0.295
 8485SOL    HW226355   3.421   2.458   0.313
 8486SOL     OW26356   0.694   2.167   2.940
 8486SOL    HW126357   0.682   2.108   3.020
 8486SOL    HW226358   0.652   2.124   2.860
 8487SOL     OW26359   6.336   1.530   5.952
 8487SOL    HW126360   6.404   1.461   5.926
 8487SOL    HW226361   6.280   1.496   6.028
 8488SOL     OW26362   4.529   4.967   1.583
 8488SOL    HW126363   4.528   5.004   1.676
 8488SOL    HW226364   4.549   4.870   1.585
 8489SOL     OW26365   5.384   1.860   1.932
 8489SOL    HW126366   5.311   1.863   1.864
 8489SOL    HW226367   5.457   1.800   1.900
 8490SOL     OW26368   2.801   0.123   6.490
 8490SOL    HW126369   2.760   0.173   6.567
 8490SOL    HW226370   2.855   0.046   6.525
 8491SOL     OW26371   2.883   5.693   1.958
 8491SOL    HW126372   2.968   5.677   1.908
 8491SOL    HW226373   2.805   5.663   1.902
 8492SOL     OW26374   6.775   6.283   3.985
 8492SOL    HW126375   6.702   6.260   4.049
 8492SOL    HW226376   6.750   6.364   3.933
 8493SOL     OW26377   4.821   1.033   0.075
 8493SOL    HW126378   4.757   1.038   0.151
 8493SOL    HW226379   4.780   0.981   7.025
 8494SOL     OW26380   6.679   4.450   2.499
 8494SOL    HW126381   6.584   4.418   2.489
 8494SOL    HW226382   6.737   4.372   2.523
 8495SOL     OW26383   6.576   5.433   6.787
 8495SOL    HW126384   6.587   5.514   6.729
 8495SOL    HW226385   6.650   5.369   6.768
 8496SOL     OW26386   5.461   2.994   1.907
 8496SOL    HW126387   5.377   3.018   1.956
 8496SOL    HW226388   5.498   3.075   1.860
 8497SOL     OW26389   6.690   0.979   3.819
 8497SOL    HW126390   6.751   1.014   3.748
 8497SOL    HW226391   6.718   0.886   3.845
 8498SOL     OW26392   4.653   0.059   3.767
 8498SOL    HW126393   4.683   0.084   3.675
 8498SOL    HW226394   4.616   0.140   3.813
 8499SOL     OW26395   6.255   6.616   6.051
 8499SOL    HW126396   6.190   6.623   5.976
 8499SOL    HW226397   6.251   6.699   6.107
 8500SOL     OW26398   0.721   0.843   4.889
 8500SOL    HW126399   0.780   0.913   4.930
 8500SOL    HW226400   0.627   0.879   4.884
 8501SOL     OW26401   0.954   2.152   6.295
 8501SOL    HW126402   0.994   2.194   6.214
 8501SOL    HW226403   0.858   2.131   6.277
 8502SOL     OW26404   0.756   3.869   0.024
 8502SOL    HW126405   0.771   3.835   6.957
 8502SOL    HW226406   0.694   3.948   0.021
 8503SOL     OW26407   5.787   1.133   4.728
 8503SOL    HW126408   5.864   1.131   4.664
 8503SOL    HW226409   5.785   1.221   4.775
 8504SOL     OW26410   1.259   6.477   1.759
 8504SOL    HW126411   1.176   6.421   1.764
 8504SOL    HW226412   1.330   6.437   1.817
 8505SOL     OW26413   4.878   3.562   2.901
 8505SOL    HW126414   4.879   3.519   2.811
 8505SOL    HW226415   4.854   3.658   2.892
 8506SOL     OW26416   1.492   0.327   6.372
 8506SOL    HW126417   1.435   0.314   6.291
 8506SOL    HW226418   1.437   0.365   6.446
 8507SOL     OW26419   3.430   6.310   5.212
 8507SOL    HW126420   3.525   6.280   5.218
 8507SOL    HW226421   3.384   6.292   5.299
 8508SOL     OW26422   3.184   1.965   6.391
 8508SOL    HW126423   3.176   2.051   6.441
 8508SOL    HW226424   3.101   1.950   6.338
 8509SOL     OW26425   5.691   1.784   2.971
 8509SOL    HW126426   5.778   1.805   3.015
 8509SOL    HW226427   5.619   1.841   3.011
 8510SOL     OW26428   6.545   2.279   4.670
 8510SOL    HW126429   6.535   2.354   4.604
 8510SOL    HW226430   6.465   2.219   4.664
 8511SOL     OW26431   5.565   2.566   2.387
 8511SOL    HW126432   5.593   2.474   2.359
 8511SOL    HW226433   5.631   2.601   2.453
 8512SOL     OW26434   1.963   6.813   5.920
 8512SOL    HW126435   1.886   6.870   5.893
 8512SOL    HW226436   2.035   6.871   5.958
 8513SOL     OW26437   4.939   6.795   6.292
 8513SOL    HW126438   4.855   6.787   6.238
 8513SOL    HW226439   4.916   6.815   6.387
 8514SOL     OW26440   3.053   5.928   3.826
 8514SOL    HW126441   3.094   5.925   3.734
 8514SOL    HW226442   2.981   5.997   3.827
 8515SOL     OW26443   5.896   1.501   0.680
 8515SOL    HW126444   5.874   1.412   0.638
 8515SOL    HW226445   5.910   1.568   0.608
 8516SOL     OW26446   0.145   2.095   2.427
 8516SOL    HW126447   0.104   2.004   2.428
 8516SOL    HW226448   0.095   2.154   2.365
 8517SOL     OW26449   0.850   3.948   0.622
 8517SOL    HW126450   0.768   3.981   0.670
 8517SOL    HW226451   0.931   3.972   0.675
 8518SOL     OW26452   3.265   5.240   0.789
 8518SOL    HW126453   3.328   5.273   0.718
 8518SOL    HW226454   3.288   5.284   0.876
 8519SOL     OW26455   1.529   4.777   2.922
 8519SOL    HW126456   1.621   4.777   2.881
 8519SOL    HW226457   1.485   4.864   2.903
 8520SOL     OW26458   2.701   0.408   0.187
 8520SOL    HW126459   2.689   0.507   0.182
 8520SOL    HW226460   2.794   0.386   0.216
 8521SOL     OW26461   1.031   6.924   6.759
 8521SOL    HW126462   1.130   6.922   6.749
 8521SOL    HW226463   0.993   7.000   6.706
 8522SOL     OW26464   1.889   6.259   4.707
 8522SOL    HW126465   1.856   6.351   4.684
 8522SOL    HW226466   1.815   6.206   4.748
 8523SOL     OW26467   1.295   6.933   6.728
 8523SOL    HW126468   1.366   6.864   6.746
 8523SOL    HW226469   1.334   7.006   6.671
 8524SOL     OW26470   1.499   2.485   6.106
 8524SOL    HW126471   1.508   2.562   6.170
 8524SOL    HW226472   1.587   2.438   6.098
 8525SOL     OW26473   5.051   2.852   3.214
 8525SOL    HW126474   5.007   2.865   3.126
 8525SOL    HW226475   5.100   2.936   3.240
 8526SOL     OW26476   2.236   2.910   1.963
 8526SOL    HW126477   2.324   2.873   1.932
 8526SOL    HW226478   2.226   3.004   1.931
 8527SOL     OW26479   4.345   0.217   4.546
 8527SOL    HW126480   4.307   0.187   4.458
 8527SOL    HW226481   4.364   0.315   4.544
 8528SOL     OW26482   4.926   2.728   6.981
 8528SOL    HW126483   5.006   2.723   0.016
 8528SOL    HW226484   4.943   2.796   6.910
 8529SOL     OW26485   0.275   4.546   0.162
 8529SOL    HW126486   0.288   4.616   0.233
 8529SOL    HW226487   0.177   4.526   0.154
 8530SOL     OW26488   1.596   3.314   5.838
 8530SOL    HW126489   1.573   3.250   5.911
 8530SOL    HW226490   1.608   3.265   5.752
 8531SOL     OW26491   4.147   4.700   2.474
 8531SOL    HW126492   4.230   4.756   2.476
 8531SOL    HW226493   4.130   4.663   2.566
 8532SOL     OW26494   1.450   4.405   6.187
 8532SOL    HW126495   1.367   4.456   6.209
 8532SOL    HW226496   1.439   4.359   6.098
 8533SOL     OW26497   3.573   0.535   5.960
 8533SOL    HW126498   3.531   0.590   5.888
 8533SOL    HW226499   3.669   0.518   5.938
 8534SOL     OW26500   1.829   2.869   3.015
 8534SOL    HW126501   1.883   2.803   2.964
 8534SOL    HW226502   1.765   2.915   2.954
 8535SOL     OW26503   6.379   3.023   4.211
 8535SOL    HW126504   6.400   3.110   4.254
 8535SOL    HW226505   6.321   3.038   4.131
 8536SOL     OW26506   0.176   1.217   4.264
 8536SOL    HW126507   0.076   1.212   4.272
 8536SOL    HW226508   0.203   1.312   4.249
 8537SOL     OW26509   6.216   0.056   2.435
 8537SOL    HW126510   6.207   6.989   2.397
 8537SOL    HW226511   6.303   0.096   2.405
 8538SOL     OW26512   5.488   1.255   4.455
 8538SOL    HW126513   5.422   1.229   4.526
 8538SOL    HW226514   5.546   1.176   4.433
 8539SOL     OW26515   6.761   3.028   2.555
 8539SOL    HW126516   6.776   3.001   2.650
 8539SOL    HW226517   6.828   3.097   2.529
 8540SOL     OW26518   3.609   0.367   0.101
 8540SOL    HW126519   3.657   0.323   0.176
 8540SOL    HW226520   3.523   0.405   0.134
 8541SOL     OW26521   3.543   7.001   5.149
 8541SOL    HW126522   3.630   6.956   5.171
 8541SOL    HW226523   3.490   6.943   5.088
 8542SOL     OW26524   1.367   5.195   6.228
 8542SOL    HW126525   1.287   5.252   6.206
 8542SOL    HW226526   1.354   5.152   6.318
 8543SOL     OW26527   2.192   2.862   5.990
 8543SOL    HW126528   2.220   2.890   5.899
 8543SOL    HW226529   2.096   2.888   6.005
 8544SOL     OW26530   5.710   4.608   5.924
 8544SOL    HW126531   5.619   4.628   5.961
 8544SOL    HW226532   5.718   4.647   5.833
 8545SOL     OW26533   2.455   0.214   6.556
 8545SOL    HW126534   2.401   0.233   6.474
 8545SOL    HW226535   2.552   0.209   6.531
 8546SOL     OW26536   4.935   0.821   2.586
 8546SOL    HW126537   4.950   0.916   2.557
 8546SOL    HW226538   4.961   0.810   2.682
 8547SOL     OW26539   5.471   6.156   6.165
 8547SOL    HW126540   5.529   6.125   6.090
 8547SOL    HW226541   5.503   6.245   6.197
 8548SOL     OW26542   0.405   3.505   5.775
 8548SOL    HW126543   0.398   3.451   5.690
 8548SOL    HW226544   0.494   3.549   5.779
 8549SOL     OW26545   2.056   0.190   4.140
 8549SOL    HW126546   2.066   0.288   4.154
 8549SOL    HW226547   2.082   0.167   4.046
 8550SOL     OW26548   6.612   4.477   6.180
 8550SOL    HW126549   6.708   4.448   6.173
 8550SOL    HW226550   6.572   4.481   6.089
 8551SOL     OW26551   1.949   0.667   5.758
 8551SOL    HW126552   2.030   0.671   5.700
 8551SOL    HW226553   1.946   0.747   5.817
 8552SOL     OW26554   3.081   2.071   2.538
 8552SOL    HW126555   3.014   2.136   2.503
 8552SOL    HW226556   3.100   2.090   2.634
 8553SOL     OW26557   5.158   4.068   6.935
 8553SOL    HW126558   5.238   4.009   6.943
 8553SOL    HW226559   5.183   4.152   6.887
 8554SOL     OW26560   2.367   1.082   0.503
 8554SOL    HW126561   2.315   1.165   0.485
 8554SOL    HW226562   2.399   1.083   0.598
 8555SOL     OW26563   3.827   1.277   4.011
 8555SOL    HW126564   3.743   1.282   4.063
 8555SOL    HW226565   3.901   1.243   4.069
 8556SOL     OW26566   1.451   5.777   0.423
 8556SOL    HW126567   1.488   5.698   0.374
 8556SOL    HW226568   1.399   5.746   0.502
 8557SOL     OW26569   6.725   0.787   6.467
 8557SOL    HW126570   6.639   0.745   6.498
 8557SOL    HW226571   6.719   0.886   6.478
 8558SOL     OW26572   3.096   6.194   4.218
 8558SOL    HW126573   3.084   6.106   4.265
 8558SOL    HW226574   3.072   6.184   4.122
 8559SOL     OW26575   2.097   4.524   2.894
 8559SOL    HW126576   2.028   4.582   2.852
 8559SOL    HW226577   2.152   4.481   2.822
 8560SOL     OW26578   2.034   4.595   0.388
 8560SOL    HW126579   2.071   4.547   0.309
 8560SOL    HW226580   1.946   4.637   0.364
 8561SOL     OW26581   4.447   0.807   2.922
 8561SOL    HW126582   4.355   0.796   2.961
 8561SOL    HW226583   4.486   0.894   2.954
 8562SOL     OW26584   5.392   1.911   6.950
 8562SOL    HW126585   5.296   1.887   6.933
 8562SOL    HW226586   5.399   1.958   0.012
 8563SOL     OW26587   2.789   5.132   2.304
 8563SOL    HW126588   2.810   5.104   2.210
 8563SOL    HW226589   2.723   5.069   2.344
 8564SOL     OW26590   3.750   0.270   0.312
 8564SOL    HW126591   3.815   0.208   0.269
 8564SOL    HW226592   3.792   0.311   0.393
 8565SOL     OW26593   1.790   4.993   1.054
 8565SOL    HW126594   1.786   4.895   1.034
 8565SOL    HW226595   1.860   5.036   0.998
 8566SOL     OW26596   3.402   1.368   2.282
 8566SOL    HW126597   3.362   1.337   2.368
 8566SOL    HW226598   3.408   1.291   2.218
 8567SOL     OW26599   1.672   3.140   2.274
 8567SOL    HW126600   1.695   3.238   2.271
 8567SOL    HW226601   1.701   3.096   2.189
 8568SOL     OW26602   5.715   0.436   6.557
 8568SOL    HW126603   5.652   0.414   6.631
 8568SOL    HW226604   5.663   0.446   6.472
 8569SOL     OW26605   4.406   2.082   0.016
 8569SOL    HW126606   4.324   2.026   0.016
 8569SOL    HW226607   4.381   2.178   0.000
 8570SOL     OW26608   2.258   2.500   1.992
 8570SOL    HW126609   2.213   2.439   2.056
 8570SOL    HW226610   2.357   2.488   1.998
 8571SOL     OW26611   1.687   0.857   2.909
 8571SOL    HW126612   1.763   0.919   2.933
 8571SOL    HW226613   1.689   0.778   2.970
 8572SOL     OW26614   2.141   4.170   5.431
 8572SOL    HW126615   2.103   4.160   5.340
 8572SOL    HW226616   2.232   4.131   5.435
 8573SOL     OW26617   3.212   6.446   0.268
 8573SOL    HW126618   3.291   6.396   0.234
 8573SOL    HW226619   3.243   6.526   0.320
 8574SOL     OW26620   4.634   0.716   4.968
 8574SOL    HW126621   4.686   0.795   4.936
 8574SOL    HW226622   4.688   0.667   5.037
 8575SOL     OW26623   3.103   6.075   3.345
 8575SOL    HW126624   3.062   6.142   3.407
 8575SOL    HW226625   3.202   6.071   3.362
 8576SOL     OW26626   1.557   4.707   3.930
 8576SOL    HW126627   1.506   4.694   3.845
 8576SOL    HW226628   1.624   4.781   3.918
 8577SOL     OW26629   1.897   1.256   0.298
 8577SOL    HW126630   1.813   1.299   0.330
 8577SOL    HW226631   1.959   1.326   0.261
 8578SOL     OW26632   0.327   6.722   6.230
 8578SOL    HW126633   0.397   6.716   6.158
 8578SOL    HW226634   0.359   6.676   6.312
 8579SOL     OW26635   2.757   6.637   2.158
 8579SOL    HW126636   2.729   6.558   2.213
 8579SOL    HW226637   2.751   6.614   2.061
 8580SOL     OW26638   1.717   0.690   1.069
 8580SOL    HW126639   1.659   0.658   1.143
 8580SOL    HW226640   1.662   0.739   1.001
 8581SOL     OW26641   3.173   4.663   1.390
 8581SOL    HW126642   3.261   4.628   1.423
 8581SOL    HW226643   3.132   4.722   1.460
 8582SOL     OW26644   3.446   5.337   5.707
 8582SOL    HW126645   3.411   5.244   5.704
 8582SOL    HW226646   3.393   5.390   5.774
 8583SOL     OW26647   4.054   0.337   2.776
 8583SOL    HW126648   4.020   0.408   2.838
 8583SOL    HW226649   3.980   0.274   2.752
 8584SOL     OW26650   6.976   1.614   4.972
 8584SOL    HW126651   6.913   1.679   4.928
 8584SOL    HW226652   6.993   1.537   4.911
 8585SOL     OW26653   5.667   2.554   2.860
 8585SOL    HW126654   5.740   2.622   2.857
 8585SOL    HW226655   5.579   2.597   2.841
 8586SOL     OW26656   6.806   6.261   0.278
 8586SOL    HW126657   6.796   6.313   0.362
 8586SOL    HW226658   6.830   6.322   0.203
 8587SOL     OW26659   0.401   1.553   6.800
 8587SOL    HW126660   0.390   1.603   6.714
 8587SOL    HW226661   0.328   1.578   6.863
 8588SOL     OW26662   2.738   1.655   6.190
 8588SOL    HW126663   2.729   1.724   6.262
 8588SOL    HW226664   2.654   1.601   6.185
 8589SOL     OW26665   6.675   3.256   6.754
 8589SOL    HW126666   6.606   3.192   6.790
 8589SOL    HW226667   6.698   3.322   6.825
 8590SOL     OW26668   0.712   0.363   4.230
 8590SOL    HW126669   0.671   0.330   4.316
 8590SOL    HW226670   0.787   0.426   4.251
 8591SOL     OW26671   6.664   4.760   6.552
 8591SOL    HW126672   6.660   4.679   6.610
 8591SOL    HW226673   6.746   4.755   6.494
 8592SOL     OW26674   0.297   1.375   4.659
 8592SOL    HW126675   0.389   1.365   4.621
 8592SOL    HW226676   0.269   1.471   4.655
 8593SOL     OW26677   4.686   1.373   6.977
 8593SOL    HW126678   4.604   1.428   6.983
 8593SOL    HW226679   4.718   1.350   0.043
 8594SOL     OW26680   6.443   2.981   6.463
 8594SOL    HW126681   6.507   3.058   6.460
 8594SOL    HW226682   6.350   3.014   6.453
 8595SOL     OW26683   6.014   6.483   3.038
 8595SOL    HW126684   5.974   6.410   3.094
 8595SOL    HW226685   5.995   6.571   3.081
 8596SOL     OW26686   0.889   1.588   4.013
 8596SOL    HW126687   0.924   1.507   3.966
 8596SOL    HW226688   0.952   1.664   3.999
 8597SOL     OW26689   5.610   3.553   6.682
 8597SOL    HW126690   5.688   3.565   6.743
 8597SOL    HW226691   5.540   3.621   6.703
 8598SOL     OW26692   6.053   6.624   4.966
 8598SOL    HW126693   6.033   6.550   4.903
 8598SOL    HW226694   6.116   6.689   4.923
 8599SOL     OW26695   6.956   3.488   4.312
 8599SOL    HW126696   6.978   3.572   4.360
 8599SOL    HW226697   6.908   3.510   4.227
 8600SOL     OW26698   4.750   1.862   1.163
 8600SOL    HW126699   4.788   1.770   1.150
 8600SOL    HW226700   4.653   1.855   1.186
 8601SOL     OW26701   0.502   6.408   3.709
 8601SOL    HW126702   0.462   6.316   3.700
 8601SOL    HW226703   0.587   6.402   3.760
 8602SOL     OW26704   2.141   6.278   4.796
 8602SOL    HW126705   2.054   6.264   4.750
 8602SOL    HW226706   2.165   6.375   4.796
 8603SOL     OW26707   0.144   0.204   0.457
 8603SOL    HW126708   0.092   0.144   0.397
 8603SOL    HW226709   0.101   0.294   0.461
 8604SOL     OW26710   0.003   4.587   6.581
 8604SOL    HW126711   0.083   4.545   6.538
 8604SOL    HW226712   6.946   4.535   6.556
 8605SOL     OW26713   6.818   4.463   4.931
 8605SOL    HW126714   6.890   4.531   4.915
 8605SOL    HW226715   6.797   4.416   4.846
 8606SOL     OW26716   1.613   2.097   0.463
 8606SOL    HW126717   1.619   2.192   0.496
 8606SOL    HW226718   1.651   2.092   0.371
 8607SOL     OW26719   2.355   3.929   1.332
 8607SOL    HW126720   2.413   3.908   1.410
 8607SOL    HW226721   2.409   3.925   1.248
 8608SOL     OW26722   1.764   4.778   2.818
 8608SOL    HW126723   1.831   4.715   2.777
 8608SOL    HW226724   1.811   4.847   2.872
 8609SOL     OW26725   4.026   1.179   4.168
 8609SOL    HW126726   3.993   1.177   4.263
 8609SOL    HW226727   4.087   1.258   4.156
 8610SOL     OW26728   6.929   6.301   3.154
 8610SOL    HW126729   6.915   6.227   3.220
 8610SOL    HW226730   6.988   6.270   3.080
 8611SOL     OW26731   2.965   1.484   4.965
 8611SOL    HW126732   2.978   1.465   5.062
 8611SOL    HW226733   3.002   1.575   4.943
 8612SOL     OW26734   2.907   3.480   3.854
 8612SOL    HW126735   2.925   3.431   3.939
 8612SOL    HW226736   2.893   3.415   3.779
 8613SOL     OW26737   3.898   2.957   2.322
 8613SOL    HW126738   3.974   3.013   2.287
 8613SOL    HW226739   3.834   2.938   2.248
 8614SOL     OW26740   1.695   1.898   3.038
 8614SOL    HW126741   1.630   1.932   3.106
 8614SOL    HW226742   1.765   1.967   3.021
 8615SOL     OW26743   3.788   1.441   4.347
 8615SOL    HW126744   3.730   1.379   4.294
 8615SOL    HW226745   3.828   1.392   4.424
 8616SOL     OW26746   5.736   4.524   3.967
 8616SOL    HW126747   5.727   4.611   4.015
 8616SOL    HW226748   5.646   4.495   3.934
 8617SOL     OW26749   2.454   0.595   3.760
 8617SOL    HW126750   2.380   0.598   3.826
 8617SOL    HW226751   2.510   0.677   3.768
 8618SOL     OW26752   5.146   4.443   1.166
 8618SOL    HW126753   5.224   4.495   1.200
 8618SOL    HW226754   5.127   4.367   1.229
 8619SOL     OW26755   5.083   5.126   0.534
 8619SOL    HW126756   5.115   5.034   0.516
 8619SOL    HW226757   5.160   5.185   0.556
 8620SOL     OW26758   2.625   0.532   4.212
 8620SOL    HW126759   2.552   0.582   4.258
 8620SOL    HW226760   2.654   0.581   4.130
 8621SOL     OW26761   5.638   3.169   1.688
 8621SOL    HW126762   5.615   3.147   1.593
 8621SOL    HW226763   5.737   3.168   1.700
 8622SOL     OW26764   0.065   4.910   2.754
 8622SOL    HW126765   0.146   4.893   2.810
 8622SOL    HW226766   7.014   4.854   2.788
 8623SOL     OW26767   1.209   3.612   4.408
 8623SOL    HW126768   1.210   3.712   4.408
 8623SOL    HW226769   1.148   3.579   4.336
 8624SOL     OW26770   3.293   3.945   4.671
 8624SOL    HW126771   3.331   3.995   4.593
 8624SOL    HW226772   3.226   4.002   4.718
 8625SOL     OW26773   4.247   2.555   5.603
 8625SOL    HW126774   4.164   2.579   5.552
 8625SOL    HW226775   4.257   2.616   5.682
 8626SOL     OW26776   3.699   3.728   0.571
 8626SOL    HW126777   3.619   3.668   0.569
 8626SOL    HW226778   3.769   3.689   0.631
 8627SOL     OW26779   2.027   0.963   1.672
 8627SOL    HW126780   2.031   0.864   1.659
 8627SOL    HW226781   2.109   0.993   1.721
 8628SOL     OW26782   0.132   6.899   1.018
 8628SOL    HW126783   0.124   6.973   1.084
 8628SOL    HW226784   0.218   6.850   1.032
 8629SOL     OW26785   0.017   6.258   5.583
 8629SOL    HW126786   7.001   6.242   5.493
 8629SOL    HW226787   0.005   6.354   5.608
 8630SOL     OW26788   4.882   2.931   2.287
 8630SOL    HW126789   4.835   2.939   2.198
 8630SOL    HW226790   4.902   2.835   2.305
 8631SOL     OW26791   2.919   6.669   6.477
 8631SOL    HW126792   2.830   6.635   6.505
 8631SOL    HW226793   2.989   6.633   6.538
 8632SOL     OW26794   5.279   5.081   5.173
 8632SOL    HW126795   5.180   5.067   5.172
 8632SOL    HW226796   5.301   5.160   5.229
 8633SOL     OW26797   5.708   4.118   6.015
 8633SOL    HW126798   5.709   4.093   5.918
 8633SOL    HW226799   5.663   4.045   6.068
 8634SOL     OW26800   4.345   2.967   0.581
 8634SOL    HW126801   4.408   2.965   0.659
 8634SOL    HW226802   4.350   3.057   0.537
 8635SOL     OW26803   5.102   2.620   5.955
 8635SOL    HW126804   5.032   2.690   5.938
 8635SOL    HW226805   5.063   2.530   5.940
 8636SOL     OW26806   4.684   0.164   1.917
 8636SOL    HW126807   4.751   0.090   1.907
 8636SOL    HW226808   4.606   0.131   1.971
 8637SOL     OW26809   1.768   2.241   6.632
 8637SOL    HW126810   1.857   2.207   6.664
 8637SOL    HW226811   1.701   2.232   6.706
 8638SOL     OW26812   4.844   2.533   3.527
 8638SOL    HW126813   4.911   2.462   3.505
 8638SOL    HW226814   4.885   2.623   3.512
 8639SOL     OW26815   3.629   3.949   0.168
 8639SOL    HW126816   3.728   3.950   0.185
 8639SOL    HW226817   3.606   3.870   0.111
 8640SOL     OW26818   3.028   2.933   0.637
 8640SOL    HW126819   3.032   2.969   0.730
 8640SOL    HW226820   3.118   2.940   0.594
 8641SOL     OW26821   4.923   5.496   1.983
 8641SOL    HW126822   4.843   5.518   1.928
 8641SOL    HW226823   5.000   5.554   1.955
 8642SOL     OW26824   1.198   5.826   3.591
 8642SOL    HW126825   1.233   5.891   3.659
 8642SOL    HW226826   1.109   5.859   3.557
 8643SOL     OW26827   3.722   6.336   0.978
 8643SOL    HW126828   3.725   6.254   1.035
 8643SOL    HW226829   3.659   6.403   1.018
 8644SOL     OW26830   6.092   1.892   6.282
 8644SOL    HW126831   6.142   1.810   6.254
 8644SOL    HW226832   6.044   1.874   6.368
 8645SOL     OW26833   5.855   4.526   2.848
 8645SOL    HW126834   5.919   4.455   2.878
 8645SOL    HW226835   5.853   4.599   2.916
 8646SOL     OW26836   6.449   2.484   5.123
 8646SOL    HW126837   6.464   2.461   5.026
 8646SOL    HW226838   6.352   2.501   5.138
 8647SOL     OW26839   2.138   5.697   2.037
 8647SOL    HW126840   2.173   5.787   2.012
 8647SOL    HW226841   2.118   5.694   2.135
 8648SOL     OW26842   5.137   4.836   0.541
 8648SOL    HW126843   5.048   4.793   0.547
 8648SOL    HW226844   5.193   4.788   0.474
 8649SOL     OW26845   4.874   0.260   0.859
 8649SOL    HW126846   4.785   0.262   0.814
 8649SOL    HW226847   4.945   0.236   0.793
 8650SOL     OW26848   2.568   6.542   4.854
 8650SOL    HW126849   2.632   6.539   4.931
 8650SOL    HW226850   2.485   6.591   4.882
 8651SOL     OW26851   3.706   2.050   1.501
 8651SOL    HW126852   3.668   2.142   1.506
 8651SOL    HW226853   3.798   2.053   1.461
 8652SOL     OW26854   1.196   3.172   3.543
 8652SOL    HW126855   1.130   3.169   3.468
 8652SOL    HW226856   1.168   3.109   3.615
 8653SOL     OW26857   6.366   1.240   6.557
 8653SOL    HW126858   6.370   1.286   6.646
 8653SOL    HW226859   6.459   1.217   6.528
 8654SOL     OW26860   0.218   4.390   2.035
 8654SOL    HW126861   0.296   4.382   2.096
 8654SOL    HW226862   0.206   4.486   2.009
 8655SOL     OW26863   0.046   0.824   4.497
 8655SOL    HW126864   6.990   0.867   4.536
 8655SOL    HW226865   0.113   0.894   4.473
 8656SOL     OW26866   4.839   6.896   1.025
 8656SOL    HW126867   4.886   6.811   1.004
 8656SOL    HW226868   4.903   6.960   1.068
 8657SOL     OW26869   4.483   0.876   3.275
 8657SOL    HW126870   4.517   0.900   3.183
 8657SOL    HW226871   4.554   0.825   3.324
 8658SOL     OW26872   6.240   4.393   0.761
 8658SOL    HW126873   6.286   4.359   0.843
 8658SOL    HW226874   6.149   4.425   0.786
 8659SOL     OW26875   3.127   1.093   3.006
 8659SOL    HW126876   3.105   1.129   2.915
 8659SOL    HW226877   3.158   1.168   3.065
 8660SOL     OW26878   0.093   3.989   1.613
 8660SOL    HW126879   0.110   4.010   1.710
 8660SOL    HW226880   0.154   4.045   1.557
 8661SOL     OW26881   6.650   3.890   2.221
 8661SOL    HW126882   6.716   3.959   2.249
 8661SOL    HW226883   6.666   3.806   2.272
 8662SOL     OW26884   1.851   3.920   3.226
 8662SOL    HW126885   1.815   4.010   3.202
 8662SOL    HW226886   1.812   3.890   3.313
 8663SOL     OW26887   4.412   5.461   2.339
 8663SOL    HW126888   4.471   5.474   2.259
 8663SOL    HW226889   4.329   5.516   2.329
 8664SOL     OW26890   3.573   5.937   3.293
 8664SOL    HW126891   3.591   6.030   3.258
 8664SOL    HW226892   3.551   5.877   3.217
 8665SOL     OW26893   5.678   3.537   0.065
 8665SOL    HW126894   5.654   3.631   0.087
 8665SOL    HW226895   5.607   3.476   0.100
 8666SOL     OW26896   4.848   0.007   2.597
 8666SOL    HW126897   4.793   7.007   2.517
 8666SOL    HW226898   4.900   0.090   2.576
 8667SOL     OW26899   5.050   1.993   3.382
 8667SOL    HW126900   5.062   1.955   3.474
 8667SOL    HW226901   4.973   2.057   3.382
 8668SOL     OW26902   5.170   2.546   4.992
 8668SOL    HW126903   5.223   2.463   5.013
 8668SOL    HW226904   5.094   2.523   4.932
 8669SOL     OW26905   6.398   6.064   6.429
 8669SOL    HW126906   6.449   6.149   6.433
 8669SOL    HW226907   6.318   6.076   6.370
 8670SOL     OW26908   6.477   4.474   6.446
 8670SOL    HW126909   6.554   4.485   6.509
 8670SOL    HW226910   6.512   4.471   6.352
 8671SOL     OW26911   0.557   2.862   3.240
 8671SOL    HW126912   0.533   2.907   3.154
 8671SOL    HW226913   0.643   2.900   3.275
 8672SOL     OW26914   0.475   0.721   2.877
 8672SOL    HW126915   0.557   0.765   2.913
 8672SOL    HW226916   0.432   0.779   2.808
 8673SOL     OW26917   0.188   1.823   1.564
 8673SOL    HW126918   0.272   1.802   1.514
 8673SOL    HW226919   0.113   1.768   1.528
 8674SOL     OW26920   6.700   3.913   3.795
 8674SOL    HW126921   6.793   3.911   3.759
 8674SOL    HW226922   6.677   4.006   3.824
 8675SOL     OW26923   3.452   2.154   5.145
 8675SOL    HW126924   3.500   2.124   5.062
 8675SOL    HW226925   3.395   2.233   5.124
 8676SOL     OW26926   5.395   1.093   1.002
 8676SOL    HW126927   5.473   1.155   0.994
 8676SOL    HW226928   5.403   1.021   0.933
 8677SOL     OW26929   2.355   6.761   6.265
 8677SOL    HW126930   2.256   6.772   6.277
 8677SOL    HW226931   2.373   6.704   6.185
 8678SOL     OW26932   1.484   1.770   0.077
 8678SOL    HW126933   1.490   1.792   0.174
 8678SOL    HW226934   1.576   1.747   0.043
 8679SOL     OW26935   1.781   2.363   6.072
 8679SOL    HW126936   1.827   2.451   6.055
 8679SOL    HW226937   1.850   2.291   6.082
 8680SOL     OW26938   6.922   0.827   0.367
 8680SOL    HW126939   6.943   0.750   0.307
 8680SOL    HW226940   6.966   0.814   0.456
 8681SOL     OW26941   5.600   6.515   1.559
 8681SOL    HW126942   5.561   6.583   1.622
 8681SOL    HW226943   5.587   6.545   1.465
 8682SOL     OW26944   2.088   0.745   1.369
 8682SOL    HW126945   2.007   0.804   1.365
 8682SOL    HW226946   2.062   0.655   1.405
 8683SOL     OW26947   1.641   4.339   4.049
 8683SOL    HW126948   1.712   4.271   4.065
 8683SOL    HW226949   1.671   4.403   3.978
 8684SOL     OW26950   1.916   3.958   4.326
 8684SOL    HW126951   1.919   4.050   4.287
 8684SOL    HW226952   1.835   3.910   4.292
 8685SOL     OW26953   5.011   2.279   4.672
 8685SOL    HW126954   5.022   2.327   4.586
 8685SOL    HW226955   4.961   2.193   4.656
 8686SOL     OW26956   1.248   5.230   3.148
 8686SOL    HW126957   1.315   5.221   3.074
 8686SOL    HW226958   1.273   5.169   3.224
 8687SOL     OW26959   4.673   4.499   6.027
 8687SOL    HW126960   4.722   4.484   5.941
 8687SOL    HW226961   4.739   4.511   6.101
 8688SOL     OW26962   0.437   3.736   5.420
 8688SOL    HW126963   0.531   3.766   5.406
 8688SOL    HW226964   0.375   3.794   5.367
 8689SOL     OW26965   3.931   3.600   0.048
 8689SOL    HW126966   3.956   3.601   0.145
 8689SOL    HW226967   3.945   3.691   0.009
 8690SOL     OW26968   1.913   2.303   2.698
 8690SOL    HW126969   1.817   2.299   2.724
 8690SOL    HW226970   1.932   2.392   2.656
 8691SOL     OW26971   3.398   2.498   5.346
 8691SOL    HW126972   3.319   2.453   5.303
 8691SOL    HW226973   3.467   2.429   5.368
 8692SOL     OW26974   4.371   1.889   5.389
 8692SOL    HW126975   4.433   1.889   5.467
 8692SOL    HW226976   4.413   1.840   5.313
 8693SOL     OW26977   6.581   0.030   5.806
 8693SOL    HW126978   6.594   7.012   5.895
 8693SOL    HW226979   6.526   0.113   5.817
 8694SOL     OW26980   5.607   3.241   5.091
 8694SOL    HW126981   5.530   3.257   5.154
 8694SOL    HW226982   5.595   3.299   5.010
 8695SOL     OW26983   3.531   4.380   6.544
 8695SOL    HW126984   3.544   4.433   6.460
 8695SOL    HW226985   3.454   4.417   6.595
 8696SOL     OW26986   2.977   5.445   5.634
 8696SOL    HW126987   2.993   5.541   5.611
 8696SOL    HW226988   2.880   5.429   5.647
 8697SOL     OW26989   2.159   3.526   5.584
 8697SOL    HW126990   2.097   3.529   5.663
 8697SOL    HW226991   2.205   3.437   5.582
 8698SOL     OW26992   5.400   5.903   6.034
 8698SOL    HW126993   5.387   6.002   6.039
 8698SOL    HW226994   5.369   5.869   5.946
 8699SOL     OW26995   1.649   2.501   6.752
 8699SOL    HW126996   1.587   2.576   6.774
 8699SOL    HW226997   1.624   2.461   6.664
 8700SOL     OW26998   1.446   0.309   3.703
 8700SOL    HW126999   1.444   0.398   3.658
 8700SOL    HW227000   1.353   0.274   3.712
 8701SOL     OW27001   0.743   2.351   0.153
 8701SOL    HW127002   0.752   2.451   0.154
 8701SOL    HW227003   0.649   2.326   0.127
 8702SOL     OW27004   5.288   4.764   1.458
 8702SOL    HW127005   5.240   4.676   1.455
 8702SOL    HW227006   5.258   4.822   1.382
 8703SOL     OW27007   2.291   5.905   0.697
 8703SOL    HW127008   2.328   5.832   0.754
 8703SOL    HW227009   2.366   5.954   0.653
 8704SOL     OW27010   0.853   0.599   4.874
 8704SOL    HW127011   0.816   0.683   4.913
 8704SOL    HW227012   0.793   0.567   4.800
 8705SOL     OW27013   4.076   2.422   6.788
 8705SOL    HW127014   4.027   2.356   6.731
 8705SOL    HW227015   4.061   2.400   6.884
 8706SOL     OW27016   4.829   3.445   6.147
 8706SOL    HW127017   4.810   3.485   6.237
 8706SOL    HW227018   4.743   3.417   6.105
 8707SOL     OW27019   1.938   1.688   4.833
 8707SOL    HW127020   1.843   1.702   4.860
 8707SOL    HW227021   1.978   1.617   4.891
 8708SOL     OW27022   6.121   2.566   0.503
 8708SOL    HW127023   6.075   2.574   0.415
 8708SOL    HW227024   6.192   2.636   0.510
 8709SOL     OW27025   5.856   6.785   5.394
 8709SOL    HW127026   5.942   6.831   5.413
 8709SOL    HW227027   5.817   6.820   5.309
 8710SOL     OW27028   2.237   1.221   3.408
 8710SOL    HW127029   2.191   1.204   3.495
 8710SOL    HW227030   2.170   1.224   3.334
 8711SOL     OW27031   1.406   1.605   1.204
 8711SOL    HW127032   1.441   1.577   1.293
 8711SOL    HW227033   1.312   1.576   1.194
 8712SOL     OW27034   1.583   4.236   5.377
 8712SOL    HW127035   1.681   4.234   5.397
 8712SOL    HW227036   1.533   4.209   5.459
 8713SOL     OW27037   0.450   3.831   1.451
 8713SOL    HW127038   0.445   3.747   1.397
 8713SOL    HW227039   0.483   3.905   1.392
 8714SOL     OW27040   6.966   5.653   6.526
 8714SOL    HW127041   6.884   5.608   6.563
 8714SOL    HW227042   0.012   5.655   6.595
 8715SOL     OW27043   2.067   3.436   1.560
 8715SOL    HW127044   2.148   3.403   1.512
 8715SOL    HW227045   1.986   3.419   1.504
 8716SOL     OW27046   6.631   0.126   2.157
 8716SOL    HW127047   6.646   0.036   2.117
 8716SOL    HW227048   6.717   0.178   2.154
 8717SOL     OW27049   2.550   3.567   0.419
 8717SOL    HW127050   2.609   3.616   0.356
 8717SOL    HW227051   2.607   3.517   0.485
 8718SOL     OW27052   2.477   4.998   6.126
 8718SOL    HW127053   2.467   5.088   6.168
 8718SOL    HW227054   2.499   5.008   6.029
 8719SOL     OW27055   3.525   0.695   5.058
 8719SOL    HW127056   3.462   0.620   5.038
 8719SOL    HW227057   3.583   0.711   4.978
 8720SOL     OW27058   6.950   4.987   4.983
 8720SOL    HW127059   6.888   5.052   5.026
 8720SOL    HW227060   6.944   4.996   4.883
 8721SOL     OW27061   0.300   0.066   6.741
 8721SOL    HW127062   0.308   0.165   6.732
 8721SOL    HW227063   0.231   0.032   6.677
 8722SOL     OW27064   3.820   0.776   1.239
 8722SOL    HW127065   3.884   0.833   1.188
 8722SOL    HW227066   3.730   0.780   1.197
 8723SOL     OW27067   3.947   0.157   2.370
 8723SOL    HW127068   3.874   0.212   2.412
 8723SOL    HW227069   3.950   0.067   2.413
 8724SOL     OW27070   3.848   0.716   4.156
 8724SOL    HW127071   3.918   0.787   4.168
 8724SOL    HW227072   3.784   0.744   4.084
 8725SOL     OW27073   6.681   6.934   3.615
 8725SOL    HW127074   6.584   6.910   3.619
 8725SOL    HW227075   6.731   6.881   3.684
 8726SOL     OW27076   0.059   0.757   1.095
 8726SOL    HW127077   0.096   0.669   1.123
 8726SOL    HW227078   0.029   0.808   1.176
 8727SOL     OW27079   4.553   6.588   6.226
 8727SOL    HW127080   4.586   6.526   6.297
 8727SOL    HW227081   4.456   6.606   6.242
 8728SOL     OW27082   6.391   0.020   4.254
 8728SOL    HW127083   6.373   0.111   4.290
 8728SOL    HW227084   6.466   7.004   4.306
 8729SOL     OW27085   4.761   6.186   6.074
 8729SOL    HW127086   4.699   6.254   6.035
 8729SOL    HW227087   4.799   6.129   6.001
 8730SOL     OW27088   4.488   5.504   1.352
 8730SOL    HW127089   4.504   5.520   1.254
 8730SOL    HW227090   4.403   5.452   1.364
 8731SOL     OW27091   6.934   1.639   3.575
 8731SOL    HW127092   6.956   1.709   3.643
 8731SOL    HW227093   6.932   1.680   3.484
 8732SOL     OW27094   6.121   6.675   0.486
 8732SOL    HW127095   6.060   6.753   0.472
 8732SOL    HW227096   6.066   6.592   0.497
 8733SOL     OW27097   6.254   4.951   2.851
 8733SOL    HW127098   6.308   4.899   2.917
 8733SOL    HW227099   6.193   4.890   2.801
 8734SOL     OW27100   0.113   3.454   2.258
 8734SOL    HW127101   0.021   3.434   2.292
 8734SOL    HW227102   0.176   3.381   2.287
 8735SOL     OW27103   6.907   3.292   5.376
 8735SOL    HW127104   7.005   3.308   5.388
 8735SOL    HW227105   6.884   3.199   5.403
 8736SOL     OW27106   1.113   6.294   4.034
 8736SOL    HW127107   1.170   6.316   3.955
 8736SOL    HW227108   1.096   6.377   4.087
 8737SOL     OW27109   1.835   5.929   6.854
 8737SOL    HW127110   1.899   5.987   6.805
 8737SOL    HW227111   1.842   5.947   6.952
 8738SOL     OW27112   1.463   3.105   3.451
 8738SOL    HW127113   1.378   3.132   3.497
 8738SOL    HW227114   1.541   3.140   3.502
 8739SOL     OW27115   5.199   4.192   5.833
 8739SOL    HW127116   5.212   4.129   5.911
 8739SOL    HW227117   5.268   4.264   5.837
 8740SOL     OW27118   2.772   0.313   5.012
 8740SOL    HW127119   2.822   0.389   5.053
 8740SOL    HW227120   2.831   0.266   4.946
 8741SOL     OW27121   1.326   0.633   2.730
 8741SOL    HW127122   1.385   0.554   2.713
 8741SOL    HW227123   1.242   0.624   2.678
 8742SOL     OW27124   2.810   1.961   2.252
 8742SOL    HW127125   2.843   2.051   2.225
 8742SOL    HW227126   2.865   1.891   2.206
 8743SOL     OW27127   0.395   2.199   1.523
 8743SOL    HW127128   0.390   2.212   1.424
 8743SOL    HW227129   0.432   2.281   1.566
 8744SOL     OW27130   3.378   4.375   5.773
 8744SOL    HW127131   3.317   4.335   5.706
 8744SOL    HW227132   3.471   4.339   5.760
 8745SOL     OW27133   6.067   0.795   6.155
 8745SOL    HW127134   6.065   0.870   6.222
 8745SOL    HW227135   6.022   0.714   6.195
 8746SOL     OW27136   4.826   5.405   5.536
 8746SOL    HW127137   4.833   5.305   5.535
 8746SOL    HW227138   4.893   5.442   5.601
 8747SOL     OW27139   0.600   0.354   2.505
 8747SOL    HW127140   0.610   0.424   2.576
 8747SOL    HW227141   0.655   0.379   2.426
 8748SOL     OW27142   6.287   1.852   3.492
 8748SOL    HW127143   6.318   1.905   3.414
 8748SOL    HW227144   6.325   1.890   3.576
 8749SOL     OW27145   2.439   1.098   3.844
 8749SOL    HW127146   2.482   1.008   3.849
 8749SOL    HW227147   2.407   1.126   3.934
 8750SOL     OW27148   3.970   3.578   0.332
 8750SOL    HW127149   4.008   3.575   0.424
 8750SOL    HW227150   3.870   3.571   0.336
 8751SOL     OW27151   1.894   6.334   0.598
 8751SOL    HW127152   1.850   6.323   0.509
 8751SOL    HW227153   1.876   6.254   0.655
 8752SOL     OW27154   6.092   3.065   5.815
 8752SOL    HW127155   6.007   3.101   5.777
 8752SOL    HW227156   6.074   3.025   5.905
 8753SOL     OW27157   2.477   2.487   0.943
 8753SOL    HW127158   2.528   2.444   0.869
 8753SOL    HW227159   2.533   2.486   1.026
 8754SOL     OW27160   1.653   5.129   6.778
 8754SOL    HW127161   1.587   5.195   6.742
 8754SOL    HW227162   1.746   5.161   6.758
 8755SOL     OW27163   0.429   3.156   1.421
 8755SOL    HW127164   0.351   3.185   1.476
 8755SOL    HW227165   0.478   3.236   1.389
 8756SOL     OW27166   1.798   1.541   1.741
 8756SOL    HW127167   1.890   1.563   1.711
 8756SOL    HW227168   1.797   1.532   1.841
 8757SOL     OW27169   5.085   5.889   5.200
 8757SOL    HW127170   5.138   5.944   5.266
 8757SOL    HW227171   5.008   5.943   5.167
 8758SOL     OW27172   3.581   5.866   5.190
 8758SOL    HW127173   3.498   5.921   5.180
 8758SOL    HW227174   3.612   5.836   5.099
 8759SOL     OW27175   5.961   0.612   0.771
 8759SOL    HW127176   5.906   0.545   0.720
 8759SOL    HW227177   6.020   0.564   0.835
 8760SOL     OW27178   2.550   2.532   4.459
 8760SOL    HW127179   2.617   2.510   4.529
 8760SOL    HW227180   2.510   2.622   4.478
 8761SOL     OW27181   5.436   1.595   2.754
 8761SOL    HW127182   5.481   1.631   2.672
 8761SOL    HW227183   5.489   1.519   2.790
 8762SOL     OW27184   2.993   5.317   3.284
 8762SOL    HW127185   2.923   5.282   3.221
 8762SOL    HW227186   2.956   5.395   3.335
 8763SOL     OW27187   0.553   0.413   6.946
 8763SOL    HW127188   0.566   0.474   6.868
 8763SOL    HW227189   0.630   0.421   7.009
 8764SOL     OW27190   3.021   5.040   5.113
 8764SOL    HW127191   2.948   4.986   5.155
 8764SOL    HW227192   3.099   4.980   5.093
 8765SOL     OW27193   4.356   6.788   4.795
 8765SOL    HW127194   4.318   6.697   4.777
 8765SOL    HW227195   4.434   6.804   4.734
 8766SOL     OW27196   4.581   6.305   5.890
 8766SOL    HW127197   4.515   6.378   5.906
 8766SOL    HW227198   4.538   6.233   5.834
 8767SOL     OW27199   1.776   1.086   3.864
 8767SOL    HW127200   1.719   1.056   3.788
 8767SOL    HW227201   1.729   1.160   3.913
 8768SOL     OW27202   6.338   1.366   6.812
 8768SOL    HW127203   6.271   1.439   6.797
 8768SOL    HW227204   6.416   1.403   6.862
 8769SOL     OW27205   6.165   7.004   0.084
 8769SOL    HW127206   6.116   0.028   0.156
 8769SOL    HW227207   6.235   6.946   0.124
 8770SOL     OW27208   5.207   2.496   0.120
 8770SOL    HW127209   5.164   2.412   0.154
 8770SOL    HW227210   5.158   2.575   0.156
 8771SOL     OW27211   0.394   3.148   0.238
 8771SOL    HW127212   0.427   3.095   0.160
 8771SOL    HW227213   0.303   3.116   0.264
 8772SOL     OW27214   6.955   6.998   4.157
 8772SOL    HW127215   6.945   0.054   4.214
 8772SOL    HW227216   0.023   6.992   4.123
 8773SOL     OW27217   0.246   0.991   4.428
 8773SOL    HW127218   0.233   1.066   4.362
 8773SOL    HW227219   0.341   0.958   4.421
 8774SOL     OW27220   0.753   1.592   0.227
 8774SOL    HW127221   0.667   1.590   0.177
 8774SOL    HW227222   0.755   1.672   0.288
 8775SOL     OW27223   5.587   3.004   3.805
 8775SOL    HW127224   5.649   3.082   3.803
 8775SOL    HW227225   5.493   3.036   3.818
 8776SOL     OW27226   4.491   3.259   0.579
 8776SOL    HW127227   4.541   3.345   0.565
 8776SOL    HW227228   4.393   3.276   0.572
 8777SOL     OW27229   6.779   2.059   2.649
 8777SOL    HW127230   6.773   2.127   2.576
 8777SOL    HW227231   6.759   2.103   2.737
 8778SOL     OW27232   3.375   4.830   6.916
 8778SOL    HW127233   3.399   4.886   6.837
 8778SOL    HW227234   3.454   4.823   6.977
 8779SOL     OW27235   4.179   4.721   3.273
 8779SOL    HW127236   4.119   4.775   3.333
 8779SOL    HW227237   4.253   4.680   3.327
 8780SOL     OW27238   6.975   4.672   3.963
 8780SOL    HW127239   6.943   4.589   3.917
 8780SOL    HW227240   6.923   4.686   4.047
 8781SOL     OW27241   3.197   0.747   2.209
 8781SOL    HW127242   3.261   0.671   2.210
 8781SOL    HW227243   3.204   0.797   2.123
 8782SOL     OW27244   5.497   2.345   1.053
 8782SOL    HW127245   5.402   2.366   1.077
 8782SOL    HW227246   5.500   2.302   0.963
 8783SOL     OW27247   5.554   3.421   4.801
 8783SOL    HW127248   5.587   3.497   4.858
 8783SOL    HW227249   5.567   3.444   4.704
 8784SOL     OW27250   5.592   0.820   0.958
 8784SOL    HW127251   5.656   0.895   0.967
 8784SOL    HW227252   5.590   0.788   0.863
 8785SOL     OW27253   0.282   5.897   5.275
 8785SOL    HW127254   0.294   5.995   5.264
 8785SOL    HW227255   0.225   5.862   5.200
 8786SOL     OW27256   4.820   1.452   2.719
 8786SOL    HW127257   4.853   1.422   2.629
 8786SOL    HW227258   4.739   1.399   2.744
 8787SOL     OW27259   3.727   5.992   0.781
 8787SOL    HW127260   3.719   6.067   0.716
 8787SOL    HW227261   3.761   5.911   0.734
 8788SOL     OW27262   1.114   6.936   3.865
 8788SOL    HW127263   1.187   6.943   3.933
 8788SOL    HW227264   1.152   6.944   3.773
 8789SOL     OW27265   0.131   2.565   6.490
 8789SOL    HW127266   0.197   2.548   6.418
 8789SOL    HW227267   0.155   2.650   6.538
 8790SOL     OW27268   4.953   3.344   5.489
 8790SOL    HW127269   5.048   3.333   5.519
 8790SOL    HW227270   4.905   3.403   5.554
 8791SOL     OW27271   3.374   6.263   4.525
 8791SOL    HW127272   3.296   6.270   4.587
 8791SOL    HW227273   3.454   6.306   4.566
 8792SOL     OW27274   5.260   5.074   1.673
 8792SOL    HW127275   5.275   4.993   1.730
 8792SOL    HW227276   5.270   5.050   1.577
 8793SOL     OW27277   0.374   6.005   4.744
 8793SOL    HW127278   0.463   5.990   4.787
 8793SOL    HW227279   0.387   6.044   4.652
 8794SOL     OW27280   6.869   1.326   2.544
 8794SOL    HW127281   6.910   1.418   2.542
 8794SOL    HW227282   6.917   1.267   2.478
 8795SOL     OW27283   1.411   6.053   6.923
 8795SOL    HW127284   1.376   5.982   6.862
 8795SOL    HW227285   1.463   6.011   6.997
 8796SOL     OW27286   6.238   3.465   3.924
 8796SOL    HW127287   6.214   3.370   3.901
 8796SOL    HW227288   6.252   3.473   4.023
 8797SOL     OW27289   4.534   6.573   3.696
 8797SOL    HW127290   4.495   6.665   3.691
 8797SOL    HW227291   4.626   6.574   3.656
 8798SOL     OW27292   3.060   0.187   5.654
 8798SOL    HW127293   2.969   0.228   5.648
 8798SOL    HW227294   3.085   0.177   5.751
 8799SOL     OW27295   0.912   5.335   1.738
 8799SOL    HW127296   1.000   5.378   1.754
 8799SOL    HW227297   0.841   5.386   1.787
 8800SOL     OW27298   0.172   5.531   5.002
 8800SOL    HW127299   0.196   5.441   5.037
 8800SOL    HW227300   0.205   5.540   4.908
 8801SOL     OW27301   5.839   3.100   5.696
 8801SOL    HW127302   5.840   3.013   5.645
 8801SOL    HW227303   5.799   3.171   5.639
 8802SOL     OW27304   1.265   6.415   6.494
 8802SOL    HW127305   1.325   6.398   6.417
 8802SOL    HW227306   1.271   6.511   6.520
 8803SOL     OW27307   6.542   6.748   6.299
 8803SOL    HW127308   6.511   6.660   6.336
 8803SOL    HW227309   6.639   6.742   6.276
 8804SOL     OW27310   1.707   6.044   2.854
 8804SOL    HW127311   1.632   5.990   2.816
 8804SOL    HW227312   1.793   6.015   2.813
 8805SOL     OW27313   5.423   4.741   3.529
 8805SOL    HW127314   5.348   4.732   3.464
 8805SOL    HW227315   5.485   4.814   3.500
 8806SOL     OW27316   2.235   0.785   1.053
 8806SOL    HW127317   2.176   0.791   1.132
 8806SOL    HW227318   2.180   0.790   0.969
 8807SOL     OW27319   5.081   2.791   1.452
 8807SOL    HW127320   5.081   2.869   1.389
 8807SOL    HW227321   5.175   2.758   1.464
 8808SOL     OW27322   1.393   2.440   6.980
 8808SOL    HW127323   1.367   2.460   0.049
 8808SOL    HW227324   1.361   2.513   6.920
 8809SOL     OW27325   0.451   3.744   3.336
 8809SOL    HW127326   0.467   3.645   3.345
 8809SOL    HW227327   0.442   3.767   3.239
 8810SOL     OW27328   0.752   1.106   5.286
 8810SOL    HW127329   0.834   1.055   5.313
 8810SOL    HW227330   0.767   1.204   5.301
 8811SOL     OW27331   4.099   5.405   2.265
 8811SOL    HW127332   4.115   5.352   2.181
 8811SOL    HW227333   4.041   5.353   2.327
 8812SOL     OW27334   4.799   1.156   6.585
 8812SOL    HW127335   4.824   1.239   6.535
 8812SOL    HW227336   4.879   1.096   6.589
 8813SOL     OW27337   2.246   3.962   3.435
 8813SOL    HW127338   2.287   4.050   3.460
 8813SOL    HW227339   2.199   3.972   3.347
 8814SOL     OW27340   5.174   0.455   5.640
 8814SOL    HW127341   5.254   0.476   5.585
 8814SOL    HW227342   5.130   0.540   5.668
 8815SOL     OW27343   5.615   0.969   0.552
 8815SOL    HW127344   5.563   0.998   0.633
 8815SOL    HW227345   5.552   0.943   0.479
 8816SOL     OW27346   0.877   6.130   4.349
 8816SOL    HW127347   0.915   6.217   4.379
 8816SOL    HW227348   0.875   6.066   4.426
 8817SOL     OW27349   1.466   2.792   3.455
 8817SOL    HW127350   1.430   2.824   3.543
 8817SOL    HW227351   1.559   2.825   3.442
 8818SOL     OW27352   0.793   0.352   5.452
 8818SOL    HW127353   0.785   0.389   5.544
 8818SOL    HW227354   0.822   0.256   5.456
 8819SOL     OW27355   5.394   4.887   6.381
 8819SOL    HW127356   5.462   4.936   6.436
 8819SOL    HW227357   5.317   4.948   6.362
 8820SOL     OW27358   3.446   0.550   5.320
 8820SOL    HW127359   3.421   0.570   5.415
 8820SOL    HW227360   3.500   0.627   5.283
 8821SOL     OW27361   6.832   4.387   6.452
 8821SOL    HW127362   6.916   4.334   6.447
 8821SOL    HW227363   6.804   4.414   6.360
 8822SOL     OW27364   6.667   0.532   4.503
 8822SOL    HW127365   6.685   0.542   4.406
 8822SOL    HW227366   6.569   0.532   4.520
 8823SOL     OW27367   3.931   1.178   3.223
 8823SOL    HW127368   3.952   1.275   3.221
 8823SOL    HW227369   3.876   1.153   3.143
 8824SOL     OW27370   1.465   0.712   2.172
 8824SOL    HW127371   1.510   0.794   2.138
 8824SOL    HW227372   1.422   0.663   2.096
 8825SOL     OW27373   0.455   6.241   0.453
 8825SOL    HW127374   0.530   6.286   0.502
 8825SOL    HW227375   0.381   6.221   0.517
 8826SOL     OW27376   1.114   3.821   0.911
 8826SOL    HW127377   1.022   3.786   0.893
 8826SOL    HW227378   1.147   3.871   0.831
 8827SOL     OW27379   4.782   0.055   2.981
 8827SOL    HW127380   4.703   0.112   3.002
 8827SOL    HW227381   4.866   0.104   3.005
 8828SOL     OW27382   4.400   2.447   6.192
 8828SOL    HW127383   4.455   2.365   6.204
 8828SOL    HW227384   4.372   2.455   6.096
 8829SOL     OW27385   0.035   1.161   1.785
 8829SOL    HW127386   0.090   1.244   1.780
 8829SOL    HW227387   7.015   1.156   1.874
 8830SOL     OW27388   2.727   0.718   3.238
 8830SOL    HW127389   2.715   0.783   3.163
 8830SOL    HW227390   2.638   0.683   3.268
 8831SOL     OW27391   0.652   2.561   1.972
 8831SOL    HW127392   0.663   2.654   2.009
 8831SOL    HW227393   0.655   2.564   1.873
 8832SOL     OW27394   5.550   0.970   4.778
 8832SOL    HW127395   5.558   0.875   4.809
 8832SOL    HW227396   5.639   1.015   4.783
 8833SOL     OW27397   5.073   2.506   1.249
 8833SOL    HW127398   5.099   2.433   1.312
 8833SOL    HW227399   5.094   2.594   1.289
 8834SOL     OW27400   5.596   4.040   5.509
 8834SOL    HW127401   5.688   4.068   5.481
 8834SOL    HW227402   5.563   3.968   5.447
 8835SOL     OW27403   0.182   0.432   5.799
 8835SOL    HW127404   0.144   0.367   5.734
 8835SOL    HW227405   0.238   0.499   5.750
 8836SOL     OW27406   4.948   1.682   1.766
 8836SOL    HW127407   4.852   1.654   1.778
 8836SOL    HW227408   5.004   1.602   1.750
 8837SOL     OW27409   3.519   6.818   0.302
 8837SOL    HW127410   3.590   6.854   0.362
 8837SOL    HW227411   3.536   6.847   0.208
 8838SOL     OW27412   1.773   3.900   3.932
 8838SOL    HW127413   1.792   3.809   3.895
 8838SOL    HW227414   1.706   3.947   3.875
 8839SOL     OW27415   5.691   5.608   2.421
 8839SOL    HW127416   5.672   5.523   2.470
 8839SOL    HW227417   5.608   5.640   2.375
 8840SOL     OW27418   0.055   0.261   1.678
 8840SOL    HW127419   0.052   0.275   1.579
 8840SOL    HW227420   7.017   0.325   1.723
 8841SOL     OW27421   3.588   0.676   1.083
 8841SOL    HW127422   3.532   0.602   1.120
 8841SOL    HW227423   3.532   0.733   1.023
 8842SOL     OW27424   4.153   3.563   4.649
 8842SOL    HW127425   4.069   3.617   4.656
 8842SOL    HW227426   4.220   3.598   4.714
 8843SOL     OW27427   2.731   6.349   6.755
 8843SOL    HW127428   2.690   6.336   6.845
 8843SOL    HW227429   2.786   6.269   6.731
 8844SOL     OW27430   3.584   2.708   6.454
 8844SOL    HW127431   3.681   2.723   6.470
 8844SOL    HW227432   3.536   2.707   6.542
 8845SOL     OW27433   6.592   4.284   2.229
 8845SOL    HW127434   6.552   4.199   2.262
 8845SOL    HW227435   6.600   4.280   2.129
 8846SOL     OW27436   5.186   4.483   4.876
 8846SOL    HW127437   5.210   4.415   4.807
 8846SOL    HW227438   5.090   4.511   4.863
 8847SOL     OW27439   1.715   1.822   3.776
 8847SOL    HW127440   1.769   1.895   3.818
 8847SOL    HW227441   1.702   1.841   3.679
 8848SOL     OW27442   5.032   1.119   0.491
 8848SOL    HW127443   4.934   1.132   0.506
 8848SOL    HW227444   5.083   1.167   0.562
 8849SOL     OW27445   2.954   4.943   4.367
 8849SOL    HW127446   2.985   5.034   4.397
 8849SOL    HW227447   3.021   4.904   4.304
 8850SOL     OW27448   3.244   0.839   1.371
 8850SOL    HW127449   3.318   0.816   1.433
 8850SOL    HW227450   3.222   0.936   1.380
 8851SOL     OW27451   6.690   4.564   2.197
 8851SOL    HW127452   6.652   4.477   2.226
 8851SOL    HW227453   6.620   4.616   2.148
 8852SOL     OW27454   4.633   2.754   4.564
 8852SOL    HW127455   4.604   2.662   4.590
 8852SOL    HW227456   4.586   2.822   4.621
 8853SOL     OW27457   4.227   1.447   5.503
 8853SOL    HW127458   4.185   1.437   5.413
 8853SOL    HW227459   4.159   1.429   5.574
 8854SOL     OW27460   1.139   2.065   6.682
 8854SOL    HW127461   1.102   2.009   6.608
 8854SOL    HW227462   1.102   2.158   6.675
 8855SOL     OW27463   6.022   5.288   0.135
 8855SOL    HW127464   6.114   5.259   0.106
 8855SOL    HW227465   6.026   5.319   0.230
 8856SOL     OW27466   5.753   1.083   4.346
 8856SOL    HW127467   5.813   1.049   4.274
 8856SOL    HW227468   5.792   1.062   4.435
 8857SOL     OW27469   0.061   2.755   4.882
 8857SOL    HW127470   0.005   2.837   4.894
 8857SOL    HW227471   0.151   2.770   4.923
 8858SOL     OW27472   0.116   4.127   6.824
 8858SOL    HW127473   0.147   4.119   6.730
 8858SOL    HW227474   0.157   4.054   6.879
 8859SOL     OW27475   3.105   5.281   5.123
 8859SOL    HW127476   3.085   5.320   5.213
 8859SOL    HW227477   3.074   5.186   5.120
 8860SOL     OW27478   1.280   2.540   1.570
 8860SOL    HW127479   1.353   2.476   1.547
 8860SOL    HW227480   1.200   2.522   1.513
 8861SOL     OW27481   2.891   2.991   0.367
 8861SOL    HW127482   2.919   3.079   0.330
 8861SOL    HW227483   2.920   2.984   0.463
 8862SOL     OW27484   6.846   2.324   4.616
 8862SOL    HW127485   6.756   2.366   4.627
 8862SOL    HW227486   6.917   2.392   4.636
 8863SOL     OW27487   1.702   5.144   5.009
 8863SOL    HW127488   1.754   5.229   5.001
 8863SOL    HW227489   1.642   5.149   5.088
 8864SOL     OW27490   0.924   2.916   6.137
 8864SOL    HW127491   0.884   2.860   6.063
 8864SOL    HW227492   0.996   2.974   6.099
 8865SOL     OW27493   2.479   2.267   6.445
 8865SOL    HW127494   2.495   2.169   6.443
 8865SOL    HW227495   2.443   2.296   6.356
 8866SOL     OW27496   3.895   7.021   4.970
 8866SOL    HW127497   3.940   0.059   5.033
 8866SOL    HW227498   3.924   6.927   4.991
 8867SOL     OW27499   0.083   2.729   3.723
 8867SOL    HW127500   0.165   2.752   3.670
 8867SOL    HW227501   0.110   2.691   3.812
 8868SOL     OW27502   4.334   3.649   1.069
 8868SOL    HW127503   4.419   3.672   1.023
 8868SOL    HW227504   4.281   3.733   1.086
 8869SOL     OW27505   5.481   2.633   4.173
 8869SOL    HW127506   5.418   2.666   4.243
 8869SOL    HW227507   5.509   2.710   4.115
 8870SOL     OW27508   4.259   1.621   0.853
 8870SOL    HW127509   4.347   1.574   0.854
 8870SOL    HW227510   4.194   1.572   0.911
 8871SOL     OW27511   2.009   2.096   4.527
 8871SOL    HW127512   2.080   2.039   4.486
 8871SOL    HW227513   1.979   2.166   4.462
 8872SOL     OW27514   1.781   3.319   3.811
 8872SOL    HW127515   1.881   3.319   3.802
 8872SOL    HW227516   1.757   3.315   3.908
 8873SOL     OW27517   0.062   6.296   4.631
 8873SOL    HW127518   7.002   6.245   4.638
 8873SOL    HW227519   0.068   6.362   4.706
 8874SOL     OW27520   2.153   1.122   0.201
 8874SOL    HW127521   2.119   1.129   0.295
 8874SOL    HW227522   2.195   1.032   0.187
 8875SOL     OW27523   1.700   2.078   4.349
 8875SOL    HW127524   1.611   2.063   4.305
 8875SOL    HW227525   1.718   2.004   4.414
 8876SOL     OW27526   1.651   7.018   4.156
 8876SOL    HW127527   1.688   6.925   4.164
 8876SOL    HW227528   1.620   0.023   4.246
 8877SOL     OW27529   2.909   6.603   4.842
 8877SOL    HW127530   2.980   6.588   4.912
 8877SOL    HW227531   2.908   6.525   4.779
 8878SOL     OW27532   5.730   4.614   6.839
 8878SOL    HW127533   5.754   4.689   6.901
 8878SOL    HW227534   5.650   4.640   6.785
 8879SOL     OW27535   4.654   5.817   4.525
 8879SOL    HW127536   4.738   5.835   4.474
 8879SOL    HW227537   4.651   5.875   4.606
 8880SOL     OW27538   0.063   5.765   5.430
 8880SOL    HW127539   0.101   5.685   5.476
 8880SOL    HW227540   0.135   5.811   5.379
 8881SOL     OW27541   0.082   0.679   1.985
 8881SOL    HW127542   0.102   0.775   2.005
 8881SOL    HW227543   0.153   0.642   1.925
 8882SOL     OW27544   5.773   1.792   6.629
 8882SOL    HW127545   5.711   1.825   6.701
 8882SOL    HW227546   5.742   1.702   6.597
 8883SOL     OW27547   6.748   1.234   5.237
 8883SOL    HW127548   6.843   1.261   5.225
 8883SOL    HW227549   6.697   1.309   5.280
 8884SOL     OW27550   6.406   0.523   5.626
 8884SOL    HW127551   6.499   0.488   5.638
 8884SOL    HW227552   6.389   0.596   5.692
 8885SOL     OW27553   4.763   3.814   1.458
 8885SOL    HW127554   4.793   3.779   1.547
 8885SOL    HW227555   4.705   3.746   1.413
 8886SOL     OW27556   3.107   0.103   6.799
 8886SOL    HW127557   3.054   0.018   6.789
 8886SOL    HW227558   3.200   0.080   6.829
 8887SOL     OW27559   2.562   0.709   1.059
 8887SOL    HW127560   2.600   0.789   1.106
 8887SOL    HW227561   2.469   0.728   1.030
 8888SOL     OW27562   2.922   1.452   2.817
 8888SOL    HW127563   2.891   1.420   2.907
 8888SOL    HW227564   2.925   1.375   2.753
 8889SOL     OW27565   3.986   0.255   5.335
 8889SOL    HW127566   4.038   0.336   5.358
 8889SOL    HW227567   4.025   0.211   5.254
 8890SOL     OW27568   0.895   4.790   4.591
 8890SOL    HW127569   0.826   4.782   4.520
 8890SOL    HW227570   0.984   4.805   4.549
 8891SOL     OW27571   3.655   1.974   6.753
 8891SOL    HW127572   3.682   2.022   6.836
 8891SOL    HW227573   3.563   2.003   6.726
 8892SOL     OW27574   0.789   6.190   2.888
 8892SOL    HW127575   0.758   6.169   2.796
 8892SOL    HW227576   0.743   6.273   2.921
 8893SOL     OW27577   0.847   1.328   1.333
 8893SOL    HW127578   0.774   1.265   1.360
 8893SOL    HW227579   0.905   1.284   1.265
 8894SOL     OW27580   3.878   3.526   6.606
 8894SOL    HW127581   3.944   3.471   6.555
 8894SOL    HW227582   3.797   3.541   6.549
 8895SOL     OW27583   0.457   6.586   2.183
 8895SOL    HW127584   0.524   6.597   2.256
 8895SOL    HW227585   0.476   6.502   2.132
 8896SOL     OW27586   1.960   3.881   4.961
 8896SOL    HW127587   2.009   3.898   5.046
 8896SOL    HW227588   2.024   3.848   4.892
 8897SOL     OW27589   1.444   2.001   1.470
 8897SOL    HW127590   1.529   1.950   1.468
 8897SOL    HW227591   1.415   2.022   1.377
 8898SOL     OW27592   5.972   3.661   4.934
 8898SOL    HW127593   5.899   3.730   4.941
 8898SOL    HW227594   6.055   3.696   4.976
 8899SOL     OW27595   2.276   4.234   6.939
 8899SOL    HW127596   2.181   4.211   6.918
 8899SOL    HW227597   2.337   4.177   6.883
 8900SOL     OW27598   5.493   2.255   3.211
 8900SOL    HW127599   5.434   2.220   3.139
 8900SOL    HW227600   5.574   2.196   3.219
 8901SOL     OW27601   2.209   6.993   2.923
 8901SOL    HW127602   2.216   6.903   2.879
 8901SOL    HW227603   2.298   0.014   2.919
 8902SOL     OW27604   1.900   5.208   5.788
 8902SOL    HW127605   1.944   5.291   5.753
 8902SOL    HW227606   1.928   5.193   5.883
 8903SOL     OW27607   1.630   1.567   3.507
 8903SOL    HW127608   1.610   1.528   3.417
 8903SOL    HW227609   1.728   1.586   3.514
 8904SOL     OW27610   1.313   5.797   3.178
 8904SOL    HW127611   1.321   5.752   3.089
 8904SOL    HW227612   1.294   5.895   3.164
 8905SOL     OW27613   2.425   4.149   5.364
 8905SOL    HW127614   2.437   4.085   5.288
 8905SOL    HW227615   2.488   4.125   5.438
 8906SOL     OW27616   1.006   5.549   5.740
 8906SOL    HW127617   1.029   5.593   5.654
 8906SOL    HW227618   1.065   5.584   5.813
 8907SOL     OW27619   3.371   2.745   5.155
 8907SOL    HW127620   3.300   2.680   5.184
 8907SOL    HW227621   3.354   2.772   5.060
 8908SOL     OW27622   0.408   2.465   1.089
 8908SOL    HW127623   0.462   2.421   1.018
 8908SOL    HW227624   0.444   2.557   1.106
 8909SOL     OW27625   2.870   0.390   5.803
 8909SOL    HW127626   2.794   0.454   5.792
 8909SOL    HW227627   2.857   0.336   5.886
 8910SOL     OW27628   3.570   4.189   6.761
 8910SOL    HW127629   3.652   4.185   6.818
 8910SOL    HW227630   3.593   4.224   6.671
 8911SOL     OW27631   3.205   2.122   3.999
 8911SOL    HW127632   3.195   2.143   4.097
 8911SOL    HW227633   3.234   2.027   3.988
 8912SOL     OW27634   4.893   2.806   5.926
 8912SOL    HW127635   4.888   2.877   5.855
 8912SOL    HW227636   4.847   2.839   6.008
 8913SOL     OW27637   4.927   3.870   0.769
 8913SOL    HW127638   4.972   3.863   0.858
 8913SOL    HW227639   4.967   3.946   0.718
 8914SOL     OW27640   4.133   2.228   4.670
 8914SOL    HW127641   4.128   2.128   4.680
 8914SOL    HW227642   4.069   2.257   4.599
 8915SOL     OW27643   1.144   5.094   1.618
 8915SOL    HW127644   1.199   5.146   1.552
 8915SOL    HW227645   1.092   5.158   1.675
 8916SOL     OW27646   6.601   3.650   1.779
 8916SOL    HW127647   6.535   3.724   1.794
 8916SOL    HW227648   6.587   3.613   1.687
 8917SOL     OW27649   6.133   5.718   6.099
 8917SOL    HW127650   6.074   5.637   6.105
 8917SOL    HW227651   6.225   5.690   6.073
 8918SOL     OW27652   4.498   4.846   6.595
 8918SOL    HW127653   4.577   4.787   6.582
 8918SOL    HW227654   4.494   4.914   6.521
 8919SOL     OW27655   2.155   4.447   0.819
 8919SOL    HW127656   2.123   4.500   0.740
 8919SOL    HW227657   2.252   4.468   0.836
 8920SOL     OW27658   6.498   5.799   5.776
 8920SOL    HW127659   6.404   5.826   5.798
 8920SOL    HW227660   6.530   5.853   5.698
 8921SOL     OW27661   1.835   6.674   3.458
 8921SOL    HW127662   1.857   6.748   3.521
 8921SOL    HW227663   1.913   6.611   3.452
 8922SOL     OW27664   6.350   4.042   0.002
 8922SOL    HW127665   6.304   3.992   0.075
 8922SOL    HW227666   6.290   4.114   6.992
 8923SOL     OW27667   1.854   4.154   5.496
 8923SOL    HW127668   1.858   4.069   5.547
 8923SOL    HW227669   1.869   4.231   5.557
 8924SOL     OW27670   2.886   5.765   5.312
 8924SOL    HW127671   2.830   5.730   5.387
 8924SOL    HW227672   2.855   5.724   5.226
 8925SOL     OW27673   6.236   6.550   2.140
 8925SOL    HW127674   6.321   6.599   2.120
 8925SOL    HW227675   6.168   6.571   2.069
 8926SOL     OW27676   5.722   1.647   0.491
 8926SOL    HW127677   5.623   1.651   0.506
 8926SOL    HW227678   5.747   1.559   0.452
 8927SOL     OW27679   2.512   1.916   5.529
 8927SOL    HW127680   2.478   1.861   5.453
 8927SOL    HW227681   2.569   1.990   5.493
 8928SOL     OW27682   0.308   0.256   5.047
 8928SOL    HW127683   0.254   0.305   4.979
 8928SOL    HW227684   0.362   0.321   5.100
 8929SOL     OW27685   6.051   3.604   4.162
 8929SOL    HW127686   6.013   3.600   4.070
 8929SOL    HW227687   6.009   3.679   4.213
 8930SOL     OW27688   0.693   5.089   4.961
 8930SOL    HW127689   0.675   5.137   4.875
 8930SOL    HW227690   0.717   4.994   4.942
 8931SOL     OW27691   5.647   1.209   0.956
 8931SOL    HW127692   5.710   1.137   0.986
 8931SOL    HW227693   5.674   1.296   0.996
 8932SOL     OW27694   6.630   0.367   6.856
 8932SOL    HW127695   6.553   0.316   6.894
 8932SOL    HW227696   6.602   0.461   6.838
 8933SOL     OW27697   1.897   6.477   5.527
 8933SOL    HW127698   1.856   6.409   5.588
 8933SOL    HW227699   1.958   6.536   5.579
 8934SOL     OW27700   4.675   6.824   3.044
 8934SOL    HW127701   4.576   6.831   3.051
 8934SOL    HW227702   4.714   6.916   3.035
 8935SOL     OW27703   5.598   2.876   3.227
 8935SOL    HW127704   5.661   2.802   3.205
 8935SOL    HW227705   5.505   2.841   3.229
 8936SOL     OW27706   1.697   4.788   2.403
 8936SOL    HW127707   1.684   4.725   2.479
 8936SOL    HW227708   1.609   4.804   2.358
 8937SOL     OW27709   5.039   6.787   5.239
 8937SOL    HW127710   5.077   6.794   5.332
 8937SOL    HW227711   5.037   6.877   5.197
 8938SOL     OW27712   5.860   0.215   1.497
 8938SOL    HW127713   5.810   0.244   1.578
 8938SOL    HW227714   5.854   0.286   1.427
 8939SOL     OW27715   6.954   3.104   3.796
 8939SOL    HW127716   6.902   3.055   3.726
 8939SOL    HW227717   6.956   3.202   3.773
 8940SOL     OW27718   6.109   2.475   0.942
 8940SOL    HW127719   6.067   2.417   0.872
 8940SOL    HW227720   6.208   2.461   0.943
 8941SOL     OW27721   4.336   2.399   1.892
 8941SOL    HW127722   4.405   2.469   1.876
 8941SOL    HW227723   4.381   2.311   1.906
 8942SOL     OW27724   5.856   4.212   4.786
 8942SOL    HW127725   5.792   4.160   4.730
 8942SOL    HW227726   5.806   4.280   4.840
 8943SOL     OW27727   4.547   4.084   0.542
 8943SOL    HW127728   4.525   3.988   0.525
 8943SOL    HW227729   4.481   4.121   0.607
 8944SOL     OW27730   5.572   5.331   5.068
 8944SOL    HW127731   5.664   5.345   5.106
 8944SOL    HW227732   5.579   5.313   4.970
 8945SOL     OW27733   5.101   3.948   3.456
 8945SOL    HW127734   5.145   3.883   3.394
 8945SOL    HW227735   5.027   3.995   3.409
 8946SOL     OW27736   4.443   0.893   5.598
 8946SOL    HW127737   4.354   0.881   5.554
 8946SOL    HW227738   4.505   0.940   5.535
 8947SOL     OW27739   2.550   5.267   6.189
 8947SOL    HW127740   2.638   5.256   6.234
 8947SOL    HW227741   2.555   5.344   6.124
 8948SOL     OW27742   5.512   1.176   2.727
 8948SOL    HW127743   5.422   1.171   2.684
 8948SOL    HW227744   5.579   1.130   2.668
 8949SOL     OW27745   3.944   6.241   0.859
 8949SOL    HW127746   3.848   6.269   0.853
 8949SOL    HW227747   3.964   6.211   0.952
 8950SOL     OW27748   3.698   3.375   0.900
 8950SOL    HW127749   3.638   3.443   0.942
 8950SOL    HW227750   3.653   3.286   0.901
 8951SOL     OW27751   1.813   0.843   4.483
 8951SOL    HW127752   1.729   0.807   4.522
 8951SOL    HW227753   1.889   0.825   4.546
 8952SOL     OW27754   2.117   4.179   4.228
 8952SOL    HW127755   2.160   4.121   4.158
 8952SOL    HW227756   2.176   4.257   4.247
 8953SOL     OW27757   1.293   4.500   0.802
 8953SOL    HW127758   1.218   4.438   0.825
 8953SOL    HW227759   1.352   4.457   0.734
 8954SOL     OW27760   2.634   4.452   5.862
 8954SOL    HW127761   2.596   4.393   5.933
 8954SOL    HW227762   2.635   4.403   5.775
 8955SOL     OW27763   5.179   2.682   4.616
 8955SOL    HW127764   5.085   2.652   4.600
 8955SOL    HW227765   5.179   2.770   4.663
 8956SOL     OW27766   0.705   5.986   6.899
 8956SOL    HW127767   0.619   6.025   6.931
 8956SOL    HW227768   0.771   5.984   6.974
 8957SOL     OW27769   0.022   6.152   2.924
 8957SOL    HW127770   0.032   6.130   2.827
 8957SOL    HW227771   0.109   6.188   2.959
 8958SOL     OW27772   1.932   2.868   5.031
 8958SOL    HW127773   1.941   2.826   4.940
 8958SOL    HW227774   1.875   2.810   5.089
 8959SOL     OW27775   6.756   2.446   2.814
 8959SOL    HW127776   6.699   2.469   2.893
 8959SOL    HW227777   6.702   2.397   2.747
 8960SOL     OW27778   5.504   4.518   3.327
 8960SOL    HW127779   5.492   4.453   3.402
 8960SOL    HW227780   5.492   4.611   3.361
 8961SOL     OW27781   2.093   1.298   4.982
 8961SOL    HW127782   2.167   1.313   4.916
 8961SOL    HW227783   2.058   1.205   4.972
 8962SOL     OW27784   6.677   5.512   2.141
 8962SOL    HW127785   6.682   5.612   2.145
 8962SOL    HW227786   6.735   5.479   2.066
 8963SOL     OW27787   4.960   6.593   5.483
 8963SOL    HW127788   5.012   6.542   5.415
 8963SOL    HW227789   5.020   6.622   5.557
 8964SOL     OW27790   1.657   2.803   4.750
 8964SOL    HW127791   1.746   2.759   4.743
 8964SOL    HW227792   1.642   2.834   4.844
 8965SOL     OW27793   3.994   5.615   6.233
 8965SOL    HW127794   4.029   5.625   6.140
 8965SOL    HW227795   3.921   5.547   6.233
 8966SOL     OW27796   4.153   6.058   5.118
 8966SOL    HW127797   4.138   5.968   5.075
 8966SOL    HW227798   4.217   6.111   5.062
 8967SOL     OW27799   2.882   6.981   3.852
 8967SOL    HW127800   2.910   6.974   3.948
 8967SOL    HW227801   2.960   7.012   3.797
 8968SOL     OW27802   3.750   5.192   2.683
 8968SOL    HW127803   3.653   5.212   2.694
 8968SOL    HW227804   3.781   5.135   2.759
 8969SOL     OW27805   1.116   0.880   2.763
 8969SOL    HW127806   1.133   0.818   2.687
 8969SOL    HW227807   1.176   0.959   2.756
 8970SOL     OW27808   1.676   0.183   3.679
 8970SOL    HW127809   1.706   0.161   3.586
 8970SOL    HW227810   1.580   0.209   3.678
 8971SOL     OW27811   3.405   5.126   0.139
 8971SOL    HW127812   3.459   5.106   0.057
 8971SOL    HW227813   3.432   5.065   0.213
 8972SOL     OW27814   6.168   3.437   0.081
 8972SOL    HW127815   6.237   3.463   0.148
 8972SOL    HW227816   6.172   3.499   0.002
 8973SOL     OW27817   1.492   2.504   3.480
 8973SOL    HW127818   1.588   2.491   3.453
 8973SOL    HW227819   1.467   2.600   3.469
 8974SOL     OW27820   2.447   4.483   4.684
 8974SOL    HW127821   2.401   4.564   4.720
 8974SOL    HW227822   2.457   4.415   4.756
 8975SOL     OW27823   0.575   5.659   6.056
 8975SOL    HW127824   0.645   5.589   6.071
 8975SOL    HW227825   0.561   5.711   6.140
 8976SOL     OW27826   5.952   0.154   2.476
 8976SOL    HW127827   5.912   0.171   2.566
 8976SOL    HW227828   6.047   0.123   2.488
 8977SOL     OW27829   6.353   4.792   5.930
 8977SOL    HW127830   6.293   4.871   5.940
 8977SOL    HW227831   6.352   4.739   6.015
 8978SOL     OW27832   6.165   5.793   6.409
 8978SOL    HW127833   6.151   5.851   6.489
 8978SOL    HW227834   6.135   5.843   6.327
 8979SOL     OW27835   1.358   5.008   4.774
 8979SOL    HW127836   1.261   4.987   4.790
 8979SOL    HW227837   1.400   4.935   4.722
 8980SOL     OW27838   3.405   0.448   6.803
 8980SOL    HW127839   3.499   0.414   6.807
 8980SOL    HW227840   3.369   0.459   6.896
 8981SOL     OW27841   4.588   3.741   6.220
 8981SOL    HW127842   4.626   3.833   6.228
 8981SOL    HW227843   4.649   3.676   6.266
 8982SOL     OW27844   0.410   1.692   2.106
 8982SOL    HW127845   0.436   1.785   2.077
 8982SOL    HW227846   0.328   1.664   2.057
 8983SOL     OW27847   1.667   6.488   2.167
 8983SOL    HW127848   1.695   6.470   2.262
 8983SOL    HW227849   1.600   6.563   2.166
 8984SOL     OW27850   0.100   0.872   4.027
 8984SOL    HW127851   0.194   0.842   4.043
 8984SOL    HW227852   0.041   0.838   4.100
 8985SOL     OW27853   4.978   1.783   1.478
 8985SOL    HW127854   4.998   1.881   1.467
 8985SOL    HW227855   4.926   1.769   1.562
 8986SOL     OW27856   6.884   4.608   0.265
 8986SOL    HW127857   6.821   4.601   0.341
 8986SOL    HW227858   6.938   4.692   0.274
 8987SOL     OW27859   2.255   6.597   1.878
 8987SOL    HW127860   2.240   6.690   1.842
 8987SOL    HW227861   2.282   6.603   1.974
 8988SOL     OW27862   2.208   6.361   1.734
 8988SOL    HW127863   2.138   6.375   1.664
 8988SOL    HW227864   2.232   6.449   1.776
 8989SOL     OW27865   5.289   2.044   3.192
 8989SOL    HW127866   5.282   2.058   3.291
 8989SOL    HW227867   5.197   2.046   3.152
 8990SOL     OW27868   3.294   0.975   2.324
 8990SOL    HW127869   3.252   0.895   2.281
 8990SOL    HW227870   3.327   1.037   2.253
 8991SOL     OW27871   1.349   1.480   0.661
 8991SOL    HW127872   1.274   1.535   0.624
 8991SOL    HW227873   1.428   1.485   0.599
 8992SOL     OW27874   0.801   3.934   6.341
 8992SOL    HW127875   0.715   3.954   6.387
 8992SOL    HW227876   0.824   4.009   6.280
 8993SOL     OW27877   5.719   3.817   4.744
 8993SOL    HW127878   5.674   3.892   4.695
 8993SOL    HW227879   5.782   3.854   4.812
 8994SOL     OW27880   0.832   5.537   2.703
 8994SOL    HW127881   0.915   5.522   2.757
 8994SOL    HW227882   0.798   5.629   2.720
 8995SOL     OW27883   2.190   3.824   4.810
 8995SOL    HW127884   2.269   3.858   4.861
 8995SOL    HW227885   2.186   3.870   4.721
 8996SOL     OW27886   0.953   3.959   2.060
 8996SOL    HW127887   0.893   3.981   2.137
 8996SOL    HW227888   0.990   4.043   2.021
 8997SOL     OW27889   4.582   1.920   5.556
 8997SOL    HW127890   4.661   1.960   5.510
 8997SOL    HW227891   4.613   1.869   5.636
 8998SOL     OW27892   0.591   1.430   6.193
 8998SOL    HW127893   0.581   1.364   6.119
 8998SOL    HW227894   0.666   1.401   6.253
 8999SOL     OW27895   5.262   1.222   4.675
 8999SOL    HW127896   5.171   1.186   4.655
 8999SOL    HW227897   5.295   1.185   4.761
 9000SOL     OW27898   2.272   4.378   0.393
 9000SOL    HW127899   2.256   4.395   0.296
 9000SOL    HW227900   2.307   4.462   0.436
 9001SOL     OW27901   1.704   4.557   3.458
 9001SOL    HW127902   1.646   4.631   3.424
 9001SOL    HW227903   1.694   4.477   3.399
 9002SOL     OW27904   5.107   4.626   6.158
 9002SOL    HW127905   5.138   4.590   6.069
 9002SOL    HW227906   5.058   4.555   6.208
 9003SOL     OW27907   5.498   3.328   6.171
 9003SOL    HW127908   5.547   3.241   6.175
 9003SOL    HW227909   5.402   3.312   6.150
 9004SOL     OW27910   4.544   5.391   0.555
 9004SOL    HW127911   4.576   5.366   0.464
 9004SOL    HW227912   4.620   5.385   0.620
 9005SOL     OW27913   4.761   2.184   3.039
 9005SOL    HW127914   4.668   2.150   3.030
 9005SOL    HW227915   4.813   2.162   2.957
 9006SOL     OW27916   1.571   6.916   0.791
 9006SOL    HW127917   1.583   6.846   0.862
 9006SOL    HW227918   1.518   6.879   0.716
 9007SOL     OW27919   2.893   6.474   4.143
 9007SOL    HW127920   2.848   6.436   4.224
 9007SOL    HW227921   2.874   6.572   4.138
 9008SOL     OW27922   6.416   4.322   2.936
 9008SOL    HW127923   6.419   4.398   3.000
 9008SOL    HW227924   6.386   4.239   2.984
 9009SOL     OW27925   3.899   6.481   1.591
 9009SOL    HW127926   3.896   6.580   1.577
 9009SOL    HW227927   3.842   6.435   1.523
 9010SOL     OW27928   1.121   5.894   5.242
 9010SOL    HW127929   1.192   5.893   5.313
 9010SOL    HW227930   1.164   5.903   5.153
 9011SOL     OW27931   4.127   1.883   1.853
 9011SOL    HW127932   4.197   1.812   1.864
 9011SOL    HW227933   4.065   1.881   1.931
 9012SOL     OW27934   6.476   5.782   1.706
 9012SOL    HW127935   6.393   5.782   1.763
 9012SOL    HW227936   6.549   5.735   1.754
 9013SOL     OW27937   5.168   6.124   3.028
 9013SOL    HW127938   5.111   6.194   2.985
 9013SOL    HW227939   5.252   6.113   2.975
 9014SOL     OW27940   3.324   1.000   0.894
 9014SOL    HW127941   3.292   0.972   0.804
 9014SOL    HW227942   3.286   0.940   0.964
 9015SOL     OW27943   6.638   1.511   5.254
 9015SOL    HW127944   6.567   1.561   5.305
 9015SOL    HW227945   6.598   1.470   5.173
 9016SOL     OW27946   6.762   6.217   5.861
 9016SOL    HW127947   6.795   6.158   5.787
 9016SOL    HW227948   6.672   6.184   5.891
 9017SOL     OW27949   0.341   4.055   3.944
 9017SOL    HW127950   0.357   3.958   3.963
 9017SOL    HW227951   0.245   4.068   3.918
 9018SOL     OW27952   3.744   2.470   5.705
 9018SOL    HW127953   3.787   2.428   5.786
 9018SOL    HW227954   3.810   2.471   5.630
 9019SOL     OW27955   1.859   6.530   0.077
 9019SOL    HW127956   1.952   6.545   0.043
 9019SOL    HW227957   1.806   6.614   0.068
 9020SOL     OW27958   0.340   4.843   2.811
 9020SOL    HW127959   0.420   4.884   2.853
 9020SOL    HW227960   0.368   4.782   2.737
 9021SOL     OW27961   6.913   5.723   5.077
 9021SOL    HW127962   6.936   5.817   5.051
 9021SOL    HW227963   6.997   5.673   5.098
 9022SOL     OW27964   3.031   0.809   6.508
 9022SOL    HW127965   3.007   0.714   6.486
 9022SOL    HW227966   2.950   0.866   6.502
 9023SOL     OW27967   3.401   2.968   2.596
 9023SOL    HW127968   3.483   2.933   2.550
 9023SOL    HW227969   3.320   2.946   2.542
 9024SOL     OW27970   1.970   0.144   6.672
 9024SOL    HW127971   1.911   0.213   6.716
 9024SOL    HW227972   2.008   0.084   6.742
 9025SOL     OW27973   0.025   4.630   1.147
 9025SOL    HW127974   0.088   4.649   1.222
 9025SOL    HW227975   0.042   4.539   1.111
 9026SOL     OW27976   3.136   3.508   5.314
 9026SOL    HW127977   3.201   3.443   5.353
 9026SOL    HW227978   3.073   3.459   5.253
 9027SOL     OW27979   2.353   2.451   3.055
 9027SOL    HW127980   2.334   2.547   3.073
 9027SOL    HW227981   2.283   2.415   2.993
 9028SOL     OW27982   2.399   4.573   5.104
 9028SOL    HW127983   2.399   4.474   5.115
 9028SOL    HW227984   2.311   4.602   5.065
 9029SOL     OW27985   5.116   4.973   3.296
 9029SOL    HW127986   5.139   5.032   3.373
 9029SOL    HW227987   5.182   4.898   3.291
 9030SOL     OW27988   3.246   1.687   1.831
 9030SOL    HW127989   3.301   1.622   1.882
 9030SOL    HW227990   3.234   1.655   1.737
 9031SOL     OW27991   2.246   0.893   0.123
 9031SOL    HW127992   2.345   0.910   0.119
 9031SOL    HW227993   2.230   0.803   0.163
 9032SOL     OW27994   1.483   1.769   2.347
 9032SOL    HW127995   1.511   1.691   2.292
 9032SOL    HW227996   1.426   1.830   2.292
 9033SOL     OW27997   1.511   3.276   2.762
 9033SOL    HW127998   1.516   3.192   2.709
 9033SOL    HW227999   1.430   3.328   2.735
 9034SOL     OW28000   1.986   0.420   5.846
 9034SOL    HW128001   1.969   0.514   5.817
 9034SOL    HW228002   1.902   0.381   5.884
 9035SOL     OW28003   6.929   1.186   4.254
 9035SOL    HW128004   6.875   1.178   4.170
 9035SOL    HW228005   6.868   1.184   4.333
 9036SOL     OW28006   1.101   1.894   5.158
 9036SOL    HW128007   1.078   1.807   5.113
 9036SOL    HW228008   1.151   1.951   5.093
 9037SOL     OW28009   2.412   4.059   5.908
 9037SOL    HW128010   2.506   4.041   5.877
 9037SOL    HW228011   2.357   4.092   5.831
 9038SOL     OW28012   5.668   6.618   5.511
 9038SOL    HW128013   5.586   6.582   5.466
 9038SOL    HW228014   5.723   6.669   5.444
 9039SOL     OW28015   2.333   5.348   5.828
 9039SOL    HW128016   2.356   5.360   5.731
 9039SOL    HW228017   2.385   5.415   5.882
 9040SOL     OW28018   2.528   1.303   1.659
 9040SOL    HW128019   2.431   1.312   1.683
 9040SOL    HW228020   2.580   1.376   1.702
 9041SOL     OW28021   1.451   3.241   0.065
 9041SOL    HW128022   1.366   3.222   0.114
 9041SOL    HW228023   1.528   3.207   0.118
 9042SOL     OW28024   2.584   5.234   3.905
 9042SOL    HW128025   2.595   5.173   3.983
 9042SOL    HW228026   2.638   5.199   3.828
 9043SOL     OW28027   6.720   2.353   0.386
 9043SOL    HW128028   6.631   2.395   0.404
 9043SOL    HW228029   6.792   2.422   0.394
 9044SOL     OW28030   6.279   4.947   0.164
 9044SOL    HW128031   6.369   4.923   0.199
 9044SOL    HW228032   6.287   5.025   0.101
 9045SOL     OW28033   3.667   6.051   4.092
 9045SOL    HW128034   3.677   6.063   4.191
 9045SOL    HW228035   3.731   6.111   4.044
 9046SOL     OW28036   3.307   4.132   5.962
 9046SOL    HW128037   3.224   4.080   5.940
 9046SOL    HW228038   3.292   4.228   5.940
 9047SOL     OW28039   1.336   4.595   4.807
 9047SOL    HW128040   1.241   4.620   4.828
 9047SOL    HW228041   1.388   4.588   4.892
 9048SOL     OW28042   1.671   2.634   5.178
 9048SOL    HW128043   1.592   2.654   5.236
 9048SOL    HW228044   1.750   2.610   5.235
 9049SOL     OW28045   4.842   5.959   6.529
 9049SOL    HW128046   4.877   5.991   6.441
 9049SOL    HW228047   4.750   5.922   6.517
 9050SOL     OW28048   0.757   6.196   5.282
 9050SOL    HW128049   0.664   6.187   5.244
 9050SOL    HW228050   0.788   6.290   5.272
 9051SOL     OW28051   5.190   6.134   6.128
 9051SOL    HW128052   5.147   6.152   6.039
 9051SOL    HW228053   5.247   6.212   6.154
 9052SOL     OW28054   2.299   5.595   4.667
 9052SOL    HW128055   2.344   5.506   4.677
 9052SOL    HW228056   2.291   5.618   4.570
 9053SOL     OW28057   2.840   1.533   3.519
 9053SOL    HW128058   2.778   1.458   3.541
 9053SOL    HW228059   2.809   1.578   3.435
 9054SOL     OW28060   3.598   0.362   1.231
 9054SOL    HW128061   3.677   0.340   1.289
 9054SOL    HW228062   3.546   0.437   1.272
 9055SOL     OW28063   1.211   1.286   4.183
 9055SOL    HW128064   1.172   1.378   4.185
 9055SOL    HW228065   1.217   1.251   4.277
 9056SOL     OW28066   5.938   1.524   2.764
 9056SOL    HW128067   5.887   1.608   2.746
 9056SOL    HW228068   6.033   1.547   2.785
 9057SOL     OW28069   4.169   6.581   6.669
 9057SOL    HW128070   4.104   6.511   6.698
 9057SOL    HW228071   4.130   6.634   6.594
 9058SOL     OW28072   1.725   2.405   5.032
 9058SOL    HW128073   1.764   2.338   5.095
 9058SOL    HW228074   1.712   2.492   5.079
 9059SOL     OW28075   6.508   0.778   3.344
 9059SOL    HW128076   6.497   0.793   3.246
 9059SOL    HW228077   6.437   0.714   3.376
 9060SOL     OW28078   0.731   5.486   1.930
 9060SOL    HW128079   0.644   5.531   1.910
 9060SOL    HW228080   0.717   5.413   1.996
 9061SOL     OW28081   5.546   4.137   2.944
 9061SOL    HW128082   5.525   4.213   3.005
 9061SOL    HW228083   5.587   4.172   2.860
 9062SOL     OW28084   0.726   5.697   2.987
 9062SOL    HW128085   0.778   5.635   3.045
 9062SOL    HW228086   0.784   5.728   2.912
 9063SOL     OW28087   4.704   1.621   1.996
 9063SOL    HW128088   4.643   1.542   1.997
 9063SOL    HW228089   4.668   1.691   1.935
 9064SOL     OW28090   1.084   5.446   3.215
 9064SOL    HW128091   1.043   5.419   3.302
 9064SOL    HW228092   1.166   5.392   3.199
 9065SOL     OW28093   2.650   4.428   5.581
 9065SOL    HW128094   2.563   4.465   5.548
 9065SOL    HW228095   2.726   4.468   5.528
 9066SOL     OW28096   4.709   4.864   4.508
 9066SOL    HW128097   4.768   4.943   4.523
 9066SOL    HW228098   4.755   4.799   4.448
 9067SOL     OW28099   1.283   6.297   4.285
 9067SOL    HW128100   1.208   6.354   4.252
 9067SOL    HW228101   1.364   6.354   4.301
 9068SOL     OW28102   4.449   0.016   5.656
 9068SOL    HW128103   4.392   0.013   5.574
 9068SOL    HW228104   4.546   0.021   5.630
 9069SOL     OW28105   5.496   2.136   1.547
 9069SOL    HW128106   5.464   2.068   1.480
 9069SOL    HW228107   5.501   2.226   1.503
 9070SOL     OW28108   1.445   1.463   5.826
 9070SOL    HW128109   1.487   1.541   5.872
 9070SOL    HW228110   1.363   1.494   5.778
 9071SOL     OW28111   4.592   2.223   6.202
 9071SOL    HW128112   4.617   2.166   6.280
 9071SOL    HW228113   4.668   2.283   6.178
 9072SOL     OW28114   4.753   1.035   2.912
 9072SOL    HW128115   4.734   0.974   2.835
 9072SOL    HW228116   4.850   1.059   2.912
 9073SOL     OW28117   4.732   1.688   5.161
 9073SOL    HW128118   4.676   1.769   5.149
 9073SOL    HW228119   4.710   1.644   5.248
 9074SOL     OW28120   1.660   0.872   1.784
 9074SOL    HW128121   1.662   0.791   1.725
 9074SOL    HW228122   1.738   0.870   1.847
 9075SOL     OW28123   6.030   6.367   0.954
 9075SOL    HW128124   6.045   6.270   0.931
 9075SOL    HW228125   6.020   6.376   1.053
 9076SOL     OW28126   6.354   0.534   2.746
 9076SOL    HW128127   6.360   0.506   2.650
 9076SOL    HW228128   6.404   0.468   2.802
 9077SOL     OW28129   6.355   1.595   6.469
 9077SOL    HW128130   6.336   1.635   6.379
 9077SOL    HW228131   6.431   1.530   6.461
 9078SOL     OW28132   5.035   6.212   6.966
 9078SOL    HW128133   5.118   6.268   6.966
 9078SOL    HW228134   4.985   6.227   6.880
 9079SOL     OW28135   1.363   1.351   6.750
 9079SOL    HW128136   1.425   1.275   6.731
 9079SOL    HW228137   1.380   1.387   6.842
 9080SOL     OW28138   6.362   3.397   1.739
 9080SOL    HW128139   6.396   3.358   1.825
 9080SOL    HW228140   6.321   3.326   1.683
 9081SOL     OW28141   5.113   1.860   6.883
 9081SOL    HW128142   5.065   1.945   6.861
 9081SOL    HW228143   5.045   1.788   6.902
 9082SOL     OW28144   3.579   5.648   6.151
 9082SOL    HW128145   3.484   5.660   6.125
 9082SOL    HW228146   3.584   5.594   6.235
 9083SOL     OW28147   4.348   5.420   6.541
 9083SOL    HW128148   4.269   5.400   6.483
 9083SOL    HW228149   4.344   5.363   6.623
 9084SOL     OW28150   6.665   2.539   6.065
 9084SOL    HW128151   6.720   2.580   6.138
 9084SOL    HW228152   6.569   2.540   6.091
 9085SOL     OW28153   2.322   4.914   6.522
 9085SOL    HW128154   2.321   4.829   6.470
 9085SOL    HW228155   2.228   4.943   6.542
 9086SOL     OW28156   0.201   4.368   0.869
 9086SOL    HW128157   0.102   4.374   0.878
 9086SOL    HW228158   0.243   4.451   0.905
 9087SOL     OW28159   5.990   0.722   1.463
 9087SOL    HW128160   6.042   0.659   1.521
 9087SOL    HW228161   6.053   0.782   1.413
 9088SOL     OW28162   6.528   6.705   0.834
 9088SOL    HW128163   6.593   6.749   0.772
 9088SOL    HW228164   6.440   6.693   0.788
 9089SOL     OW28165   5.125   5.493   3.997
 9089SOL    HW128166   5.193   5.555   3.957
 9089SOL    HW228167   5.109   5.417   3.934
 9090SOL     OW28168   5.437   6.183   5.128
 9090SOL    HW128169   5.394   6.096   5.101
 9090SOL    HW228170   5.435   6.246   5.050
 9091SOL     OW28171   2.510   1.476   1.214
 9091SOL    HW128172   2.540   1.494   1.120
 9091SOL    HW228173   2.517   1.560   1.268
 9092SOL     OW28174   1.327   1.189   5.632
 9092SOL    HW128175   1.281   1.271   5.666
 9092SOL    HW228176   1.417   1.181   5.674
 9093SOL     OW28177   1.973   3.817   0.371
 9093SOL    HW128178   2.009   3.726   0.392
 9093SOL    HW228179   1.912   3.847   0.444
 9094SOL     OW28180   6.643   4.422   1.544
 9094SOL    HW128181   6.590   4.378   1.616
 9094SOL    HW228182   6.582   4.476   1.486
 9095SOL     OW28183   3.135   2.784   0.072
 9095SOL    HW128184   3.154   2.844   7.020
 9095SOL    HW228185   3.176   2.694   0.055
 9096SOL     OW28186   5.059   2.585   3.203
 9096SOL    HW128187   5.152   2.569   3.170
 9096SOL    HW228188   5.044   2.683   3.215
 9097SOL     OW28189   1.053   5.195   6.420
 9097SOL    HW128190   0.956   5.194   6.443
 9097SOL    HW228191   1.065   5.226   6.326
 9098SOL     OW28192   4.132   3.667   2.856
 9098SOL    HW128193   4.150   3.578   2.899
 9098SOL    HW228194   4.164   3.665   2.761
 9099SOL     OW28195   2.154   3.190   0.754
 9099SOL    HW128196   2.191   3.097   0.756
 9099SOL    HW228197   2.104   3.205   0.669
 9100SOL     OW28198   0.214   2.879   1.172
 9100SOL    HW128199   0.266   2.798   1.198
 9100SOL    HW228200   0.251   2.919   1.089
 9101SOL     OW28201   1.777   2.825   1.490
 9101SOL    HW128202   1.830   2.752   1.534
 9101SOL    HW228203   1.818   2.914   1.513
 9102SOL     OW28204   3.716   5.481   2.542
 9102SOL    HW128205   3.730   5.574   2.508
 9102SOL    HW228206   3.792   5.456   2.603
 9103SOL     OW28207   0.281   3.804   0.667
 9103SOL    HW128208   0.371   3.813   0.625
 9103SOL    HW228209   0.257   3.707   0.675
 9104SOL     OW28210   4.509   6.614   1.274
 9104SOL    HW128211   4.572   6.536   1.276
 9104SOL    HW228212   4.561   6.698   1.289
 9105SOL     OW28213   1.706   1.741   5.336
 9105SOL    HW128214   1.794   1.770   5.375
 9105SOL    HW228215   1.643   1.819   5.338
 9106SOL     OW28216   6.105   5.101   0.934
 9106SOL    HW128217   6.074   5.041   1.009
 9106SOL    HW228218   6.067   5.068   0.848
 9107SOL     OW28219   4.087   0.344   1.437
 9107SOL    HW128220   4.074   0.312   1.530
 9107SOL    HW228221   4.184   0.344   1.414
 9108SOL     OW28222   4.756   5.713   5.741
 9108SOL    HW128223   4.671   5.662   5.756
 9108SOL    HW228224   4.823   5.688   5.810
 9109SOL     OW28225   2.956   1.925   3.845
 9109SOL    HW128226   2.975   1.878   3.759
 9109SOL    HW228227   2.902   2.008   3.827
 9110SOL     OW28228   1.716   4.065   3.688
 9110SOL    HW128229   1.781   4.130   3.726
 9110SOL    HW228230   1.636   4.114   3.653
 9111SOL     OW28231   3.813   4.064   1.732
 9111SOL    HW128232   3.796   4.148   1.783
 9111SOL    HW228233   3.728   4.034   1.689
 9112SOL     OW28234   0.384   4.375   2.274
 9112SOL    HW128235   0.331   4.392   2.357
 9112SOL    HW228236   0.378   4.278   2.250
 9113SOL     OW28237   4.458   6.877   0.666
 9113SOL    HW128238   4.485   6.845   0.575
 9113SOL    HW228239   4.382   6.822   0.701
 9114SOL     OW28240   2.994   4.787   1.562
 9114SOL    HW128241   3.003   4.768   1.660
 9114SOL    HW228242   2.931   4.722   1.520
 9115SOL     OW28243   1.420   4.696   5.168
 9115SOL    HW128244   1.417   4.596   5.160
 9115SOL    HW228245   1.348   4.727   5.230
 9116SOL     OW28246   0.144   1.139   6.098
 9116SOL    HW128247   0.157   1.215   6.162
 9116SOL    HW228248   0.085   1.070   6.140
 9117SOL     OW28249   6.782   2.529   0.017
 9117SOL    HW128250   6.793   2.600   6.973
 9117SOL    HW228251   6.871   2.489   0.038
 9118SOL     OW28252   6.533   6.538   1.870
 9118SOL    HW128253   6.592   6.582   1.802
 9118SOL    HW228254   6.503   6.605   1.937
 9119SOL     OW28255   6.565   0.233   1.893
 9119SOL    HW128256   6.604   0.176   1.965
 9119SOL    HW228257   6.613   0.215   1.807
 9120SOL     OW28258   5.512   0.982   6.091
 9120SOL    HW128259   5.602   0.971   6.131
 9120SOL    HW228260   5.464   1.056   6.138
 9121SOL     OW28261   0.499   1.652   6.049
 9121SOL    HW128262   0.458   1.714   6.116
 9121SOL    HW228263   0.528   1.568   6.095
 9122SOL     OW28264   1.847   3.125   3.123
 9122SOL    HW128265   1.846   3.031   3.090
 9122SOL    HW228266   1.767   3.173   3.089
 9123SOL     OW28267   2.546   5.996   6.711
 9123SOL    HW128268   2.595   5.979   6.797
 9123SOL    HW228269   2.460   6.043   6.730
 9124SOL     OW28270   6.666   5.745   5.190
 9124SOL    HW128271   6.759   5.732   5.156
 9124SOL    HW228272   6.617   5.809   5.130
 9125SOL     OW28273   4.886   4.170   3.701
 9125SOL    HW128274   4.822   4.198   3.628
 9125SOL    HW228275   4.883   4.071   3.711
 9126SOL     OW28276   6.432   0.519   2.090
 9126SOL    HW128277   6.510   0.552   2.143
 9126SOL    HW228278   6.437   0.419   2.083
 9127SOL     OW28279   5.101   0.238   0.056
 9127SOL    HW128280   5.075   0.183   7.002
 9127SOL    HW228281   5.079   0.188   0.140
 9128SOL     OW28282   3.838   2.224   5.228
 9128SOL    HW128283   3.922   2.262   5.265
 9128SOL    HW228284   3.858   2.177   5.141
 9129SOL     OW28285   2.066   1.595   6.369
 9129SOL    HW128286   2.032   1.533   6.298
 9129SOL    HW228287   1.990   1.625   6.427
 9130SOL     OW28288   5.938   4.771   0.713
 9130SOL    HW128289   5.959   4.735   0.804
 9130SOL    HW228290   5.975   4.863   0.704
 9131SOL     OW28291   0.785   3.860   4.410
 9131SOL    HW128292   0.737   3.938   4.371
 9131SOL    HW228293   0.757   3.776   4.363
 9132SOL     OW28294   6.505   3.521   4.440
 9132SOL    HW128295   6.421   3.574   4.439
 9132SOL    HW228296   6.565   3.553   4.513
 9133SOL     OW28297   2.436   4.524   0.862
 9133SOL    HW128298   2.512   4.489   0.807
 9133SOL    HW228299   2.467   4.541   0.955
 9134SOL     OW28300   2.936   6.188   6.657
 9134SOL    HW128301   3.001   6.123   6.695
 9134SOL    HW228302   2.984   6.253   6.597
 9135SOL     OW28303   6.367   5.782   3.845
 9135SOL    HW128304   6.353   5.762   3.748
 9135SOL    HW228305   6.402   5.701   3.891
 9136SOL     OW28306   5.086   5.432   5.726
 9136SOL    HW128307   5.148   5.397   5.796
 9136SOL    HW228308   5.128   5.423   5.636
 9137SOL     OW28309   4.252   1.037   1.944
 9137SOL    HW128310   4.202   1.114   1.982
 9137SOL    HW228311   4.339   1.026   1.992
 9138SOL     OW28312   5.328   5.249   6.233
 9138SOL    HW128313   5.383   5.194   6.170
 9138SOL    HW228314   5.255   5.192   6.271
 9139SOL     OW28315   3.853   1.316   5.120
 9139SOL    HW128316   3.879   1.241   5.059
 9139SOL    HW228317   3.862   1.286   5.215
 9140SOL     OW28318   6.726   2.464   2.316
 9140SOL    HW128319   6.659   2.537   2.301
 9140SOL    HW228320   6.802   2.475   2.252
 9141SOL     OW28321   5.359   0.103   5.491
 9141SOL    HW128322   5.343   0.192   5.447
 9141SOL    HW228323   5.440   0.060   5.451
 9142SOL     OW28324   0.517   3.041   6.170
 9142SOL    HW128325   0.434   3.097   6.163
 9142SOL    HW228326   0.540   3.007   6.079
 9143SOL     OW28327   4.578   3.498   0.529
 9143SOL    HW128328   4.657   3.558   0.529
 9143SOL    HW228329   4.513   3.527   0.599
 9144SOL     OW28330   2.401   5.723   5.448
 9144SOL    HW128331   2.382   5.635   5.405
 9144SOL    HW228332   2.413   5.794   5.378
 9145SOL     OW28333   0.187   4.542   6.883
 9145SOL    HW128334   0.087   4.545   6.872
 9145SOL    HW228335   0.210   4.541   6.980
 9146SOL     OW28336   6.267   2.787   1.429
 9146SOL    HW128337   6.189   2.735   1.394
 9146SOL    HW228338   6.242   2.884   1.433
 9147SOL     OW28339   4.432   5.524   4.010
 9147SOL    HW128340   4.423   5.475   3.924
 9147SOL    HW228341   4.437   5.459   4.085
 9148SOL     OW28342   4.986   5.770   3.169
 9148SOL    HW128343   4.971   5.832   3.246
 9148SOL    HW228344   5.084   5.755   3.156
 9149SOL     OW28345   5.102   2.999   4.769
 9149SOL    HW128346   5.181   3.002   4.831
 9149SOL    HW228347   5.018   3.008   4.822
 9150SOL     OW28348   5.090   6.938   3.452
 9150SOL    HW128349   5.094   6.843   3.484
 9150SOL    HW228350   5.178   6.983   3.469
 9151SOL     OW28351   1.332   4.202   2.260
 9151SOL    HW128352   1.323   4.227   2.164
 9151SOL    HW228353   1.429   4.204   2.286
 9152SOL     OW28354   2.500   6.448   3.155
 9152SOL    HW128355   2.562   6.421   3.229
 9152SOL    HW228356   2.456   6.535   3.180
 9153SOL     OW28357   1.876   2.626   6.856
 9153SOL    HW128358   1.938   2.678   6.798
 9153SOL    HW228359   1.803   2.586   6.800
 9154SOL     OW28360   2.711   5.534   6.758
 9154SOL    HW128361   2.744   5.582   6.677
 9154SOL    HW228362   2.632   5.583   6.796
 9155SOL     OW28363   2.058   4.076   6.123
 9155SOL    HW128364   2.118   4.004   6.087
 9155SOL    HW228365   2.096   4.166   6.101
 9156SOL     OW28366   3.744   2.138   1.159
 9156SOL    HW128367   3.674   2.100   1.219
 9156SOL    HW228368   3.805   2.197   1.212
 9157SOL     OW28369   5.373   4.209   5.411
 9157SOL    HW128370   5.422   4.132   5.451
 9157SOL    HW228371   5.425   4.246   5.334
 9158SOL     OW28372   0.237   3.596   4.603
 9158SOL    HW128373   0.212   3.499   4.598
 9158SOL    HW228374   0.165   3.652   4.564
 9159SOL     OW28375   0.239   5.151   2.368
 9159SOL    HW128376   0.243   5.123   2.464
 9159SOL    HW228377   0.273   5.076   2.311
 9160SOL     OW28378   1.084   6.832   5.982
 9160SOL    HW128379   1.010   6.892   6.013
 9160SOL    HW228380   1.102   6.763   6.052
 9161SOL     OW28381   5.037   3.879   4.927
 9161SOL    HW128382   5.018   3.813   4.855
 9161SOL    HW228383   5.130   3.864   4.962
 9162SOL     OW28384   4.984   3.162   2.659
 9162SOL    HW128385   4.912   3.174   2.591
 9162SOL    HW228386   4.964   3.080   2.714
 9163SOL     OW28387   2.824   2.197   3.824
 9163SOL    HW128388   2.896   2.232   3.884
 9163SOL    HW228389   2.812   2.259   3.747
 9164SOL     OW28390   2.761   0.683   6.665
 9164SOL    HW128391   2.851   0.669   6.707
 9164SOL    HW228392   2.691   0.688   6.736
 9165SOL     OW28393   5.638   0.718   6.434
 9165SOL    HW128394   5.616   0.726   6.337
 9165SOL    HW228395   5.556   0.733   6.488
 9166SOL     OW28396   3.993   5.364   0.987
 9166SOL    HW128397   3.920   5.312   1.030
 9166SOL    HW228398   3.992   5.347   0.888
 9167SOL     OW28399   1.528   3.583   5.865
 9167SOL    HW128400   1.554   3.487   5.877
 9167SOL    HW228401   1.502   3.622   5.953
 9168SOL     OW28402   2.063   6.894   5.524
 9168SOL    HW128403   1.999   6.873   5.450
 9168SOL    HW228404   2.153   6.912   5.486
 9169SOL     OW28405   0.202   1.109   4.651
 9169SOL    HW128406   0.238   1.202   4.655
 9169SOL    HW228407   0.227   1.067   4.563
 9170SOL     OW28408   7.012   5.199   0.273
 9170SOL    HW128409   0.036   5.145   0.205
 9170SOL    HW228410   6.919   5.217   0.240
 9171SOL     OW28411   2.886   6.123   0.022
 9171SOL    HW128412   2.957   6.101   6.981
 9171SOL    HW228413   2.926   6.126   0.114
 9172SOL     OW28414   3.647   0.952   4.227
 9172SOL    HW128415   3.698   1.004   4.296
 9172SOL    HW228416   3.637   0.857   4.257
 9173SOL     OW28417   6.172   5.032   4.969
 9173SOL    HW128418   6.159   4.933   4.964
 9173SOL    HW228419   6.259   5.051   5.015
 9174SOL     OW28420   6.673   4.593   0.453
 9174SOL    HW128421   6.645   4.677   0.498
 9174SOL    HW228422   6.603   4.565   0.387
 9175SOL     OW28423   2.302   5.992   5.796
 9175SOL    HW128424   2.216   6.018   5.753
 9175SOL    HW228425   2.331   6.064   5.859
 9176SOL     OW28426   2.081   0.954   5.440
 9176SOL    HW128427   2.173   0.938   5.404
 9176SOL    HW228428   2.056   1.050   5.425
 9177SOL     OW28429   1.387   3.851   4.170
 9177SOL    HW128430   1.324   3.868   4.245
 9177SOL    HW228431   1.346   3.786   4.106
 9178SOL     OW28432   2.249   5.465   0.885
 9178SOL    HW128433   2.171   5.445   0.943
 9178SOL    HW228434   2.227   5.440   0.790
 9179SOL     OW28435   2.973   5.450   4.065
 9179SOL    HW128436   2.950   5.440   4.161
 9179SOL    HW228437   2.890   5.469   4.012
 9180SOL     OW28438   6.044   2.267   3.638
 9180SOL    HW128439   6.109   2.342   3.625
 9180SOL    HW228440   6.055   2.229   3.730
 9181SOL     OW28441   4.650   1.731   2.549
 9181SOL    HW128442   4.653   1.831   2.548
 9181SOL    HW228443   4.653   1.697   2.455
 9182SOL     OW28444   1.406   5.802   2.414
 9182SOL    HW128445   1.438   5.893   2.389
 9182SOL    HW228446   1.386   5.799   2.512
 9183SOL     OW28447   5.165   6.459   0.741
 9183SOL    HW128448   5.086   6.449   0.680
 9183SOL    HW228449   5.226   6.529   0.705
 9184SOL     OW28450   5.519   6.871   0.700
 9184SOL    HW128451   5.541   6.929   0.778
 9184SOL    HW228452   5.599   6.817   0.674
 9185SOL     OW28453   4.199   0.777   5.494
 9185SOL    HW128454   4.167   0.735   5.580
 9185SOL    HW228455   4.135   0.848   5.466
 9186SOL     OW28456   6.567   0.733   4.849
 9186SOL    HW128457   6.479   0.764   4.814
 9186SOL    HW228458   6.569   0.633   4.852
 9187SOL     OW28459   2.278   6.598   2.158
 9187SOL    HW128460   2.179   6.608   2.147
 9187SOL    HW228461   2.317   6.685   2.188
 9188SOL     OW28462   2.791   6.672   1.070
 9188SOL    HW128463   2.726   6.719   1.010
 9188SOL    HW228464   2.881   6.717   1.062
 9189SOL     OW28465   5.709   5.509   2.771
 9189SOL    HW128466   5.654   5.592   2.759
 9189SOL    HW228467   5.650   5.433   2.799
 9190SOL     OW28468   1.948   5.462   0.153
 9190SOL    HW128469   1.982   5.374   0.185
 9190SOL    HW228470   1.918   5.517   0.231
 9191SOL     OW28471   6.410   0.359   5.377
 9191SOL    HW128472   6.324   0.394   5.413
 9191SOL    HW228473   6.475   0.435   5.365
 9192SOL     OW28474   0.286   4.059   4.876
 9192SOL    HW128475   0.301   3.962   4.857
 9192SOL    HW228476   0.196   4.070   4.919
 9193SOL     OW28477   3.289   3.379   0.087
 9193SOL    HW128478   3.382   3.359   0.054
 9193SOL    HW228479   3.265   3.314   0.159
 9194SOL     OW28480   3.215   0.750   4.255
 9194SOL    HW128481   3.194   0.845   4.231
 9194SOL    HW228482   3.131   0.696   4.258
 9195SOL     OW28483   2.275   2.406   4.603
 9195SOL    HW128484   2.340   2.478   4.629
 9195SOL    HW228485   2.325   2.322   4.583
 9196SOL     OW28486   4.631   1.399   4.980
 9196SOL    HW128487   4.579   1.360   4.904
 9196SOL    HW228488   4.568   1.428   5.052
 9197SOL     OW28489   2.443   3.602   1.212
 9197SOL    HW128490   2.426   3.679   1.150
 9197SOL    HW228491   2.463   3.520   1.159
 9198SOL     OW28492   6.539   5.396   5.358
 9198SOL    HW128493   6.504   5.345   5.437
 9198SOL    HW228494   6.469   5.396   5.286
 9199SOL     OW28495   0.217   4.141   6.177
 9199SOL    HW128496   0.130   4.160   6.131
 9199SOL    HW228497   0.248   4.049   6.153
 9200SOL     OW28498   2.966   0.442   0.919
 9200SOL    HW128499   2.985   0.523   0.864
 9200SOL    HW228500   2.872   0.446   0.952
 9201SOL     OW28501   1.337   3.270   6.684
 9201SOL    HW128502   1.255   3.325   6.698
 9201SOL    HW228503   1.318   3.175   6.709
 9202SOL     OW28504   1.861   6.602   2.982
 9202SOL    HW128505   1.922   6.611   3.061
 9202SOL    HW228506   1.896   6.530   2.922
 9203SOL     OW28507   6.889   5.408   0.613
 9203SOL    HW128508   6.953   5.391   0.538
 9203SOL    HW228509   6.867   5.321   0.658
 9204SOL     OW28510   5.354   1.165   6.258
 9204SOL    HW128511   5.265   1.159   6.212
 9204SOL    HW228512   5.341   1.167   6.357
 9205SOL     OW28513   6.707   3.618   2.803
 9205SOL    HW128514   6.784   3.656   2.854
 9205SOL    HW228515   6.625   3.621   2.860
 9206SOL     OW28516   3.793   5.539   0.643
 9206SOL    HW128517   3.771   5.479   0.567
 9206SOL    HW228518   3.883   5.581   0.627
 9207SOL     OW28519   4.728   5.800   0.485
 9207SOL    HW128520   4.740   5.865   0.561
 9207SOL    HW228521   4.731   5.707   0.520
 9208SOL     OW28522   6.749   3.888   4.596
 9208SOL    HW128523   6.656   3.895   4.561
 9208SOL    HW228524   6.774   3.792   4.607
 9209SOL     OW28525   3.092   1.348   6.717
 9209SOL    HW128526   3.010   1.332   6.771
 9209SOL    HW228527   3.144   1.423   6.757
 9210SOL     OW28528   6.612   1.336   2.730
 9210SOL    HW128529   6.699   1.309   2.690
 9210SOL    HW228530   6.544   1.347   2.657
 9211SOL     OW28531   0.083   2.639   4.017
 9211SOL    HW128532   0.071   2.546   3.982
 9211SOL    HW228533   0.174   2.647   4.059
 9212SOL     OW28534   3.444   5.468   4.390
 9212SOL    HW128535   3.365   5.507   4.439
 9212SOL    HW228536   3.465   5.525   4.310
 9213SOL     OW28537   5.667   3.377   5.905
 9213SOL    HW128538   5.711   3.460   5.938
 9213SOL    HW228539   5.717   3.297   5.936
 9214SOL     OW28540   0.332   5.700   0.174
 9214SOL    HW128541   0.296   5.757   0.248
 9214SOL    HW228542   0.342   5.755   0.092
 9215SOL     OW28543   1.276   1.071   0.417
 9215SOL    HW128544   1.246   1.163   0.392
 9215SOL    HW228545   1.209   1.030   0.480
 9216SOL     OW28546   2.711   0.298   3.005
 9216SOL    HW128547   2.803   0.306   3.044
 9216SOL    HW228548   2.717   0.255   2.915
 9217SOL     OW28549   0.022   1.818   6.460
 9217SOL    HW128550   0.058   1.883   6.527
 9217SOL    HW228551   7.020   1.734   6.506
 9218SOL     OW28552   3.306   6.677   0.367
 9218SOL    HW128553   3.320   6.674   0.465
 9218SOL    HW228554   3.386   6.717   0.323
 9219SOL     OW28555   1.246   2.440   1.046
 9219SOL    HW128556   1.211   2.534   1.039
 9219SOL    HW228557   1.232   2.406   1.139
 9220SOL     OW28558   3.654   6.688   1.563
 9220SOL    HW128559   3.565   6.649   1.586
 9220SOL    HW228560   3.699   6.720   1.647
 9221SOL     OW28561   3.213   6.506   3.666
 9221SOL    HW128562   3.116   6.530   3.662
 9221SOL    HW228563   3.266   6.572   3.612
 9222SOL     OW28564   2.215   1.145   6.455
 9222SOL    HW128565   2.118   1.140   6.433
 9222SOL    HW228566   2.245   1.240   6.450
 9223SOL     OW28567   1.729   2.959   5.271
 9223SOL    HW128568   1.788   2.981   5.193
 9223SOL    HW228569   1.641   2.925   5.239
 9224SOL     OW28570   2.074   5.222   4.492
 9224SOL    HW128571   2.087   5.305   4.438
 9224SOL    HW228572   2.146   5.216   4.562
 9225SOL     OW28573   3.270   6.210   6.789
 9225SOL    HW128574   3.256   6.275   6.864
 9225SOL    HW228575   3.296   6.259   6.706
 9226SOL     OW28576   5.284   6.324   1.555
 9226SOL    HW128577   5.300   6.421   1.577
 9226SOL    HW228578   5.371   6.281   1.532
 9227SOL     OW28579   1.030   5.106   2.740
 9227SOL    HW128580   1.098   5.179   2.724
 9227SOL    HW228581   0.977   5.092   2.657
 9228SOL     OW28582   1.358   1.055   5.900
 9228SOL    HW128583   1.369   1.055   5.999
 9228SOL    HW228584   1.446   1.071   5.857
 9229SOL     OW28585   1.212   5.522   3.895
 9229SOL    HW128586   1.140   5.590   3.883
 9229SOL    HW228587   1.296   5.554   3.851
 9230SOL     OW28588   5.556   0.465   3.678
 9230SOL    HW128589   5.612   0.464   3.761
 9230SOL    HW228590   5.469   0.509   3.698
 9231SOL     OW28591   1.363   2.886   4.354
 9231SOL    HW128592   1.369   2.922   4.447
 9231SOL    HW228593   1.413   2.946   4.292
 9232SOL     OW28594   3.409   5.348   0.595
 9232SOL    HW128595   3.341   5.306   0.534
 9232SOL    HW228596   3.427   5.442   0.565
 9233SOL     OW28597   5.610   5.017   1.323
 9233SOL    HW128598   5.574   4.953   1.255
 9233SOL    HW228599   5.683   5.072   1.283
 9234SOL     OW28600   2.898   5.579   3.384
 9234SOL    HW128601   2.859   5.662   3.343
 9234SOL    HW228602   2.887   5.584   3.484
 9235SOL     OW28603   1.560   2.099   3.372
 9235SOL    HW128604   1.523   2.053   3.291
 9235SOL    HW228605   1.623   2.170   3.343
 9236SOL     OW28606   3.408   3.937   5.425
 9236SOL    HW128607   3.411   4.034   5.448
 9236SOL    HW228608   3.318   3.900   5.450
 9237SOL     OW28609   1.294   3.704   3.955
 9237SOL    HW128610   1.230   3.631   3.934
 9237SOL    HW228611   1.384   3.681   3.920
 9238SOL     OW28612   4.890   3.131   6.599
 9238SOL    HW128613   4.890   3.117   6.698
 9238SOL    HW228614   4.907   3.044   6.553
 9239SOL     OW28615   0.649   3.703   1.194
 9239SOL    HW128616   0.638   3.624   1.134
 9239SOL    HW228617   0.712   3.681   1.269
 9240SOL     OW28618   5.421   1.647   1.507
 9240SOL    HW128619   5.519   1.635   1.496
 9240SOL    HW228620   5.376   1.558   1.511
 9241SOL     OW28621   6.892   5.423   6.809
 9241SOL    HW128622   6.870   5.520   6.821
 9241SOL    HW228623   6.991   5.410   6.813
 9242SOL     OW28624   6.894   5.993   1.483
 9242SOL    HW128625   6.795   6.003   1.493
 9242SOL    HW228626   6.922   6.030   1.395
 9243SOL     OW28627   6.704   6.077   4.343
 9243SOL    HW128628   6.804   6.086   4.340
 9243SOL    HW228629   6.680   5.998   4.399
 9244SOL     OW28630   4.595   5.823   6.545
 9244SOL    HW128631   4.518   5.837   6.482
 9244SOL    HW228632   4.602   5.726   6.568
 9245SOL     OW28633   0.597   5.630   2.482
 9245SOL    HW128634   0.648   5.551   2.450
 9245SOL    HW228635   0.660   5.705   2.505
 9246SOL     OW28636   6.614   5.128   3.827
 9246SOL    HW128637   6.554   5.164   3.756
 9246SOL    HW228638   6.675   5.201   3.859
 9247SOL     OW28639   0.889   6.871   2.765
 9247SOL    HW128640   0.959   6.799   2.767
 9247SOL    HW228641   0.851   6.882   2.857
 9248SOL     OW28642   2.785   2.619   6.223
 9248SOL    HW128643   2.740   2.530   6.227
 9248SOL    HW228644   2.857   2.616   6.154
 9249SOL     OW28645   5.535   1.628   4.332
 9249SOL    HW128646   5.618   1.576   4.310
 9249SOL    HW228647   5.534   1.713   4.280
 9250SOL     OW28648   4.845   3.851   3.966
 9250SOL    HW128649   4.787   3.923   3.928
 9250SOL    HW228650   4.829   3.844   4.064
 9251SOL     OW28651   3.641   1.591   2.970
 9251SOL    HW128652   3.697   1.658   3.019
 9251SOL    HW228653   3.568   1.639   2.922
 9252SOL     OW28654   0.102   6.739   4.939
 9252SOL    HW128655   0.103   6.740   5.039
 9252SOL    HW228656   0.132   6.828   4.905
 9253SOL     OW28657   2.420   6.488   5.981
 9253SOL    HW128658   2.340   6.544   5.960
 9253SOL    HW228659   2.460   6.453   5.896
 9254SOL     OW28660   5.689   3.765   1.518
 9254SOL    HW128661   5.755   3.690   1.521
 9254SOL    HW228662   5.602   3.731   1.483
 9255SOL     OW28663   5.320   3.618   0.390
 9255SOL    HW128664   5.245   3.623   0.455
 9255SOL    HW228665   5.389   3.553   0.422
 9256SOL     OW28666   4.188   4.763   2.132
 9256SOL    HW128667   4.171   4.691   2.065
 9256SOL    HW228668   4.106   4.777   2.187
 9257SOL     OW28669   0.815   4.041   2.280
 9257SOL    HW128670   0.723   4.006   2.263
 9257SOL    HW228671   0.831   4.044   2.379
 9258SOL     OW28672   3.451   2.852   3.715
 9258SOL    HW128673   3.432   2.890   3.625
 9258SOL    HW228674   3.428   2.754   3.716
 9259SOL     OW28675   1.038   2.115   1.232
 9259SOL    HW128676   1.018   2.116   1.134
 9259SOL    HW228677   0.976   2.052   1.278
 9260SOL     OW28678   4.737   2.856   6.150
 9260SOL    HW128679   4.642   2.887   6.141
 9260SOL    HW228680   4.783   2.911   6.219
 9261SOL     OW28681   3.710   0.260   6.392
 9261SOL    HW128682   3.633   0.271   6.455
 9261SOL    HW228683   3.701   0.324   6.316
 9262SOL     OW28684   5.769   1.675   5.066
 9262SOL    HW128685   5.671   1.692   5.057
 9262SOL    HW228686   5.799   1.615   4.991
 9263SOL     OW28687   5.182   4.007   1.307
 9263SOL    HW128688   5.130   4.014   1.222
 9263SOL    HW228689   5.278   3.988   1.286
 9264SOL     OW28690   6.451   3.490   6.907
 9264SOL    HW128691   6.510   3.424   6.954
 9264SOL    HW228692   6.432   3.567   6.968
 9265SOL     OW28693   2.549   2.001   0.064
 9265SOL    HW128694   2.591   1.930   0.120
 9265SOL    HW228695   2.566   2.090   0.107
 9266SOL     OW28696   2.346   6.013   2.623
 9266SOL    HW128697   2.281   6.012   2.547
 9266SOL    HW228698   2.322   5.940   2.687
 9267SOL     OW28699   0.482   3.691   4.534
 9267SOL    HW128700   0.500   3.762   4.602
 9267SOL    HW228701   0.398   3.642   4.558
 9268SOL     OW28702   0.148   6.751   2.456
 9268SOL    HW128703   0.059   6.731   2.497
 9268SOL    HW228704   0.210   6.673   2.471
 9269SOL     OW28705   3.043   1.924   6.791
 9269SOL    HW128706   3.032   1.887   6.699
 9269SOL    HW228707   2.959   1.908   6.843
 9270SOL     OW28708   6.830   6.649   5.564
 9270SOL    HW128709   6.833   6.703   5.480
 9270SOL    HW228710   6.777   6.698   5.633
 9271SOL     OW28711   1.346   6.780   1.150
 9271SOL    HW128712   1.256   6.816   1.172
 9271SOL    HW228713   1.412   6.855   1.145
 9272SOL     OW28714   2.575   4.378   6.599
 9272SOL    HW128715   2.528   4.342   6.518
 9272SOL    HW228716   2.587   4.305   6.666
 9273SOL     OW28717   4.599   5.245   3.740
 9273SOL    HW128718   4.572   5.269   3.646
 9273SOL    HW228719   4.557   5.158   3.765
 9274SOL     OW28720   5.225   2.647   6.652
 9274SOL    HW128721   5.311   2.696   6.666
 9274SOL    HW228722   5.158   2.677   6.721
 9275SOL     OW28723   0.884   1.124   6.428
 9275SOL    HW128724   0.911   1.114   6.524
 9275SOL    HW228725   0.798   1.076   6.412
 9276SOL     OW28726   3.676   5.649   4.581
 9276SOL    HW128727   3.691   5.744   4.555
 9276SOL    HW228728   3.719   5.588   4.514
 9277SOL     OW28729   3.634   3.405   6.863
 9277SOL    HW128730   3.632   3.438   6.957
 9277SOL    HW228731   3.643   3.482   6.800
 9278SOL     OW28732   1.126   1.808   3.961
 9278SOL    HW128733   1.086   1.869   3.892
 9278SOL    HW228734   1.195   1.750   3.917
 9279SOL     OW28735   3.702   0.485   2.216
 9279SOL    HW128736   3.773   0.552   2.193
 9279SOL    HW228737   3.730   0.434   2.297
 9280SOL     OW28738   1.419   6.831   3.618
 9280SOL    HW128739   1.476   6.842   3.699
 9280SOL    HW228740   1.333   6.881   3.630
 9281SOL     OW28741   2.419   2.664   0.724
 9281SOL    HW128742   2.324   2.648   0.699
 9281SOL    HW228743   2.442   2.607   0.803
 9282SOL     OW28744   4.493   1.655   4.257
 9282SOL    HW128745   4.536   1.629   4.171
 9282SOL    HW228746   4.539   1.609   4.333
 9283SOL     OW28747   6.571   2.312   2.633
 9283SOL    HW128748   6.487   2.346   2.592
 9283SOL    HW228749   6.645   2.314   2.566
 9284SOL     OW28750   3.831   3.701   1.109
 9284SOL    HW128751   3.753   3.638   1.109
 9284SOL    HW228752   3.799   3.793   1.090
 9285SOL     OW28753   6.673   2.938   6.923
 9285SOL    HW128754   6.642   2.867   6.987
 9285SOL    HW228755   6.595   2.981   6.878
 9286SOL     OW28756   5.610   0.002   5.330
 9286SOL    HW128757   5.683   0.040   5.386
 9286SOL    HW228758   5.642   7.018   5.236
 9287SOL     OW28759   2.920   5.828   1.513
 9287SOL    HW128760   2.831   5.802   1.550
 9287SOL    HW228761   2.925   5.806   1.416
 9288SOL     OW28762   4.044   2.119   5.737
 9288SOL    HW128763   3.944   2.116   5.737
 9288SOL    HW228764   4.077   2.111   5.831
 9289SOL     OW28765   5.096   2.394   2.406
 9289SOL    HW128766   5.123   2.319   2.345
 9289SOL    HW228767   5.067   2.472   2.352
 9290SOL     OW28768   4.161   2.207   4.932
 9290SOL    HW128769   4.179   2.298   4.971
 9290SOL    HW228770   4.122   2.217   4.841
 9291SOL     OW28771   1.645   0.421   5.138
 9291SOL    HW128772   1.624   0.504   5.190
 9291SOL    HW228773   1.603   0.427   5.047
 9292SOL     OW28774   7.013   3.424   5.985
 9292SOL    HW128775   7.001   3.384   5.894
 9292SOL    HW228776   0.008   3.352   6.051
 9293SOL     OW28777   5.182   4.380   0.538
 9293SOL    HW128778   5.205   4.437   0.459
 9293SOL    HW228779   5.211   4.286   0.520
 9294SOL     OW28780   4.233   5.931   6.956
 9294SOL    HW128781   4.313   5.961   6.905
 9294SOL    HW228782   4.222   5.989   0.011
 9295SOL     OW28783   4.372   1.849   2.715
 9295SOL    HW128784   4.300   1.781   2.704
 9295SOL    HW228785   4.458   1.811   2.680
 9296SOL     OW28786   6.468   6.429   5.972
 9296SOL    HW128787   6.384   6.482   5.983
 9296SOL    HW228788   6.447   6.331   5.971
 9297SOL     OW28789   0.460   0.785   1.612
 9297SOL    HW128790   0.488   0.691   1.633
 9297SOL    HW228791   0.388   0.812   1.676
 9298SOL     OW28792   2.145   6.129   5.312
 9298SOL    HW128793   2.157   6.030   5.300
 9298SOL    HW228794   2.140   6.150   5.410
 9299SOL     OW28795   1.403   3.410   3.873
 9299SOL    HW128796   1.481   3.356   3.841
 9299SOL    HW228797   1.416   3.433   3.969
 9300SOL     OW28798   5.863   4.726   5.121
 9300SOL    HW128799   5.809   4.795   5.170
 9300SOL    HW228800   5.904   4.768   5.039
 9301SOL     OW28801   4.830   4.427   2.760
 9301SOL    HW128802   4.928   4.422   2.739
 9301SOL    HW228803   4.778   4.395   2.681
 9302SOL     OW28804   2.273   2.432   3.540
 9302SOL    HW128805   2.281   2.479   3.628
 9302SOL    HW228806   2.264   2.499   3.467
 9303SOL     OW28807   3.939   6.335   7.017
 9303SOL    HW128808   4.009   6.398   0.026
 9303SOL    HW228809   3.930   6.257   0.053
 9304SOL     OW28810   3.238   4.187   0.875
 9304SOL    HW128811   3.321   4.213   0.925
 9304SOL    HW228812   3.175   4.141   0.938
 9305SOL     OW28813   5.796   2.439   1.794
 9305SOL    HW128814   5.829   2.435   1.888
 9305SOL    HW228815   5.827   2.358   1.744
 9306SOL     OW28816   0.352   4.714   4.250
 9306SOL    HW128817   0.402   4.798   4.270
 9306SOL    HW228818   0.307   4.722   4.161
 9307SOL     OW28819   0.935   1.706   0.617
 9307SOL    HW128820   0.906   1.640   0.686
 9307SOL    HW228821   1.031   1.731   0.632
 9308SOL     OW28822   0.387   3.148   1.140
 9308SOL    HW128823   0.397   3.086   1.062
 9308SOL    HW228824   0.409   3.100   1.225
 9309SOL     OW28825   4.287   3.848   5.850
 9309SOL    HW128826   4.295   3.919   5.780
 9309SOL    HW228827   4.355   3.864   5.921
 9310SOL     OW28828   3.875   6.674   6.138
 9310SOL    HW128829   3.837   6.608   6.073
 9310SOL    HW228830   3.811   6.686   6.214
 9311SOL     OW28831   5.476   3.868   0.605
 9311SOL    HW128832   5.422   3.815   0.539
 9311SOL    HW228833   5.416   3.903   0.676
 9312SOL     OW28834   1.094   4.241   6.764
 9312SOL    HW128835   1.091   4.150   6.805
 9312SOL    HW228836   1.021   4.250   6.696
 9313SOL     OW28837   6.970   0.334   2.659
 9313SOL    HW128838   6.946   0.423   2.700
 9313SOL    HW228839   6.928   0.261   2.712
 9314SOL     OW28840   4.467   5.690   0.067
 9314SOL    HW128841   4.413   5.668   7.011
 9314SOL    HW228842   4.560   5.712   0.039
 9315SOL     OW28843   0.309   0.654   5.589
 9315SOL    HW128844   0.251   0.670   5.510
 9315SOL    HW228845   0.267   0.694   5.670
 9316SOL     OW28846   3.860   5.750   3.697
 9316SOL    HW128847   3.951   5.711   3.710
 9316SOL    HW228848   3.825   5.785   3.785
 9317SOL     OW28849   6.077   5.131   3.189
 9317SOL    HW128850   6.175   5.144   3.176
 9317SOL    HW228851   6.026   5.181   3.119
 9318SOL     OW28852   0.313   0.576   6.788
 9318SOL    HW128853   0.258   0.595   6.870
 9318SOL    HW228854   0.269   0.616   6.708
 9319SOL     OW28855   0.602   3.276   6.530
 9319SOL    HW128856   0.618   3.217   6.450
 9319SOL    HW228857   0.628   3.370   6.507
 9320SOL     OW28858   3.953   2.574   6.091
 9320SOL    HW128859   3.973   2.588   6.188
 9320SOL    HW228860   3.854   2.574   6.077
 9321SOL     OW28861   6.445   6.396   2.942
 9321SOL    HW128862   6.432   6.483   2.990
 9321SOL    HW228863   6.500   6.335   2.999
 9322SOL     OW28864   0.394   6.340   5.892
 9322SOL    HW128865   0.422   6.337   5.796
 9322SOL    HW228866   0.350   6.254   5.916
 9323SOL     OW28867   0.473   1.510   6.425
 9323SOL    HW128868   0.496   1.447   6.499
 9323SOL    HW228869   0.507   1.473   6.338
 9324SOL     OW28870   0.973   5.270   0.629
 9324SOL    HW128871   0.959   5.302   0.535
 9324SOL    HW228872   0.993   5.172   0.628
 9325SOL     OW28873   5.497   1.654   1.043
 9325SOL    HW128874   5.561   1.705   1.100
 9325SOL    HW228875   5.424   1.716   1.011
 9326SOL     OW28876   2.260   6.961   0.800
 9326SOL    HW128877   2.254   6.929   0.894
 9326SOL    HW228878   2.298   6.888   0.743
 9327SOL     OW28879   4.489   0.078   2.914
 9327SOL    HW128880   4.448   0.140   2.847
 9327SOL    HW228881   4.427   0.069   2.992
 9328SOL     OW28882   3.779   1.144   6.952
 9328SOL    HW128883   3.762   1.219   6.888
 9328SOL    HW228884   3.875   1.142   6.978
 9329SOL     OW28885   6.874   3.800   2.921
 9329SOL    HW128886   6.843   3.878   2.866
 9329SOL    HW228887   6.946   3.829   2.984
 9330SOL     OW28888   6.539   0.116   0.617
 9330SOL    HW128889   6.457   0.115   0.560
 9330SOL    HW228890   6.512   0.126   0.713
 9331SOL     OW28891   0.451   0.749   0.074
 9331SOL    HW128892   0.537   0.723   0.118
 9331SOL    HW228893   0.466   0.759   7.001
 9332SOL     OW28894   3.125   3.818   4.463
 9332SOL    HW128895   3.183   3.866   4.529
 9332SOL    HW228896   3.039   3.792   4.506
 9333SOL     OW28897   6.371   4.091   1.131
 9333SOL    HW128898   6.437   4.165   1.117
 9333SOL    HW228899   6.417   4.013   1.173
 9334SOL     OW28900   3.129   0.371   3.797
 9334SOL    HW128901   3.045   0.348   3.845
 9334SOL    HW228902   3.107   0.423   3.715
 9335SOL     OW28903   1.690   1.145   6.237
 9335SOL    HW128904   1.726   1.170   6.147
 9335SOL    HW228905   1.591   1.155   6.237
 9336SOL     OW28906   2.909   6.425   6.053
 9336SOL    HW128907   2.837   6.364   6.085
 9336SOL    HW228908   2.892   6.518   6.086
 9337SOL     OW28909   5.248   0.569   2.346
 9337SOL    HW128910   5.347   0.583   2.352
 9337SOL    HW228911   5.208   0.638   2.285
 9338SOL     OW28912   3.544   0.391   2.744
 9338SOL    HW128913   3.477   0.317   2.750
 9338SOL    HW228914   3.556   0.433   2.834
 9339SOL     OW28915   4.895   6.518   1.370
 9339SOL    HW128916   4.956   6.459   1.317
 9339SOL    HW228917   4.840   6.574   1.308
 9340SOL     OW28918   5.717   3.499   6.307
 9340SOL    HW128919   5.646   3.433   6.281
 9340SOL    HW228920   5.804   3.451   6.319
 9341SOL     OW28921   0.912   5.462   6.617
 9341SOL    HW128922   0.998   5.494   6.657
 9341SOL    HW228923   0.906   5.363   6.625
 9342SOL     OW28924   1.485   0.181   5.572
 9342SOL    HW128925   1.404   0.239   5.569
 9342SOL    HW228926   1.469   0.104   5.634
 9343SOL     OW28927   6.424   5.281   4.911
 9343SOL    HW128928   6.411   5.283   5.010
 9343SOL    HW228929   6.521   5.285   4.889
 9344SOL     OW28930   5.535   6.260   1.578
 9344SOL    HW128931   5.549   6.358   1.569
 9344SOL    HW228932   5.624   6.213   1.573
 9345SOL     OW28933   6.795   2.540   1.327
 9345SOL    HW128934   6.804   2.441   1.314
 9345SOL    HW228935   6.717   2.573   1.274
 9346SOL     OW28936   6.445   0.612   1.278
 9346SOL    HW128937   6.499   0.607   1.362
 9346SOL    HW228938   6.355   0.570   1.294
 9347SOL     OW28939   1.373   6.030   1.579
 9347SOL    HW128940   1.386   5.992   1.670
 9347SOL    HW228941   1.460   6.068   1.546
 9348SOL     OW28942   2.949   5.769   0.564
 9348SOL    HW128943   3.027   5.831   0.571
 9348SOL    HW228944   2.887   5.801   0.493
 9349SOL     OW28945   1.189   6.605   2.498
 9349SOL    HW128946   1.232   6.530   2.548
 9349SOL    HW228947   1.258   6.675   2.476
 9350SOL     OW28948   0.621   2.600   5.791
 9350SOL    HW128949   0.680   2.564   5.718
 9350SOL    HW228950   0.548   2.534   5.810
 9351SOL     OW28951   3.603   2.419   0.015
 9351SOL    HW128952   3.564   2.376   0.096
 9351SOL    HW228953   3.562   2.379   6.958
 9352SOL     OW28954   2.956   4.792   7.010
 9352SOL    HW128955   2.869   4.836   0.004
 9352SOL    HW228956   3.030   4.857   7.021
 9353SOL     OW28957   0.565   6.011   1.797
 9353SOL    HW128958   0.514   5.976   1.718
 9353SOL    HW228959   0.508   6.077   1.847
 9354SOL     OW28960   6.209   2.359   0.148
 9354SOL    HW128961   6.191   2.421   0.071
 9354SOL    HW228962   6.285   2.299   0.126
 9355SOL     OW28963   0.534   1.928   5.206
 9355SOL    HW128964   0.482   1.884   5.133
 9355SOL    HW228965   0.616   1.970   5.168
 9356SOL     OW28966   4.744   6.742   2.274
 9356SOL    HW128967   4.644   6.750   2.280
 9356SOL    HW228968   4.768   6.658   2.227
 9357SOL     OW28969   0.575   2.219   6.835
 9357SOL    HW128970   0.624   2.134   6.812
 9357SOL    HW228971   0.481   2.213   6.802
 9358SOL     OW28972   1.545   3.409   2.382
 9358SOL    HW128973   1.510   3.322   2.347
 9358SOL    HW228974   1.620   3.392   2.446
 9359SOL     OW28975   2.088   6.589   6.049
 9359SOL    HW128976   2.027   6.642   5.990
 9359SOL    HW228977   2.066   6.608   6.145
 9360SOL     OW28978   0.885   0.624   5.982
 9360SOL    HW128979   0.822   0.580   5.919
 9360SOL    HW228980   0.904   0.717   5.951
 9361SOL     OW28981   2.257   5.905   4.214
 9361SOL    HW128982   2.339   5.950   4.178
 9361SOL    HW228983   2.193   5.887   4.139
 9362SOL     OW28984   1.893   0.328   2.153
 9362SOL    HW128985   1.803   0.298   2.120
 9362SOL    HW228986   1.885   0.420   2.192
 9363SOL     OW28987   3.145   5.067   2.477
 9363SOL    HW128988   3.182   5.039   2.389
 9363SOL    HW228989   3.184   5.155   2.503
 9364SOL     OW28990   1.410   2.155   1.260
 9364SOL    HW128991   1.340   2.223   1.239
 9364SOL    HW228992   1.442   2.112   1.175
 9365SOL     OW28993   3.355   2.084   4.511
 9365SOL    HW128994   3.451   2.058   4.495
 9365SOL    HW228995   3.348   2.130   4.599
 9366SOL     OW28996   3.650   5.529   0.306
 9366SOL    HW128997   3.600   5.506   0.223
 9366SOL    HW228998   3.589   5.572   0.372
 9367SOL     OW28999   6.507   0.570   1.586
 9367SOL    HW129000   6.458   0.533   1.666
 9367SOL    HW229001   6.532   0.665   1.604
 9368SOL     OW29002   3.448   0.722   2.765
 9368SOL    HW129003   3.512   0.799   2.755
 9368SOL    HW229004   3.498   0.642   2.798
 9369SOL     OW29005   2.210   5.311   6.397
 9369SOL    HW129006   2.308   5.330   6.391
 9369SOL    HW229007   2.189   5.228   6.345
 9370SOL     OW29008   4.597   1.922   4.106
 9370SOL    HW129009   4.662   1.894   4.034
 9370SOL    HW229010   4.636   1.900   4.195
 9371SOL     OW29011   4.409   6.079   1.809
 9371SOL    HW129012   4.326   6.050   1.761
 9371SOL    HW229013   4.440   6.005   1.869
 9372SOL     OW29014   5.286   6.592   1.629
 9372SOL    HW129015   5.189   6.590   1.655
 9372SOL    HW229016   5.315   6.687   1.620
 9373SOL     OW29017   6.716   1.155   0.499
 9373SOL    HW129018   6.689   1.061   0.476
 9373SOL    HW229019   6.802   1.177   0.453
 9374SOL     OW29020   0.594   5.392   5.679
 9374SOL    HW129021   0.526   5.323   5.707
 9374SOL    HW229022   0.556   5.483   5.694
 9375SOL     OW29023   0.395   1.133   0.074
 9375SOL    HW129024   0.486   1.103   0.047
 9375SOL    HW229025   0.393   1.150   0.172
 9376SOL     OW29026   2.240   4.056   1.899
 9376SOL    HW129027   2.222   4.046   1.801
 9376SOL    HW229028   2.233   4.152   1.924
 9377SOL     OW29029   2.142   6.586   2.962
 9377SOL    HW129030   2.087   6.531   2.899
 9377SOL    HW229031   2.179   6.665   2.913
 9378SOL     OW29032   2.838   0.633   3.564
 9378SOL    HW129033   2.766   0.660   3.627
 9378SOL    HW229034   2.797   0.588   3.484
 9379SOL     OW29035   3.987   6.476   4.674
 9379SOL    HW129036   3.947   6.531   4.747
 9379SOL    HW229037   3.923   6.472   4.597
 9380SOL     OW29038   5.136   5.578   0.335
 9380SOL    HW129039   5.192   5.655   0.366
 9380SOL    HW229040   5.074   5.610   0.263
 9381SOL     OW29041   5.362   1.955   4.287
 9381SOL    HW129042   5.305   1.900   4.349
 9381SOL    HW229043   5.427   1.896   4.240
 9382SOL     OW29044   2.902   0.219   4.787
 9382SOL    HW129045   2.874   0.146   4.725
 9382SOL    HW229046   2.967   0.279   4.740
 9383SOL     OW29047   4.989   4.220   3.099
 9383SOL    HW129048   4.944   4.168   3.027
 9383SOL    HW229049   5.079   4.182   3.117
 9384SOL     OW29050   1.950   0.613   1.916
 9384SOL    HW129051   2.021   0.560   1.963
 9384SOL    HW229052   1.860   0.587   1.949
 9385SOL     OW29053   3.600   1.905   3.276
 9385SOL    HW129054   3.540   1.832   3.308
 9385SOL    HW229055   3.654   1.872   3.198
 9386SOL     OW29056   4.240   6.360   6.214
 9386SOL    HW129057   4.164   6.300   6.188
 9386SOL    HW229058   4.309   6.307   6.264
 9387SOL     OW29059   2.929   2.090   0.157
 9387SOL    HW129060   2.996   2.151   0.116
 9387SOL    HW229061   2.849   2.143   0.185
 9388SOL     OW29062   2.209   6.296   4.536
 9388SOL    HW129063   2.127   6.328   4.584
 9388SOL    HW229064   2.279   6.368   4.538
 9389SOL     OW29065   2.617   4.469   1.721
 9389SOL    HW129066   2.559   4.447   1.799
 9389SOL    HW229067   2.713   4.463   1.749
 9390SOL     OW29068   5.002   5.063   5.184
 9390SOL    HW129069   4.931   5.133   5.175
 9390SOL    HW229070   5.001   5.004   5.104
 9391SOL     OW29071   1.663   6.016   4.507
 9391SOL    HW129072   1.751   5.976   4.532
 9391SOL    HW229073   1.642   5.994   4.412
 9392SOL     OW29074   5.728   4.225   2.713
 9392SOL    HW129075   5.814   4.179   2.734
 9392SOL    HW229076   5.746   4.314   2.672
 9393SOL     OW29077   2.765   6.947   6.153
 9393SOL    HW129078   2.785   6.993   6.240
 9393SOL    HW229079   2.666   6.934   6.144
 9394SOL     OW29080   4.076   0.474   0.826
 9394SOL    HW129081   4.062   0.569   0.854
 9394SOL    HW229082   4.081   0.416   0.907
 9395SOL     OW29083   1.980   1.842   0.571
 9395SOL    HW129084   1.968   1.908   0.646
 9395SOL    HW229085   1.919   1.764   0.586
 9396SOL     OW29086   0.578   6.341   6.433
 9396SOL    HW129087   0.632   6.258   6.448
 9396SOL    HW229088   0.552   6.346   6.337
 9397SOL     OW29089   3.630   1.212   5.822
 9397SOL    HW129090   3.729   1.203   5.821
 9397SOL    HW229091   3.605   1.299   5.865
 9398SOL     OW29092   0.172   1.410   6.649
 9398SOL    HW129093   0.226   1.368   6.722
 9398SOL    HW229094   0.075   1.392   6.665
 9399SOL     OW29095   1.693   2.738   4.015
 9399SOL    HW129096   1.692   2.690   3.927
 9399SOL    HW229097   1.754   2.818   4.009
 9400SOL     OW29098   5.890   1.243   0.580
 9400SOL    HW129099   5.868   1.291   0.495
 9400SOL    HW229100   5.806   1.206   0.620
 9401SOL     OW29101   0.278   2.030   3.051
 9401SOL    HW129102   0.292   2.116   3.002
 9401SOL    HW229103   0.273   2.047   3.149
 9402SOL     OW29104   1.538   6.246   3.933
 9402SOL    HW129105   1.576   6.249   3.841
 9402SOL    HW229106   1.521   6.151   3.959
 9403SOL     OW29107   6.386   2.320   2.031
 9403SOL    HW129108   6.309   2.298   1.970
 9403SOL    HW229109   6.423   2.410   2.007
 9404SOL     OW29110   1.904   2.850   0.577
 9404SOL    HW129111   1.845   2.769   0.579
 9404SOL    HW229112   1.850   2.929   0.550
 9405SOL     OW29113   0.613   5.890   5.152
 9405SOL    HW129114   0.579   5.982   5.130
 9405SOL    HW229115   0.574   5.860   5.239
 9406SOL     OW29116   0.088   3.001   0.249
 9406SOL    HW129117   0.043   3.026   0.335
 9406SOL    HW229118   0.051   3.057   0.175
 9407SOL     OW29119   1.020   5.420   5.302
 9407SOL    HW129120   0.948   5.350   5.313
 9407SOL    HW229121   1.104   5.388   5.345
 9408SOL     OW29122   0.318   3.778   4.833
 9408SOL    HW129123   0.281   3.735   4.751
 9408SOL    HW229124   0.258   3.759   4.911
 9409SOL     OW29125   6.924   5.202   2.654
 9409SOL    HW129126   6.857   5.223   2.725
 9409SOL    HW229127   6.886   5.133   2.593
 9410SOL     OW29128   3.794   0.946   0.838
 9410SOL    HW129129   3.755   0.887   0.767
 9410SOL    HW229130   3.720   0.992   0.887
 9411SOL     OW29131   2.928   3.257   3.034
 9411SOL    HW129132   2.869   3.229   3.110
 9411SOL    HW229133   3.021   3.272   3.069
 9412SOL     OW29134   5.884   6.312   0.681
 9412SOL    HW129135   5.928   6.223   0.691
 9412SOL    HW229136   5.914   6.373   0.753
 9413SOL     OW29137   4.675   4.323   2.567
 9413SOL    HW129138   4.722   4.236   2.551
 9413SOL    HW229139   4.671   4.375   2.482
 9414SOL     OW29140   1.781   2.091   3.668
 9414SOL    HW129141   1.800   2.163   3.602
 9414SOL    HW229142   1.846   2.098   3.744
 9415SOL     OW29143   3.961   1.115   2.491
 9415SOL    HW129144   3.940   1.086   2.584
 9415SOL    HW229145   3.899   1.189   2.464
 9416SOL     OW29146   5.877   4.747   6.101
 9416SOL    HW129147   5.831   4.690   6.033
 9416SOL    HW229148   5.976   4.742   6.088
 9417SOL     OW29149   3.937   5.838   2.158
 9417SOL    HW129150   3.906   5.757   2.110
 9417SOL    HW229151   3.867   5.910   2.151
 9418SOL     OW29152   3.310   1.848   4.780
 9418SOL    HW129153   3.399   1.858   4.737
 9418SOL    HW229154   3.271   1.938   4.799
 9419SOL     OW29155   1.763   3.229   6.270
 9419SOL    HW129156   1.700   3.271   6.334
 9419SOL    HW229157   1.846   3.200   6.318
 9420SOL     OW29158   6.527   3.977   6.619
 9420SOL    HW129159   6.540   3.924   6.535
 9420SOL    HW229160   6.556   4.071   6.605
 9421SOL     OW29161   3.319   6.324   5.961
 9421SOL    HW129162   3.308   6.328   6.060
 9421SOL    HW229163   3.300   6.231   5.929
 9422SOL     OW29164   2.308   6.004   4.594
 9422SOL    HW129165   2.265   6.092   4.611
 9422SOL    HW229166   2.369   6.010   4.516
 9423SOL     OW29167   4.842   4.687   3.015
 9423SOL    HW129168   4.812   4.690   2.920
 9423SOL    HW229169   4.869   4.778   3.045
 9424SOL     OW29170   6.031   0.147   4.511
 9424SOL    HW129171   6.042   0.051   4.534
 9424SOL    HW229172   5.961   0.188   4.570
 9425SOL     OW29173   6.872   4.956   0.984
 9425SOL    HW129174   6.940   5.006   1.037
 9425SOL    HW229175   6.818   4.897   1.045
 9426SOL     OW29176   0.069   2.003   6.684
 9426SOL    HW129177   0.037   2.080   6.739
 9426SOL    HW229178   0.134   1.949   6.738
 9427SOL     OW29179   4.814   5.012   2.510
 9427SOL    HW129180   4.734   5.061   2.546
 9427SOL    HW229181   4.858   5.068   2.439
 9428SOL     OW29182   0.253   6.214   5.298
 9428SOL    HW129183   0.159   6.206   5.263
 9428SOL    HW229184   0.272   6.309   5.323
 9429SOL     OW29185   2.670   2.346   4.282
 9429SOL    HW129186   2.652   2.418   4.349
 9429SOL    HW229187   2.585   2.300   4.258
 9430SOL     OW29188   1.106   2.263   4.483
 9430SOL    HW129189   1.190   2.312   4.506
 9430SOL    HW229190   1.127   2.167   4.463
 9431SOL     OW29191   0.529   4.718   5.611
 9431SOL    HW129192   0.505   4.739   5.706
 9431SOL    HW229193   0.573   4.628   5.607
 9432SOL     OW29194   6.682   1.528   3.582
 9432SOL    HW129195   6.767   1.578   3.567
 9432SOL    HW229196   6.694   1.464   3.658
 9433SOL     OW29197   4.995   5.459   2.262
 9433SOL    HW129198   4.976   5.488   2.168
 9433SOL    HW229199   4.925   5.497   2.323
 9434SOL     OW29200   4.857   5.127   3.923
 9434SOL    HW129201   4.811   5.104   3.837
 9434SOL    HW229202   4.849   5.050   3.987
 9435SOL     OW29203   0.371   2.840   1.885
 9435SOL    HW129204   0.299   2.901   1.920
 9435SOL    HW229205   0.331   2.752   1.860
 9436SOL     OW29206   1.904   0.577   2.923
 9436SOL    HW129207   1.875   0.484   2.944
 9436SOL    HW229208   1.924   0.626   3.008
 9437SOL     OW29209   5.638   6.506   4.891
 9437SOL    HW129210   5.654   6.530   4.987
 9437SOL    HW229211   5.631   6.589   4.836
 9438SOL     OW29212   4.907   6.698   2.477
 9438SOL    HW129213   4.841   6.698   2.402
 9438SOL    HW229214   4.957   6.612   2.478
 9439SOL     OW29215   1.403   3.001   0.667
 9439SOL    HW129216   1.364   3.081   0.621
 9439SOL    HW229217   1.422   2.930   0.600
 9440SOL     OW29218   2.452   5.043   3.409
 9440SOL    HW129219   2.439   5.140   3.388
 9440SOL    HW229220   2.482   4.994   3.327
 9441SOL     OW29221   0.617   6.116   4.233
 9441SOL    HW129222   0.712   6.128   4.259
 9441SOL    HW229223   0.599   6.019   4.216
 9442SOL     OW29224   4.869   3.179   0.757
 9442SOL    HW129225   4.947   3.117   0.765
 9442SOL    HW229226   4.802   3.141   0.692
 9443SOL     OW29227   2.223   4.748   2.997
 9443SOL    HW129228   2.173   4.662   2.997
 9443SOL    HW229229   2.305   4.739   2.940
 9444SOL     OW29230   0.938   4.544   5.987
 9444SOL    HW129231   1.008   4.479   6.014
 9444SOL    HW229232   0.977   4.636   5.985
 9445SOL     OW29233   0.785   1.172   3.621
 9445SOL    HW129234   0.874   1.216   3.611
 9445SOL    HW229235   0.713   1.241   3.610
 9446SOL     OW29236   6.510   4.852   3.384
 9446SOL    HW129237   6.484   4.756   3.389
 9446SOL    HW229238   6.436   4.909   3.420
 9447SOL     OW29239   4.961   4.656   1.490
 9447SOL    HW129240   4.899   4.580   1.510
 9447SOL    HW229241   5.049   4.619   1.458
 9448SOL     OW29242   6.160   0.680   5.065
 9448SOL    HW129243   6.230   0.747   5.043
 9448SOL    HW229244   6.073   0.726   5.082
 9449SOL     OW29245   5.368   0.282   1.604
 9449SOL    HW129246   5.382   0.213   1.534
 9449SOL    HW229247   5.342   0.368   1.561
 9450SOL     OW29248   1.065   5.565   2.876
 9450SOL    HW129249   1.099   5.657   2.894
 9450SOL    HW229250   1.004   5.537   2.950
 9451SOL     OW29251   3.347   5.548   6.397
 9451SOL    HW129252   3.289   5.478   6.437
 9451SOL    HW229253   3.326   5.637   6.437
 9452SOL     OW29254   6.198   3.939   0.221
 9452SOL    HW129255   6.108   3.910   0.188
 9452SOL    HW229256   6.210   3.911   0.316
 9453SOL     OW29257   4.707   5.194   1.647
 9453SOL    HW129258   4.657   5.114   1.615
 9453SOL    HW229259   4.746   5.175   1.737
 9454SOL     OW29260   5.923   4.320   0.512
 9454SOL    HW129261   5.921   4.321   0.412
 9454SOL    HW229262   5.838   4.361   0.547
 9455SOL     OW29263   3.673   1.525   2.127
 9455SOL    HW129264   3.718   1.447   2.170
 9455SOL    HW229265   3.722   1.551   2.044
 9456SOL     OW29266   0.495   2.937   2.217
 9456SOL    HW129267   0.563   2.882   2.169
 9456SOL    HW229268   0.403   2.902   2.197
 9457SOL     OW29269   6.694   6.273   4.552
 9457SOL    HW129270   6.689   6.227   4.463
 9457SOL    HW229271   6.603   6.277   4.592
 9458SOL     OW29272   6.614   3.560   0.190
 9458SOL    HW129273   6.644   3.601   0.276
 9458SOL    HW229274   6.681   3.581   0.119
 9459SOL     OW29275   4.590   5.040   5.415
 9459SOL    HW129276   4.491   5.027   5.420
 9459SOL    HW229277   4.631   4.961   5.370
 9460SOL     OW29278   1.635   2.313   2.761
 9460SOL    HW129279   1.633   2.222   2.802
 9460SOL    HW229280   1.576   2.314   2.680
 9461SOL     OW29281   1.781   2.117   2.122
 9461SOL    HW129282   1.763   2.052   2.048
 9461SOL    HW229283   1.716   2.193   2.117
 9462SOL     OW29284   0.620   1.291   4.300
 9462SOL    HW129285   0.568   1.218   4.257
 9462SOL    HW229286   0.613   1.374   4.245
 9463SOL     OW29287   5.663   5.231   1.483
 9463SOL    HW129288   5.728   5.271   1.418
 9463SOL    HW229289   5.637   5.140   1.453
 9464SOL     OW29290   1.025   1.238   2.104
 9464SOL    HW129291   1.047   1.308   2.036
 9464SOL    HW229292   1.105   1.224   2.164
 9465SOL     OW29293   6.778   4.384   1.277
 9465SOL    HW129294   6.842   4.444   1.229
 9465SOL    HW229295   6.779   4.405   1.374
 9466SOL     OW29296   4.018   4.700   5.845
 9466SOL    HW129297   4.036   4.769   5.916
 9466SOL    HW229298   3.938   4.646   5.871
 9467SOL     OW29299   2.025   3.561   0.430
 9467SOL    HW129300   2.122   3.546   0.447
 9467SOL    HW229301   1.974   3.552   0.516
 9468SOL     OW29302   6.357   1.538   0.553
 9468SOL    HW129303   6.297   1.459   0.540
 9468SOL    HW229304   6.304   1.622   0.540
 9469SOL     OW29305   0.816   6.637   1.352
 9469SOL    HW129306   0.763   6.643   1.437
 9469SOL    HW229307   0.756   6.612   1.276
 9470SOL     OW29308   3.557   3.549   1.070
 9470SOL    HW129309   3.509   3.636   1.087
 9470SOL    HW229310   3.574   3.503   1.157
 9471SOL     OW29311   6.356   3.213   4.965
 9471SOL    HW129312   6.272   3.162   4.981
 9471SOL    HW229313   6.335   3.297   4.914
 9472SOL     OW29314   1.484   3.038   6.451
 9472SOL    HW129315   1.389   3.013   6.473
 9472SOL    HW229316   1.546   2.977   6.501
 9473SOL     OW29317   2.582   4.268   1.048
 9473SOL    HW129318   2.564   4.241   1.142
 9473SOL    HW229319   2.568   4.367   1.039
 9474SOL     OW29320   5.552   3.104   0.695
 9474SOL    HW129321   5.488   3.177   0.670
 9474SOL    HW229322   5.587   3.061   0.612
 9475SOL     OW29323   4.990   3.715   6.466
 9475SOL    HW129324   5.054   3.665   6.525
 9475SOL    HW229325   5.008   3.813   6.473
 9476SOL     OW29326   4.061   4.325   6.605
 9476SOL    HW129327   3.969   4.360   6.592
 9476SOL    HW229328   4.095   4.350   6.695
 9477SOL     OW29329   1.815   4.330   0.386
 9477SOL    HW129330   1.754   4.251   0.376
 9477SOL    HW229331   1.887   4.307   0.452
 9478SOL     OW29332   5.781   3.415   0.445
 9478SOL    HW129333   5.805   3.323   0.476
 9478SOL    HW229334   5.844   3.442   0.373
 9479SOL     OW29335   4.213   1.079   2.417
 9479SOL    HW129336   4.242   0.986   2.395
 9479SOL    HW229337   4.117   1.079   2.445
 9480SOL     OW29338   6.494   0.857   0.765
 9480SOL    HW129339   6.589   0.869   0.737
 9480SOL    HW229340   6.451   0.947   0.774
 9481SOL     OW29341   3.984   0.095   3.874
 9481SOL    HW129342   4.081   0.116   3.871
 9481SOL    HW229343   3.936   0.164   3.928
 9482SOL     OW29344   6.838   6.204   6.861
 9482SOL    HW129345   6.917   6.185   6.918
 9482SOL    HW229346   6.762   6.236   6.918
 9483SOL     OW29347   6.579   6.807   0.416
 9483SOL    HW129348   6.558   6.895   0.374
 9483SOL    HW229349   6.630   6.822   0.500
 9484SOL     OW29350   4.096   5.741   4.602
 9484SOL    HW129351   4.043   5.673   4.552
 9484SOL    HW229352   4.039   5.822   4.618
 9485SOL     OW29353   0.262   1.003   0.444
 9485SOL    HW129354   0.223   1.090   0.473
 9485SOL    HW229355   0.354   1.017   0.410
 9486SOL     OW29356   5.323   5.775   0.443
 9486SOL    HW129357   5.357   5.835   0.372
 9486SOL    HW229358   5.281   5.829   0.516
 9487SOL     OW29359   3.340   2.895   2.886
 9487SOL    HW129360   3.243   2.918   2.875
 9487SOL    HW229361   3.395   2.961   2.835
 9488SOL     OW29362   1.687   0.834   0.509
 9488SOL    HW129363   1.604   0.876   0.473
 9488SOL    HW229364   1.694   0.853   0.607
 9489SOL     OW29365   5.607   3.129   0.211
 9489SOL    HW129366   5.546   3.054   0.186
 9489SOL    HW229367   5.700   3.094   0.220
 9490SOL     OW29368   5.584   3.588   4.292
 9490SOL    HW129369   5.675   3.550   4.311
 9490SOL    HW229370   5.559   3.568   4.197
 9491SOL     OW29371   5.438   6.217   2.876
 9491SOL    HW129372   5.458   6.314   2.891
 9491SOL    HW229373   5.370   6.208   2.803
 9492SOL     OW29374   4.963   3.032   4.266
 9492SOL    HW129375   4.869   2.997   4.272
 9492SOL    HW229376   5.016   2.974   4.204
 9493SOL     OW29377   4.248   6.315   1.723
 9493SOL    HW129378   4.319   6.261   1.766
 9493SOL    HW229379   4.274   6.334   1.628
 9494SOL     OW29380   5.217   2.159   2.322
 9494SOL    HW129381   5.310   2.191   2.342
 9494SOL    HW229382   5.221   2.071   2.275
 9495SOL     OW29383   0.168   1.918   2.012
 9495SOL    HW129384   0.205   1.988   2.074
 9495SOL    HW229385   0.217   1.922   1.925
 9496SOL     OW29386   5.308   2.185   2.700
 9496SOL    HW129387   5.287   2.281   2.686
 9496SOL    HW229388   5.244   2.129   2.648
 9497SOL     OW29389   4.878   4.581   5.070
 9497SOL    HW129390   4.916   4.578   4.977
 9497SOL    HW229391   4.781   4.606   5.066
 9498SOL     OW29392   1.098   5.529   3.533
 9498SOL    HW129393   1.012   5.501   3.490
 9498SOL    HW229394   1.109   5.628   3.524
 9499SOL     OW29395   6.549   5.913   5.012
 9499SOL    HW129396   6.454   5.945   5.013
 9499SOL    HW229397   6.567   5.865   4.927
 9500SOL     OW29398   3.838   2.152   0.741
 9500SOL    HW129399   3.880   2.243   0.733
 9500SOL    HW229400   3.896   2.084   0.697
 9501SOL     OW29401   2.118   3.287   5.260
 9501SOL    HW129402   2.166   3.374   5.268
 9501SOL    HW229403   2.167   3.217   5.312
 9502SOL     OW29404   4.925   4.591   4.792
 9502SOL    HW129405   4.969   4.593   4.702
 9502SOL    HW229406   4.877   4.678   4.807
 9503SOL     OW29407   6.955   2.241   0.047
 9503SOL    HW129408   6.903   2.194   0.118
 9503SOL    HW229409   7.020   2.305   0.089
 9504SOL     OW29410   5.950   5.076   2.083
 9504SOL    HW129411   5.943   5.043   1.989
 9504SOL    HW229412   5.965   4.999   2.145
 9505SOL     OW29413   3.829   5.696   5.564
 9505SOL    HW129414   3.830   5.606   5.520
 9505SOL    HW229415   3.893   5.696   5.640
 9506SOL     OW29416   3.234   1.121   1.360
 9506SOL    HW129417   3.204   1.165   1.275
 9506SOL    HW229418   3.159   1.124   1.427
 9507SOL     OW29419   5.266   0.011   2.475
 9507SOL    HW129420   5.318   0.042   2.555
 9507SOL    HW229421   5.232   0.090   2.425
 9508SOL     OW29422   5.086   1.758   3.175
 9508SOL    HW129423   5.064   1.829   3.242
 9508SOL    HW229424   5.181   1.729   3.189
 9509SOL     OW29425   5.555   0.513   3.175
 9509SOL    HW129426   5.520   0.434   3.124
 9509SOL    HW229427   5.574   0.588   3.111
 9510SOL     OW29428   1.080   3.054   3.751
 9510SOL    HW129429   1.008   2.995   3.713
 9510SOL    HW229430   1.152   2.997   3.791
 9511SOL     OW29431   1.145   1.550   0.428
 9511SOL    HW129432   1.080   1.474   0.426
 9511SOL    HW229433   1.113   1.625   0.371
 9512SOL     OW29434   6.169   1.999   1.147
 9512SOL    HW129435   6.130   1.908   1.132
 9512SOL    HW229436   6.221   1.999   1.233
 9513SOL     OW29437   4.191   4.985   5.466
 9513SOL    HW129438   4.135   4.908   5.496
 9513SOL    HW229439   4.134   5.049   5.413
 9514SOL     OW29440   3.561   3.172   6.757
 9514SOL    HW129441   3.581   3.266   6.787
 9514SOL    HW229442   3.641   3.134   6.710
 9515SOL     OW29443   0.864   5.475   3.085
 9515SOL    HW129444   0.937   5.433   3.139
 9515SOL    HW229445   0.838   5.414   3.011
 9516SOL     OW29446   6.863   4.211   0.287
 9516SOL    HW129447   6.800   4.134   0.296
 9516SOL    HW229448   6.848   4.256   0.199
 9517SOL     OW29449   0.739   5.019   0.615
 9517SOL    HW129450   0.713   4.944   0.676
 9517SOL    HW229451   0.837   5.016   0.597
 9518SOL     OW29452   0.901   1.157   0.013
 9518SOL    HW129453   0.920   1.221   6.964
 9518SOL    HW229454   0.887   1.208   0.098
 9519SOL     OW29455   1.184   3.001   5.198
 9519SOL    HW129456   1.090   2.980   5.171
 9519SOL    HW229457   1.187   3.090   5.243
 9520SOL     OW29458   3.746   0.040   1.541
 9520SOL    HW129459   3.662   7.022   1.574
 9520SOL    HW229460   3.786   0.096   1.613
 9521SOL     OW29461   5.511   5.204   3.859
 9521SOL    HW129462   5.540   5.135   3.792
 9521SOL    HW229463   5.592   5.245   3.902
 9522SOL     OW29464   3.308   5.662   1.024
 9522SOL    HW129465   3.392   5.647   0.972
 9522SOL    HW229466   3.235   5.603   0.988
 9523SOL     OW29467   3.452   6.088   4.959
 9523SOL    HW129468   3.417   6.067   5.050
 9523SOL    HW229469   3.387   6.056   4.890
 9524SOL     OW29470   4.828   2.887   0.853
 9524SOL    HW129471   4.826   2.914   0.949
 9524SOL    HW229472   4.773   2.951   0.799
 9525SOL     OW29473   3.426   0.558   6.204
 9525SOL    HW129474   3.436   0.468   6.246
 9525SOL    HW229475   3.455   0.553   6.108
 9526SOL     OW29476   5.636   5.606   2.082
 9526SOL    HW129477   5.723   5.567   2.112
 9526SOL    HW229478   5.594   5.656   2.158
 9527SOL     OW29479   6.055   2.021   1.878
 9527SOL    HW129480   5.974   2.071   1.847
 9527SOL    HW229481   6.133   2.084   1.884
 9528SOL     OW29482   6.593   0.858   2.319
 9528SOL    HW129483   6.598   0.909   2.404
 9528SOL    HW229484   6.539   0.910   2.252
 9529SOL     OW29485   0.814   3.523   4.829
 9529SOL    HW129486   0.792   3.467   4.750
 9529SOL    HW229487   0.729   3.555   4.872
 9530SOL     OW29488   1.746   2.368   4.524
 9530SOL    HW129489   1.777   2.392   4.616
 9530SOL    HW229490   1.656   2.325   4.529
 9531SOL     OW29491   2.825   6.148   3.237
 9531SOL    HW129492   2.915   6.109   3.256
 9531SOL    HW229493   2.767   6.080   3.193
 9532SOL     OW29494   2.651   1.054   1.514
 9532SOL    HW129495   2.593   1.102   1.448
 9532SOL    HW229496   2.644   1.098   1.603
 9533SOL     OW29497   2.138   0.246   5.257
 9533SOL    HW129498   2.087   0.160   5.263
 9533SOL    HW229499   2.077   0.323   5.275
 9534SOL     OW29500   4.870   1.921   4.886
 9534SOL    HW129501   4.785   1.952   4.929
 9534SOL    HW229502   4.948   1.948   4.942
 9535SOL     OW29503   1.916   2.246   5.497
 9535SOL    HW129504   1.998   2.218   5.548
 9535SOL    HW229505   1.885   2.336   5.530
 9536SOL     OW29506   2.963   6.929   6.588
 9536SOL    HW129507   3.062   6.943   6.584
 9536SOL    HW229508   2.938   6.857   6.524
 9537SOL     OW29509   3.094   6.864   1.141
 9537SOL    HW129510   3.104   6.918   1.057
 9537SOL    HW229511   3.165   6.793   1.144
 9538SOL     OW29512   5.830   3.226   3.756
 9538SOL    HW129513   5.850   3.260   3.847
 9538SOL    HW229514   5.773   3.291   3.707
 9539SOL     OW29515   0.269   5.244   1.108
 9539SOL    HW129516   0.333   5.183   1.155
 9539SOL    HW229517   0.318   5.323   1.074
 9540SOL     OW29518   5.291   3.721   4.869
 9540SOL    HW129519   5.316   3.713   4.772
 9540SOL    HW229520   5.237   3.641   4.895
 9541SOL     OW29521   1.259   1.920   3.597
 9541SOL    HW129522   1.228   1.996   3.539
 9541SOL    HW229523   1.344   1.946   3.643
 9542SOL     OW29524   5.047   3.837   4.616
 9542SOL    HW129525   5.107   3.774   4.665
 9542SOL    HW229526   4.974   3.785   4.571
 9543SOL     OW29527   5.044   2.031   2.000
 9543SOL    HW129528   5.133   2.069   1.978
 9543SOL    HW229529   4.984   2.103   2.034
 9544SOL     OW29530   3.283   1.758   2.187
 9544SOL    HW129531   3.344   1.794   2.117
 9544SOL    HW229532   3.255   1.665   2.162
 9545SOL     OW29533   0.233   0.034   4.212
 9545SOL    HW129534   0.222   0.009   4.116
 9545SOL    HW229535   0.196   0.125   4.228
 9546SOL     OW29536   2.316   4.465   1.320
 9546SOL    HW129537   2.366   4.507   1.395
 9546SOL    HW229538   2.358   4.377   1.297
 9547SOL     OW29539   6.454   5.727   3.008
 9547SOL    HW129540   6.529   5.776   3.053
 9547SOL    HW229541   6.492   5.673   2.932
 9548SOL     OW29542   4.730   6.385   2.757
 9548SOL    HW129543   4.753   6.474   2.797
 9548SOL    HW229544   4.632   6.383   2.736
 9549SOL     OW29545   2.697   5.727   0.704
 9549SOL    HW129546   2.795   5.715   0.694
 9549SOL    HW229547   2.649   5.666   0.641
 9550SOL     OW29548   1.062   1.765   0.276
 9550SOL    HW129549   1.117   1.747   0.194
 9550SOL    HW229550   0.981   1.818   0.251
 9551SOL     OW29551   2.265   6.084   4.942
 9551SOL    HW129552   2.208   6.004   4.927
 9551SOL    HW229553   2.235   6.158   4.882
 9552SOL     OW29554   1.299   5.355   3.607
 9552SOL    HW129555   1.219   5.415   3.613
 9552SOL    HW229556   1.369   5.399   3.550
 9553SOL     OW29557   5.187   4.676   5.408
 9553SOL    HW129558   5.179   4.613   5.331
 9553SOL    HW229559   5.109   4.738   5.408
 9554SOL     OW29560   2.401   1.317   2.040
 9554SOL    HW129561   2.407   1.218   2.057
 9554SOL    HW229562   2.392   1.334   1.942
 9555SOL     OW29563   6.541   2.428   6.731
 9555SOL    HW129564   6.570   2.415   6.826
 9555SOL    HW229565   6.549   2.524   6.706
 9556SOL     OW29566   6.826   1.812   1.051
 9556SOL    HW129567   6.837   1.715   1.028
 9556SOL    HW229568   6.825   1.823   1.150
 9557SOL     OW29569   5.455   2.256   1.827
 9557SOL    HW129570   5.373   2.236   1.881
 9557SOL    HW229571   5.466   2.187   1.755
 9558SOL     OW29572   6.182   4.553   2.102
 9558SOL    HW129573   6.162   4.481   2.036
 9558SOL    HW229574   6.196   4.639   2.054
 9559SOL     OW29575   6.753   2.839   2.202
 9559SOL    HW129576   6.809   2.825   2.283
 9559SOL    HW229577   6.679   2.903   2.223
 9560SOL     OW29578   3.284   1.831   4.357
 9560SOL    HW129579   3.232   1.785   4.429
 9560SOL    HW229580   3.309   1.923   4.388
 9561SOL     OW29581   4.151   0.077   0.906
 9561SOL    HW129582   4.115   7.009   0.908
 9561SOL    HW229583   4.077   0.142   0.919
 9562SOL     OW29584   5.833   5.528   3.332
 9562SOL    HW129585   5.786   5.446   3.363
 9562SOL    HW229586   5.809   5.547   3.237
 9563SOL     OW29587   0.371   5.571   6.577
 9563SOL    HW129588   0.465   5.545   6.595
 9563SOL    HW229589   0.348   5.652   6.631
 9564SOL     OW29590   2.313   0.106   7.016
 9564SOL    HW129591   2.374   0.050   6.960
 9564SOL    HW229592   2.368   0.166   0.050
 9565SOL     OW29593   4.055   6.173   4.440
 9565SOL    HW129594   4.037   6.123   4.525
 9565SOL    HW229595   4.121   6.246   4.458
 9566SOL     OW29596   3.335   4.887   5.172
 9566SOL    HW129597   3.317   4.807   5.229
 9566SOL    HW229598   3.296   4.872   5.081
 9567SOL     OW29599   6.175   6.124   5.716
 9567SOL    HW129600   6.120   6.208   5.714
 9567SOL    HW229601   6.150   6.069   5.795
 9568SOL     OW29602   5.368   3.575   6.463
 9568SOL    HW129603   5.329   3.525   6.540
 9568SOL    HW229604   5.295   3.606   6.403
 9569SOL     OW29605   6.183   0.305   1.645
 9569SOL    HW129606   6.224   0.217   1.624
 9569SOL    HW229607   6.085   0.302   1.623
 9570SOL     OW29608   0.627   0.143   6.621
 9570SOL    HW129609   0.598   0.108   6.710
 9570SOL    HW229610   0.655   0.067   6.563
 9571SOL     OW29611   2.294   3.301   6.606
 9571SOL    HW129612   2.318   3.271   6.513
 9571SOL    HW229613   2.252   3.225   6.656
 9572SOL     OW29614   0.556   4.038   0.808
 9572SOL    HW129615   0.517   4.033   0.716
 9572SOL    HW229616   0.499   4.096   0.866
 9573SOL     OW29617   6.428   1.841   1.861
 9573SOL    HW129618   6.329   1.848   1.853
 9573SOL    HW229619   6.453   1.749   1.892
 9574SOL     OW29620   2.355   1.980   4.699
 9574SOL    HW129621   2.259   1.951   4.697
 9574SOL    HW229622   2.366   2.064   4.646
 9575SOL     OW29623   4.837   0.838   2.129
 9575SOL    HW129624   4.769   0.764   2.131
 9575SOL    HW229625   4.810   0.909   2.194
 9576SOL     OW29626   3.822   1.459   4.855
 9576SOL    HW129627   3.831   1.544   4.804
 9576SOL    HW229628   3.805   1.479   4.952
 9577SOL     OW29629   0.249   6.244   3.032
 9577SOL    HW129630   0.263   6.323   3.092
 9577SOL    HW229631   0.288   6.162   3.075
 9578SOL     OW29632   5.916   3.438   1.784
 9578SOL    HW129633   5.835   3.418   1.840
 9578SOL    HW229634   5.948   3.530   1.804
 9579SOL     OW29635   1.274   6.384   2.668
 9579SOL    HW129636   1.301   6.401   2.763
 9579SOL    HW229637   1.177   6.358   2.665
 9580SOL     OW29638   4.259   3.890   6.355
 9580SOL    HW129639   4.198   3.812   6.367
 9580SOL    HW229640   4.237   3.938   6.271
 9581SOL     OW29641   1.565   5.372   6.243
 9581SOL    HW129642   1.633   5.351   6.313
 9581SOL    HW229643   1.490   5.306   6.248
 9582SOL     OW29644   4.500   4.731   4.594
 9582SOL    HW129645   4.541   4.643   4.617
 9582SOL    HW229646   4.570   4.794   4.561
 9583SOL     OW29647   2.427   4.401   1.914
 9583SOL    HW129648   2.340   4.352   1.902
 9583SOL    HW229649   2.420   4.464   1.991
 9584SOL     OW29650   5.316   5.662   6.839
 9584SOL    HW129651   5.412   5.644   6.821
 9584SOL    HW229652   5.268   5.576   6.854
 9585SOL     OW29653   0.140   6.829   3.796
 9585SOL    HW129654   0.226   6.822   3.745
 9585SOL    HW229655   0.068   6.863   3.736
 9586SOL     OW29656   5.200   3.248   2.493
 9586SOL    HW129657   5.164   3.223   2.403
 9586SOL    HW229658   5.139   3.213   2.564
 9587SOL     OW29659   4.721   6.680   2.674
 9587SOL    HW129660   4.753   6.752   2.735
 9587SOL    HW229661   4.773   6.684   2.588
 9588SOL     OW29662   6.944   0.654   3.117
 9588SOL    HW129663   0.010   0.691   3.107
 9588SOL    HW229664   6.950   0.556   3.136
 9589SOL     OW29665   2.286   2.033   5.851
 9589SOL    HW129666   2.257   2.040   5.947
 9589SOL    HW229667   2.362   1.968   5.845
 9590SOL     OW29668   0.083   4.449   4.569
 9590SOL    HW129669   0.146   4.398   4.628
 9590SOL    HW229670   0.091   4.415   4.475
 9591SOL     OW29671   1.521   4.413   2.286
 9591SOL    HW129672   1.564   4.473   2.219
 9591SOL    HW229673   1.421   4.417   2.276
 9592SOL     OW29674   5.316   5.499   2.195
 9592SOL    HW129675   5.258   5.418   2.189
 9592SOL    HW229676   5.327   5.539   2.104
 9593SOL     OW29677   1.709   3.061   4.280
 9593SOL    HW129678   1.762   3.142   4.304
 9593SOL    HW229679   1.770   2.985   4.261
 9594SOL     OW29680   6.001   6.623   1.942
 9594SOL    HW129681   5.935   6.609   2.016
 9594SOL    HW229682   6.049   6.710   1.957
 9595SOL     OW29683   1.060   4.073   4.502
 9595SOL    HW129684   1.061   4.099   4.598
 9595SOL    HW229685   0.966   4.073   4.468
 9596SOL     OW29686   4.903   5.440   2.641
 9596SOL    HW129687   4.964   5.365   2.663
 9596SOL    HW229688   4.841   5.413   2.567
 9597SOL     OW29689   1.719   3.968   0.918
 9597SOL    HW129690   1.658   4.001   0.989
 9597SOL    HW229691   1.814   3.974   0.949
 9598SOL     OW29692   1.153   5.928   5.649
 9598SOL    HW129693   1.231   5.900   5.705
 9598SOL    HW229694   1.125   5.852   5.590
 9599SOL     OW29695   4.641   1.575   4.059
 9599SOL    HW129696   4.627   1.554   3.962
 9599SOL    HW229697   4.738   1.591   4.076
 9600SOL     OW29698   1.392   6.235   0.134
 9600SOL    HW129699   1.413   6.194   0.223
 9600SOL    HW229700   1.393   6.165   0.063
 9601SOL     OW29701   0.747   5.984   5.991
 9601SOL    HW129702   0.723   6.018   5.900
 9601SOL    HW229703   0.823   6.038   6.028
 9602SOL     OW29704   0.973   5.851   0.444
 9602SOL    HW129705   1.049   5.786   0.450
 9602SOL    HW229706   0.889   5.808   0.475
 9603SOL     OW29707   1.062   4.564   3.986
 9603SOL    HW129708   1.132   4.515   4.038
 9603SOL    HW229709   0.986   4.587   4.046
 9604SOL     OW29710   6.795   0.136   0.397
 9604SOL    HW129711   6.704   0.094   0.399
 9604SOL    HW229712   6.809   0.189   0.481
 9605SOL     OW29713   2.554   5.497   0.075
 9605SOL    HW129714   2.555   5.582   0.022
 9605SOL    HW229715   2.468   5.449   0.060
 9606SOL     OW29716   6.172   0.222   4.860
 9606SOL    HW129717   6.157   0.264   4.771
 9606SOL    HW229718   6.247   0.156   4.854
 9607SOL     OW29719   0.579   2.851   2.653
 9607SOL    HW129720   0.674   2.876   2.669
 9607SOL    HW229721   0.551   2.782   2.719
 9608SOL     OW29722   6.497   0.377   2.898
 9608SOL    HW129723   6.525   0.287   2.864
 9608SOL    HW229724   6.541   0.394   2.986
 9609SOL     OW29725   1.743   2.360   3.215
 9609SOL    HW129726   1.767   2.332   3.308
 9609SOL    HW229727   1.825   2.389   3.166
 9610SOL     OW29728   3.273   2.229   6.288
 9610SOL    HW129729   3.346   2.290   6.257
 9610SOL    HW229730   3.278   2.143   6.237
 9611SOL     OW29731   6.036   6.092   0.933
 9611SOL    HW129732   5.981   6.071   1.014
 9611SOL    HW229733   6.123   6.044   0.939
 9612SOL     OW29734   4.870   3.857   2.878
 9612SOL    HW129735   4.857   3.828   2.783
 9612SOL    HW229736   4.889   3.955   2.881
 9613SOL     OW29737   5.983   6.649   5.616
 9613SOL    HW129738   5.924   6.602   5.681
 9613SOL    HW229739   5.927   6.685   5.541
 9614SOL     OW29740   3.575   2.949   1.827
 9614SOL    HW129741   3.494   2.937   1.770
 9614SOL    HW229742   3.554   2.925   1.922
 9615SOL     OW29743   0.585   6.607   3.527
 9615SOL    HW129744   0.591   6.554   3.442
 9615SOL    HW229745   0.534   6.555   3.595
 9616SOL     OW29746   2.146   3.234   1.267
 9616SOL    HW129747   2.112   3.141   1.283
 9616SOL    HW229748   2.217   3.255   1.335
 9617SOL     OW29749   0.937   3.442   2.451
 9617SOL    HW129750   1.014   3.379   2.451
 9617SOL    HW229751   0.956   3.518   2.512
 9618SOL     OW29752   3.931   4.748   0.656
 9618SOL    HW129753   3.844   4.702   0.676
 9618SOL    HW229754   3.912   4.839   0.620
 9619SOL     OW29755   1.922   0.101   1.046
 9619SOL    HW129756   1.917   0.065   0.953
 9619SOL    HW229757   1.897   0.029   1.112
 9620SOL     OW29758   3.894   1.875   6.997
 9620SOL    HW129759   3.823   1.944   7.014
 9620SOL    HW229760   3.853   1.797   6.950
 9621SOL     OW29761   0.972   2.246   2.111
 9621SOL    HW129762   0.955   2.188   2.190
 9621SOL    HW229763   0.927   2.335   2.123
 9622SOL     OW29764   0.228   6.086   5.567
 9622SOL    HW129765   0.165   6.131   5.631
 9622SOL    HW229766   0.218   6.127   5.476
 9623SOL     OW29767   4.723   6.962   6.064
 9623SOL    HW129768   4.661   6.998   6.134
 9623SOL    HW229769   4.729   6.863   6.072
 9624SOL     OW29770   4.816   5.297   5.116
 9624SOL    HW129771   4.810   5.356   5.196
 9624SOL    HW229772   4.730   5.303   5.064
 9625SOL     OW29773   4.960   3.827   5.678
 9625SOL    HW129774   5.044   3.779   5.653
 9625SOL    HW229775   4.911   3.774   5.747
 9626SOL     OW29776   2.183   2.208   6.500
 9626SOL    HW129777   2.146   2.297   6.475
 9626SOL    HW229778   2.283   2.215   6.508
 9627SOL     OW29779   0.463   5.226   0.331
 9627SOL    HW129780   0.398   5.262   0.398
 9627SOL    HW229781   0.488   5.299   0.266
 9628SOL     OW29782   6.005   1.189   6.169
 9628SOL    HW129783   6.079   1.158   6.110
 9628SOL    HW229784   6.026   1.280   6.205
 9629SOL     OW29785   0.284   5.476   3.854
 9629SOL    HW129786   0.336   5.390   3.861
 9629SOL    HW229787   0.213   5.477   3.925
 9630SOL     OW29788   5.891   0.548   5.098
 9630SOL    HW129789   5.849   0.638   5.107
 9630SOL    HW229790   5.980   0.548   5.144
 9631SOL     OW29791   3.674   6.974   0.438
 9631SOL    HW129792   3.740   7.019   0.499
 9631SOL    HW229793   3.595   0.007   0.425
 9632SOL     OW29794   3.469   5.460   2.393
 9632SOL    HW129795   3.456   5.381   2.333
 9632SOL    HW229796   3.549   5.445   2.451
 9633SOL     OW29797   3.669   3.374   3.001
 9633SOL    HW129798   3.581   3.326   3.003
 9633SOL    HW229799   3.723   3.341   2.923
 9634SOL     OW29800   5.629   4.887   3.368
 9634SOL    HW129801   5.716   4.934   3.353
 9634SOL    HW229802   5.584   4.871   3.280
 9635SOL     OW29803   1.019   5.308   3.823
 9635SOL    HW129804   1.047   5.308   3.920
 9635SOL    HW229805   1.077   5.371   3.772
 9636SOL     OW29806   5.240   3.683   4.044
 9636SOL    HW129807   5.300   3.738   3.986
 9636SOL    HW229808   5.154   3.666   3.997
 9637SOL     OW29809   1.631   3.132   0.226
 9637SOL    HW129810   1.720   3.109   0.188
 9637SOL    HW229811   1.639   3.214   0.284
 9638SOL     OW29812   5.476   5.765   5.631
 9638SOL    HW129813   5.414   5.693   5.661
 9638SOL    HW229814   5.547   5.726   5.572
 9639SOL     OW29815   4.322   1.691   1.943
 9639SOL    HW129816   4.404   1.744   1.966
 9639SOL    HW229817   4.335   1.596   1.971
 9640SOL     OW29818   4.451   0.316   3.145
 9640SOL    HW129819   4.426   0.403   3.187
 9640SOL    HW229820   4.550   0.307   3.142
 9641SOL     OW29821   6.475   3.539   3.493
 9641SOL    HW129822   6.463   3.638   3.484
 9641SOL    HW229823   6.533   3.519   3.572
 9642SOL     OW29824   1.089   0.247   4.448
 9642SOL    HW129825   1.021   0.320   4.444
 9642SOL    HW229826   1.063   0.181   4.520
 9643SOL     OW29827   4.843   5.120   4.407
 9643SOL    HW129828   4.771   5.187   4.423
 9643SOL    HW229829   4.929   5.152   4.447
 9644SOL     OW29830   1.419   5.392   4.297
 9644SOL    HW129831   1.498   5.351   4.342
 9644SOL    HW229832   1.351   5.420   4.366
 9645SOL     OW29833   0.527   4.722   6.257
 9645SOL    HW129834   0.441   4.752   6.216
 9645SOL    HW229835   0.583   4.677   6.187
 9646SOL     OW29836   4.616   5.535   6.598
 9646SOL    HW129837   4.645   5.477   6.674
 9646SOL    HW229838   4.521   5.513   6.574
 9647SOL     OW29839   6.413   6.529   3.569
 9647SOL    HW129840   6.489   6.568   3.623
 9647SOL    HW229841   6.390   6.439   3.606
 9648SOL     OW29842   4.032   2.125   1.012
 9648SOL    HW129843   4.009   2.213   0.969
 9648SOL    HW229844   4.110   2.084   0.965
 9649SOL     OW29845   1.012   5.641   0.212
 9649SOL    HW129846   0.943   5.572   0.187
 9649SOL    HW229847   1.047   5.684   0.129
 9650SOL     OW29848   0.120   4.759   4.374
 9650SOL    HW129849   0.207   4.735   4.330
 9650SOL    HW229850   0.057   4.681   4.367
 9651SOL     OW29851   4.019   1.692   0.401
 9651SOL    HW129852   4.087   1.704   0.472
 9651SOL    HW229853   4.063   1.694   0.311
 9652SOL     OW29854   0.429   4.075   0.514
 9652SOL    HW129855   0.492   4.052   0.440
 9652SOL    HW229856   0.364   4.144   0.483
 9653SOL     OW29857   4.627   4.185   6.022
 9653SOL    HW129858   4.692   4.144   5.958
 9653SOL    HW229859   4.639   4.285   6.022
 9654SOL     OW29860   3.459   3.629   3.027
 9654SOL    HW129861   3.437   3.697   3.097
 9654SOL    HW229862   3.508   3.553   3.068
 9655SOL     OW29863   4.373   1.236   1.161
 9655SOL    HW129864   4.304   1.306   1.183
 9655SOL    HW229865   4.385   1.231   1.062
 9656SOL     OW29866   5.972   3.877   0.033
 9656SOL    HW129867   5.936   3.911   6.972
 9656SOL    HW229868   5.897   3.838   0.087
 9657SOL     OW29869   5.590   3.850   4.075
 9657SOL    HW129870   5.509   3.894   4.035
 9657SOL    HW229871   5.573   3.831   4.172
 9658SOL     OW29872   4.685   1.939   2.298
 9658SOL    HW129873   4.751   2.013   2.298
 9658SOL    HW229874   4.733   1.851   2.293
 9659SOL     OW29875   2.626   3.073   6.470
 9659SOL    HW129876   2.683   3.027   6.403
 9659SOL    HW229877   2.604   3.009   6.544
 9660SOL     OW29878   1.435   6.345   1.929
 9660SOL    HW129879   1.502   6.414   1.902
 9660SOL    HW229880   1.481   6.267   1.970
 9661SOL     OW29881   4.553   3.728   0.946
 9661SOL    HW129882   4.622   3.723   0.873
 9661SOL    HW229883   4.593   3.770   1.027
 9662SOL     OW29884   5.573   5.515   6.110
 9662SOL    HW129885   5.501   5.572   6.151
 9662SOL    HW229886   5.660   5.534   6.156
 9663SOL     OW29887   1.002   5.261   2.311
 9663SOL    HW129888   0.997   5.353   2.351
 9663SOL    HW229889   0.983   5.193   2.382
 9664SOL     OW29890   4.844   4.575   2.166
 9664SOL    HW129891   4.935   4.612   2.150
 9664SOL    HW229892   4.790   4.581   2.082
 9665SOL     OW29893   6.809   5.937   6.474
 9665SOL    HW129894   6.737   5.927   6.405
 9665SOL    HW229895   6.860   5.852   6.481
 9666SOL     OW29896   5.770   3.945   6.843
 9666SOL    HW129897   5.747   3.861   6.795
 9666SOL    HW229898   5.818   4.007   6.781
 9667SOL     OW29899   5.916   6.010   6.229
 9667SOL    HW129900   5.905   6.106   6.255
 9667SOL    HW229901   5.909   5.952   6.310
 9668SOL     OW29902   0.783   0.694   6.415
 9668SOL    HW129903   0.875   0.732   6.402
 9668SOL    HW229904   0.766   0.625   6.345
 9669SOL     OW29905   3.327   0.399   0.281
 9669SOL    HW129906   3.290   0.460   0.211
 9669SOL    HW229907   3.411   0.437   0.317
 9670SOL     OW29908   7.013   0.076   0.261
 9670SOL    HW129909   0.006   0.122   0.175
 9670SOL    HW229910   6.931   0.116   0.303
 9671SOL     OW29911   1.436   5.104   6.526
 9671SOL    HW129912   1.409   5.196   6.555
 9671SOL    HW229913   1.383   5.036   6.577
 9672SOL     OW29914   1.022   3.510   3.842
 9672SOL    HW129915   0.973   3.438   3.890
 9672SOL    HW229916   1.091   3.468   3.782
 9673SOL     OW29917   2.235   3.482   7.009
 9673SOL    HW129918   2.161   3.426   0.020
 9673SOL    HW229919   2.211   3.512   6.916
 9674SOL     OW29920   2.529   6.326   4.231
 9674SOL    HW129921   2.582   6.346   4.148
 9674SOL    HW229922   2.571   6.371   4.310
 9675SOL     OW29923   5.777   3.325   6.582
 9675SOL    HW129924   5.857   3.345   6.639
 9675SOL    HW229925   5.701   3.384   6.609
 9676SOL     OW29926   0.857   2.608   0.137
 9676SOL    HW129927   0.854   2.651   0.227
 9676SOL    HW229928   0.922   2.656   0.078
 9677SOL     OW29929   0.030   5.273   1.448
 9677SOL    HW129930   0.129   5.275   1.431
 9677SOL    HW229931   0.012   5.222   1.532
 9678SOL     OW29932   3.499   3.380   5.385
 9678SOL    HW129933   3.487   3.479   5.379
 9678SOL    HW229934   3.410   3.337   5.397
 9679SOL     OW29935   1.749   1.496   4.435
 9679SOL    HW129936   1.813   1.558   4.480
 9679SOL    HW229937   1.790   1.406   4.426
 9680SOL     OW29938   4.823   6.484   2.183
 9680SOL    HW129939   4.915   6.474   2.145
 9680SOL    HW229940   4.822   6.450   2.277
 9681SOL     OW29941   1.159   1.683   1.825
 9681SOL    HW129942   1.153   1.588   1.854
 9681SOL    HW229943   1.110   1.695   1.738
 9682SOL     OW29944   4.889   6.091   5.708
 9682SOL    HW129945   4.867   6.058   5.616
 9682SOL    HW229946   4.912   6.189   5.704
 9683SOL     OW29947   3.054   6.216   2.616
 9683SOL    HW129948   3.006   6.129   2.616
 9683SOL    HW229949   3.142   6.206   2.664
 9684SOL     OW29950   6.970   3.261   5.731
 9684SOL    HW129951   6.995   3.347   5.685
 9684SOL    HW229952   7.009   3.184   5.680
 9685SOL     OW29953   3.824   4.140   1.430
 9685SOL    HW129954   3.849   4.097   1.517
 9685SOL    HW229955   3.759   4.082   1.381
 9686SOL     OW29956   6.459   1.755   5.361
 9686SOL    HW129957   6.389   1.819   5.328
 9686SOL    HW229958   6.549   1.797   5.352
 9687SOL     OW29959   5.822   1.262   3.019
 9687SOL    HW129960   5.888   1.189   2.998
 9687SOL    HW229961   5.872   1.347   3.037
 9688SOL     OW29962   1.051   4.464   1.151
 9688SOL    HW129963   0.967   4.416   1.127
 9688SOL    HW229964   1.093   4.421   1.230
 9689SOL     OW29965   2.370   6.246   1.066
 9689SOL    HW129966   2.322   6.281   0.985
 9689SOL    HW229967   2.458   6.208   1.039
 9690SOL     OW29968   6.684   4.864   4.989
 9690SOL    HW129969   6.773   4.891   4.953
 9690SOL    HW229970   6.613   4.924   4.951
 9691SOL     OW29971   2.851   3.727   1.713
 9691SOL    HW129972   2.929   3.789   1.720
 9691SOL    HW229973   2.841   3.677   1.799
 9692SOL     OW29974   5.061   4.127   0.851
 9692SOL    HW129975   5.140   4.187   0.866
 9692SOL    HW229976   5.038   4.126   0.754
 9693SOL     OW29977   5.056   3.081   5.337
 9693SOL    HW129978   5.122   3.090   5.263
 9693SOL    HW229979   4.992   3.158   5.335
 9694SOL     OW29980   2.736   0.173   2.067
 9694SOL    HW129981   2.658   0.200   2.011
 9694SOL    HW229982   2.801   0.249   2.074
 9695SOL     OW29983   1.035   2.629   3.002
 9695SOL    HW129984   1.045   2.628   3.102
 9695SOL    HW229985   0.991   2.713   2.974
 9696SOL     OW29986   4.997   2.772   3.475
 9696SOL    HW129987   5.024   2.796   3.381
 9696SOL    HW229988   4.995   2.854   3.531
 9697SOL     OW29989   0.490   6.979   1.008
 9697SOL    HW129990   0.481   6.964   0.909
 9697SOL    HW229991   0.456   6.899   1.057
 9698SOL     OW29992   6.296   3.656   1.550
 9698SOL    HW129993   6.256   3.726   1.609
 9698SOL    HW229994   6.330   3.581   1.606
 9699SOL     OW29995   1.361   6.338   0.698
 9699SOL    HW129996   1.420   6.285   0.759
 9699SOL    HW229997   1.271   6.350   0.741
 9700SOL     OW29998   5.437   0.348   5.353
 9700SOL    HW129999   5.478   0.409   5.285
 9700SOL    HW230000   5.483   0.361   5.441
 9701SOL     OW30001   4.052   4.024   6.579
 9701SOL    HW130002   4.085   4.007   6.486
 9701SOL    HW230003   4.037   4.122   6.592
 9702SOL     OW30004   3.506   3.553   1.977
 9702SOL    HW130005   3.591   3.504   1.957
 9702SOL    HW230006   3.434   3.487   2.001
 9703SOL     OW30007   6.441   4.433   4.598
 9703SOL    HW130008   6.405   4.407   4.687
 9703SOL    HW230009   6.496   4.358   4.561
 9704SOL     OW30010   1.343   3.845   2.853
 9704SOL    HW130011   1.338   3.776   2.781
 9704SOL    HW230012   1.368   3.801   2.940
 9705SOL     OW30013   6.058   3.369   5.521
 9705SOL    HW130014   6.055   3.450   5.462
 9705SOL    HW230015   5.966   3.349   5.554
 9706SOL     OW30016   0.598   1.526   2.651
 9706SOL    HW130017   0.660   1.603   2.637
 9706SOL    HW230018   0.642   1.442   2.618
 9707SOL     OW30019   1.357   5.070   2.243
 9707SOL    HW130020   1.274   5.040   2.197
 9707SOL    HW230021   1.345   5.064   2.342
 9708SOL     OW30022   2.481   0.713   1.506
 9708SOL    HW130023   2.567   0.714   1.557
 9708SOL    HW230024   2.497   0.680   1.413
 9709SOL     OW30025   5.682   1.984   1.701
 9709SOL    HW130026   5.630   1.919   1.758
 9709SOL    HW230027   5.618   2.040   1.649
 9710SOL     OW30028   6.670   5.698   3.910
 9710SOL    HW130029   6.678   5.748   3.996
 9710SOL    HW230030   6.760   5.662   3.884
 9711SOL     OW30031   3.463   0.834   0.598
 9711SOL    HW130032   3.509   0.899   0.536
 9711SOL    HW230033   3.376   0.872   0.627
 9712SOL     OW30034   5.487   1.774   6.369
 9712SOL    HW130035   5.481   1.745   6.465
 9712SOL    HW230036   5.458   1.869   6.361
 9713SOL     OW30037   1.155   6.521   2.983
 9713SOL    HW130038   1.114   6.543   3.072
 9713SOL    HW230039   1.141   6.596   2.919
 9714SOL     OW30040   2.390   4.451   4.230
 9714SOL    HW130041   2.347   4.403   4.307
 9714SOL    HW230042   2.394   4.390   4.151
 9715SOL     OW30043   6.911   3.420   6.985
 9715SOL    HW130044   6.946   3.370   6.905
 9715SOL    HW230045   6.964   3.395   0.040
 9716SOL     OW30046   2.086   5.223   0.204
 9716SOL    HW130047   2.018   5.175   0.148
 9716SOL    HW230048   2.141   5.156   0.254
 9717SOL     OW30049   4.208   2.292   5.554
 9717SOL    HW130050   4.250   2.373   5.594
 9717SOL    HW230051   4.133   2.261   5.612
 9718SOL     OW30052   3.862   2.836   6.459
 9718SOL    HW130053   3.902   2.849   6.368
 9718SOL    HW230054   3.911   2.763   6.507
 9719SOL     OW30055   4.871   6.963   5.780
 9719SOL    HW130056   4.872   6.983   5.878
 9719SOL    HW230057   4.960   6.927   5.752
 9720SOL     OW30058   2.253   3.021   3.308
 9720SOL    HW130059   2.217   3.087   3.243
 9720SOL    HW230060   2.329   3.062   3.359
 9721SOL     OW30061   0.744   1.214   0.279
 9721SOL    HW130062   0.708   1.292   0.330
 9721SOL    HW230063   0.798   1.156   0.341
 9722SOL     OW30064   4.082   2.692   5.370
 9722SOL    HW130065   4.127   2.626   5.310
 9722SOL    HW230066   4.044   2.767   5.316
 9723SOL     OW30067   6.509   0.088   4.800
 9723SOL    HW130068   6.563   0.145   4.738
 9723SOL    HW230069   6.533   0.111   4.895
 9724SOL     OW30070   1.587   5.424   0.077
 9724SOL    HW130071   1.665   5.451   0.021
 9724SOL    HW230072   1.607   5.337   0.122
 9725SOL     OW30073   4.221   5.012   4.512
 9725SOL    HW130074   4.198   5.059   4.426
 9725SOL    HW230075   4.205   5.074   4.589
 9726SOL     OW30076   7.011   1.297   3.920
 9726SOL    HW130077   7.020   1.302   3.820
 9726SOL    HW230078   0.069   1.257   3.958
 9727SOL     OW30079   0.438   1.383   1.011
 9727SOL    HW130080   0.422   1.331   1.095
 9727SOL    HW230081   0.387   1.342   0.936
 9728SOL     OW30082   4.982   1.777   4.677
 9728SOL    HW130083   4.928   1.697   4.650
 9728SOL    HW230084   4.959   1.802   4.771
 9729SOL     OW30085   0.661   4.941   2.796
 9729SOL    HW130086   0.602   5.020   2.813
 9729SOL    HW230087   0.679   4.934   2.698
 9730SOL     OW30088   0.903   4.070   3.427
 9730SOL    HW130089   0.846   4.123   3.489
 9730SOL    HW230090   0.914   3.977   3.462
 9731SOL     OW30091   5.228   3.465   1.842
 9731SOL    HW130092   5.278   3.517   1.773
 9731SOL    HW230093   5.178   3.390   1.797
 9732SOL     OW30094   1.750   3.274   3.325
 9732SOL    HW130095   1.799   3.223   3.254
 9732SOL    HW230096   1.727   3.365   3.292
 9733SOL     OW30097   5.982   4.921   2.316
 9733SOL    HW130098   6.022   4.831   2.334
 9733SOL    HW230099   5.990   4.978   2.398
 9734SOL     OW30100   5.124   5.946   6.626
 9734SOL    HW130101   5.035   5.980   6.595
 9734SOL    HW230102   5.159   5.879   6.561
 9735SOL     OW30103   0.584   2.681   0.933
 9735SOL    HW130104   0.642   2.635   1.001
 9735SOL    HW230105   0.626   2.768   0.907
 9736SOL     OW30106   5.042   1.452   4.461
 9736SOL    HW130107   5.007   1.433   4.553
 9736SOL    HW230108   5.141   1.464   4.465
 9737SOL     OW30109   5.764   3.307   2.677
 9737SOL    HW130110   5.695   3.371   2.644
 9737SOL    HW230111   5.841   3.305   2.612
 9738SOL     OW30112   2.636   6.431   1.712
 9738SOL    HW130113   2.564   6.362   1.708
 9738SOL    HW230114   2.596   6.522   1.701
 9739SOL     OW30115   6.025   6.729   6.870
 9739SOL    HW130116   6.123   6.735   6.889
 9739SOL    HW230117   5.995   6.635   6.880
 9740SOL     OW30118   6.102   0.513   3.122
 9740SOL    HW130119   6.096   0.507   3.222
 9740SOL    HW230120   6.068   0.603   3.092
 9741SOL     OW30121   2.419   1.715   4.603
 9741SOL    HW130122   2.451   1.663   4.682
 9741SOL    HW230123   2.431   1.813   4.621
 9742SOL     OW30124   3.920   2.231   6.197
 9742SOL    HW130125   3.981   2.221   6.275
 9742SOL    HW230126   3.873   2.145   6.179
 9743SOL     OW30127   5.343   3.643   4.596
 9743SOL    HW130128   5.317   3.578   4.525
 9743SOL    HW230129   5.442   3.646   4.604
 9744SOL     OW30130   1.522   1.520   3.235
 9744SOL    HW130131   1.608   1.529   3.186
 9744SOL    HW230132   1.458   1.591   3.205
 9745SOL     OW30133   0.050   0.607   5.997
 9745SOL    HW130134   7.018   0.683   5.968
 9745SOL    HW230135   0.079   0.555   5.916
 9746SOL     OW30136   4.450   5.258   6.285
 9746SOL    HW130137   4.450   5.352   6.318
 9746SOL    HW230138   4.413   5.255   6.191
 9747SOL     OW30139   2.227   1.507   2.993
 9747SOL    HW130140   2.261   1.601   2.987
 9747SOL    HW230141   2.265   1.462   3.073
 9748SOL     OW30142   1.222   0.735   3.526
 9748SOL    HW130143   1.299   0.677   3.552
 9748SOL    HW230144   1.234   0.826   3.566
 9749SOL     OW30145   6.859   0.851   2.305
 9749SOL    HW130146   6.886   0.832   2.399
 9749SOL    HW230147   6.759   0.860   2.300
 9750SOL     OW30148   6.190   3.069   4.009
 9750SOL    HW130149   6.186   3.125   3.926
 9750SOL    HW230150   6.215   2.975   3.985
 9751SOL     OW30151   3.481   0.024   1.589
 9751SOL    HW130152   3.412   0.082   1.548
 9751SOL    HW230153   3.442   6.959   1.610
 9752SOL     OW30154   3.330   3.539   6.800
 9752SOL    HW130155   3.270   3.504   6.728
 9752SOL    HW230156   3.291   3.518   6.889
 9753SOL     OW30157   6.898   6.278   4.972
 9753SOL    HW130158   6.907   6.256   4.875
 9753SOL    HW230159   6.801   6.281   4.997
 9754SOL     OW30160   3.224   0.924   1.680
 9754SOL    HW130161   3.166   0.842   1.678
 9754SOL    HW230162   3.319   0.898   1.665
 9755SOL     OW30163   2.756   4.309   0.545
 9755SOL    HW130164   2.733   4.355   0.460
 9755SOL    HW230165   2.699   4.227   0.555
 9756SOL     OW30166   5.620   0.038   5.722
 9756SOL    HW130167   5.682   0.086   5.784
 9756SOL    HW230168   5.577   0.104   5.660
 9757SOL     OW30169   5.290   4.284   4.176
 9757SOL    HW130170   5.345   4.329   4.106
 9757SOL    HW230171   5.310   4.326   4.265
 9758SOL     OW30172   2.285   0.368   1.829
 9758SOL    HW130173   2.199   0.330   1.862
 9758SOL    HW230174   2.296   0.347   1.732
 9759SOL     OW30175   6.694   0.892   1.584
 9759SOL    HW130176   6.731   0.870   1.494
 9759SOL    HW230177   6.690   0.992   1.595
 9760SOL     OW30178   5.004   1.215   7.024
 9760SOL    HW130179   4.979   1.261   6.939
 9760SOL    HW230180   4.925   1.165   0.035
 9761SOL     OW30181   1.172   2.171   0.649
 9761SOL    HW130182   1.260   2.147   0.691
 9761SOL    HW230183   1.135   2.252   0.695
 9762SOL     OW30184   2.711   2.025   5.782
 9762SOL    HW130185   2.736   1.928   5.779
 9762SOL    HW230186   2.762   2.074   5.711
 9763SOL     OW30187   6.316   1.104   1.042
 9763SOL    HW130188   6.355   1.017   1.071
 9763SOL    HW230189   6.224   1.114   1.081
 9764SOL     OW30190   0.051   2.439   2.516
 9764SOL    HW130191   7.010   2.487   2.574
 9764SOL    HW230192   0.142   2.479   2.529
 9765SOL     OW30193   7.013   0.517   2.171
 9765SOL    HW130194   0.010   0.579   2.096
 9765SOL    HW230195   6.973   0.569   2.246
 9766SOL     OW30196   2.162   1.946   4.362
 9766SOL    HW130197   2.162   1.851   4.393
 9766SOL    HW230198   2.086   1.960   4.299
 9767SOL     OW30199   2.288   2.458   5.709
 9767SOL    HW130200   2.194   2.487   5.726
 9767SOL    HW230201   2.351   2.533   5.730
 9768SOL     OW30202   5.683   3.072   0.906
 9768SOL    HW130203   5.627   3.068   0.824
 9768SOL    HW230204   5.742   3.152   0.902
 9769SOL     OW30205   3.396   1.857   5.291
 9769SOL    HW130206   3.399   1.778   5.352
 9769SOL    HW230207   3.420   1.829   5.198
 9770SOL     OW30208   2.590   2.725   6.554
 9770SOL    HW130209   2.588   2.627   6.574
 9770SOL    HW230210   2.682   2.761   6.571
 9771SOL     OW30211   2.746   0.051   2.332
 9771SOL    HW130212   2.798   6.993   2.318
 9771SOL    HW230213   2.725   0.092   2.243
 9772SOL     OW30214   1.579   0.356   1.036
 9772SOL    HW130215   1.494   0.342   1.088
 9772SOL    HW230216   1.559   0.347   0.938
 9773SOL     OW30217   5.226   4.863   1.945
 9773SOL    HW130218   5.267   4.857   2.037
 9773SOL    HW230219   5.284   4.815   1.880
 9774SOL     OW30220   1.014   4.968   5.197
 9774SOL    HW130221   1.024   5.029   5.118
 9774SOL    HW230222   1.080   4.995   5.268
 9775SOL     OW30223   2.511   1.188   3.423
 9775SOL    HW130224   2.539   1.160   3.331
 9775SOL    HW230225   2.414   1.210   3.422
 9776SOL     OW30226   2.284   5.064   0.300
 9776SOL    HW130227   2.293   5.027   0.207
 9776SOL    HW230228   2.368   5.113   0.324
 9777SOL     OW30229   4.380   0.987   5.865
 9777SOL    HW130230   4.309   1.057   5.867
 9777SOL    HW230231   4.391   0.954   5.771
 9778SOL     OW30232   6.921   3.635   4.058
 9778SOL    HW130233   7.012   3.635   4.016
 9778SOL    HW230234   6.851   3.638   3.987
 9779SOL     OW30235   2.032   1.147   3.938
 9779SOL    HW130236   2.090   1.066   3.946
 9779SOL    HW230237   1.945   1.122   3.896
 9780SOL     OW30238   0.960   2.360   1.870
 9780SOL    HW130239   0.972   2.327   1.964
 9780SOL    HW230240   1.020   2.438   1.855
 9781SOL     OW30241   2.106   2.168   3.497
 9781SOL    HW130242   2.133   2.096   3.432
 9781SOL    HW230243   2.177   2.238   3.499
 9782SOL     OW30244   6.700   2.482   1.024
 9782SOL    HW130245   6.679   2.566   1.074
 9782SOL    HW230246   6.699   2.405   1.088
 9783SOL     OW30247   3.581   0.882   3.175
 9783SOL    HW130248   3.598   0.808   3.109
 9783SOL    HW230249   3.504   0.937   3.143
 9784SOL     OW30250   1.181   1.064   6.421
 9784SOL    HW130251   1.170   1.142   6.482
 9784SOL    HW230252   1.101   1.056   6.362
 9785SOL     OW30253   6.938   3.301   4.929
 9785SOL    HW130254   6.860   3.286   4.990
 9785SOL    HW230255   6.979   3.214   4.905
 9786SOL     OW30256   1.941   3.944   0.113
 9786SOL    HW130257   1.979   3.888   0.187
 9786SOL    HW230258   1.953   4.041   0.136
 9787SOL     OW30259   3.073   3.841   3.376
 9787SOL    HW130260   3.128   3.925   3.376
 9787SOL    HW230261   3.043   3.820   3.283
 9788SOL     OW30262   4.535   0.391   2.276
 9788SOL    HW130263   4.504   0.425   2.365
 9788SOL    HW230264   4.624   0.345   2.288
 9789SOL     OW30265   3.833   1.607   6.816
 9789SOL    HW130266   3.813   1.510   6.801
 9789SOL    HW230267   3.925   1.618   6.852
 9790SOL     OW30268   0.209   4.718   4.020
 9790SOL    HW130269   0.112   4.713   3.996
 9790SOL    HW230270   0.255   4.783   3.960
 9791SOL     OW30271   0.973   6.535   1.011
 9791SOL    HW130272   0.991   6.609   0.946
 9791SOL    HW230273   0.884   6.550   1.055
 9792SOL     OW30274   3.917   6.431   0.646
 9792SOL    HW130275   3.938   6.368   0.721
 9792SOL    HW230276   3.827   6.409   0.609
 9793SOL     OW30277   5.715   0.582   3.379
 9793SOL    HW130278   5.656   0.539   3.311
 9793SOL    HW230279   5.783   0.639   3.333
 9794SOL     OW30280   4.539   4.456   4.605
 9794SOL    HW130281   4.521   4.436   4.702
 9794SOL    HW230282   4.626   4.416   4.578
 9795SOL     OW30283   2.136   3.493   3.435
 9795SOL    HW130284   2.168   3.548   3.512
 9795SOL    HW230285   2.171   3.530   3.349
 9796SOL     OW30286   4.124   3.676   3.673
 9796SOL    HW130287   4.116   3.578   3.654
 9796SOL    HW230288   4.141   3.725   3.587
 9797SOL     OW30289   3.012   5.530   6.886
 9797SOL    HW130290   2.982   5.506   6.979
 9797SOL    HW230291   2.935   5.520   6.823
 9798SOL     OW30292   0.548   3.796   0.563
 9798SOL    HW130293   0.576   3.857   0.489
 9798SOL    HW230294   0.569   3.702   0.538
 9799SOL     OW30295   2.713   0.186   6.760
 9799SOL    HW130296   2.756   0.107   6.802
 9799SOL    HW230297   2.666   0.240   6.829
 9800SOL     OW30298   6.654   3.928   5.017
 9800SOL    HW130299   6.666   3.859   5.089
 9800SOL    HW230300   6.574   3.904   4.961
 9801SOL     OW30301   6.314   6.198   6.842
 9801SOL    HW130302   6.396   6.209   6.784
 9801SOL    HW230303   6.239   6.250   6.802
 9802SOL     OW30304   3.825   4.776   0.064
 9802SOL    HW130305   3.907   4.833   0.067
 9802SOL    HW230306   3.838   4.695   0.121
 9803SOL     OW30307   0.771   3.666   6.281
 9803SOL    HW130308   0.775   3.765   6.298
 9803SOL    HW230309   0.856   3.636   6.237
 9804SOL     OW30310   0.155   6.146   2.660
 9804SOL    HW130311   0.248   6.155   2.696
 9804SOL    HW230312   0.145   6.057   2.616
 9805SOL     OW30313   0.761   6.281   3.790
 9805SOL    HW130314   0.731   6.232   3.873
 9805SOL    HW230315   0.727   6.233   3.709
 9806SOL     OW30316   3.547   1.740   6.636
 9806SOL    HW130317   3.591   1.818   6.681
 9806SOL    HW230318   3.607   1.706   6.563
 9807SOL     OW30319   3.315   3.389   2.021
 9807SOL    HW130320   3.275   3.444   2.094
 9807SOL    HW230321   3.251   3.382   1.945
 9808SOL     OW30322   4.233   6.299   2.420
 9808SOL    HW130323   4.186   6.373   2.468
 9808SOL    HW230324   4.172   6.259   2.352
 9809SOL     OW30325   0.153   3.218   1.255
 9809SOL    HW130326   0.238   3.190   1.209
 9809SOL    HW230327   0.098   3.137   1.274
 9810SOL     OW30328   2.376   1.946   6.842
 9810SOL    HW130329   2.402   1.959   6.937
 9810SOL    HW230330   2.318   2.022   6.812
 9811SOL     OW30331   6.336   3.416   4.183
 9811SOL    HW130332   6.346   3.490   4.249
 9811SOL    HW230333   6.369   3.330   4.223
 9812SOL     OW30334   3.318   6.267   5.460
 9812SOL    HW130335   3.338   6.171   5.479
 9812SOL    HW230336   3.261   6.304   5.534
 9813SOL     OW30337   5.114   1.466   1.694
 9813SOL    HW130338   5.044   1.456   1.623
 9813SOL    HW230339   5.185   1.396   1.680
 9814SOL     OW30340   5.308   1.275   0.616
 9814SOL    HW130341   5.221   1.283   0.666
 9814SOL    HW230342   5.323   1.359   0.564
 9815SOL     OW30343   4.337   2.402   4.759
 9815SOL    HW130344   4.276   2.333   4.719
 9815SOL    HW230345   4.297   2.436   4.844
 9816SOL     OW30346   1.910   6.930   0.027
 9816SOL    HW130347   1.869   7.016   0.059
 9816SOL    HW230348   1.852   6.853   0.054
 9817SOL     OW30349   6.775   6.991   3.215
 9817SOL    HW130350   6.765   0.020   3.298
 9817SOL    HW230351   6.740   6.899   3.231
 9818SOL     OW30352   6.511   2.785   4.141
 9818SOL    HW130353   6.598   2.819   4.103
 9818SOL    HW230354   6.459   2.862   4.178
 9819SOL     OW30355   3.981   0.838   3.251
 9819SOL    HW130356   3.954   0.743   3.266
 9819SOL    HW230357   4.080   0.844   3.244
 9820SOL     OW30358   4.066   3.657   5.877
 9820SOL    HW130359   4.164   3.640   5.889
 9820SOL    HW230360   4.050   3.700   5.788
 9821SOL     OW30361   6.368   5.629   0.136
 9821SOL    HW130362   6.277   5.630   0.177
 9821SOL    HW230363   6.380   5.710   0.079
 9822SOL     OW30364   0.459   6.770   2.832
 9822SOL    HW130365   0.548   6.775   2.877
 9822SOL    HW230366   0.394   6.830   2.879
 9823SOL     OW30367   3.395   1.141   2.113
 9823SOL    HW130368   3.463   1.168   2.045
 9823SOL    HW230369   3.305   1.175   2.084
 9824SOL     OW30370   1.467   4.109   5.840
 9824SOL    HW130371   1.496   4.055   5.762
 9824SOL    HW230372   1.404   4.055   5.897
 9825SOL     OW30373   3.965   5.307   5.493
 9825SOL    HW130374   3.994   5.232   5.433
 9825SOL    HW230375   3.885   5.352   5.453
 9826SOL     OW30376   4.167   0.513   5.923
 9826SOL    HW130377   4.267   0.503   5.917
 9826SOL    HW230378   4.135   0.574   5.851
 9827SOL     OW30379   0.830   3.930   4.666
 9827SOL    HW130380   0.878   3.859   4.717
 9827SOL    HW230381   0.825   3.905   4.570
 9828SOL     OW30382   3.656   3.021   6.482
 9828SOL    HW130383   3.730   2.956   6.503
 9828SOL    HW230384   3.572   2.970   6.463
 9829SOL     OW30385   2.353   5.537   0.549
 9829SOL    HW130386   2.329   5.480   0.470
 9829SOL    HW230387   2.444   5.511   0.581
 9830SOL     OW30388   5.835   1.381   1.740
 9830SOL    HW130389   5.873   1.473   1.746
 9830SOL    HW230390   5.856   1.343   1.650
 9831SOL     OW30391   6.294   6.721   1.640
 9831SOL    HW130392   6.307   6.628   1.606
 9831SOL    HW230393   6.245   6.775   1.573
 9832SOL     OW30394   4.463   5.163   1.799
 9832SOL    HW130395   4.400   5.183   1.724
 9832SOL    HW230396   4.451   5.230   1.872
 9833SOL     OW30397   3.505   3.634   5.228
 9833SOL    HW130398   3.521   3.710   5.292
 9833SOL    HW230399   3.423   3.655   5.173
 9834SOL     OW30400   1.010   3.730   4.812
 9834SOL    HW130401   1.062   3.745   4.896
 9834SOL    HW230402   0.946   3.654   4.825
 9835SOL     OW30403   4.851   1.659   4.344
 9835SOL    HW130404   4.859   1.630   4.249
 9835SOL    HW230405   4.920   1.614   4.400
 9836SOL     OW30406   5.025   4.833   3.648
 9836SOL    HW130407   5.061   4.786   3.567
 9836SOL    HW230408   5.083   4.912   3.669
 9837SOL     OW30409   2.647   6.464   4.435
 9837SOL    HW130410   2.655   6.563   4.425
 9837SOL    HW230411   2.589   6.443   4.514
 9838SOL     OW30412   1.041   6.121   6.017
 9838SOL    HW130413   1.018   6.217   6.001
 9838SOL    HW230414   1.018   6.067   5.937
 9839SOL     OW30415   0.132   1.466   1.457
 9839SOL    HW130416   0.188   1.547   1.475
 9839SOL    HW230417   0.181   1.384   1.490
 9840SOL     OW30418   6.516   0.475   1.068
 9840SOL    HW130419   6.476   0.514   0.985
 9840SOL    HW230420   6.500   0.537   1.145
 9841SOL     OW30421   1.887   3.792   4.615
 9841SOL    HW130422   1.820   3.739   4.667
 9841SOL    HW230423   1.976   3.787   4.661
 9842SOL     OW30424   2.912   3.208   2.522
 9842SOL    HW130425   2.819   3.173   2.524
 9842SOL    HW230426   2.935   3.248   2.611
 9843SOL     OW30427   6.677   2.364   1.710
 9843SOL    HW130428   6.659   2.341   1.806
 9843SOL    HW230429   6.727   2.289   1.667
 9844SOL     OW30430   5.654   0.344   2.248
 9844SOL    HW130431   5.713   0.422   2.228
 9844SOL    HW230432   5.584   0.372   2.314
 9845SOL     OW30433   1.504   2.153   3.645
 9845SOL    HW130434   1.510   2.127   3.548
 9845SOL    HW230435   1.597   2.166   3.681
 9846SOL     OW30436   3.002   3.720   3.144
 9846SOL    HW130437   3.086   3.669   3.163
 9846SOL    HW230438   3.017   3.782   3.067
 9847SOL     OW30439   1.461   3.795   6.707
 9847SOL    HW130440   1.533   3.727   6.721
 9847SOL    HW230441   1.500   3.887   6.718
 9848SOL     OW30442   4.517   2.940   0.068
 9848SOL    HW130443   4.490   3.000   0.143
 9848SOL    HW230444   4.550   2.995   7.017
 9849SOL     OW30445   6.770   0.087   6.077
 9849SOL    HW130446   6.768   0.167   6.136
 9849SOL    HW230447   6.676   0.055   6.061
 9850SOL     OW30448   3.974   6.809   2.120
 9850SOL    HW130449   4.047   6.868   2.155
 9850SOL    HW230450   3.909   6.789   2.192
 9851SOL     OW30451   5.348   1.810   5.508
 9851SOL    HW130452   5.274   1.843   5.450
 9851SOL    HW230453   5.338   1.848   5.600
 9852SOL     OW30454   4.567   1.711   3.765
 9852SOL    HW130455   4.482   1.717   3.816
 9852SOL    HW230456   4.590   1.615   3.749
 9853SOL     OW30457   5.865   3.798   2.873
 9853SOL    HW130458   5.860   3.837   2.781
 9853SOL    HW230459   5.845   3.700   2.868
 9854SOL     OW30460   5.867   5.111   4.499
 9854SOL    HW130461   5.775   5.081   4.526
 9854SOL    HW230462   5.887   5.078   4.407
 9855SOL     OW30463   1.338   3.941   2.035
 9855SOL    HW130464   1.402   3.909   2.105
 9855SOL    HW230465   1.300   4.029   2.062
 9856SOL     OW30466   3.488   3.558   0.516
 9856SOL    HW130467   3.486   3.618   0.437
 9856SOL    HW230468   3.452   3.468   0.490
 9857SOL     OW30469   5.245   3.381   3.171
 9857SOL    HW130470   5.252   3.449   3.244
 9857SOL    HW230471   5.313   3.401   3.100
 9858SOL     OW30472   5.458   0.757   2.167
 9858SOL    HW130473   5.484   0.713   2.253
 9858SOL    HW230474   5.526   0.825   2.141
 9859SOL     OW30475   6.289   0.930   2.134
 9859SOL    HW130476   6.284   0.959   2.039
 9859SOL    HW230477   6.239   0.844   2.146
 9860SOL     OW30478   0.832   0.667   2.245
 9860SOL    HW130479   0.820   0.568   2.252
 9860SOL    HW230480   0.744   0.712   2.259
 9861SOL     OW30481   4.261   5.999   4.319
 9861SOL    HW130482   4.270   6.049   4.233
 9861SOL    HW230483   4.182   6.033   4.370
 9862SOL     OW30484   1.857   2.371   0.594
 9862SOL    HW130485   1.905   2.309   0.532
 9862SOL    HW230486   1.917   2.395   0.671
 9863SOL     OW30487   2.956   0.300   3.172
 9863SOL    HW130488   2.953   0.396   3.143
 9863SOL    HW230489   2.988   0.294   3.266
 9864SOL     OW30490   4.722   5.797   2.724
 9864SOL    HW130491   4.807   5.751   2.751
 9864SOL    HW230492   4.742   5.891   2.698
 9865SOL     OW30493   0.636   0.193   3.746
 9865SOL    HW130494   0.542   0.164   3.734
 9865SOL    HW230495   0.645   0.244   3.832
 9866SOL     OW30496   4.787   3.911   4.489
 9866SOL    HW130497   4.790   3.813   4.469
 9866SOL    HW230498   4.766   3.925   4.585
 9867SOL     OW30499   4.846   1.666   0.603
 9867SOL    HW130500   4.939   1.646   0.632
 9867SOL    HW230501   4.785   1.591   0.630
 9868SOL     OW30502   6.695   4.572   6.748
 9868SOL    HW130503   6.683   4.611   6.839
 9868SOL    HW230504   6.704   4.472   6.756
 9869SOL     OW30505   2.099   4.013   3.212
 9869SOL    HW130506   2.130   3.974   3.126
 9869SOL    HW230507   2.015   3.967   3.241
 9870SOL     OW30508   4.679   4.480   2.351
 9870SOL    HW130509   4.730   4.504   2.269
 9870SOL    HW230510   4.585   4.511   2.343
 9871SOL     OW30511   2.157   0.749   5.609
 9871SOL    HW130512   2.136   0.817   5.538
 9871SOL    HW230513   2.189   0.665   5.565
 9872SOL     OW30514   2.987   4.831   3.270
 9872SOL    HW130515   3.047   4.907   3.293
 9872SOL    HW230516   2.916   4.822   3.339
 9873SOL     OW30517   1.708   2.656   0.514
 9873SOL    HW130518   1.697   2.679   0.417
 9873SOL    HW230519   1.716   2.557   0.523
 9874SOL     OW30520   0.423   2.769   3.463
 9874SOL    HW130521   0.389   2.675   3.472
 9874SOL    HW230522   0.439   2.789   3.367
 9875SOL     OW30523   0.570   0.756   2.308
 9875SOL    HW130524   0.559   0.806   2.394
 9875SOL    HW230525   0.500   0.684   2.302
 9876SOL     OW30526   6.475   6.883   3.005
 9876SOL    HW130527   6.439   6.799   3.045
 9876SOL    HW230528   6.443   6.962   3.058
 9877SOL     OW30529   3.483   6.864   2.657
 9877SOL    HW130530   3.407   6.890   2.597
 9877SOL    HW230531   3.464   6.896   2.750
 9878SOL     OW30532   1.553   5.650   5.306
 9878SOL    HW130533   1.517   5.600   5.227
 9878SOL    HW230534   1.647   5.623   5.323
 9879SOL     OW30535   4.379   5.739   4.845
 9879SOL    HW130536   4.280   5.726   4.835
 9879SOL    HW230537   4.418   5.767   4.758
 9880SOL     OW30538   1.019   2.286   5.890
 9880SOL    HW130539   1.104   2.282   5.943
 9880SOL    HW230540   1.035   2.332   5.803
 9881SOL     OW30541   0.563   2.061   5.812
 9881SOL    HW130542   0.659   2.086   5.796
 9881SOL    HW230543   0.558   1.971   5.854
 9882SOL     OW30544   1.222   2.480   3.890
 9882SOL    HW130545   1.231   2.427   3.805
 9882SOL    HW230546   1.313   2.502   3.926
 9883SOL     OW30547   1.609   0.643   1.640
 9883SOL    HW130548   1.525   0.605   1.679
 9883SOL    HW230549   1.668   0.569   1.607
 9884SOL     OW30550   4.099   0.461   3.749
 9884SOL    HW130551   4.088   0.529   3.821
 9884SOL    HW230552   4.189   0.417   3.758
 9885SOL     OW30553   6.101   4.355   4.705
 9885SOL    HW130554   6.078   4.448   4.677
 9885SOL    HW230555   6.018   4.307   4.733
 9886SOL     OW30556   1.346   4.786   2.574
 9886SOL    HW130557   1.375   4.878   2.546
 9886SOL    HW230558   1.421   4.722   2.562
 9887SOL     OW30559   3.604   1.619   0.030
 9887SOL    HW130560   3.538   1.641   6.983
 9887SOL    HW230561   3.695   1.608   7.016
 9888SOL     OW30562   0.072   3.686   0.254
 9888SOL    HW130563   0.030   3.697   0.343
 9888SOL    HW230564   0.162   3.643   0.265
 9889SOL     OW30565   6.271   5.171   0.425
 9889SOL    HW130566   6.209   5.094   0.410
 9889SOL    HW230567   6.340   5.146   0.494
 9890SOL     OW30568   1.493   2.577   1.224
 9890SOL    HW130569   1.438   2.509   1.176
 9890SOL    HW230570   1.537   2.637   1.157
 9891SOL     OW30571   5.631   2.637   0.433
 9891SOL    HW130572   5.578   2.558   0.466
 9891SOL    HW230573   5.706   2.656   0.496
 9892SOL     OW30574   6.671   4.800   0.144
 9892SOL    HW130575   6.752   4.836   0.098
 9892SOL    HW230576   6.674   4.823   0.241
 9893SOL     OW30577   2.374   1.017   1.078
 9893SOL    HW130578   2.325   0.930   1.076
 9893SOL    HW230579   2.470   1.000   1.103
 9894SOL     OW30580   1.412   1.825   0.664
 9894SOL    HW130581   1.314   1.829   0.681
 9894SOL    HW230582   1.440   1.907   0.613
 9895SOL     OW30583   5.608   3.616   4.569
 9895SOL    HW130584   5.611   3.633   4.470
 9895SOL    HW230585   5.650   3.693   4.617
 9896SOL     OW30586   6.505   0.013   0.289
 9896SOL    HW130587   6.531   7.005   0.198
 9896SOL    HW230588   6.478   0.109   0.282
 9897SOL     OW30589   5.734   5.256   3.363
 9897SOL    HW130590   5.792   5.184   3.401
 9897SOL    HW230591   5.665   5.216   3.303
 9898SOL     OW30592   3.153   6.367   5.630
 9898SOL    HW130593   3.183   6.456   5.596
 9898SOL    HW230594   3.090   6.379   5.705
 9899SOL     OW30595   0.759   5.520   0.432
 9899SOL    HW130596   0.842   5.518   0.376
 9899SOL    HW230597   0.741   5.428   0.467
 9900SOL     OW30598   1.413   4.207   3.317
 9900SOL    HW130599   1.420   4.138   3.245
 9900SOL    HW230600   1.359   4.170   3.392
 9901SOL     OW30601   2.476   2.661   5.658
 9901SOL    HW130602   2.548   2.638   5.724
 9901SOL    HW230603   2.503   2.630   5.567
 9902SOL     OW30604   2.728   4.831   6.286
 9902SOL    HW130605   2.659   4.888   6.243
 9902SOL    HW230606   2.717   4.736   6.254
 9903SOL     OW30607   4.867   1.852   3.609
 9903SOL    HW130608   4.784   1.797   3.605
 9903SOL    HW230609   4.935   1.806   3.665
 9904SOL     OW30610   0.172   3.538   6.267
 9904SOL    HW130611   0.116   3.455   6.266
 9904SOL    HW230612   0.121   3.613   6.225
 9905SOL     OW30613   4.210   1.198   0.667
 9905SOL    HW130614   4.210   1.270   0.597
 9905SOL    HW230615   4.118   1.159   0.675
 9906SOL     OW30616   3.639   2.886   2.464
 9906SOL    HW130617   3.708   2.911   2.532
 9906SOL    HW230618   3.685   2.861   2.378
 9907SOL     OW30619   0.254   0.573   1.792
 9907SOL    HW130620   0.284   0.479   1.776
 9907SOL    HW230621   0.329   0.626   1.833
 9908SOL     OW30622   5.001   2.276   3.203
 9908SOL    HW130623   5.016   2.375   3.203
 9908SOL    HW230624   4.909   2.255   3.172
 9909SOL     OW30625   3.443   6.312   3.755
 9909SOL    HW130626   3.380   6.237   3.777
 9909SOL    HW230627   3.392   6.398   3.750
 9910SOL     OW30628   1.010   4.492   2.387
 9910SOL    HW130629   0.960   4.439   2.319
 9910SOL    HW230630   1.024   4.437   2.469
 9911SOL     OW30631   4.138   0.003   2.252
 9911SOL    HW130632   4.205   0.047   2.311
 9911SOL    HW230633   4.048   0.045   2.266
 9912SOL     OW30634   4.356   2.037   0.817
 9912SOL    HW130635   4.355   2.120   0.873
 9912SOL    HW230636   4.379   2.060   0.723
 9913SOL     OW30637   5.755   3.285   6.934
 9913SOL    HW130638   5.707   3.198   6.937
 9913SOL    HW230639   5.725   3.343   7.009
 9914SOL     OW30640   0.547   2.703   4.551
 9914SOL    HW130641   0.587   2.726   4.462
 9914SOL    HW230642   0.611   2.727   4.624
 9915SOL     OW30643   4.802   0.963   3.214
 9915SOL    HW130644   4.892   0.921   3.230
 9915SOL    HW230645   4.807   1.021   3.132
 9916SOL     OW30646   2.397   2.575   2.281
 9916SOL    HW130647   2.306   2.535   2.273
 9916SOL    HW230648   2.448   2.529   2.353
 9917SOL     OW30649   6.666   4.223   6.586
 9917SOL    HW130650   6.728   4.293   6.550
 9917SOL    HW230651   6.643   4.243   6.681
 9918SOL     OW30652   4.065   1.651   3.115
 9918SOL    HW130653   4.127   1.579   3.084
 9918SOL    HW230654   4.101   1.740   3.087
 9919SOL     OW30655   6.257   6.634   1.306
 9919SOL    HW130656   6.356   6.642   1.316
 9919SOL    HW230657   6.228   6.677   1.221
 9920SOL     OW30658   4.992   1.335   2.890
 9920SOL    HW130659   5.060   1.399   2.926
 9920SOL    HW230660   4.946   1.376   2.811
 9921SOL     OW30661   4.417   5.596   6.024
 9921SOL    HW130662   4.463   5.581   6.112
 9921SOL    HW230663   4.361   5.517   6.001
 9922SOL     OW30664   1.147   5.444   0.079
 9922SOL    HW130665   1.071   5.495   0.038
 9922SOL    HW230666   1.187   5.499   0.153
 9923SOL     OW30667   4.678   5.273   6.778
 9923SOL    HW130668   4.706   5.184   6.743
 9923SOL    HW230669   4.604   5.260   6.844
 9924SOL     OW30670   7.017   3.020   5.142
 9924SOL    HW130671   0.016   3.112   5.173
 9924SOL    HW230672   0.074   2.966   5.129
 9925SOL     OW30673   5.964   2.838   4.295
 9925SOL    HW130674   5.950   2.832   4.394
 9925SOL    HW230675   5.912   2.766   4.249
 9926SOL     OW30676   2.751   4.039   0.006
 9926SOL    HW130677   2.719   4.087   0.087
 9926SOL    HW230678   2.851   4.031   0.009
 9927SOL     OW30679   6.442   0.112   2.602
 9927SOL    HW130680   6.348   0.085   2.580
 9927SOL    HW230681   6.487   0.038   2.652
 9928SOL     OW30682   4.945   4.817   1.025
 9928SOL    HW130683   5.008   4.894   1.037
 9928SOL    HW230684   4.857   4.851   0.992
 9929SOL     OW30685   2.085   5.780   4.983
 9929SOL    HW130686   2.124   5.806   4.895
 9929SOL    HW230687   2.112   5.686   5.005
 9930SOL     OW30688   6.873   6.999   4.564
 9930SOL    HW130689   6.831   6.923   4.613
 9930SOL    HW230690   6.801   0.032   4.526
 9931SOL     OW30691   0.741   4.823   4.869
 9931SOL    HW130692   0.649   4.787   4.858
 9931SOL    HW230693   0.799   4.787   4.795
 9932SOL     OW30694   0.976   6.706   6.244
 9932SOL    HW130695   0.963   6.622   6.296
 9932SOL    HW230696   1.048   6.761   6.287
 9933SOL     OW30697   1.846   5.315   2.710
 9933SOL    HW130698   1.886   5.327   2.619
 9933SOL    HW230699   1.900   5.367   2.777
 9934SOL     OW30700   5.709   2.316   5.580
 9934SOL    HW130701   5.662   2.404   5.571
 9934SOL    HW230702   5.644   2.242   5.566
 9935SOL     OW30703   2.477   0.896   0.362
 9935SOL    HW130704   2.451   0.808   0.402
 9935SOL    HW230705   2.426   0.969   0.407
 9936SOL     OW30706   0.448   5.054   5.092
 9936SOL    HW130707   0.379   5.053   5.020
 9936SOL    HW230708   0.529   5.105   5.060
 9937SOL     OW30709   6.172   2.149   5.990
 9937SOL    HW130710   6.156   2.162   6.088
 9937SOL    HW230711   6.242   2.214   5.960
 9938SOL     OW30712   0.317   6.027   3.165
 9938SOL    HW130713   0.403   5.993   3.128
 9938SOL    HW230714   0.274   5.955   3.220
 9939SOL     OW30715   3.202   2.823   1.186
 9939SOL    HW130716   3.233   2.835   1.092
 9939SOL    HW230717   3.123   2.883   1.202
 9940SOL     OW30718   0.148   0.481   1.121
 9940SOL    HW130719   0.179   0.442   1.034
 9940SOL    HW230720   0.211   0.453   1.194
 9941SOL     OW30721   2.893   3.849   5.308
 9941SOL    HW130722   2.891   3.945   5.281
 9941SOL    HW230723   2.800   3.815   5.318
 9942SOL     OW30724   2.116   5.792   2.864
 9942SOL    HW130725   2.203   5.763   2.824
 9942SOL    HW230726   2.120   5.783   2.964
 9943SOL     OW30727   0.591   6.015   6.251
 9943SOL    HW130728   0.496   6.021   6.279
 9943SOL    HW230729   0.596   6.001   6.152
 9944SOL     OW30730   1.944   4.553   6.395
 9944SOL    HW130731   1.864   4.494   6.383
 9944SOL    HW230732   1.949   4.585   6.490
 9945SOL     OW30733   6.873   5.482   0.092
 9945SOL    HW130734   6.847   5.389   0.066
 9945SOL    HW230735   6.861   5.544   0.014
 9946SOL     OW30736   4.989   1.137   4.730
 9946SOL    HW130737   4.904   1.179   4.701
 9946SOL    HW230738   5.011   1.167   4.823
 9947SOL     OW30739   6.314   4.485   5.794
 9947SOL    HW130740   6.368   4.413   5.751
 9947SOL    HW230741   6.298   4.559   5.728
 9948SOL     OW30742   4.687   4.348   4.884
 9948SOL    HW130743   4.679   4.440   4.924
 9948SOL    HW230744   4.717   4.356   4.789
 9949SOL     OW30745   5.538   4.554   3.727
 9949SOL    HW130746   5.508   4.615   3.653
 9949SOL    HW230747   5.519   4.459   3.701
 9950SOL     OW30748   5.274   6.282   5.369
 9950SOL    HW130749   5.368   6.274   5.334
 9950SOL    HW230750   5.229   6.360   5.324
 9951SOL     OW30751   5.828   2.332   3.350
 9951SOL    HW130752   5.753   2.375   3.399
 9951SOL    HW230753   5.801   2.241   3.321
 9952SOL     OW30754   6.484   4.013   0.754
 9952SOL    HW130755   6.455   4.036   0.661
 9952SOL    HW230756   6.498   4.097   0.806
 9953SOL     OW30757   6.607   1.794   3.665
 9953SOL    HW130758   6.609   1.698   3.637
 9953SOL    HW230759   6.513   1.819   3.692
 9954SOL     OW30760   6.109   6.904   5.089
 9954SOL    HW130761   6.127   6.813   5.127
 9954SOL    HW230762   6.151   6.973   5.148
 9955SOL     OW30763   6.942   4.965   4.725
 9955SOL    HW130764   7.013   4.970   4.655
 9955SOL    HW230765   6.854   4.947   4.683
 9956SOL     OW30766   1.865   6.948   2.038
 9956SOL    HW130767   1.958   6.950   2.003
 9956SOL    HW230768   1.806   6.897   1.975
 9957SOL     OW30769   6.433   5.285   3.673
 9957SOL    HW130770   6.505   5.353   3.685
 9957SOL    HW230771   6.394   5.293   3.581
 9958SOL     OW30772   2.918   4.479   0.900
 9958SOL    HW130773   2.826   4.469   0.863
 9958SOL    HW230774   2.983   4.432   0.840
 9959SOL     OW30775   4.042   3.611   6.148
 9959SOL    HW130776   4.022   3.652   6.059
 9959SOL    HW230777   4.138   3.585   6.152
 9960SOL     OW30778   0.205   1.257   2.995
 9960SOL    HW130779   0.177   1.166   2.963
 9960SOL    HW230780   0.305   1.263   2.996
 9961SOL     OW30781   2.157   5.443   4.332
 9961SOL    HW130782   2.173   5.528   4.382
 9961SOL    HW230783   2.231   5.430   4.265
 9962SOL     OW30784   5.538   5.950   4.839
 9962SOL    HW130785   5.624   5.916   4.801
 9962SOL    HW230786   5.482   5.987   4.765
 9963SOL     OW30787   3.588   1.766   1.195
 9963SOL    HW130788   3.598   1.807   1.105
 9963SOL    HW230789   3.608   1.668   1.189
 9964SOL     OW30790   4.543   5.907   4.297
 9964SOL    HW130791   4.450   5.931   4.326
 9964SOL    HW230792   4.584   5.845   4.364
 9965SOL     OW30793   3.646   0.338   6.859
 9965SOL    HW130794   3.728   0.295   6.820
 9965SOL    HW230795   3.649   0.332   6.959
 9966SOL     OW30796   1.535   5.292   2.132
 9966SOL    HW130797   1.484   5.377   2.143
 9966SOL    HW230798   1.476   5.214   2.151
 9967SOL     OW30799   1.503   5.929   1.803
 9967SOL    HW130800   1.454   5.891   1.882
 9967SOL    HW230801   1.578   5.987   1.835
 9968SOL     OW30802   4.065   3.900   2.075
 9968SOL    HW130803   4.005   3.847   2.135
 9968SOL    HW230804   4.133   3.948   2.130
 9969SOL     OW30805   1.418   3.715   2.383
 9969SOL    HW130806   1.442   3.649   2.312
 9969SOL    HW230807   1.336   3.685   2.430
 9970SOL     OW30808   5.709   4.822   1.898
 9970SOL    HW130809   5.760   4.781   1.823
 9970SOL    HW230810   5.697   4.754   1.971
 9971SOL     OW30811   1.930   4.125   0.528
 9971SOL    HW130812   2.012   4.127   0.471
 9971SOL    HW230813   1.907   4.031   0.551
 9972SOL     OW30814   6.429   4.776   2.970
 9972SOL    HW130815   6.482   4.710   2.918
 9972SOL    HW230816   6.486   4.855   2.992
 9973SOL     OW30817   6.235   1.035   4.400
 9973SOL    HW130818   6.191   0.966   4.343
 9973SOL    HW230819   6.285   1.099   4.342
 9974SOL     OW30820   1.632   0.625   3.813
 9974SOL    HW130821   1.673   0.683   3.883
 9974SOL    HW230822   1.671   0.534   3.817
 9975SOL     OW30823   0.182   2.733   0.393
 9975SOL    HW130824   0.150   2.795   0.322
 9975SOL    HW230825   0.274   2.701   0.370
 9976SOL     OW30826   1.281   0.357   5.546
 9976SOL    HW130827   1.203   0.308   5.507
 9976SOL    HW230828   1.255   0.452   5.565
 9977SOL     OW30829   6.368   4.323   4.832
 9977SOL    HW130830   6.410   4.257   4.770
 9977SOL    HW230831   6.269   4.326   4.815
 9978SOL     OW30832   0.387   2.629   4.287
 9978SOL    HW130833   0.485   2.631   4.269
 9978SOL    HW230834   0.352   2.723   4.288
 9979SOL     OW30835   6.105   3.596   4.708
 9979SOL    HW130836   6.056   3.613   4.793
 9979SOL    HW230837   6.177   3.529   4.723
 9980SOL     OW30838   3.351   0.710   6.639
 9980SOL    HW130839   3.382   0.723   6.545
 9980SOL    HW230840   3.348   0.612   6.659
 9981SOL     OW30841   3.045   1.595   3.874
 9981SOL    HW130842   2.952   1.564   3.853
 9981SOL    HW230843   3.041   1.679   3.928
 9982SOL     OW30844   7.021   6.115   4.323
 9982SOL    HW130845   7.002   6.213   4.318
 9982SOL    HW230846   0.054   6.088   4.246
 9983SOL     OW30847   0.053   1.416   2.398
 9983SOL    HW130848   0.116   1.493   2.389
 9983SOL    HW230849   0.016   1.393   2.308
 9984SOL     OW30850   2.887   1.540   6.464
 9984SOL    HW130851   2.961   1.546   6.532
 9984SOL    HW230852   2.800   1.529   6.512
 9985SOL     OW30853   1.756   1.070   1.549
 9985SOL    HW130854   1.787   1.161   1.578
 9985SOL    HW230855   1.707   1.026   1.625
 9986SOL     OW30856   5.471   4.004   4.807
 9986SOL    HW130857   5.385   3.978   4.762
 9986SOL    HW230858   5.451   4.054   4.890
 9987SOL     OW30859   6.217   3.755   6.400
 9987SOL    HW130860   6.301   3.721   6.358
 9987SOL    HW230861   6.211   3.854   6.389
 9988SOL     OW30862   6.611   6.761   5.319
 9988SOL    HW130863   6.548   6.807   5.382
 9988SOL    HW230864   6.572   6.763   5.227
 9989SOL     OW30865   0.130   3.256   5.194
 9989SOL    HW130866   0.190   3.293   5.123
 9989SOL    HW230867   0.158   3.291   5.283
 9990SOL     OW30868   1.094   4.552   3.029
 9990SOL    HW130869   1.182   4.580   2.991
 9990SOL    HW230870   1.099   4.557   3.129
 9991SOL     OW30871   2.977   2.279   4.010
 9991SOL    HW130872   3.048   2.209   4.006
 9991SOL    HW230873   2.944   2.289   4.103
 9992SOL     OW30874   6.115   5.536   6.351
 9992SOL    HW130875   6.075   5.532   6.259
 9992SOL    HW230876   6.126   5.631   6.378
 9993SOL     OW30877   1.454   1.531   1.470
 9993SOL    HW130878   1.447   1.618   1.518
 9993SOL    HW230879   1.494   1.463   1.532
 9994SOL     OW30880   5.909   4.588   3.542
 9994SOL    HW130881   5.920   4.586   3.442
 9994SOL    HW230882   5.874   4.500   3.573
 9995SOL     OW30883   6.021   0.816   4.410
 9995SOL    HW130884   6.073   0.731   4.406
 9995SOL    HW230885   5.923   0.795   4.400
 9996SOL     OW30886   3.600   4.649   6.704
 9996SOL    HW130887   3.647   4.602   6.779
 9996SOL    HW230888   3.513   4.604   6.686
 9997SOL     OW30889   2.372   0.211   5.369
 9997SOL    HW130890   2.284   0.197   5.323
 9997SOL    HW230891   2.445   0.218   5.301
 9998SOL     OW30892   5.664   5.738   5.834
 9998SOL    HW130893   5.636   5.761   5.927
 9998SOL    HW230894   5.600   5.780   5.769
 9999SOL     OW30895   6.316   2.423   5.638
 9999SOL    HW130896   6.277   2.515   5.639
 9999SOL    HW230897   6.247   2.357   5.608
10000SOL     OW30898   6.872   2.621   6.605
10000SOL    HW130899   6.846   2.525   6.618
10000SOL    HW230900   6.928   2.629   6.522
10001SOL     OW30901   4.888   0.482   3.244
10001SOL    HW130902   4.908   0.536   3.326
10001SOL    HW230903   4.966   0.486   3.182
10002SOL     OW30904   1.395   0.516   1.737
10002SOL    HW130905   1.423   0.436   1.790
10002SOL    HW230906   1.298   0.508   1.712
10003SOL     OW30907   3.724   2.026   3.466
10003SOL    HW130908   3.669   1.983   3.394
10003SOL    HW230909   3.668   2.038   3.548
10004SOL     OW30910   6.801   2.181   2.885
10004SOL    HW130911   6.775   2.277   2.879
10004SOL    HW230912   6.897   2.174   2.911
10005SOL     OW30913   4.451   6.832   3.767
10005SOL    HW130914   4.387   6.819   3.842
10005SOL    HW230915   4.519   6.901   3.792
10006SOL     OW30916   3.739   6.830   4.429
10006SOL    HW130917   3.730   6.813   4.527
10006SOL    HW230918   3.679   6.767   4.379
10007SOL     OW30919   0.311   3.486   4.346
10007SOL    HW130920   0.304   3.586   4.346
10007SOL    HW230921   0.219   3.446   4.353
10008SOL     OW30922   2.954   0.644   4.295
10008SOL    HW130923   2.892   0.705   4.246
10008SOL    HW230924   2.916   0.624   4.385
10009SOL     OW30925   1.758   4.167   1.730
10009SOL    HW130926   1.821   4.238   1.697
10009SOL    HW230927   1.809   4.097   1.778
10010SOL     OW30928   1.157   1.994   5.910
10010SOL    HW130929   1.131   2.080   5.866
10010SOL    HW230930   1.076   1.937   5.922
10011SOL     OW30931   6.667   6.806   5.717
10011SOL    HW130932   6.584   6.755   5.696
10011SOL    HW230933   6.645   6.903   5.728
10012SOL     OW30934   6.002   1.200   3.878
10012SOL    HW130935   6.027   1.292   3.848
10012SOL    HW230936   5.902   1.192   3.882
10013SOL     OW30937   0.632   0.532   2.716
10013SOL    HW130938   0.724   0.570   2.727
10013SOL    HW230939   0.565   0.597   2.752
10014SOL     OW30940   0.229   4.565   6.338
10014SOL    HW130941   0.258   4.472   6.312
10014SOL    HW230942   0.288   4.632   6.292
10015SOL     OW30943   1.715   4.346   6.980
10015SOL    HW130944   1.659   4.291   0.017
10015SOL    HW230945   1.671   4.434   6.965
10016SOL     OW30946   2.689   0.983   5.658
10016SOL    HW130947   2.732   1.067   5.626
10016SOL    HW230948   2.702   0.911   5.590
10017SOL     OW30949   1.922   2.304   4.316
10017SOL    HW130950   1.905   2.368   4.240
10017SOL    HW230951   1.863   2.328   4.393
10018SOL     OW30952   4.969   0.299   5.579
10018SOL    HW130953   5.062   0.335   5.593
10018SOL    HW230954   4.928   0.344   5.500
10019SOL     OW30955   1.256   0.850   3.149
10019SOL    HW130956   1.263   0.835   3.248
10019SOL    HW230957   1.319   0.923   3.123
10020SOL     OW30958   0.344   2.941   0.927
10020SOL    HW130959   0.335   2.841   0.917
10020SOL    HW230960   0.428   2.971   0.882
10021SOL     OW30961   0.303   3.608   0.951
10021SOL    HW130962   0.315   3.707   0.959
10021SOL    HW230963   0.347   3.576   0.867
10022SOL     OW30964   1.286   2.217   6.180
10022SOL    HW130965   1.311   2.244   6.087
10022SOL    HW230966   1.329   2.130   6.202
10023SOL     OW30967   0.052   3.525   0.940
10023SOL    HW130968   0.148   3.552   0.951
10023SOL    HW230969   0.043   3.427   0.958
10024SOL     OW30970   1.899   4.514   3.989
10024SOL    HW130971   1.921   4.558   3.902
10024SOL    HW230972   1.937   4.567   4.065
10025SOL     OW30973   1.563   1.193   0.521
10025SOL    HW130974   1.479   1.162   0.475
10025SOL    HW230975   1.601   1.272   0.473
10026SOL     OW30976   6.728   0.638   3.473
10026SOL    HW130977   6.658   0.658   3.404
10026SOL    HW230978   6.810   0.691   3.452
10027SOL     OW30979   4.856   2.928   5.407
10027SOL    HW130980   4.777   2.980   5.377
10027SOL    HW230981   4.940   2.978   5.385
10028SOL     OW30982   1.882   0.967   0.384
10028SOL    HW130983   1.869   1.060   0.348
10028SOL    HW230984   1.795   0.931   0.415
10029SOL     OW30985   6.052   1.742   3.749
10029SOL    HW130986   6.063   1.781   3.841
10029SOL    HW230987   6.008   1.808   3.689
10030SOL     OW30988   1.781   0.105   3.443
10030SOL    HW130989   1.770   0.038   3.369
10030SOL    HW230990   1.775   0.198   3.406
10031SOL     OW30991   6.303   4.591   3.833
10031SOL    HW130992   6.284   4.651   3.911
10031SOL    HW230993   6.394   4.611   3.797
10032SOL     OW30994   2.738   1.438   4.647
10032SOL    HW130995   2.661   1.493   4.680
10032SOL    HW230996   2.819   1.496   4.638
10033SOL     OW30997   5.827   3.104   4.983
10033SOL    HW130998   5.757   3.163   5.024
10033SOL    HW230999   5.907   3.158   4.961
10034SOL     OW31000   5.218   0.558   5.088
10034SOL    HW131001   5.176   0.487   5.144
10034SOL    HW231002   5.309   0.580   5.125
10035SOL     OW31003   0.575   5.692   1.817
10035SOL    HW131004   0.654   5.728   1.767
10035SOL    HW231005   0.498   5.681   1.754
10036SOL     OW31006   6.649   0.900   0.416
10036SOL    HW131007   6.740   0.875   0.384
10036SOL    HW231008   6.580   0.862   0.354
10037SOL     OW31009   0.943   6.810   6.995
10037SOL    HW131010   0.846   6.822   7.016
10037SOL    HW231011   0.965   6.858   6.910
10038SOL     OW31012   6.439   7.025   1.248
10038SOL    HW131013   6.445   0.099   1.238
10038SOL    HW231014   6.465   6.981   1.162
10039SOL     OW31015   3.272   0.157   3.631
10039SOL    HW131016   3.226   0.233   3.677
10039SOL    HW231017   3.363   0.145   3.669
10040SOL     OW31018   0.724   3.091   1.355
10040SOL    HW131019   0.815   3.117   1.322
10040SOL    HW231020   0.684   3.167   1.407
10041SOL     OW31021   1.834   5.950   0.103
10041SOL    HW131022   1.741   5.922   0.128
10041SOL    HW231023   1.890   5.957   0.186
10042SOL     OW31024   5.951   2.775   2.394
10042SOL    HW131025   5.887   2.837   2.351
10042SOL    HW231026   6.034   2.768   2.339
10043SOL     OW31027   0.199   1.665   4.864
10043SOL    HW131028   0.101   1.685   4.874
10043SOL    HW231029   0.230   1.612   4.943
10044SOL     OW31030   3.011   2.043   5.983
10044SOL    HW131031   3.041   1.951   5.957
10044SOL    HW231032   3.090   2.097   6.013
10045SOL     OW31033   3.575   1.061   0.952
10045SOL    HW131034   3.481   1.033   0.934
10045SOL    HW231035   3.581   1.160   0.952
10046SOL     OW31036   1.675   5.724   0.779
10046SOL    HW131037   1.602   5.658   0.794
10046SOL    HW231038   1.745   5.713   0.849
10047SOL     OW31039   0.495   3.441   1.086
10047SOL    HW131040   0.449   3.497   1.017
10047SOL    HW231041   0.444   3.356   1.100
10048SOL     OW31042   6.147   5.499   3.097
10048SOL    HW131043   6.118   5.577   3.042
10048SOL    HW231044   6.174   5.424   3.037
10049SOL     OW31045   0.035   0.805   5.527
10049SOL    HW131046   0.039   0.901   5.501
10049SOL    HW231047   6.988   0.791   5.594
10050SOL     OW31048   6.902   3.063   0.002
10050SOL    HW131049   6.885   3.141   0.061
10050SOL    HW231050   6.815   3.024   6.997
10051SOL     OW31051   2.098   3.212   3.742
10051SOL    HW131052   2.050   3.134   3.783
10051SOL    HW231053   2.085   3.210   3.643
10052SOL     OW31054   1.213   6.480   3.430
10052SOL    HW131055   1.208   6.386   3.394
10052SOL    HW231056   1.309   6.507   3.439
10053SOL     OW31057   5.838   5.324   5.100
10053SOL    HW131058   5.858   5.227   5.088
10053SOL    HW231059   5.881   5.376   5.026
10054SOL     OW31060   6.331   4.050   5.348
10054SOL    HW131061   6.365   4.074   5.257
10054SOL    HW231062   6.396   4.079   5.418
10055SOL     OW31063   0.870   1.322   6.794
10055SOL    HW131064   0.797   1.389   6.811
10055SOL    HW231065   0.930   1.356   6.721
10056SOL     OW31066   5.967   2.041   3.499
10056SOL    HW131067   6.046   2.061   3.557
10056SOL    HW231068   5.897   2.111   3.513
10057SOL     OW31069   5.975   5.051   5.135
10057SOL    HW131070   6.037   5.051   5.056
10057SOL    HW231071   5.960   4.956   5.164
10058SOL     OW31072   0.028   4.048   5.438
10058SOL    HW131073   0.074   3.983   5.376
10058SOL    HW231074   0.051   4.141   5.411
10059SOL     OW31075   6.141   0.801   6.677
10059SOL    HW131076   6.100   0.805   6.769
10059SOL    HW231077   6.089   0.737   6.620
10060SOL     OW31078   2.362   2.047   1.538
10060SOL    HW131079   2.402   2.048   1.447
10060SOL    HW231080   2.329   2.138   1.562
10061SOL     OW31081   3.880   6.919   3.460
10061SOL    HW131082   3.794   6.968   3.469
10061SOL    HW231083   3.900   6.870   3.545
10062SOL     OW31084   6.912   0.029   4.883
10062SOL    HW131085   6.906   0.049   4.785
10062SOL    HW231086   7.007   0.038   4.913
10063SOL     OW31087   2.458   2.329   5.525
10063SOL    HW131088   2.428   2.372   5.611
10063SOL    HW231089   2.379   2.315   5.466
10064SOL     OW31090   2.999   0.023   0.464
10064SOL    HW131091   2.962   6.978   0.524
10064SOL    HW231092   3.098   0.032   0.481
10065SOL     OW31093   0.586   1.721   1.578
10065SOL    HW131094   0.654   1.683   1.516
10065SOL    HW231095   0.562   1.814   1.550
10066SOL     OW31096   6.359   3.621   3.731
10066SOL    HW131097   6.329   3.566   3.809
10066SOL    HW231098   6.386   3.560   3.656
10067SOL     OW31099   6.724   3.453   5.782
10067SOL    HW131100   6.671   3.426   5.862
10067SOL    HW231101   6.820   3.430   5.796
10068SOL     OW31102   2.070   3.410   2.974
10068SOL    HW131103   2.071   3.448   2.882
10068SOL    HW231104   2.066   3.485   3.041
10069SOL     OW31105   2.928   5.168   0.432
10069SOL    HW131106   2.888   5.150   0.522
10069SOL    HW231107   2.957   5.082   0.391
10070SOL     OW31108   4.274   6.661   6.243
10070SOL    HW131109   4.237   6.722   6.173
10070SOL    HW231110   4.233   6.570   6.233
10071SOL     OW31111   5.980   0.099   4.112
10071SOL    HW131112   6.021   0.041   4.182
10071SOL    HW231113   6.049   0.127   4.046
10072SOL     OW31114   6.765   3.059   1.762
10072SOL    HW131115   6.727   3.119   1.692
10072SOL    HW231116   6.788   2.971   1.722
10073SOL     OW31117   6.038   4.648   4.716
10073SOL    HW131118   5.970   4.721   4.719
10073SOL    HW231119   6.084   4.649   4.627
10074SOL     OW31120   1.086   4.984   0.331
10074SOL    HW131121   1.040   4.898   0.308
10074SOL    HW231122   1.094   5.040   0.249
10075SOL     OW31123   1.521   3.281   1.923
10075SOL    HW131124   1.434   3.279   1.873
10075SOL    HW231125   1.511   3.335   2.007
10076SOL     OW31126   5.109   5.116   4.668
10076SOL    HW131127   5.100   5.116   4.768
10076SOL    HW231128   5.103   5.210   4.634
10077SOL     OW31129   5.152   3.555   6.671
10077SOL    HW131130   5.203   3.493   6.730
10077SOL    HW231131   5.090   3.610   6.728
10078SOL     OW31132   6.898   5.367   5.123
10078SOL    HW131133   6.872   5.447   5.178
10078SOL    HW231134   6.984   5.329   5.159
10079SOL     OW31135   4.871   2.955   3.966
10079SOL    HW131136   4.884   3.054   3.974
10079SOL    HW231137   4.857   2.916   4.057
10080SOL     OW31138   5.243   1.754   5.788
10080SOL    HW131139   5.271   1.659   5.773
10080SOL    HW231140   5.274   1.784   5.878
10081SOL     OW31141   1.370   4.091   0.797
10081SOL    HW131142   1.404   4.110   0.889
10081SOL    HW231143   1.446   4.094   0.732
10082SOL     OW31144   0.646   4.673   1.057
10082SOL    HW131145   0.669   4.730   0.978
10082SOL    HW231146   0.630   4.579   1.027
10083SOL     OW31147   3.195   5.231   2.875
10083SOL    HW131148   3.198   5.313   2.818
10083SOL    HW231149   3.117   5.175   2.850
10084SOL     OW31150   1.122   1.040   5.187
10084SOL    HW131151   1.107   1.083   5.276
10084SOL    HW231152   1.096   0.943   5.192
10085SOL     OW31153   5.095   0.437   0.612
10085SOL    HW131154   5.122   0.408   0.521
10085SOL    HW231155   5.102   0.359   0.675
10086SOL     OW31156   5.425   6.686   3.391
10086SOL    HW131157   5.513   6.697   3.436
10086SOL    HW231158   5.354   6.671   3.460
10087SOL     OW31159   1.449   6.052   5.544
10087SOL    HW131160   1.538   6.071   5.503
10087SOL    HW231161   1.461   5.987   5.619
10088SOL     OW31162   6.770   2.916   1.481
10088SOL    HW131163   6.853   2.948   1.437
10088SOL    HW231164   6.793   2.860   1.561
10089SOL     OW31165   3.401   0.693   1.549
10089SOL    HW131166   3.488   0.741   1.558
10089SOL    HW231167   3.417   0.594   1.550
10090SOL     OW31168   2.455   6.493   2.494
10090SOL    HW131169   2.382   6.546   2.450
10090SOL    HW231170   2.415   6.417   2.544
10091SOL     OW31171   6.040   4.496   5.801
10091SOL    HW131172   6.021   4.466   5.707
10091SOL    HW231173   6.137   4.520   5.809
10092SOL     OW31174   0.933   2.720   4.153
10092SOL    HW131175   1.022   2.766   4.154
10092SOL    HW231176   0.941   2.633   4.104
10093SOL     OW31177   4.708   4.752   6.292
10093SOL    HW131178   4.765   4.812   6.348
10093SOL    HW231179   4.744   4.659   6.295
10094SOL     OW31180   3.536   1.829   1.489
10094SOL    HW131181   3.533   1.803   1.392
10094SOL    HW231182   3.592   1.911   1.499
10095SOL     OW31183   4.088   2.952   5.661
10095SOL    HW131184   4.126   3.025   5.603
10095SOL    HW231185   3.990   2.968   5.673
10096SOL     OW31186   6.553   3.041   1.952
10096SOL    HW131187   6.496   3.117   1.981
10096SOL    HW231188   6.609   3.068   1.874
10097SOL     OW31189   0.213   1.264   0.525
10097SOL    HW131190   0.129   1.315   0.508
10097SOL    HW231191   0.241   1.276   0.621
10098SOL     OW31192   2.718   5.472   3.924
10098SOL    HW131193   2.713   5.372   3.920
10098SOL    HW231194   2.625   5.510   3.921
10099SOL     OW31195   0.324   4.928   1.925
10099SOL    HW131196   0.399   4.868   1.897
10099SOL    HW231197   0.305   4.993   1.852
10100SOL     OW31198   5.328   5.271   4.041
10100SOL    HW131199   5.262   5.336   4.004
10100SOL    HW231200   5.401   5.256   3.974
10101SOL     OW31201   0.047   3.263   0.988
10101SOL    HW131202   0.088   3.280   1.078
10101SOL    HW231203   6.984   3.218   1.000
10102SOL     OW31204   0.180   5.122   3.440
10102SOL    HW131205   0.179   5.158   3.347
10102SOL    HW231206   0.149   5.194   3.503
10103SOL     OW31207   0.034   5.862   6.387
10103SOL    HW131208   0.021   5.854   6.288
10103SOL    HW231209   0.006   5.777   6.432
10104SOL     OW31210   2.524   0.814   4.974
10104SOL    HW131211   2.516   0.752   4.895
10104SOL    HW231212   2.552   0.761   5.054
10105SOL     OW31213   3.371   1.240   4.901
10105SOL    HW131214   3.374   1.335   4.932
10105SOL    HW231215   3.276   1.207   4.905
10106SOL     OW31216   5.436   4.590   1.211
10106SOL    HW131217   5.452   4.672   1.157
10106SOL    HW231218   5.443   4.612   1.308
10107SOL     OW31219   5.367   5.128   0.329
10107SOL    HW131220   5.303   5.194   0.290
10107SOL    HW231221   5.451   5.127   0.275
10108SOL     OW31222   2.133   2.261   5.992
10108SOL    HW131223   2.097   2.242   6.083
10108SOL    HW231224   2.231   2.282   5.998
10109SOL     OW31225   1.030   2.504   1.421
10109SOL    HW131226   0.996   2.591   1.384
10109SOL    HW231227   0.952   2.448   1.450
10110SOL     OW31228   6.151   5.295   2.820
10110SOL    HW131229   6.109   5.363   2.760
10110SOL    HW231230   6.086   5.268   2.891
10111SOL     OW31231   0.536   2.390   1.650
10111SOL    HW131232   0.545   2.343   1.738
10111SOL    HW231233   0.486   2.476   1.663
10112SOL     OW31234   0.510   2.382   2.764
10112SOL    HW131235   0.504   2.328   2.680
10112SOL    HW231236   0.603   2.379   2.800
10113SOL     OW31237   6.022   0.335   6.191
10113SOL    HW131238   6.024   0.289   6.280
10113SOL    HW231239   5.928   0.360   6.169
10114SOL     OW31240   6.092   3.075   1.448
10114SOL    HW131241   6.116   3.078   1.351
10114SOL    HW231242   6.030   2.999   1.465
10115SOL     OW31243   3.693   2.786   5.558
10115SOL    HW131244   3.753   2.715   5.594
10115SOL    HW231245   3.652   2.756   5.473
10116SOL     OW31246   0.101   0.262   5.605
10116SOL    HW131247   0.092   0.173   5.648
10116SOL    HW231248   0.138   0.251   5.513
10117SOL     OW31249   6.474   4.603   3.385
10117SOL    HW131250   6.513   4.510   3.384
10117SOL    HW231251   6.380   4.600   3.419
10118SOL     OW31252   4.232   5.141   3.735
10118SOL    HW131253   4.225   5.185   3.645
10118SOL    HW231254   4.212   5.043   3.725
10119SOL     OW31255   6.512   6.173   6.017
10119SOL    HW131256   6.448   6.098   6.002
10119SOL    HW231257   6.572   6.151   6.093
10120SOL     OW31258   2.307   2.524   3.798
10120SOL    HW131259   2.299   2.455   3.870
10120SOL    HW231260   2.256   2.606   3.825
10121SOL     OW31261   0.273   4.741   0.946
10121SOL    HW131262   0.266   4.668   1.013
10121SOL    HW231263   0.298   4.703   0.857
10122SOL     OW31264   1.522   0.270   3.352
10122SOL    HW131265   1.492   0.181   3.385
10122SOL    HW231266   1.451   0.311   3.295
10123SOL     OW31267   6.688   4.992   6.723
10123SOL    HW131268   6.629   4.966   6.800
10123SOL    HW231269   6.693   4.918   6.657
10124SOL     OW31270   2.425   5.084   3.073
10124SOL    HW131271   2.419   5.076   2.973
10124SOL    HW231272   2.506   5.036   3.106
10125SOL     OW31273   1.148   0.502   5.010
10125SOL    HW131274   1.129   0.546   4.922
10125SOL    HW231275   1.062   0.469   5.049
10126SOL     OW31276   6.408   6.717   5.718
10126SOL    HW131277   6.439   6.622   5.708
10126SOL    HW231278   6.321   6.718   5.767
10127SOL     OW31279   2.982   6.910   5.511
10127SOL    HW131280   3.008   6.986   5.570
10127SOL    HW231281   2.984   6.825   5.562
10128SOL     OW31282   2.232   2.766   0.321
10128SOL    HW131283   2.327   2.733   0.321
10128SOL    HW231284   2.170   2.688   0.329
10129SOL     OW31285   6.013   1.636   4.550
10129SOL    HW131286   5.913   1.644   4.550
10129SOL    HW231287   6.040   1.557   4.495
10130SOL     OW31288   0.745   1.620   4.543
10130SOL    HW131289   0.729   1.619   4.444
10130SOL    HW231290   0.813   1.690   4.565
10131SOL     OW31291   2.293   6.660   4.452
10131SOL    HW131292   2.366   6.638   4.516
10131SOL    HW231293   2.301   6.756   4.424
10132SOL     OW31294   5.914   6.980   1.474
10132SOL    HW131295   5.935   6.970   1.377
10132SOL    HW231296   5.895   0.051   1.494
10133SOL     OW31297   5.516   6.819   1.226
10133SOL    HW131298   5.511   6.896   1.163
10133SOL    HW231299   5.447   6.751   1.203
10134SOL     OW31300   6.633   0.425   3.184
10134SOL    HW131301   6.728   0.435   3.214
10134SOL    HW231302   6.587   0.358   3.243
10135SOL     OW31303   5.762   0.308   3.359
10135SOL    HW131304   5.675   0.265   3.336
10135SOL    HW231305   5.747   0.404   3.382
10136SOL     OW31306   4.454   2.208   2.795
10136SOL    HW131307   4.474   2.135   2.730
10136SOL    HW231308   4.451   2.171   2.888
10137SOL     OW31309   6.532   5.126   5.243
10137SOL    HW131310   6.440   5.114   5.280
10137SOL    HW231311   6.555   5.047   5.185
10138SOL     OW31312   0.112   2.736   1.462
10138SOL    HW131313   0.128   2.705   1.368
10138SOL    HW231314   0.174   2.811   1.483
10139SOL     OW31315   3.089   2.605   6.495
10139SOL    HW131316   3.088   2.616   6.396
10139SOL    HW231317   3.021   2.538   6.523
10140SOL     OW31318   1.194   6.163   5.472
10140SOL    HW131319   1.136   6.094   5.516
10140SOL    HW231320   1.287   6.155   5.506
10141SOL     OW31321   1.661   2.586   4.215
10141SOL    HW131322   1.652   2.658   4.146
10141SOL    HW231323   1.692   2.626   4.301
10142SOL     OW31324   4.905   6.482   3.192
10142SOL    HW131325   4.931   6.386   3.179
10142SOL    HW231326   4.863   6.516   3.108
10143SOL     OW31327   5.633   2.664   6.657
10143SOL    HW131328   5.630   2.752   6.609
10143SOL    HW231329   5.661   2.592   6.593
10144SOL     OW31330   3.375   6.428   0.619
10144SOL    HW131331   3.287   6.393   0.650
10144SOL    HW231332   3.422   6.359   0.566
10145SOL     OW31333   6.080   6.891   6.025
10145SOL    HW131334   6.106   6.866   6.119
10145SOL    HW231335   5.991   6.936   6.026
10146SOL     OW31336   0.911   2.761   4.999
10146SOL    HW131337   0.816   2.731   4.992
10146SOL    HW231338   0.937   2.810   4.916
10147SOL     OW31339   4.097   5.961   5.690
10147SOL    HW131340   4.073   5.868   5.718
10147SOL    HW231341   4.127   5.961   5.595
10148SOL     OW31342   0.616   4.315   0.292
10148SOL    HW131343   0.534   4.260   0.279
10148SOL    HW231344   0.659   4.332   0.203
10149SOL     OW31345   4.095   3.209   1.253
10149SOL    HW131346   4.079   3.305   1.277
10149SOL    HW231347   4.060   3.151   1.327
10150SOL     OW31348   4.439   4.450   1.193
10150SOL    HW131349   4.517   4.511   1.204
10150SOL    HW231350   4.405   4.455   1.099
10151SOL     OW31351   6.489   0.629   6.011
10151SOL    HW131352   6.559   0.558   6.001
10151SOL    HW231353   6.419   0.599   6.075
10152SOL     OW31354   3.961   6.979   2.530
10152SOL    HW131355   4.048   6.937   2.558
10152SOL    HW231356   3.887   6.913   2.543
10153SOL     OW31357   4.800   4.578   1.904
10153SOL    HW131358   4.726   4.516   1.877
10153SOL    HW231359   4.793   4.662   1.851
10154SOL     OW31360   4.583   5.342   5.811
10154SOL    HW131361   4.495   5.387   5.799
10154SOL    HW231362   4.650   5.385   5.750
10155SOL     OW31363   4.301   1.838   4.173
10155SOL    HW131364   4.384   1.788   4.198
10155SOL    HW231365   4.319   1.896   4.094
10156SOL     OW31366   4.047   1.587   6.983
10156SOL    HW131367   4.084   1.648   0.027
10156SOL    HW231368   3.981   1.524   7.025
10157SOL     OW31369   0.295   4.590   1.675
10157SOL    HW131370   0.394   4.585   1.689
10157SOL    HW231371   0.277   4.637   1.589
10158SOL     OW31372   5.803   5.214   7.018
10158SOL    HW131373   5.892   5.244   0.030
10158SOL    HW231374   5.734   5.284   0.012
10159SOL     OW31375   3.243   2.826   1.930
10159SOL    HW131376   3.177   2.901   1.923
10159SOL    HW231377   3.204   2.744   1.889
10160SOL     OW31378   0.408   4.589   2.747
10160SOL    HW131379   0.499   4.578   2.786
10160SOL    HW231380   0.340   4.580   2.820
10161SOL     OW31381   5.537   3.557   5.514
10161SOL    HW131382   5.454   3.538   5.566
10161SOL    HW231383   5.533   3.509   5.426
10162SOL     OW31384   1.609   2.308   1.989
10162SOL    HW131385   1.665   2.313   1.906
10162SOL    HW231386   1.537   2.241   1.977
10163SOL     OW31387   2.737   5.321   5.108
10163SOL    HW131388   2.800   5.276   5.045
10163SOL    HW231389   2.784   5.346   5.192
10164SOL     OW31390   0.583   1.672   3.966
10164SOL    HW131391   0.616   1.644   3.876
10164SOL    HW231392   0.653   1.727   4.012
10165SOL     OW31393   0.725   3.339   4.639
10165SOL    HW131394   0.812   3.300   4.609
10165SOL    HW231395   0.682   3.386   4.562
10166SOL     OW31396   1.981   6.213   2.648
10166SOL    HW131397   2.039   6.163   2.712
10166SOL    HW231398   2.037   6.258   2.579
10167SOL     OW31399   2.188   1.794   6.955
10167SOL    HW131400   2.216   1.718   7.013
10167SOL    HW231401   2.266   1.826   6.902
10168SOL     OW31402   6.818   0.423   6.676
10168SOL    HW131403   6.908   0.382   6.694
10168SOL    HW231404   6.762   0.417   6.758
10169SOL     OW31405   5.196   4.428   3.666
10169SOL    HW131406   5.207   4.504   3.730
10169SOL    HW231407   5.175   4.345   3.717
10170SOL     OW31408   5.361   5.933   0.205
10170SOL    HW131409   5.262   5.926   0.193
10170SOL    HW231410   5.391   6.026   0.182
10171SOL     OW31411   2.193   4.987   4.907
10171SOL    HW131412   2.159   4.931   4.983
10171SOL    HW231413   2.161   4.948   4.821
10172SOL     OW31414   6.474   0.949   3.562
10172SOL    HW131415   6.476   1.044   3.530
10172SOL    HW231416   6.483   0.888   3.483
10173SOL     OW31417   3.600   3.507   4.882
10173SOL    HW131418   3.539   3.572   4.838
10173SOL    HW231419   3.610   3.426   4.825
10174SOL     OW31420   4.050   5.477   1.379
10174SOL    HW131421   4.029   5.483   1.477
10174SOL    HW231422   4.100   5.392   1.361
10175SOL     OW31423   0.109   0.008   4.459
10175SOL    HW131424   0.019   6.991   4.465
10175SOL    HW231425   0.146   7.019   4.367
10176SOL     OW31426   6.626   0.970   4.644
10176SOL    HW131427   6.666   1.042   4.587
10176SOL    HW231428   6.682   0.887   4.637
10177SOL     OW31429   2.546   0.815   4.081
10177SOL    HW131430   2.531   0.822   3.983
10177SOL    HW231431   2.458   0.821   4.129
10178SOL     OW31432   0.721   1.823   0.971
10178SOL    HW131433   0.647   1.881   0.940
10178SOL    HW231434   0.687   1.730   0.986
10179SOL     OW31435   1.041   4.157   0.178
10179SOL    HW131436   1.013   4.138   0.272
10179SOL    HW231437   0.960   4.184   0.125
10180SOL     OW31438   4.033   0.255   5.922
10180SOL    HW131439   4.073   0.213   5.841
10180SOL    HW231440   4.090   0.330   5.953
10181SOL     OW31441   6.134   3.257   2.895
10181SOL    HW131442   6.099   3.164   2.903
10181SOL    HW231443   6.130   3.286   2.799
10182SOL     OW31444   4.692   1.007   1.233
10182SOL    HW131445   4.613   0.947   1.245
10182SOL    HW231446   4.665   1.101   1.252
10183SOL     OW31447   5.229   0.672   5.433
10183SOL    HW131448   5.237   0.750   5.371
10183SOL    HW231449   5.239   0.703   5.527
10184SOL     OW31450   5.196   2.227   6.037
10184SOL    HW131451   5.191   2.245   6.135
10184SOL    HW231452   5.134   2.152   6.014
10185SOL     OW31453   3.380   5.373   1.020
10185SOL    HW131454   3.444   5.443   0.989
10185SOL    HW231455   3.360   5.386   1.117
10186SOL     OW31456   3.641   3.540   6.481
10186SOL    HW131457   3.566   3.596   6.514
10186SOL    HW231458   3.607   3.448   6.459
10187SOL     OW31459   2.038   4.713   5.350
10187SOL    HW131460   1.943   4.734   5.326
10187SOL    HW231461   2.039   4.631   5.408
10188SOL     OW31462   2.825   0.249   6.047
10188SOL    HW131463   2.818   0.152   6.026
10188SOL    HW231464   2.772   0.270   6.129
10189SOL     OW31465   2.068   1.549   5.026
10189SOL    HW131466   2.109   1.457   5.026
10189SOL    HW231467   2.119   1.608   5.089
10190SOL     OW31468   4.534   4.642   0.903
10190SOL    HW131469   4.625   4.604   0.918
10190SOL    HW231470   4.467   4.569   0.902
10191SOL     OW31471   5.341   6.997   0.185
10191SOL    HW131472   5.253   0.006   0.220
10191SOL    HW231473   5.408   6.998   0.259
10192SOL     OW31474   1.546   1.078   4.599
10192SOL    HW131475   1.534   0.986   4.636
10192SOL    HW231476   1.636   1.113   4.625
10193SOL     OW31477   3.712   3.513   3.738
10193SOL    HW131478   3.783   3.459   3.785
10193SOL    HW231479   3.639   3.535   3.802
10194SOL     OW31480   2.907   0.178   2.523
10194SOL    HW131481   2.969   0.255   2.509
10194SOL    HW231482   2.850   0.167   2.442
10195SOL     OW31483   5.132   6.825   2.417
10195SOL    HW131484   5.176   6.909   2.449
10195SOL    HW231485   5.055   6.803   2.477
10196SOL     OW31486   5.471   3.122   4.245
10196SOL    HW131487   5.522   3.048   4.289
10196SOL    HW231488   5.535   3.190   4.209
10197SOL     OW31489   5.664   1.480   2.389
10197SOL    HW131490   5.598   1.408   2.369
10197SOL    HW231491   5.617   1.558   2.430
10198SOL     OW31492   2.332   0.280   1.067
10198SOL    HW131493   2.403   0.325   1.012
10198SOL    HW231494   2.244   0.324   1.049
10199SOL     OW31495   0.855   1.905   0.137
10199SOL    HW131496   0.767   1.924   0.092
10199SOL    HW231497   0.904   1.990   0.153
10200SOL     OW31498   5.728   5.167   5.444
10200SOL    HW131499   5.748   5.157   5.542
10200SOL    HW231500   5.663   5.242   5.431
10201SOL     OW31501   2.056   4.933   2.895
10201SOL    HW131502   1.992   4.934   2.971
10201SOL    HW231503   2.136   4.879   2.919
10202SOL     OW31504   0.501   2.688   2.842
10202SOL    HW131505   0.563   2.686   2.920
10202SOL    HW231506   0.458   2.599   2.832
10203SOL     OW31507   1.277   3.467   2.100
10203SOL    HW131508   1.203   3.534   2.113
10203SOL    HW231509   1.241   3.387   2.051
10204SOL     OW31510   3.169   5.274   4.088
10204SOL    HW131511   3.151   5.194   4.030
10204SOL    HW231512   3.084   5.324   4.103
10205SOL     OW31513   4.160   1.112   2.877
10205SOL    HW131514   4.230   1.157   2.932
10205SOL    HW231515   4.171   1.137   2.781
10206SOL     OW31516   4.403   0.534   6.151
10206SOL    HW131517   4.382   0.509   6.056
10206SOL    HW231518   4.482   0.595   6.152
10207SOL     OW31519   4.233   0.918   3.231
10207SOL    HW131520   4.242   1.017   3.216
10207SOL    HW231521   4.321   0.881   3.261
10208SOL     OW31522   5.827   3.885   4.994
10208SOL    HW131523   5.784   3.842   5.074
10208SOL    HW231524   5.827   3.984   5.005
10209SOL     OW31525   5.469   6.812   6.672
10209SOL    HW131526   5.508   6.730   6.631
10209SOL    HW231527   5.457   6.883   6.602
10210SOL     OW31528   5.130   5.683   1.918
10210SOL    HW131529   5.230   5.681   1.917
10210SOL    HW231530   5.096   5.675   1.825
10211SOL     OW31531   3.757   5.544   4.841
10211SOL    HW131532   3.766   5.448   4.814
10211SOL    HW231533   3.704   5.593   4.771
10212SOL     OW31534   5.929   6.549   5.219
10212SOL    HW131535   5.955   6.596   5.135
10212SOL    HW231536   6.006   6.494   5.252
10213SOL     OW31537   5.248   0.466   3.718
10213SOL    HW131538   5.286   0.447   3.809
10213SOL    HW231539   5.214   0.381   3.677
10214SOL     OW31540   6.987   0.438   1.870
10214SOL    HW131541   6.896   0.479   1.883
10214SOL    HW231542   0.031   0.496   1.911
10215SOL     OW31543   3.794   2.896   0.125
10215SOL    HW131544   3.787   2.812   0.072
10215SOL    HW231545   3.744   2.969   0.079
10216SOL     OW31546   4.918   0.435   2.769
10216SOL    HW131547   4.980   0.486   2.711
10216SOL    HW231548   4.831   0.422   2.721
10217SOL     OW31549   3.147   2.084   5.704
10217SOL    HW131550   3.111   2.016   5.767
10217SOL    HW231551   3.203   2.039   5.634
10218SOL     OW31552   2.270   2.658   1.126
10218SOL    HW131553   2.179   2.617   1.134
10218SOL    HW231554   2.339   2.588   1.141
10219SOL     OW31555   0.794   4.085   0.900
10219SOL    HW131556   0.807   4.025   0.980
10219SOL    HW231557   0.702   4.073   0.864
10220SOL     OW31558   3.893   2.515   0.700
10220SOL    HW131559   3.954   2.563   0.637
10220SOL    HW231560   3.940   2.499   0.787
10221SOL     OW31561   3.188   0.928   5.259
10221SOL    HW131562   3.259   0.942   5.189
10221SOL    HW231563   3.119   1.000   5.252
10222SOL     OW31564   1.927   4.780   5.803
10222SOL    HW131565   1.972   4.691   5.800
10222SOL    HW231566   1.985   4.846   5.851
10223SOL     OW31567   6.657   4.943   0.372
10223SOL    HW131568   6.613   4.953   0.461
10223SOL    HW231569   6.682   5.034   0.337
10224SOL     OW31570   2.254   6.876   4.662
10224SOL    HW131571   2.315   6.804   4.694
10224SOL    HW231572   2.299   6.928   4.590
10225SOL     OW31573   5.503   5.848   4.580
10225SOL    HW131574   5.500   5.763   4.633
10225SOL    HW231575   5.597   5.883   4.579
10226SOL     OW31576   6.832   2.614   0.528
10226SOL    HW131577   6.878   2.681   0.586
10226SOL    HW231578   6.799   2.539   0.585
10227SOL     OW31579   5.627   6.071   6.553
10227SOL    HW131580   5.538   6.051   6.513
10227SOL    HW231581   5.627   6.044   6.649
10228SOL     OW31582   0.566   3.463   3.347
10228SOL    HW131583   0.634   3.524   3.306
10228SOL    HW231584   0.569   3.374   3.301
10229SOL     OW31585   2.217   0.991   1.861
10229SOL    HW131586   2.284   0.921   1.837
10229SOL    HW231587   2.264   1.069   1.901
10230SOL     OW31588   6.338   6.593   4.726
10230SOL    HW131589   6.357   6.531   4.802
10230SOL    HW231590   6.395   6.675   4.735
10231SOL     OW31591   4.285   6.331   4.385
10231SOL    HW131592   4.338   6.305   4.304
10231SOL    HW231593   4.289   6.430   4.397
10232SOL     OW31594   3.806   2.104   4.720
10232SOL    HW131595   3.804   2.013   4.678
10232SOL    HW231596   3.789   2.173   4.649
10233SOL     OW31597   4.582   1.060   5.414
10233SOL    HW131598   4.541   1.135   5.465
10233SOL    HW231599   4.677   1.046   5.443
10234SOL     OW31600   5.790   6.089   1.533
10234SOL    HW131601   5.853   6.151   1.581
10234SOL    HW231602   5.790   6.001   1.580
10235SOL     OW31603   4.919   1.568   5.869
10235SOL    HW131604   4.978   1.583   5.948
10235SOL    HW231605   4.930   1.643   5.804
10236SOL     OW31606   2.377   5.768   2.783
10236SOL    HW131607   2.453   5.728   2.731
10236SOL    HW231608   2.414   5.820   2.860
10237SOL     OW31609   6.575   2.491   2.989
10237SOL    HW131610   6.560   2.584   2.957
10237SOL    HW231611   6.530   2.479   3.078
10238SOL     OW31612   4.621   5.317   4.447
10238SOL    HW131613   4.539   5.332   4.392
10238SOL    HW231614   4.656   5.405   4.480
10239SOL     OW31615   6.908   3.913   4.158
10239SOL    HW131616   6.908   3.822   4.116
10239SOL    HW231617   6.974   3.915   4.233
10240SOL     OW31618   6.446   3.884   3.653
10240SOL    HW131619   6.405   3.806   3.700
10240SOL    HW231620   6.529   3.912   3.700
10241SOL     OW31621   1.883   1.125   3.558
10241SOL    HW131622   1.797   1.166   3.587
10241SOL    HW231623   1.953   1.197   3.553
10242SOL     OW31624   0.988   6.515   5.968
10242SOL    HW131625   0.921   6.469   6.026
10242SOL    HW231626   0.942   6.567   5.896
10243SOL     OW31627   0.819   5.822   2.711
10243SOL    HW131628   0.752   5.872   2.657
10243SOL    HW231629   0.908   5.824   2.665
10244SOL     OW31630   1.807   6.268   6.959
10244SOL    HW131631   1.779   6.295   6.868
10244SOL    HW231632   1.855   6.344   7.003
10245SOL     OW31633   2.262   2.257   0.366
10245SOL    HW131634   2.285   2.160   0.354
10245SOL    HW231635   2.291   2.308   0.286
10246SOL     OW31636   4.064   3.767   4.272
10246SOL    HW131637   4.044   3.803   4.363
10246SOL    HW231638   3.987   3.782   4.212
10247SOL     OW31639   1.468   5.849   5.771
10247SOL    HW131640   1.447   5.915   5.844
10247SOL    HW231641   1.526   5.777   5.808
10248SOL     OW31642   4.779   0.277   2.322
10248SOL    HW131643   4.870   0.307   2.296
10248SOL    HW231644   4.777   0.177   2.330
10249SOL     OW31645   4.202   1.419   0.158
10249SOL    HW131646   4.190   1.368   0.073
10249SOL    HW231647   4.113   1.450   0.191
10250SOL     OW31648   5.924   0.235   0.150
10250SOL    HW131649   5.837   0.197   0.184
10250SOL    HW231650   5.905   0.305   0.082
10251SOL     OW31651   3.830   4.430   6.554
10251SOL    HW131652   3.863   4.509   6.607
10251SOL    HW231653   3.730   4.433   6.550
10252SOL     OW31654   6.339   5.102   2.362
10252SOL    HW131655   6.315   5.189   2.406
10252SOL    HW231656   6.424   5.112   2.311
10253SOL     OW31657   3.739   5.221   6.513
10253SOL    HW131658   3.682   5.204   6.433
10253SOL    HW231659   3.721   5.313   6.548
10254SOL     OW31660   2.621   1.636   4.388
10254SOL    HW131661   2.544   1.693   4.418
10254SOL    HW231662   2.591   1.576   4.314
10255SOL     OW31663   2.984   5.840   3.014
10255SOL    HW131664   3.064   5.818   3.069
10255SOL    HW231665   2.915   5.768   3.025
10256SOL     OW31666   5.972   6.230   6.835
10256SOL    HW131667   6.030   6.163   6.882
10256SOL    HW231668   5.884   6.237   6.882
10257SOL     OW31669   1.760   6.560   6.312
10257SOL    HW131670   1.800   6.468   6.309
10257SOL    HW231671   1.827   6.623   6.350
10258SOL     OW31672   4.248   0.540   3.450
10258SOL    HW131673   4.164   0.486   3.458
10258SOL    HW231674   4.255   0.603   3.527
10259SOL     OW31675   0.780   3.575   3.547
10259SOL    HW131676   0.713   3.527   3.490
10259SOL    HW231677   0.855   3.514   3.569
10260SOL     OW31678   0.119   0.060   1.243
10260SOL    HW131679   0.200   0.108   1.276
10260SOL    HW231680   0.078   0.008   1.318
10261SOL     OW31681   2.317   6.854   1.523
10261SOL    HW131682   2.244   6.803   1.478
10261SOL    HW231683   2.327   6.943   1.480
10262SOL     OW31684   1.964   5.241   5.155
10262SOL    HW131685   1.911   5.158   5.141
10262SOL    HW231686   2.023   5.231   5.235
10263SOL     OW31687   6.548   2.181   5.868
10263SOL    HW131688   6.556   2.085   5.839
10263SOL    HW231689   6.604   2.239   5.809
10264SOL     OW31690   0.287   6.571   6.489
10264SOL    HW131691   0.331   6.587   6.577
10264SOL    HW231692   0.239   6.483   6.491
10265SOL     OW31693   4.378   1.933   2.348
10265SOL    HW131694   4.474   1.959   2.354
10265SOL    HW231695   4.371   1.834   2.332
10266SOL     OW31696   3.965   4.246   6.338
10266SOL    HW131697   4.005   4.277   6.425
10266SOL    HW231698   3.943   4.326   6.281
10267SOL     OW31699   6.296   1.712   6.233
10267SOL    HW131700   6.309   1.671   6.143
10267SOL    HW231701   6.368   1.780   6.249
10268SOL     OW31702   6.054   4.639   1.801
10268SOL    HW131703   6.079   4.722   1.851
10268SOL    HW231704   6.030   4.567   1.867
10269SOL     OW31705   3.128   2.877   6.066
10269SOL    HW131706   3.193   2.953   6.053
10269SOL    HW231707   3.140   2.811   5.991
10270SOL     OW31708   2.834   6.118   0.834
10270SOL    HW131709   2.843   6.022   0.857
10270SOL    HW231710   2.907   6.170   0.878
10271SOL     OW31711   3.636   4.888   0.835
10271SOL    HW131712   3.671   4.870   0.743
10271SOL    HW231713   3.541   4.858   0.841
10272SOL     OW31714   0.610   0.926   6.041
10272SOL    HW131715   0.551   1.004   6.018
10272SOL    HW231716   0.619   0.919   6.140
10273SOL     OW31717   4.461   6.158   4.536
10273SOL    HW131718   4.485   6.089   4.468
10273SOL    HW231719   4.411   6.233   4.491
10274SOL     OW31720   2.397   6.138   6.022
10274SOL    HW131721   2.425   6.100   6.110
10274SOL    HW231722   2.309   6.184   6.031
10275SOL     OW31723   1.157   6.165   1.915
10275SOL    HW131724   1.236   6.225   1.921
10275SOL    HW231725   1.103   6.188   1.834
10276SOL     OW31726   6.849   6.400   6.269
10276SOL    HW131727   6.833   6.467   6.342
10276SOL    HW231728   6.849   6.446   6.180
10277SOL     OW31729   1.936   5.180   3.229
10277SOL    HW131730   1.982   5.253   3.180
10277SOL    HW231731   2.004   5.115   3.264
10278SOL     OW31732   6.354   0.461   6.221
10278SOL    HW131733   6.271   0.446   6.274
10278SOL    HW231734   6.377   0.378   6.171
10279SOL     OW31735   3.353   6.672   3.495
10279SOL    HW131736   3.312   6.682   3.404
10279SOL    HW231737   3.450   6.650   3.486
10280SOL     OW31738   3.071   2.731   6.743
10280SOL    HW131739   3.100   2.702   6.652
10280SOL    HW231740   3.066   2.651   6.803
10281SOL     OW31741   3.854   6.743   4.142
10281SOL    HW131742   3.903   6.763   4.226
10281SOL    HW231743   3.771   6.799   4.137
10282SOL     OW31744   1.224   2.649   4.530
10282SOL    HW131745   1.289   2.723   4.545
10282SOL    HW231746   1.275   2.563   4.517
10283SOL     OW31747   1.038   3.430   5.673
10283SOL    HW131748   1.065   3.421   5.578
10283SOL    HW231749   1.016   3.339   5.710
10284SOL     OW31750   5.598   3.722   6.402
10284SOL    HW131751   5.510   3.684   6.430
10284SOL    HW231752   5.656   3.649   6.365
10285SOL     OW31753   5.876   0.273   0.460
10285SOL    HW131754   5.835   0.268   0.550
10285SOL    HW231755   5.967   0.314   0.467
10286SOL     OW31756   4.772   0.799   3.709
10286SOL    HW131757   4.787   0.795   3.610
10286SOL    HW231758   4.712   0.724   3.738
10287SOL     OW31759   2.039   5.963   1.838
10287SOL    HW131760   2.127   5.926   1.869
10287SOL    HW231761   2.043   5.978   1.739
10288SOL     OW31762   4.917   6.277   3.825
10288SOL    HW131763   4.924   6.363   3.876
10288SOL    HW231764   4.900   6.202   3.889
10289SOL     OW31765   3.325   1.296   1.636
10289SOL    HW131766   3.414   1.341   1.647
10289SOL    HW231767   3.266   1.352   1.577
10290SOL     OW31768   2.922   3.659   2.491
10290SOL    HW131769   2.903   3.592   2.419
10290SOL    HW231770   2.888   3.624   2.578
10291SOL     OW31771   3.842   0.464   5.900
10291SOL    HW131772   3.927   0.517   5.905
10291SOL    HW231773   3.864   0.366   5.906
10292SOL     OW31774   6.798   0.777   4.548
10292SOL    HW131775   6.862   0.731   4.610
10292SOL    HW231776   6.726   0.713   4.522
10293SOL     OW31777   2.556   5.440   2.741
10293SOL    HW131778   2.636   5.379   2.740
10293SOL    HW231779   2.586   5.534   2.724
10294SOL     OW31780   5.979   1.513   3.025
10294SOL    HW131781   5.944   1.509   2.931
10294SOL    HW231782   6.077   1.532   3.023
10295SOL     OW31783   0.831   5.079   5.747
10295SOL    HW131784   0.788   5.096   5.836
10295SOL    HW231785   0.760   5.070   5.677
10296SOL     OW31786   6.311   2.254   1.144
10296SOL    HW131787   6.386   2.196   1.176
10296SOL    HW231788   6.229   2.198   1.131
10297SOL     OW31789   2.266   5.178   4.695
10297SOL    HW131790   2.222   5.219   4.775
10297SOL    HW231791   2.340   5.117   4.726
10298SOL     OW31792   5.375   3.509   3.381
10298SOL    HW131793   5.393   3.411   3.393
10298SOL    HW231794   5.460   3.560   3.387
10299SOL     OW31795   5.043   4.891   2.255
10299SOL    HW131796   5.086   4.820   2.199
10299SOL    HW231797   4.971   4.936   2.202
10300SOL     OW31798   2.174   5.233   2.805
10300SOL    HW131799   2.138   5.159   2.862
10300SOL    HW231800   2.132   5.228   2.715
10301SOL     OW31801   5.644   2.122   1.984
10301SOL    HW131802   5.586   2.157   1.911
10301SOL    HW231803   5.632   2.023   1.993
10302SOL     OW31804   1.393   5.030   3.286
10302SOL    HW131805   1.423   5.066   3.374
10302SOL    HW231806   1.471   4.993   3.236
10303SOL     OW31807   3.602   2.869   1.082
10303SOL    HW131808   3.503   2.882   1.073
10303SOL    HW231809   3.624   2.844   1.176
10304SOL     OW31810   6.119   6.484   3.902
10304SOL    HW131811   6.080   6.445   3.819
10304SOL    HW231812   6.171   6.414   3.951
10305SOL     OW31813   1.613   5.860   1.348
10305SOL    HW131814   1.590   5.957   1.360
10305SOL    HW231815   1.613   5.815   1.438
10306SOL     OW31816   4.344   4.747   0.499
10306SOL    HW131817   4.263   4.691   0.518
10306SOL    HW231818   4.323   4.843   0.518
10307SOL     OW31819   2.921   1.305   5.583
10307SOL    HW131820   3.011   1.313   5.541
10307SOL    HW231821   2.928   1.257   5.670
10308SOL     OW31822   3.150   5.626   3.467
10308SOL    HW131823   3.070   5.593   3.416
10308SOL    HW231824   3.123   5.702   3.525
10309SOL     OW31825   0.996   6.506   3.207
10309SOL    HW131826   0.937   6.434   3.244
10309SOL    HW231827   1.067   6.529   3.274
10310SOL     OW31828   3.776   3.657   4.381
10310SOL    HW131829   3.745   3.636   4.289
10310SOL    HW231830   3.795   3.572   4.430
10311SOL     OW31831   0.113   6.233   0.881
10311SOL    HW131832   0.047   6.203   0.950
10311SOL    HW231833   0.205   6.233   0.919
10312SOL     OW31834   1.662   5.288   0.948
10312SOL    HW131835   1.754   5.254   0.928
10312SOL    HW231836   1.638   5.266   1.042
10313SOL     OW31837   6.111   5.861   3.240
10313SOL    HW131838   6.125   5.837   3.144
10313SOL    HW231839   6.196   5.847   3.290
10314SOL     OW31840   6.703   5.481   6.115
10314SOL    HW131841   6.625   5.493   6.176
10314SOL    HW231842   6.721   5.567   6.067
10315SOL     OW31843   5.940   5.980   4.798
10315SOL    HW131844   5.915   5.959   4.892
10315SOL    HW231845   5.974   6.074   4.793
10316SOL     OW31846   6.819   4.080   2.858
10316SOL    HW131847   6.814   4.171   2.816
10316SOL    HW231848   6.780   4.084   2.950
10317SOL     OW31849   3.372   4.835   0.882
10317SOL    HW131850   3.338   4.878   0.798
10317SOL    HW231851   3.296   4.795   0.933
10318SOL     OW31852   6.615   5.712   2.536
10318SOL    HW131853   6.595   5.810   2.541
10318SOL    HW231854   6.531   5.659   2.550
10319SOL     OW31855   4.736   5.931   4.767
10319SOL    HW131856   4.778   5.842   4.780
10319SOL    HW231857   4.807   6.002   4.767
10320SOL     OW31858   4.644   6.486   0.959
10320SOL    HW131859   4.652   6.448   0.867
10320SOL    HW231860   4.549   6.514   0.975
10321SOL     OW31861   4.139   6.870   4.325
10321SOL    HW131862   4.147   6.771   4.318
10321SOL    HW231863   4.062   6.902   4.269
10322SOL     OW31864   6.570   2.735   0.109
10322SOL    HW131865   6.492   2.693   0.156
10322SOL    HW231866   6.642   2.755   0.175
10323SOL     OW31867   5.874   2.316   5.064
10323SOL    HW131868   5.812   2.372   5.118
10323SOL    HW231869   5.941   2.374   5.019
10324SOL     OW31870   3.168   3.647   3.739
10324SOL    HW131871   3.086   3.589   3.728
10324SOL    HW231872   3.198   3.644   3.834
10325SOL     OW31873   0.822   3.719   3.900
10325SOL    HW131874   0.884   3.657   3.852
10325SOL    HW231875   0.729   3.705   3.865
10326SOL     OW31876   4.868   1.388   1.547
10326SOL    HW131877   4.923   1.319   1.500
10326SOL    HW231878   4.841   1.459   1.482
10327SOL     OW31879   6.994   0.854   3.794
10327SOL    HW131880   6.965   0.758   3.787
10327SOL    HW231881   0.030   0.863   3.872
10328SOL     OW31882   5.843   2.989   2.277
10328SOL    HW131883   5.752   2.991   2.236
10328SOL    HW231884   5.911   3.019   2.209
10329SOL     OW31885   4.073   6.284   2.191
10329SOL    HW131886   4.113   6.215   2.131
10329SOL    HW231887   4.104   6.375   2.163
10330SOL     OW31888   3.439   4.245   1.054
10330SOL    HW131889   3.410   4.245   1.149
10330SOL    HW231890   3.536   4.218   1.048
10331SOL     OW31891   5.144   0.557   4.462
10331SOL    HW131892   5.166   0.589   4.555
10331SOL    HW231893   5.162   0.630   4.397
10332SOL     OW31894   0.022   1.742   6.876
10332SOL    HW131895   0.121   1.755   6.876
10332SOL    HW231896   7.002   1.828   6.898
10333SOL     OW31897   5.011   4.086   4.734
10333SOL    HW131898   5.037   4.165   4.679
10333SOL    HW231899   5.040   4.002   4.689
10334SOL     OW31900   0.957   4.703   5.059
10334SOL    HW131901   0.975   4.784   5.115
10334SOL    HW231902   0.859   4.695   5.041
10335SOL     OW31903   2.168   5.143   1.929
10335SOL    HW131904   2.092   5.118   1.988
10335SOL    HW231905   2.182   5.242   1.931
10336SOL     OW31906   4.195   6.251   2.906
10336SOL    HW131907   4.188   6.348   2.928
10336SOL    HW231908   4.269   6.236   2.841
10337SOL     OW31909   0.635   4.991   5.568
10337SOL    HW131910   0.672   4.979   5.476
10337SOL    HW231911   0.562   4.924   5.584
10338SOL     OW31912   3.814   4.869   3.413
10338SOL    HW131913   3.838   4.872   3.316
10338SOL    HW231914   3.896   4.857   3.468
10339SOL     OW31915   3.002   5.389   0.625
10339SOL    HW131916   3.054   5.304   0.612
10339SOL    HW231917   3.036   5.458   0.560
10340SOL     OW31918   1.941   6.707   6.856
10340SOL    HW131919   1.924   6.797   6.897
10340SOL    HW231920   1.854   6.669   6.823
10341SOL     OW31921   1.210   2.171   2.502
10341SOL    HW131922   1.217   2.092   2.562
10341SOL    HW231923   1.300   2.193   2.464
10342SOL     OW31924   2.904   6.794   4.231
10342SOL    HW131925   2.931   6.751   4.318
10342SOL    HW231926   2.952   6.881   4.221
10343SOL     OW31927   2.127   3.088   4.204
10343SOL    HW131928   2.183   3.027   4.261
10343SOL    HW231929   2.141   3.183   4.232
10344SOL     OW31930   3.939   3.925   0.149
10344SOL    HW131931   4.001   3.885   0.217
10344SOL    HW231932   3.976   3.910   0.058
10345SOL     OW31933   1.603   1.684   5.913
10345SOL    HW131934   1.556   1.719   5.832
10345SOL    HW231935   1.693   1.649   5.886
10346SOL     OW31936   5.417   5.507   0.226
10346SOL    HW131937   5.426   5.530   0.322
10346SOL    HW231938   5.325   5.470   0.209
10347SOL     OW31939   4.885   1.343   2.123
10347SOL    HW131940   4.924   1.269   2.178
10347SOL    HW231941   4.830   1.304   2.048
10348SOL     OW31942   6.951   5.081   5.956
10348SOL    HW131943   6.878   5.073   5.888
10348SOL    HW231944   6.936   5.164   6.010
10349SOL     OW31945   0.498   1.673   1.219
10349SOL    HW131946   0.455   1.746   1.167
10349SOL    HW231947   0.553   1.616   1.157
10350SOL     OW31948   2.296   4.397   4.471
10350SOL    HW131949   2.374   4.433   4.522
10350SOL    HW231950   2.221   4.463   4.473
10351SOL     OW31951   4.614   4.602   4.944
10351SOL    HW131952   4.528   4.575   4.987
10351SOL    HW231953   4.602   4.689   4.896
10352SOL     OW31954   5.605   1.219   6.764
10352SOL    HW131955   5.570   1.272   6.687
10352SOL    HW231956   5.610   1.122   6.739
10353SOL     OW31957   6.430   2.647   3.703
10353SOL    HW131958   6.484   2.563   3.694
10353SOL    HW231959   6.350   2.642   3.644
10354SOL     OW31960   6.253   3.441   1.173
10354SOL    HW131961   6.339   3.475   1.134
10354SOL    HW231962   6.234   3.351   1.137
10355SOL     OW31963   0.502   1.596   0.756
10355SOL    HW131964   0.474   1.582   0.661
10355SOL    HW231965   0.460   1.526   0.813
10356SOL     OW31966   5.948   3.554   5.741
10356SOL    HW131967   5.880   3.484   5.722
10356SOL    HW231968   5.903   3.638   5.771
10357SOL     OW31969   0.710   1.143   5.796
10357SOL    HW131970   0.766   1.131   5.878
10357SOL    HW231971   0.769   1.154   5.716
10358SOL     OW31972   1.042   2.516   3.265
10358SOL    HW131973   1.110   2.445   3.283
10358SOL    HW231974   1.061   2.595   3.323
10359SOL     OW31975   6.104   2.359   2.200
10359SOL    HW131976   6.076   2.366   2.296
10359SOL    HW231977   6.146   2.445   2.171
10360SOL     OW31978   5.768   4.244   1.747
10360SOL    HW131979   5.701   4.174   1.720
10360SOL    HW231980   5.722   4.332   1.752
10361SOL     OW31981   6.621   1.888   2.512
10361SOL    HW131982   6.694   1.938   2.558
10361SOL    HW231983   6.557   1.852   2.580
10362SOL     OW31984   1.155   5.905   1.818
10362SOL    HW131985   1.154   5.995   1.860
10362SOL    HW231986   1.171   5.914   1.720
10363SOL     OW31987   5.484   4.476   6.554
10363SOL    HW131988   5.542   4.508   6.479
10363SOL    HW231989   5.471   4.551   6.620
10364SOL     OW31990   6.122   4.709   2.488
10364SOL    HW131991   6.215   4.742   2.506
10364SOL    HW231992   6.056   4.768   2.534
10365SOL     OW31993   5.727   5.115   0.775
10365SOL    HW131994   5.712   5.212   0.793
10365SOL    HW231995   5.664   5.083   0.704
10366SOL     OW31996   2.766   6.291   2.858
10366SOL    HW131997   2.829   6.214   2.868
10366SOL    HW231998   2.763   6.319   2.762
10367SOL     OW31999   6.082   6.198   1.280
10367SOL    HW132000   6.165   6.144   1.265
10367SOL    HW232001   6.102   6.274   1.342
10368SOL     OW32002   2.146   6.807   1.320
10368SOL    HW132003   2.201   6.818   1.237
10368SOL    HW232004   2.067   6.750   1.300
10369SOL     OW32005   2.617   0.448   5.589
10369SOL    HW132006   2.576   0.538   5.607
10369SOL    HW232007   2.570   0.379   5.644
10370SOL     OW32008   1.230   0.995   5.475
10370SOL    HW132009   1.273   1.068   5.528
10370SOL    HW232010   1.279   0.983   5.389
10371SOL     OW32011   4.742   5.227   2.821
10371SOL    HW132012   4.691   5.177   2.751
10371SOL    HW232013   4.683   5.293   2.865
10372SOL     OW32014   3.117   6.218   1.814
10372SOL    HW132015   3.029   6.250   1.850
10372SOL    HW232016   3.103   6.137   1.758
10373SOL     OW32017   6.601   1.427   5.987
10373SOL    HW132018   6.675   1.477   5.941
10373SOL    HW232019   6.588   1.339   5.941
10374SOL     OW32020   3.723   5.571   3.296
10374SOL    HW132021   3.685   5.622   3.373
10374SOL    HW232022   3.664   5.493   3.276
10375SOL     OW32023   2.413   4.966   6.775
10375SOL    HW132024   2.367   4.953   6.688
10375SOL    HW232025   2.448   5.059   6.781
10376SOL     OW32026   2.411   4.940   3.861
10376SOL    HW132027   2.352   4.903   3.789
10376SOL    HW232028   2.369   5.022   3.899
10377SOL     OW32029   1.608   0.921   2.100
10377SOL    HW132030   1.611   0.992   2.170
10377SOL    HW232031   1.699   0.913   2.058
10378SOL     OW32032   7.012   5.659   4.206
10378SOL    HW132033   0.004   5.739   4.148
10378SOL    HW232034   6.953   5.594   4.158
10379SOL     OW32035   1.957   6.974   4.266
10379SOL    HW132036   1.966   6.882   4.229
10379SOL    HW232037   2.010   0.012   4.211
10380SOL     OW32038   2.906   2.158   4.566
10380SOL    HW132039   2.894   2.059   4.556
10380SOL    HW232040   2.927   2.180   4.661
10381SOL     OW32041   4.644   6.360   2.011
10381SOL    HW132042   4.705   6.399   2.080
10381SOL    HW232043   4.698   6.328   1.933
10382SOL     OW32044   4.183   5.878   1.707
10382SOL    HW132045   4.100   5.934   1.710
10382SOL    HW232046   4.167   5.793   1.758
10383SOL     OW32047   1.848   4.747   0.095
10383SOL    HW132048   1.895   4.819   0.147
10383SOL    HW232049   1.907   4.717   0.020
10384SOL     OW32050   6.045   5.962   1.758
10384SOL    HW132051   6.026   6.058   1.737
10384SOL    HW232052   5.959   5.911   1.755
10385SOL     OW32053   4.395   4.659   0.037
10385SOL    HW132054   4.479   4.707   0.062
10385SOL    HW232055   4.326   4.672   0.108
10386SOL     OW32056   0.157   0.849   0.863
10386SOL    HW132057   0.242   0.808   0.830
10386SOL    HW232058   0.138   0.817   0.956
10387SOL     OW32059   5.253   3.087   2.087
10387SOL    HW132060   5.285   3.161   2.146
10387SOL    HW232061   5.231   3.007   2.144
10388SOL     OW32062   2.302   0.307   4.774
10388SOL    HW132063   2.242   0.254   4.835
10388SOL    HW232064   2.395   0.273   4.781
10389SOL     OW32065   0.446   3.527   0.732
10389SOL    HW132066   0.361   3.510   0.682
10389SOL    HW232067   0.524   3.504   0.674
10390SOL     OW32068   2.463   2.394   1.447
10390SOL    HW132069   2.403   2.400   1.367
10390SOL    HW232070   2.520   2.312   1.440
10391SOL     OW32071   5.149   0.062   4.251
10391SOL    HW132072   5.200   7.021   4.307
10391SOL    HW232073   5.051   0.046   4.261
10392SOL     OW32074   6.361   3.918   4.056
10392SOL    HW132075   6.433   3.861   4.096
10392SOL    HW232076   6.392   4.012   4.049
10393SOL     OW32077   1.213   3.407   3.685
10393SOL    HW132078   1.216   3.327   3.624
10393SOL    HW232079   1.295   3.407   3.742
10394SOL     OW32080   3.238   6.914   4.325
10394SOL    HW132081   3.318   6.967   4.355
10394SOL    HW232082   3.158   6.941   4.378
10395SOL     OW32083   1.271   0.614   1.036
10395SOL    HW132084   1.269   0.606   0.937
10395SOL    HW232085   1.326   0.694   1.062
10396SOL     OW32086   2.741   2.277   4.909
10396SOL    HW132087   2.774   2.305   4.999
10396SOL    HW232088   2.683   2.196   4.919
10397SOL     OW32089   3.469   2.059   2.896
10397SOL    HW132090   3.564   2.088   2.906
10397SOL    HW232091   3.419   2.080   2.980
10398SOL     OW32092   6.395   2.718   1.674
10398SOL    HW132093   6.424   2.667   1.592
10398SOL    HW232094   6.312   2.769   1.653
10399SOL     OW32095   0.373   3.628   1.659
10399SOL    HW132096   0.332   3.686   1.729
10399SOL    HW232097   0.434   3.683   1.601
10400SOL     OW32098   4.167   6.480   0.110
10400SOL    HW132099   4.158   6.487   0.209
10400SOL    HW232100   4.165   6.572   0.071
10401SOL     OW32101   0.337   1.192   5.569
10401SOL    HW132102   0.253   1.151   5.530
10401SOL    HW232103   0.337   1.290   5.551
10402SOL     OW32104   6.759   2.981   4.735
10402SOL    HW132105   6.855   2.968   4.759
10402SOL    HW232106   6.729   3.072   4.763
10403SOL     OW32107   2.617   0.419   2.298
10403SOL    HW132108   2.600   0.357   2.221
10403SOL    HW232109   2.700   0.472   2.280
10404SOL     OW32110   0.127   6.812   6.451
10404SOL    HW132111   0.157   6.722   6.481
10404SOL    HW232112   0.206   6.865   6.420
10405SOL     OW32113   6.776   1.663   6.460
10405SOL    HW132114   6.848   1.654   6.528
10405SOL    HW232115   6.782   1.586   6.395
10406SOL     OW32116   2.859   4.556   1.534
10406SOL    HW132117   2.869   4.549   1.633
10406SOL    HW232118   2.930   4.502   1.490
10407SOL     OW32119   2.965   6.593   0.162
10407SOL    HW132120   3.029   6.516   0.155
10407SOL    HW232121   3.015   6.679   0.149
10408SOL     OW32122   3.913   0.825   0.436
10408SOL    HW132123   3.866   0.806   0.350
10408SOL    HW232124   3.858   0.792   0.513
10409SOL     OW32125   5.770   4.703   1.227
10409SOL    HW132126   5.785   4.606   1.208
10409SOL    HW232127   5.719   4.713   1.312
10410SOL     OW32128   5.768   0.534   0.968
10410SOL    HW132129   5.839   0.586   0.921
10410SOL    HW232130   5.741   0.582   1.051
10411SOL     OW32131   3.005   5.475   2.980
10411SOL    HW132132   3.061   5.489   3.062
10411SOL    HW232133   3.064   5.466   2.900
10412SOL     OW32134   6.325   0.371   0.809
10412SOL    HW132135   6.392   0.435   0.772
10412SOL    HW232136   6.249   0.421   0.849
10413SOL     OW32137   6.015   2.677   1.373
10413SOL    HW132138   6.004   2.718   1.463
10413SOL    HW232139   5.933   2.694   1.318
10414SOL     OW32140   4.758   2.849   4.222
10414SOL    HW132141   4.774   2.770   4.164
10414SOL    HW232142   4.712   2.820   4.306
10415SOL     OW32143   0.793   6.173   6.199
10415SOL    HW132144   0.882   6.148   6.237
10415SOL    HW232145   0.722   6.117   6.241
10416SOL     OW32146   5.924   2.846   4.604
10416SOL    HW132147   5.937   2.747   4.609
10416SOL    HW232148   5.835   2.870   4.641
10417SOL     OW32149   2.554   4.662   4.132
10417SOL    HW132150   2.522   4.587   4.189
10417SOL    HW232151   2.639   4.700   4.170
10418SOL     OW32152   0.996   4.822   5.977
10418SOL    HW132153   0.903   4.844   6.004
10418SOL    HW232154   1.017   4.864   5.889
10419SOL     OW32155   1.200   0.884   0.840
10419SOL    HW132156   1.202   0.984   0.846
10419SOL    HW232157   1.293   0.850   0.833
10420SOL     OW32158   7.022   3.463   3.242
10420SOL    HW132159   6.961   3.386   3.222
10420SOL    HW232160   0.044   3.490   3.158
10421SOL     OW32161   0.475   0.640   3.180
10421SOL    HW132162   0.449   0.544   3.182
10421SOL    HW232163   0.434   0.684   3.099
10422SOL     OW32164   6.094   2.871   6.463
10422SOL    HW132165   6.133   2.782   6.438
10422SOL    HW232166   6.023   2.895   6.397
10423SOL     OW32167   4.803   4.527   3.472
10423SOL    HW132168   4.725   4.472   3.502
10423SOL    HW232169   4.846   4.483   3.393
10424SOL     OW32170   5.231   1.647   6.634
10424SOL    HW132171   5.234   1.747   6.643
10424SOL    HW232172   5.265   1.606   6.719
10425SOL     OW32173   1.276   5.640   2.601
10425SOL    HW132174   1.208   5.631   2.673
10425SOL    HW232175   1.315   5.550   2.580
10426SOL     OW32176   6.430   4.503   0.330
10426SOL    HW132177   6.396   4.583   0.282
10426SOL    HW232178   6.386   4.497   0.420
10427SOL     OW32179   5.329   2.243   0.240
10427SOL    HW132180   5.389   2.319   0.216
10427SOL    HW232181   5.383   2.171   0.284
10428SOL     OW32182   4.707   0.563   4.522
10428SOL    HW132183   4.786   0.502   4.520
10428SOL    HW232184   4.738   0.657   4.541
10429SOL     OW32185   6.908   6.308   1.744
10429SOL    HW132186   6.869   6.216   1.739
10429SOL    HW232187   6.950   6.322   1.834
10430SOL     OW32188   4.212   6.555   2.324
10430SOL    HW132189   4.303   6.593   2.340
10430SOL    HW232190   4.193   6.555   2.225
10431SOL     OW32191   2.916   0.583   4.550
10431SOL    HW132192   2.831   0.563   4.599
10431SOL    HW232193   2.968   0.499   4.538
10432SOL     OW32194   5.884   0.836   4.881
10432SOL    HW132195   5.868   0.932   4.901
10432SOL    HW232196   5.980   0.822   4.857
10433SOL     OW32197   1.995   6.834   0.962
10433SOL    HW132198   1.910   6.802   1.005
10433SOL    HW232199   1.972   6.895   0.886
10434SOL     OW32200   2.247   0.557   3.937
10434SOL    HW132201   2.305   0.516   4.008
10434SOL    HW232202   2.219   0.649   3.965
10435SOL     OW32203   5.620   6.383   6.192
10435SOL    HW132204   5.689   6.394   6.121
10435SOL    HW232205   5.552   6.455   6.185
10436SOL     OW32206   1.673   4.979   3.827
10436SOL    HW132207   1.691   5.010   3.920
10436SOL    HW232208   1.574   4.971   3.813
10437SOL     OW32209   6.919   5.316   6.087
10437SOL    HW132210   7.003   5.361   6.119
10437SOL    HW232211   6.840   5.365   6.122
10438SOL     OW32212   4.067   6.764   0.275
10438SOL    HW132213   4.047   6.857   0.306
10438SOL    HW232214   4.095   6.708   0.352
10439SOL     OW32215   3.826   0.047   5.754
10439SOL    HW132216   3.830   0.098   5.840
10439SOL    HW232217   3.901   7.007   5.750
10440SOL     OW32218   1.975   6.509   0.789
10440SOL    HW132219   1.933   6.455   0.716
10440SOL    HW232220   2.001   6.599   0.753
10441SOL     OW32221   5.442   2.009   6.248
10441SOL    HW132222   5.473   2.027   6.154
10441SOL    HW232223   5.472   2.084   6.307
10442SOL     OW32224   3.822   4.931   5.906
10442SOL    HW132225   3.910   4.938   5.954
10442SOL    HW232226   3.750   4.914   5.973
10443SOL     OW32227   5.805   3.523   5.162
10443SOL    HW132228   5.799   3.621   5.178
10443SOL    HW232229   5.766   3.501   5.072
10444SOL     OW32230   4.134   5.285   4.508
10444SOL    HW132231   4.051   5.267   4.562
10444SOL    HW232232   4.114   5.270   4.411
10445SOL     OW32233   0.005   6.243   5.212
10445SOL    HW132234   6.987   6.245   5.122
10445SOL    HW232235   6.964   6.213   5.281
10446SOL     OW32236   1.229   5.126   5.657
10446SOL    HW132237   1.326   5.129   5.684
10446SOL    HW232238   1.173   5.166   5.730
10447SOL     OW32239   6.017   2.432   1.230
10447SOL    HW132240   6.009   2.421   1.131
10447SOL    HW232241   6.036   2.527   1.252
10448SOL     OW32242   3.953   3.897   2.406
10448SOL    HW132243   3.901   3.834   2.348
10448SOL    HW232244   3.903   3.982   2.415
10449SOL     OW32245   2.783   5.345   4.567
10449SOL    HW132246   2.757   5.438   4.593
10449SOL    HW232247   2.863   5.316   4.618
10450SOL     OW32248   0.226   2.179   1.046
10450SOL    HW132249   0.229   2.261   1.103
10450SOL    HW232250   0.219   2.205   0.950
10451SOL     OW32251   2.351   4.324   3.130
10451SOL    HW132252   2.288   4.316   3.207
10451SOL    HW232253   2.319   4.268   3.055
10452SOL     OW32254   0.885   3.269   3.933
10452SOL    HW132255   0.957   3.214   3.891
10452SOL    HW232256   0.844   3.218   4.009
10453SOL     OW32257   4.877   6.688   1.904
10453SOL    HW132258   4.924   6.666   1.819
10453SOL    HW232259   4.906   6.624   1.975
10454SOL     OW32260   5.196   2.896   2.248
10454SOL    HW132261   5.277   2.838   2.242
10454SOL    HW232262   5.155   2.887   2.339
10455SOL     OW32263   0.157   5.074   3.984
10455SOL    HW132264   0.082   5.008   3.993
10455SOL    HW232265   0.238   5.037   4.029
10456SOL     OW32266   4.396   6.062   1.143
10456SOL    HW132267   4.431   6.117   1.219
10456SOL    HW232268   4.318   6.007   1.175
10457SOL     OW32269   4.056   3.429   3.282
10457SOL    HW132270   4.001   3.470   3.210
10457SOL    HW232271   4.083   3.337   3.255
10458SOL     OW32272   1.040   6.754   0.877
10458SOL    HW132273   0.960   6.811   0.855
10458SOL    HW232274   1.110   6.768   0.807
10459SOL     OW32275   6.323   5.133   3.062
10459SOL    HW132276   6.289   5.118   2.970
10459SOL    HW232277   6.410   5.182   3.058
10460SOL     OW32278   2.006   4.939   2.089
10460SOL    HW132279   1.991   4.897   2.178
10460SOL    HW232280   1.924   4.990   2.062
10461SOL     OW32281   2.719   1.452   6.753
10461SOL    HW132282   2.773   1.402   6.820
10461SOL    HW232283   2.711   1.547   6.782
10462SOL     OW32284   6.724   0.294   0.856
10462SOL    HW132285   6.675   0.207   0.865
10462SOL    HW232286   6.721   0.342   0.943
10463SOL     OW32287   2.817   4.674   0.510
10463SOL    HW132288   2.739   4.646   0.454
10463SOL    HW232289   2.814   4.772   0.525
10464SOL     OW32290   5.256   0.445   1.056
10464SOL    HW132291   5.269   0.541   1.031
10464SOL    HW232292   5.202   0.399   0.985
10465SOL     OW32293   6.420   5.059   6.231
10465SOL    HW132294   6.459   4.970   6.253
10465SOL    HW232295   6.471   5.130   6.280
10466SOL     OW32296   5.140   5.954   5.794
10466SOL    HW132297   5.049   5.987   5.770
10466SOL    HW232298   5.142   5.854   5.792
10467SOL     OW32299   2.979   0.762   5.379
10467SOL    HW132300   3.073   0.786   5.402
10467SOL    HW232301   2.958   0.670   5.412
10468SOL     OW32302   3.147   6.432   3.305
10468SOL    HW132303   3.157   6.529   3.328
10468SOL    HW232304   3.081   6.422   3.230
10469SOL     OW32305   1.488   4.378   0.634
10469SOL    HW132306   1.539   4.399   0.550
10469SOL    HW232307   1.523   4.292   0.673
10470SOL     OW32308   2.183   1.455   4.332
10470SOL    HW132309   2.258   1.428   4.393
10470SOL    HW232310   2.142   1.374   4.291
10471SOL     OW32311   3.187   3.991   0.495
10471SOL    HW132312   3.149   3.918   0.552
10471SOL    HW232313   3.204   3.956   0.403
10472SOL     OW32314   4.718   1.106   2.516
10472SOL    HW132315   4.673   1.053   2.588
10472SOL    HW232316   4.816   1.086   2.516
10473SOL     OW32317   4.930   6.410   0.573
10473SOL    HW132318   4.944   6.355   0.491
10473SOL    HW232319   4.846   6.381   0.620
10474SOL     OW32320   4.035   0.613   5.178
10474SOL    HW132321   3.950   0.635   5.226
10474SOL    HW232322   4.015   0.547   5.105
10475SOL     OW32323   4.187   6.786   1.848
10475SOL    HW132324   4.149   6.698   1.820
10475SOL    HW232325   4.273   6.803   1.799
10476SOL     OW32326   0.114   5.119   0.018
10476SOL    HW132327   0.073   5.105   6.954
10476SOL    HW232328   0.133   5.217   0.031
10477SOL     OW32329   5.606   4.011   5.208
10477SOL    HW132330   5.693   3.976   5.174
10477SOL    HW232331   5.531   3.954   5.175
10478SOL     OW32332   0.357   6.756   1.104
10478SOL    HW132333   0.403   6.748   1.192
10478SOL    HW232334   0.330   6.665   1.072
10479SOL     OW32335   1.187   4.116   3.494
10479SOL    HW132336   1.114   4.104   3.427
10479SOL    HW232337   1.147   4.146   3.581
10480SOL     OW32338   5.840   0.349   2.015
10480SOL    HW132339   5.751   0.393   2.009
10480SOL    HW232340   5.845   0.295   2.099
10481SOL     OW32341   2.098   0.586   5.017
10481SOL    HW132342   2.074   0.655   5.085
10481SOL    HW232343   2.022   0.522   5.006
10482SOL     OW32344   1.618   5.650   5.868
10482SOL    HW132345   1.611   5.566   5.922
10482SOL    HW232346   1.647   5.627   5.775
10483SOL     OW32347   0.040   5.426   0.400
10483SOL    HW132348   0.016   5.513   0.355
10483SOL    HW232349   0.002   5.350   0.348
10484SOL     OW32350   6.394   1.258   1.513
10484SOL    HW132351   6.354   1.297   1.431
10484SOL    HW232352   6.364   1.310   1.593
10485SOL     OW32353   3.532   4.181   3.228
10485SOL    HW132354   3.488   4.187   3.318
10485SOL    HW232355   3.625   4.145   3.239
10486SOL     OW32356   6.079   6.935   5.438
10486SOL    HW132357   6.138   6.967   5.364
10486SOL    HW232358   6.119   6.962   5.526
10487SOL     OW32359   5.034   2.289   1.778
10487SOL    HW132360   5.001   2.265   1.869
10487SOL    HW232361   5.134   2.287   1.776
10488SOL     OW32362   5.922   2.689   6.065
10488SOL    HW132363   6.009   2.678   6.016
10488SOL    HW232364   5.924   2.774   6.118
10489SOL     OW32365   6.166   4.675   4.957
10489SOL    HW132366   6.144   4.638   4.866
10489SOL    HW232367   6.264   4.694   4.962
10490SOL     OW32368   5.476   6.518   6.508
10490SOL    HW132369   5.536   6.439   6.494
10490SOL    HW232370   5.388   6.500   6.465
10491SOL     OW32371   1.949   2.629   6.035
10491SOL    HW132372   1.872   2.692   6.025
10491SOL    HW232373   2.026   2.678   6.076
10492SOL     OW32374   3.553   0.525   0.359
10492SOL    HW132375   3.560   0.622   0.380
10492SOL    HW232376   3.645   0.485   0.356
10493SOL     OW32377   4.333   5.743   1.115
10493SOL    HW132378   4.291   5.834   1.128
10493SOL    HW232379   4.261   5.674   1.111
10494SOL     OW32380   0.932   4.653   5.529
10494SOL    HW132381   0.864   4.624   5.462
10494SOL    HW232382   0.887   4.705   5.602
10495SOL     OW32383   0.173   6.707   0.797
10495SOL    HW132384   0.162   6.766   0.877
10495SOL    HW232385   0.255   6.651   0.808
10496SOL     OW32386   6.968   3.541   5.288
10496SOL    HW132387   6.940   3.448   5.314
10496SOL    HW232388   6.900   3.580   5.226
10497SOL     OW32389   2.481   0.327   0.832
10497SOL    HW132390   2.480   0.243   0.778
10497SOL    HW232391   2.415   0.392   0.795
10498SOL     OW32392   4.272   4.508   0.289
10498SOL    HW132393   4.363   4.468   0.303
10498SOL    HW232394   4.236   4.540   0.377
10499SOL     OW32395   5.801   4.459   2.585
10499SOL    HW132396   5.880   4.415   2.543
10499SOL    HW232397   5.828   4.505   2.669
10500SOL     OW32398   0.031   3.043   5.546
10500SOL    HW132399   0.124   3.021   5.515
10500SOL    HW232400   7.002   2.959   5.548
10501SOL     OW32401   3.692   4.923   2.919
10501SOL    HW132402   3.627   4.998   2.932
10501SOL    HW232403   3.642   4.840   2.896
10502SOL     OW32404   3.324   3.849   2.050
10502SOL    HW132405   3.270   3.933   2.057
10502SOL    HW232406   3.307   3.791   2.129
10503SOL     OW32407   6.235   2.583   6.510
10503SOL    HW132408   6.313   2.610   6.568
10503SOL    HW232409   6.259   2.501   6.458
10504SOL     OW32410   1.424   2.824   5.978
10504SOL    HW132411   1.357   2.896   5.960
10504SOL    HW232412   1.387   2.760   6.046
10505SOL     OW32413   5.921   6.554   0.803
10505SOL    HW132414   5.891   6.635   0.854
10505SOL    HW232415   5.990   6.504   0.856
10506SOL     OW32416   0.995   2.409   6.940
10506SOL    HW132417   0.914   2.417   6.882
10506SOL    HW232418   0.994   2.322   6.988
10507SOL     OW32419   1.111   5.274   6.166
10507SOL    HW132420   1.014   5.298   6.167
10507SOL    HW232421   1.156   5.322   6.091
10508SOL     OW32422   2.050   4.900   4.665
10508SOL    HW132423   2.018   4.806   4.680
10508SOL    HW232424   1.978   4.953   4.621
10509SOL     OW32425   4.703   2.844   3.109
10509SOL    HW132426   4.651   2.818   3.190
10509SOL    HW232427   4.751   2.930   3.126
10510SOL     OW32428   5.751   5.665   3.663
10510SOL    HW132429   5.843   5.632   3.643
10510SOL    HW232430   5.754   5.764   3.680
10511SOL     OW32431   4.967   1.983   1.671
10511SOL    HW132432   5.051   2.038   1.674
10511SOL    HW232433   4.952   1.940   1.760
10512SOL     OW32434   4.436   0.865   4.803
10512SOL    HW132435   4.500   0.811   4.857
10512SOL    HW232436   4.393   0.807   4.734
10513SOL     OW32437   4.383   3.208   1.228
10513SOL    HW132438   4.294   3.163   1.216
10513SOL    HW232439   4.368   3.304   1.252
10514SOL     OW32440   1.447   3.541   1.698
10514SOL    HW132441   1.359   3.494   1.705
10514SOL    HW232442   1.440   3.633   1.735
10515SOL     OW32443   2.384   2.534   5.104
10515SOL    HW132444   2.375   2.558   5.007
10515SOL    HW232445   2.362   2.613   5.160
10516SOL     OW32446   3.961   1.822   1.627
10516SOL    HW132447   3.875   1.866   1.652
10516SOL    HW232448   4.026   1.831   1.702
10517SOL     OW32449   1.492   2.241   2.515
10517SOL    HW132450   1.531   2.266   2.427
10517SOL    HW232451   1.511   2.145   2.534
10518SOL     OW32452   0.717   4.741   2.957
10518SOL    HW132453   0.682   4.813   2.898
10518SOL    HW232454   0.803   4.770   2.998
10519SOL     OW32455   3.897   6.854   1.207
10519SOL    HW132456   3.966   6.815   1.268
10519SOL    HW232457   3.814   6.874   1.260
10520SOL     OW32458   6.801   2.668   5.837
10520SOL    HW132459   6.895   2.675   5.871
10520SOL    HW232460   6.749   2.606   5.896
10521SOL     OW32461   0.236   2.854   2.202
10521SOL    HW132462   0.184   2.852   2.116
10521SOL    HW232463   0.180   2.814   2.275
10522SOL     OW32464   5.323   2.603   3.469
10522SOL    HW132465   5.331   2.609   3.569
10522SOL    HW232466   5.257   2.531   3.445
10523SOL     OW32467   0.266   4.133   3.293
10523SOL    HW132468   0.311   4.113   3.380
10523SOL    HW232469   0.247   4.231   3.286
10524SOL     OW32470   0.501   6.185   5.169
10524SOL    HW132471   0.411   6.189   5.213
10524SOL    HW232472   0.505   6.254   5.096
10525SOL     OW32473   4.777   1.851   3.942
10525SOL    HW132474   4.737   1.806   3.863
10525SOL    HW232475   4.812   1.941   3.915
10526SOL     OW32476   1.024   4.630   0.348
10526SOL    HW132477   1.048   4.533   0.345
10526SOL    HW232478   0.929   4.640   0.378
10527SOL     OW32479   0.493   0.279   4.821
10527SOL    HW132480   0.430   0.313   4.752
10527SOL    HW232481   0.440   0.245   4.899
10528SOL     OW32482   1.703   3.585   5.551
10528SOL    HW132483   1.745   3.659   5.604
10528SOL    HW232484   1.604   3.595   5.552
10529SOL     OW32485   0.656   6.333   1.232
10529SOL    HW132486   0.649   6.382   1.319
10529SOL    HW232487   0.753   6.325   1.207
10530SOL     OW32488   0.351   5.348   0.827
10530SOL    HW132489   0.316   5.264   0.870
10530SOL    HW232490   0.277   5.414   0.819
10531SOL     OW32491   2.820   3.465   5.180
10531SOL    HW132492   2.861   3.379   5.212
10531SOL    HW232493   2.722   3.452   5.165
10532SOL     OW32494   5.302   6.403   6.680
10532SOL    HW132495   5.384   6.457   6.661
10532SOL    HW232496   5.321   6.336   6.751
10533SOL     OW32497   3.903   6.235   2.852
10533SOL    HW132498   3.998   6.204   2.858
10533SOL    HW232499   3.892   6.292   2.770
10534SOL     OW32500   1.353   6.054   4.105
10534SOL    HW132501   1.304   5.987   4.050
10534SOL    HW232502   1.299   6.139   4.109
10535SOL     OW32503   3.986   2.070   2.416
10535SOL    HW132504   3.950   2.125   2.339
10535SOL    HW232505   4.067   2.114   2.453
10536SOL     OW32506   5.260   2.688   4.329
10536SOL    HW132507   5.240   2.692   4.427
10536SOL    HW232508   5.214   2.608   4.289
10537SOL     OW32509   3.740   0.085   4.384
10537SOL    HW132510   3.774   7.018   4.403
10537SOL    HW232511   3.725   0.133   4.470
10538SOL     OW32512   0.168   3.711   2.827
10538SOL    HW132513   0.148   3.780   2.897
10538SOL    HW232514   0.166   3.754   2.737
10539SOL     OW32515   6.279   0.006   3.386
10539SOL    HW132516   6.179   0.007   3.399
10539SOL    HW232517   6.315   6.943   3.415
10540SOL     OW32518   1.742   3.772   6.224
10540SOL    HW132519   1.725   3.674   6.234
10540SOL    HW232520   1.807   3.787   6.150
10541SOL     OW32521   3.374   3.336   5.045
10541SOL    HW132522   3.354   3.434   5.050
10541SOL    HW232523   3.393   3.311   4.950
10542SOL     OW32524   4.922   6.954   4.250
10542SOL    HW132525   4.958   6.869   4.289
10542SOL    HW232526   4.879   6.935   4.162
10543SOL     OW32527   1.036   3.410   5.032
10543SOL    HW132528   0.962   3.452   4.979
10543SOL    HW232529   1.098   3.361   4.971
10544SOL     OW32530   1.922   1.761   3.330
10544SOL    HW132531   1.880   1.671   3.325
10544SOL    HW232532   1.856   1.827   3.368
10545SOL     OW32533   2.159   2.687   2.467
10545SOL    HW132534   2.171   2.747   2.388
10545SOL    HW232535   2.166   2.592   2.437
10546SOL     OW32536   3.158   6.716   6.783
10546SOL    HW132537   3.174   6.782   6.710
10546SOL    HW232538   3.161   6.763   6.871
10547SOL     OW32539   4.265   6.877   5.053
10547SOL    HW132540   4.211   6.797   5.081
10547SOL    HW232541   4.316   6.855   4.969
10548SOL     OW32542   0.197   5.650   3.660
10548SOL    HW132543   0.236   5.573   3.710
10548SOL    HW232544   0.195   5.731   3.719
10549SOL     OW32545   0.166   0.601   1.527
10549SOL    HW132546   0.165   0.620   1.625
10549SOL    HW232547   0.072   0.607   1.492
10550SOL     OW32548   4.792   5.343   3.352
10550SOL    HW132549   4.790   5.442   3.337
10550SOL    HW232550   4.836   5.324   3.440
10551SOL     OW32551   2.471   1.844   5.788
10551SOL    HW132552   2.501   1.875   5.698
10551SOL    HW232553   2.550   1.815   5.842
10552SOL     OW32554   2.786   1.194   4.206
10552SOL    HW132555   2.824   1.120   4.150
10552SOL    HW232556   2.804   1.282   4.162
10553SOL     OW32557   6.700   5.552   0.779
10553SOL    HW132558   6.620   5.496   0.758
10553SOL    HW232559   6.745   5.579   0.694
10554SOL     OW32560   6.040   6.209   2.376
10554SOL    HW132561   6.113   6.175   2.316
10554SOL    HW232562   6.054   6.306   2.393
10555SOL     OW32563   4.009   3.114   1.026
10555SOL    HW132564   4.044   3.148   1.113
10555SOL    HW232565   4.034   3.018   1.014
10556SOL     OW32566   2.256   1.499   2.727
10556SOL    HW132567   2.228   1.486   2.822
10556SOL    HW232568   2.194   1.563   2.682
10557SOL     OW32569   2.540   4.658   3.394
10557SOL    HW132570   2.625   4.710   3.404
10557SOL    HW232571   2.535   4.589   3.467
10558SOL     OW32572   3.444   5.593   5.020
10558SOL    HW132573   3.465   5.608   4.924
10558SOL    HW232574   3.456   5.497   5.043
10559SOL     OW32575   3.917   6.718   0.630
10559SOL    HW132576   3.891   6.750   0.721
10559SOL    HW232577   3.916   6.618   0.628
10560SOL     OW32578   5.721   0.075   2.185
10560SOL    HW132579   5.756   0.062   2.092
10560SOL    HW232580   5.687   0.168   2.195
10561SOL     OW32581   5.964   4.784   0.122
10561SOL    HW132582   5.933   4.825   0.208
10561SOL    HW232583   6.038   4.719   0.141
10562SOL     OW32584   4.262   5.622   2.683
10562SOL    HW132585   4.245   5.672   2.768
10562SOL    HW232586   4.360   5.614   2.668
10563SOL     OW32587   0.215   0.065   1.931
10563SOL    HW132588   0.279   0.004   1.978
10563SOL    HW232589   0.160   0.012   1.866
10564SOL     OW32590   5.397   4.781   4.059
10564SOL    HW132591   5.332   4.851   4.087
10564SOL    HW232592   5.428   4.798   3.965
10565SOL     OW32593   0.518   0.260   6.237
10565SOL    HW132594   0.445   0.310   6.190
10565SOL    HW232595   0.604   0.270   6.186
10566SOL     OW32596   3.260   2.926   0.485
10566SOL    HW132597   3.322   2.849   0.503
10566SOL    HW232598   3.249   2.938   0.387
10567SOL     OW32599   1.515   2.213   6.832
10567SOL    HW132600   1.451   2.279   6.870
10567SOL    HW232601   1.484   2.120   6.854
10568SOL     OW32602   4.815   2.591   6.225
10568SOL    HW132603   4.744   2.657   6.199
10568SOL    HW232604   4.896   2.641   6.257
10569SOL     OW32605   5.969   6.435   0.414
10569SOL    HW132606   5.956   6.371   0.490
10569SOL    HW232607   5.899   6.418   0.345
10570SOL     OW32608   1.116   4.582   3.324
10570SOL    HW132609   1.197   4.538   3.362
10570SOL    HW232610   1.091   4.661   3.380
10571SOL     OW32611   6.262   4.613   6.488
10571SOL    HW132612   6.185   4.557   6.456
10571SOL    HW232613   6.348   4.568   6.461
10572SOL     OW32614   5.863   3.988   0.949
10572SOL    HW132615   5.917   3.917   0.903
10572SOL    HW232616   5.866   4.072   0.894
10573SOL     OW32617   5.918   1.759   3.131
10573SOL    HW132618   5.935   1.766   3.229
10573SOL    HW232619   5.932   1.664   3.101
10574SOL     OW32620   6.985   2.451   3.558
10574SOL    HW132621   6.971   2.527   3.496
10574SOL    HW232622   0.037   2.396   3.528
10575SOL     OW32623   6.152   6.888   1.990
10575SOL    HW132624   6.203   6.953   2.046
10575SOL    HW232625   6.180   6.896   1.894
10576SOL     OW32626   1.242   4.307   4.438
10576SOL    HW132627   1.259   4.316   4.536
10576SOL    HW232628   1.204   4.216   4.419
10577SOL     OW32629   3.538   4.720   0.469
10577SOL    HW132630   3.607   4.778   0.511
10577SOL    HW232631   3.485   4.673   0.540
10578SOL     OW32632   0.241   3.102   4.801
10578SOL    HW132633   0.252   3.026   4.737
10578SOL    HW232634   0.328   3.122   4.845
10579SOL     OW32635   0.911   3.599   6.526
10579SOL    HW132636   0.929   3.551   6.441
10579SOL    HW232637   0.830   3.562   6.570
10580SOL     OW32638   6.299   6.761   0.240
10580SOL    HW132639   6.258   6.703   0.310
10580SOL    HW232640   6.375   6.812   0.280
10581SOL     OW32641   5.000   0.064   3.235
10581SOL    HW132642   5.017   0.008   3.154
10581SOL    HW232643   5.032   0.015   3.316
10582SOL     OW32644   5.396   4.208   6.560
10582SOL    HW132645   5.447   4.294   6.562
10582SOL    HW232646   5.457   4.132   6.540
10583SOL     OW32647   2.966   1.937   4.946
10583SOL    HW132648   2.947   2.003   4.873
10583SOL    HW232649   3.028   1.978   5.013
10584SOL     OW32650   1.119   6.982   4.541
10584SOL    HW132651   1.075   6.920   4.475
10584SOL    HW232652   1.108   6.945   4.633
10585SOL     OW32653   1.260   0.033   4.998
10585SOL    HW132654   1.252   0.037   5.098
10585SOL    HW232655   1.337   6.999   4.973
10586SOL     OW32656   4.247   4.227   5.383
10586SOL    HW132657   4.161   4.177   5.372
10586SOL    HW232658   4.257   4.292   5.308
10587SOL     OW32659   2.258   4.892   5.329
10587SOL    HW132660   2.306   4.911   5.244
10587SOL    HW232661   2.194   4.816   5.316
10588SOL     OW32662   1.168   3.901   4.334
10588SOL    HW132663   1.127   3.968   4.397
10588SOL    HW232664   1.097   3.866   4.273
10589SOL     OW32665   5.430   5.890   3.928
10589SOL    HW132666   5.458   5.928   4.016
10589SOL    HW232667   5.330   5.894   3.920
10590SOL     OW32668   0.944   5.016   2.468
10590SOL    HW132669   1.014   4.945   2.460
10590SOL    HW232670   0.856   4.974   2.492
10591SOL     OW32671   6.848   2.568   1.588
10591SOL    HW132672   6.850   2.552   1.489
10591SOL    HW232673   6.820   2.484   1.634
10592SOL     OW32674   6.364   2.257   5.278
10592SOL    HW132675   6.447   2.204   5.293
10592SOL    HW232676   6.382   2.329   5.211
10593SOL     OW32677   3.221   5.324   3.134
10593SOL    HW132678   3.130   5.308   3.175
10593SOL    HW232679   3.227   5.275   3.047
10594SOL     OW32680   2.711   6.338   3.731
10594SOL    HW132681   2.781   6.408   3.740
10594SOL    HW232682   2.749   6.248   3.755
10595SOL     OW32683   5.152   6.574   0.168
10595SOL    HW132684   5.192   6.626   0.094
10595SOL    HW232685   5.141   6.632   0.249
10596SOL     OW32686   4.827   3.176   0.155
10596SOL    HW132687   4.744   3.227   0.175
10596SOL    HW232688   4.851   3.118   0.233
10597SOL     OW32689   2.586   0.599   5.122
10597SOL    HW132690   2.508   0.541   5.143
10597SOL    HW232691   2.668   0.564   5.168
10598SOL     OW32692   2.796   1.334   6.273
10598SOL    HW132693   2.853   1.310   6.195
10598SOL    HW232694   2.837   1.409   6.324
10599SOL     OW32695   0.003   2.244   6.814
10599SOL    HW132696   6.997   2.229   6.907
10599SOL    HW232697   0.036   2.339   6.804
10600SOL     OW32698   2.645   2.577   1.159
10600SOL    HW132699   2.660   2.506   1.228
10600SOL    HW232700   2.610   2.660   1.203
10601SOL     OW32701   1.196   0.814   5.880
10601SOL    HW132702   1.098   0.831   5.868
10601SOL    HW232703   1.242   0.900   5.904
10602SOL     OW32704   6.994   7.006   1.445
10602SOL    HW132705   6.897   0.004   1.436
10602SOL    HW232706   7.003   6.907   1.453
10603SOL     OW32707   5.242   0.635   2.927
10603SOL    HW132708   5.314   0.684   2.977
10603SOL    HW232709   5.281   0.595   2.844
10604SOL     OW32710   5.067   0.121   4.769
10604SOL    HW132711   5.009   0.077   4.700
10604SOL    HW232712   5.010   0.173   4.832
10605SOL     OW32713   2.319   1.884   1.108
10605SOL    HW132714   2.262   1.946   1.056
10605SOL    HW232715   2.416   1.904   1.090
10606SOL     OW32716   6.463   0.283   0.285
10606SOL    HW132717   6.366   0.307   0.283
10606SOL    HW232718   6.510   0.339   0.353
10607SOL     OW32719   3.257   4.884   6.276
10607SOL    HW132720   3.190   4.955   6.297
10607SOL    HW232721   3.262   4.819   6.352
10608SOL     OW32722   5.828   4.077   3.704
10608SOL    HW132723   5.807   4.008   3.773
10608SOL    HW232724   5.831   4.033   3.614
10609SOL     OW32725   4.680   1.594   6.559
10609SOL    HW132726   4.582   1.581   6.552
10609SOL    HW232727   4.704   1.621   6.653
10610SOL     OW32728   0.743   1.301   3.221
10610SOL    HW132729   0.667   1.312   3.156
10610SOL    HW232730   0.740   1.209   3.260
10611SOL     OW32731   3.941   5.599   4.421
10611SOL    HW132732   3.890   5.522   4.382
10611SOL    HW232733   3.955   5.669   4.351
10612SOL     OW32734   5.999   1.800   3.405
10612SOL    HW132735   6.097   1.782   3.414
10612SOL    HW232736   5.982   1.898   3.420
10613SOL     OW32737   4.266   6.226   4.896
10613SOL    HW132738   4.351   6.183   4.864
10613SOL    HW232739   4.282   6.323   4.910
10614SOL     OW32740   3.902   1.172   5.861
10614SOL    HW132741   3.950   1.085   5.869
10614SOL    HW232742   3.964   1.240   5.821
10615SOL     OW32743   1.457   1.543   5.418
10615SOL    HW132744   1.551   1.513   5.403
10615SOL    HW232745   1.393   1.479   5.375
10616SOL     OW32746   2.515   6.301   0.226
10616SOL    HW132747   2.508   6.400   0.233
10616SOL    HW232748   2.453   6.258   0.292
10617SOL     OW32749   2.318   3.230   1.480
10617SOL    HW132750   2.341   3.242   1.577
10617SOL    HW232751   2.393   3.182   1.434
10618SOL     OW32752   1.487   5.265   3.820
10618SOL    HW132753   1.585   5.261   3.804
10618SOL    HW232754   1.440   5.283   3.734
10619SOL     OW32755   2.171   2.427   2.300
10619SOL    HW132756   2.179   2.343   2.353
10619SOL    HW232757   2.090   2.422   2.242
10620SOL     OW32758   3.446   1.306   6.187
10620SOL    HW132759   3.391   1.323   6.269
10620SOL    HW232760   3.386   1.304   6.107
10621SOL     OW32761   0.157   3.887   3.313
10621SOL    HW132762   0.195   3.979   3.304
10621SOL    HW232763   0.200   3.840   3.391
10622SOL     OW32764   4.565   2.149   0.250
10622SOL    HW132765   4.541   2.243   0.226
10622SOL    HW232766   4.516   2.086   0.190
10623SOL     OW32767   4.776   6.697   6.098
10623SOL    HW132768   4.839   6.646   6.040
10623SOL    HW232769   4.687   6.650   6.100
10624SOL     OW32770   0.295   1.949   6.838
10624SOL    HW132771   0.306   2.048   6.829
10624SOL    HW232772   0.354   1.915   6.912
10625SOL     OW32773   5.366   4.458   0.110
10625SOL    HW132774   5.464   4.457   0.127
10625SOL    HW232775   5.333   4.553   0.110
10626SOL     OW32776   5.196   3.228   0.991
10626SOL    HW132777   5.126   3.289   0.953
10626SOL    HW232778   5.173   3.133   0.968
10627SOL     OW32779   5.859   5.386   5.903
10627SOL    HW132780   5.885   5.450   5.831
10627SOL    HW232781   5.760   5.381   5.910
10628SOL     OW32782   4.098   6.853   0.909
10628SOL    HW132783   4.138   6.846   1.001
10628SOL    HW232784   3.998   6.847   0.916
10629SOL     OW32785   3.233   5.568   4.513
10629SOL    HW132786   3.252   5.659   4.551
10629SOL    HW232787   3.135   5.552   4.512
10630SOL     OW32788   3.802   0.970   2.223
10630SOL    HW132789   3.892   0.945   2.189
10630SOL    HW232790   3.792   1.070   2.223
10631SOL     OW32791   3.519   5.974   0.525
10631SOL    HW132792   3.457   5.914   0.473
10631SOL    HW232793   3.606   5.927   0.539
10632SOL     OW32794   4.809   6.003   3.011
10632SOL    HW132795   4.892   6.029   2.961
10632SOL    HW232796   4.820   5.912   3.049
10633SOL     OW32797   1.468   3.223   1.514
10633SOL    HW132798   1.544   3.174   1.558
10633SOL    HW232799   1.402   3.251   1.583
10634SOL     OW32800   0.635   3.510   6.995
10634SOL    HW132801   0.554   3.451   6.994
10634SOL    HW232802   0.622   3.585   6.930
10635SOL     OW32803   2.330   4.704   6.077
10635SOL    HW132804   2.382   4.783   6.111
10635SOL    HW232805   2.378   4.664   5.999
10636SOL     OW32806   6.548   2.308   6.469
10636SOL    HW132807   6.582   2.398   6.495
10636SOL    HW232808   6.475   2.280   6.533
10637SOL     OW32809   2.875   0.779   0.031
10637SOL    HW132810   2.787   0.739   0.060
10637SOL    HW232811   2.935   0.705   7.025
10638SOL     OW32812   6.767   5.885   1.950
10638SOL    HW132813   6.703   5.895   2.026
10638SOL    HW232814   6.759   5.793   1.912
10639SOL     OW32815   1.481   4.494   1.599
10639SOL    HW132816   1.498   4.421   1.665
10639SOL    HW232817   1.568   4.524   1.560
10640SOL     OW32818   4.196   6.650   3.548
10640SOL    HW132819   4.106   6.622   3.516
10640SOL    HW232820   4.201   6.638   3.647
10641SOL     OW32821   1.315   1.011   3.409
10641SOL    HW132822   1.413   1.010   3.390
10641SOL    HW232823   1.299   0.991   3.505
10642SOL     OW32824   5.949   2.228   6.530
10642SOL    HW132825   6.010   2.209   6.454
10642SOL    HW232826   5.867   2.171   6.521
10643SOL     OW32827   2.214   4.856   5.604
10643SOL    HW132828   2.225   4.879   5.507
10643SOL    HW232829   2.221   4.757   5.616
10644SOL     OW32830   6.363   2.920   2.807
10644SOL    HW132831   6.375   2.999   2.866
10644SOL    HW232832   6.265   2.901   2.796
10645SOL     OW32833   2.777   2.285   3.561
10645SOL    HW132834   2.825   2.198   3.548
10645SOL    HW232835   2.690   2.283   3.511
10646SOL     OW32836   5.715   0.765   3.575
10646SOL    HW132837   5.740   0.738   3.668
10646SOL    HW232838   5.722   0.686   3.514
10647SOL     OW32839   3.616   5.284   4.554
10647SOL    HW132840   3.578   5.192   4.569
10647SOL    HW232841   3.542   5.349   4.537
10648SOL     OW32842   5.120   5.169   5.471
10648SOL    HW132843   5.026   5.136   5.460
10648SOL    HW232844   5.124   5.267   5.451
10649SOL     OW32845   6.369   3.508   2.796
10649SOL    HW132846   6.422   3.429   2.764
10649SOL    HW232847   6.406   3.540   2.883
10650SOL     OW32848   0.385   0.325   3.860
10650SOL    HW132849   0.417   0.267   3.934
10650SOL    HW232850   0.453   0.395   3.840
10651SOL     OW32851   4.188   6.023   5.942
10651SOL    HW132852   4.140   6.024   5.854
10651SOL    HW232853   4.140   6.081   6.007
10652SOL     OW32854   1.835   0.308   6.845
10652SOL    HW132855   1.926   0.348   6.862
10652SOL    HW232856   1.765   0.371   6.877
10653SOL     OW32857   4.270   5.777   3.865
10653SOL    HW132858   4.304   5.770   3.958
10653SOL    HW232859   4.346   5.793   3.802
10654SOL     OW32860   5.974   1.760   4.059
10654SOL    HW132861   5.907   1.692   4.089
10654SOL    HW232862   6.035   1.783   4.134
10655SOL     OW32863   0.499   4.918   1.147
10655SOL    HW132864   0.399   4.911   1.150
10655SOL    HW232865   0.537   4.834   1.109
10656SOL     OW32866   6.170   2.306   3.133
10656SOL    HW132867   6.236   2.359   3.186
10656SOL    HW232868   6.125   2.366   3.067
10657SOL     OW32869   5.005   6.717   4.400
10657SOL    HW132870   4.965   6.635   4.440
10657SOL    HW232871   5.028   6.782   4.473
10658SOL     OW32872   0.556   3.298   5.459
10658SOL    HW132873   0.521   3.238   5.387
10658SOL    HW232874   0.561   3.248   5.545
10659SOL     OW32875   1.069   5.522   0.735
10659SOL    HW132876   1.027   5.609   0.707
10659SOL    HW232877   1.000   5.449   0.732
10660SOL     OW32878   5.786   2.936   5.303
10660SOL    HW132879   5.875   2.978   5.286
10660SOL    HW232880   5.713   2.995   5.269
10661SOL     OW32881   1.994   5.018   5.537
10661SOL    HW132882   2.069   4.957   5.563
10661SOL    HW232883   1.932   5.029   5.615
10662SOL     OW32884   2.486   1.077   2.671
10662SOL    HW132885   2.388   1.067   2.654
10662SOL    HW232886   2.505   1.169   2.707
10663SOL     OW32887   1.469   1.764   4.148
10663SOL    HW132888   1.553   1.781   4.200
10663SOL    HW232889   1.492   1.715   4.064
10664SOL     OW32890   1.254   5.470   4.510
10664SOL    HW132891   1.188   5.542   4.531
10664SOL    HW232892   1.217   5.381   4.538
10665SOL     OW32893   1.960   3.023   6.131
10665SOL    HW132894   2.000   3.104   6.089
10665SOL    HW232895   1.900   2.978   6.065
10666SOL     OW32896   3.174   3.694   1.880
10666SOL    HW132897   3.225   3.643   1.810
10666SOL    HW232898   3.237   3.730   1.948
10667SOL     OW32899   5.755   1.895   3.659
10667SOL    HW132900   5.745   1.875   3.561
10667SOL    HW232901   5.772   1.992   3.671
10668SOL     OW32902   3.003   2.497   5.383
10668SOL    HW132903   3.010   2.591   5.350
10668SOL    HW232904   3.073   2.441   5.338
10669SOL     OW32905   6.518   1.328   1.084
10669SOL    HW132906   6.521   1.417   1.037
10669SOL    HW232907   6.439   1.277   1.052
10670SOL     OW32908   4.901   3.533   4.121
10670SOL    HW132909   4.864   3.584   4.198
10670SOL    HW232910   4.928   3.597   4.049
10671SOL     OW32911   1.458   3.255   4.499
10671SOL    HW132912   1.444   3.210   4.410
10671SOL    HW232913   1.511   3.339   4.485
10672SOL     OW32914   6.105   3.535   1.403
10672SOL    HW132915   6.172   3.574   1.466
10672SOL    HW232916   6.147   3.521   1.313
10673SOL     OW32917   2.214   1.084   0.807
10673SOL    HW132918   2.151   1.008   0.823
10673SOL    HW232919   2.307   1.056   0.828
10674SOL     OW32920   3.630   3.853   3.819
10674SOL    HW132921   3.546   3.868   3.871
10674SOL    HW232922   3.609   3.805   3.734
10675SOL     OW32923   3.666   6.974   5.420
10675SOL    HW132924   3.761   6.973   5.389
10675SOL    HW232925   3.638   6.881   5.442
10676SOL     OW32926   2.128   6.145   5.564
10676SOL    HW132927   2.168   6.220   5.617
10676SOL    HW232928   2.061   6.097   5.620
10677SOL     OW32929   0.156   1.602   1.019
10677SOL    HW132930   0.065   1.590   1.060
10677SOL    HW232931   0.218   1.532   1.054
10678SOL     OW32932   4.493   5.537   3.374
10678SOL    HW132933   4.401   5.544   3.414
10678SOL    HW232934   4.559   5.577   3.437
10679SOL     OW32935   3.737   3.691   6.795
10679SOL    HW132936   3.776   3.662   6.707
10679SOL    HW232937   3.710   3.787   6.789
10680SOL     OW32938   4.302   0.912   3.971
10680SOL    HW132939   4.372   0.927   4.042
10680SOL    HW232940   4.320   0.972   3.893
10681SOL     OW32941   1.203   2.990   6.003
10681SOL    HW132942   1.139   3.049   5.953
10681SOL    HW232943   1.199   3.012   6.100
10682SOL     OW32944   5.430   2.812   6.314
10682SOL    HW132945   5.425   2.714   6.298
10682SOL    HW232946   5.346   2.855   6.280
10683SOL     OW32947   3.484   0.227   3.795
10683SOL    HW132948   3.536   0.153   3.838
10683SOL    HW232949   3.470   0.300   3.861
10684SOL     OW32950   4.238   4.689   1.650
10684SOL    HW132951   4.263   4.610   1.706
10684SOL    HW232952   4.223   4.768   1.709
10685SOL     OW32953   0.884   6.054   1.461
10685SOL    HW132954   0.981   6.078   1.462
10685SOL    HW232955   0.868   5.984   1.391
10686SOL     OW32956   2.357   2.885   6.826
10686SOL    HW132957   2.285   2.953   6.837
10686SOL    HW232958   2.349   2.842   6.736
10687SOL     OW32959   0.686   4.498   3.307
10687SOL    HW132960   0.617   4.569   3.315
10687SOL    HW232961   0.725   4.479   3.397
10688SOL     OW32962   5.502   1.676   2.505
10688SOL    HW132963   5.433   1.680   2.433
10688SOL    HW232964   5.564   1.755   2.496
10689SOL     OW32965   6.695   6.949   2.397
10689SOL    HW132966   6.636   6.955   2.317
10689SOL    HW232967   6.660   6.880   2.459
10690SOL     OW32968   0.093   6.647   3.982
10690SOL    HW132969   0.085   6.721   3.915
10690SOL    HW232970   0.161   6.581   3.950
10691SOL     OW32971   3.196   1.446   3.011
10691SOL    HW132972   3.150   1.441   3.100
10691SOL    HW232973   3.141   1.500   2.948
10692SOL     OW32974   2.795   0.839   4.184
10692SOL    HW132975   2.853   0.896   4.125
10692SOL    HW232976   2.699   0.854   4.161
10693SOL     OW32977   1.328   5.737   0.685
10693SOL    HW132978   1.251   5.680   0.656
10693SOL    HW232979   1.353   5.714   0.779
10694SOL     OW32980   4.819   6.367   5.754
10694SOL    HW132981   4.738   6.333   5.801
10694SOL    HW232982   4.835   6.462   5.779
10695SOL     OW32983   7.007   3.785   1.460
10695SOL    HW132984   7.022   3.872   1.507
10695SOL    HW232985   0.038   3.715   1.503
10696SOL     OW32986   0.232   4.652   4.965
10696SOL    HW132987   0.257   4.655   5.062
10696SOL    HW232988   0.133   4.660   4.956
10697SOL     OW32989   1.329   5.316   5.211
10697SOL    HW132990   1.313   5.282   5.118
10697SOL    HW232991   1.343   5.415   5.208
10698SOL     OW32992   4.575   3.645   0.092
10698SOL    HW132993   4.552   3.592   0.011
10698SOL    HW232994   4.626   3.727   0.066
10699SOL     OW32995   2.998   4.202   0.727
10699SOL    HW132996   3.096   4.195   0.709
10699SOL    HW232997   2.950   4.131   0.674
10700SOL     OW32998   5.077   0.091   0.283
10700SOL    HW132999   5.047   0.020   0.219
10700SOL    HW233000   5.014   0.095   0.361
10701SOL     OW33001   2.678   0.297   6.311
10701SOL    HW133002   2.738   0.236   6.363
10701SOL    HW233003   2.672   0.386   6.356
10702SOL     OW33004   4.875   2.680   2.368
10702SOL    HW133005   4.923   2.693   2.455
10702SOL    HW233006   4.790   2.630   2.385
10703SOL     OW33007   1.552   2.710   6.284
10703SOL    HW133008   1.619   2.784   6.274
10703SOL    HW233009   1.461   2.748   6.297
10704SOL     OW33010   0.049   6.490   2.273
10704SOL    HW133011   7.022   6.495   2.359
10704SOL    HW233012   0.118   6.562   2.273
10705SOL     OW33013   5.991   4.692   0.964
10705SOL    HW133014   5.965   4.626   1.035
10705SOL    HW233015   5.971   4.784   0.996
10706SOL     OW33016   5.213   0.262   2.391
10706SOL    HW133017   5.283   0.329   2.415
10706SOL    HW233018   5.163   0.294   2.311
10707SOL     OW33019   5.938   6.807   4.192
10707SOL    HW133020   6.014   6.836   4.250
10707SOL    HW233021   5.875   6.749   4.245
10708SOL     OW33022   4.706   2.531   2.530
10708SOL    HW133023   4.634   2.500   2.468
10708SOL    HW233024   4.665   2.564   2.615
10709SOL     OW33025   5.736   5.339   3.950
10709SOL    HW133026   5.807   5.340   3.880
10709SOL    HW233027   5.744   5.421   4.007
10710SOL     OW33028   5.009   1.065   2.937
10710SOL    HW133029   5.001   1.164   2.924
10710SOL    HW233030   5.095   1.045   2.985
10711SOL     OW33031   3.506   6.480   1.913
10711SOL    HW133032   3.518   6.471   2.012
10711SOL    HW233033   3.591   6.456   1.867
10712SOL     OW33034   3.564   0.161   3.204
10712SOL    HW133035   3.626   0.232   3.172
10712SOL    HW233036   3.547   0.096   3.130
10713SOL     OW33037   1.305   3.524   0.664
10713SOL    HW133038   1.352   3.610   0.682
10713SOL    HW233039   1.336   3.454   0.729
10714SOL     OW33040   3.683   2.986   3.772
10714SOL    HW133041   3.637   2.909   3.729
10714SOL    HW233042   3.616   3.055   3.797
10715SOL     OW33043   5.886   0.656   1.968
10715SOL    HW133044   5.795   0.614   1.980
10715SOL    HW233045   5.899   0.681   1.872
10716SOL     OW33046   6.832   2.294   2.507
10716SOL    HW133047   6.928   2.296   2.535
10716SOL    HW233048   6.818   2.356   2.430
10717SOL     OW33049   1.021   2.689   0.747
10717SOL    HW133050   1.007   2.596   0.716
10717SOL    HW233051   1.119   2.705   0.761
10718SOL     OW33052   1.217   4.498   6.327
10718SOL    HW133053   1.191   4.575   6.268
10718SOL    HW233054   1.256   4.533   6.412
10719SOL     OW33055   6.403   5.953   4.056
10719SOL    HW133056   6.371   5.881   4.118
10719SOL    HW233057   6.411   5.915   3.963
10720SOL     OW33058   5.582   5.585   4.128
10720SOL    HW133059   5.531   5.635   4.199
10720SOL    HW233060   5.632   5.509   4.169
10721SOL     OW33061   5.021   3.933   5.233
10721SOL    HW133062   5.058   4.018   5.270
10721SOL    HW233063   4.976   3.882   5.306
10722SOL     OW33064   6.680   3.676   6.429
10722SOL    HW133065   6.737   3.758   6.431
10722SOL    HW233066   6.717   3.609   6.494
10723SOL     OW33067   0.220   0.914   0.008
10723SOL    HW133068   0.272   1.000   0.006
10723SOL    HW233069   0.282   0.838   0.029
10724SOL     OW33070   0.206   6.907   0.598
10724SOL    HW133071   0.203   6.996   0.643
10724SOL    HW233072   0.202   6.835   0.668
10725SOL     OW33073   2.858   5.438   5.324
10725SOL    HW133074   2.946   5.425   5.369
10725SOL    HW233075   2.798   5.491   5.383
10726SOL     OW33076   5.468   1.143   3.587
10726SOL    HW133077   5.386   1.200   3.576
10726SOL    HW233078   5.533   1.188   3.647
10727SOL     OW33079   1.251   5.394   5.949
10727SOL    HW133080   1.208   5.344   5.874
10727SOL    HW233081   1.349   5.375   5.950
10728SOL     OW33082   6.586   5.282   0.439
10728SOL    HW133083   6.524   5.359   0.427
10728SOL    HW233084   6.566   5.237   0.527
10729SOL     OW33085   6.369   2.131   1.556
10729SOL    HW133086   6.285   2.185   1.559
10729SOL    HW233087   6.433   2.166   1.624
10730SOL     OW33088   3.768   0.478   1.819
10730SOL    HW133089   3.857   0.469   1.864
10730SOL    HW233090   3.752   0.574   1.796
10731SOL     OW33091   4.220   0.993   1.008
10731SOL    HW133092   4.290   1.052   0.968
10731SOL    HW233093   4.199   0.918   0.945
10732SOL     OW33094   0.343   5.096   5.350
10732SOL    HW133095   0.417   5.088   5.282
10732SOL    HW233096   0.310   5.005   5.375
10733SOL     OW33097   5.545   1.616   6.678
10733SOL    HW133098   5.513   1.528   6.642
10733SOL    HW233099   5.513   1.627   6.772
10734SOL     OW33100   0.945   1.401   1.030
10734SOL    HW133101   0.947   1.316   1.081
10734SOL    HW233102   1.011   1.466   1.069
10735SOL     OW33103   0.098   2.840   1.979
10735SOL    HW133104   0.078   2.748   1.945
10735SOL    HW233105   0.015   2.895   1.975
10736SOL     OW33106   2.213   0.308   3.791
10736SOL    HW133107   2.206   0.392   3.845
10736SOL    HW233108   2.237   0.331   3.697
10737SOL     OW33109   0.184   2.210   1.700
10737SOL    HW133110   0.247   2.215   1.778
10737SOL    HW233111   0.235   2.191   1.617
10738SOL     OW33112   3.728   6.035   2.911
10738SOL    HW133113   3.630   6.050   2.926
10738SOL    HW233114   3.773   6.124   2.897
10739SOL     OW33115   1.307   2.899   1.616
10739SOL    HW133116   1.274   2.805   1.614
10739SOL    HW233117   1.354   2.921   1.530
10740SOL     OW33118   5.659   4.967   5.023
10740SOL    HW133119   5.567   5.005   5.031
10740SOL    HW233120   5.691   4.939   5.113
10741SOL     OW33121   4.009   0.700   2.775
10741SOL    HW133122   4.093   0.698   2.722
10741SOL    HW233123   4.010   0.779   2.837
10742SOL     OW33124   5.866   5.413   1.126
10742SOL    HW133125   5.838   5.414   1.222
10742SOL    HW233126   5.895   5.505   1.099
10743SOL     OW33127   1.999   2.212   4.047
10743SOL    HW133128   1.958   2.302   4.065
10743SOL    HW233129   2.099   2.221   4.050
10744SOL     OW33130   3.093   1.664   1.049
10744SOL    HW133131   3.152   1.732   1.091
10744SOL    HW233132   3.092   1.677   0.950
10745SOL     OW33133   0.430   5.404   5.973
10745SOL    HW133134   0.489   5.476   6.009
10745SOL    HW233135   0.412   5.421   5.876
10746SOL     OW33136   1.177   3.866   5.762
10746SOL    HW133137   1.225   3.904   5.841
10746SOL    HW233138   1.123   3.786   5.792
10747SOL     OW33139   2.928   1.182   4.477
10747SOL    HW133140   2.877   1.188   4.391
10747SOL    HW233141   2.865   1.190   4.554
10748SOL     OW33142   6.138   1.104   2.311
10748SOL    HW133143   6.135   1.194   2.268
10748SOL    HW233144   6.180   1.039   2.248
10749SOL     OW33145   0.998   6.579   5.124
10749SOL    HW133146   1.068   6.638   5.084
10749SOL    HW233147   1.041   6.517   5.190
10750SOL     OW33148   3.785   0.675   5.273
10750SOL    HW133149   3.757   0.693   5.367
10750SOL    HW233150   3.726   0.726   5.210
10751SOL     OW33151   2.260   4.701   4.175
10751SOL    HW133152   2.300   4.614   4.203
10751SOL    HW233153   2.304   4.733   4.091
10752SOL     OW33154   4.950   4.860   5.380
10752SOL    HW133155   4.988   4.892   5.466
10752SOL    HW233156   4.954   4.933   5.312
10753SOL     OW33157   0.436   3.800   4.005
10753SOL    HW133158   0.356   3.747   4.029
10753SOL    HW233159   0.503   3.795   4.079
10754SOL     OW33160   1.110   6.987   3.017
10754SOL    HW133161   1.060   0.009   2.945
10754SOL    HW233162   1.048   6.930   3.070
10755SOL     OW33163   6.673   6.912   2.049
10755SOL    HW133164   6.651   6.882   1.956
10755SOL    HW233165   6.764   6.879   2.074
10756SOL     OW33166   6.883   5.580   5.386
10756SOL    HW133167   6.953   5.652   5.387
10756SOL    HW233168   6.924   5.494   5.416
10757SOL     OW33169   2.151   2.852   0.055
10757SOL    HW133170   2.193   2.847   0.145
10757SOL    HW233171   2.189   2.781   7.022
10758SOL     OW33172   0.569   6.446   3.296
10758SOL    HW133173   0.634   6.495   3.238
10758SOL    HW233174   0.607   6.356   3.318
10759SOL     OW33175   0.617   2.996   0.790
10759SOL    HW133176   0.698   2.938   0.804
10759SOL    HW233177   0.618   3.033   0.698
10760SOL     OW33178   5.734   1.192   3.765
10760SOL    HW133179   5.728   1.287   3.735
10760SOL    HW233180   5.779   1.137   3.695
10761SOL     OW33181   1.820   5.361   6.375
10761SOL    HW133182   1.876   5.279   6.364
10761SOL    HW233183   1.822   5.415   6.291
10762SOL     OW33184   2.933   0.201   5.355
10762SOL    HW133185   2.881   0.117   5.371
10762SOL    HW233186   2.869   0.276   5.335
10763SOL     OW33187   3.638   0.692   3.672
10763SOL    HW133188   3.646   0.729   3.580
10763SOL    HW233189   3.597   0.601   3.668
10764SOL     OW33190   4.907   1.229   4.368
10764SOL    HW133191   4.966   1.308   4.390
10764SOL    HW233192   4.812   1.252   4.390
10765SOL     OW33193   5.094   3.007   0.835
10765SOL    HW133194   5.015   2.952   0.861
10765SOL    HW233195   5.141   2.964   0.758
10766SOL     OW33196   3.697   4.159   0.995
10766SOL    HW133197   3.744   4.195   0.914
10766SOL    HW233198   3.687   4.059   0.986
10767SOL     OW33199   2.591   7.023   0.999
10767SOL    HW133200   2.595   6.924   0.981
10767SOL    HW233201   2.511   0.018   1.055
10768SOL     OW33202   6.435   4.829   1.033
10768SOL    HW133203   6.501   4.819   0.958
10768SOL    HW233204   6.456   4.910   1.086
10769SOL     OW33205   1.838   3.446   5.930
10769SOL    HW133206   1.897   3.485   5.859
10769SOL    HW233207   1.790   3.367   5.893
10770SOL     OW33208   4.947   5.324   2.984
10770SOL    HW133209   4.877   5.269   2.938
10770SOL    HW233210   4.903   5.390   3.044
10771SOL     OW33211   3.970   0.016   4.192
10771SOL    HW133212   4.011   0.077   4.124
10771SOL    HW233213   3.876   0.045   4.210
10772SOL     OW33214   6.725   5.885   4.115
10772SOL    HW133215   6.680   5.957   4.168
10772SOL    HW233216   6.792   5.926   4.053
10773SOL     OW33217   5.988   4.429   5.022
10773SOL    HW133218   5.973   4.517   4.977
10773SOL    HW233219   6.052   4.374   4.967
10774SOL     OW33220   1.397   1.287   3.938
10774SOL    HW133221   1.496   1.281   3.951
10774SOL    HW233222   1.353   1.312   4.024
10775SOL     OW33223   1.183   4.124   1.557
10775SOL    HW133224   1.278   4.152   1.564
10775SOL    HW233225   1.154   4.128   1.461
10776SOL     OW33226   1.890   1.058   5.814
10776SOL    HW133227   1.807   1.003   5.806
10776SOL    HW233228   1.968   0.999   5.835
10777SOL     OW33229   3.942   5.180   1.523
10777SOL    HW133230   4.018   5.115   1.521
10777SOL    HW233231   3.904   5.191   1.431
10778SOL     OW33232   5.396   6.210   4.125
10778SOL    HW133233   5.410   6.214   4.026
10778SOL    HW233234   5.299   6.226   4.145
10779SOL     OW33235   6.093   2.839   3.293
10779SOL    HW133236   6.051   2.923   3.262
10779SOL    HW233237   6.122   2.784   3.215
10780SOL     OW33238   1.233   0.960   3.665
10780SOL    HW133239   1.163   0.946   3.735
10780SOL    HW233240   1.320   0.984   3.710
10781SOL     OW33241   3.926   0.445   4.377
10781SOL    HW133242   3.915   0.476   4.283
10781SOL    HW233243   3.873   0.504   4.438
10782SOL     OW33244   6.325   6.806   4.099
10782SOL    HW133245   6.360   6.883   4.152
10782SOL    HW233246   6.285   6.839   4.013
10783SOL     OW33247   6.829   2.593   3.189
10783SOL    HW133248   6.871   2.526   3.128
10783SOL    HW233249   6.770   2.546   3.255
10784SOL     OW33250   2.889   1.335   3.817
10784SOL    HW133251   2.949   1.259   3.842
10784SOL    HW233252   2.880   1.339   3.718
10785SOL     OW33253   0.824   3.893   0.294
10785SOL    HW133254   0.822   3.893   0.194
10785SOL    HW233255   0.915   3.864   0.325
10786SOL     OW33256   6.205   5.786   2.999
10786SOL    HW133257   6.180   5.767   2.904
10786SOL    HW233258   6.295   5.746   3.018
10787SOL     OW33259   0.616   0.855   5.359
10787SOL    HW133260   0.590   0.848   5.455
10787SOL    HW233261   0.645   0.948   5.338
10788SOL     OW33262   0.564   3.730   6.819
10788SOL    HW133263   0.474   3.733   6.775
10788SOL    HW233264   0.607   3.820   6.814
10789SOL     OW33265   6.794   2.739   0.295
10789SOL    HW133266   6.809   2.692   0.382
10789SOL    HW233267   6.876   2.733   0.239
10790SOL     OW33268   0.485   6.703   1.854
10790SOL    HW133269   0.487   6.788   1.908
10790SOL    HW233270   0.394   6.692   1.814
10791SOL     OW33271   6.418   6.378   2.295
10791SOL    HW133272   6.340   6.400   2.237
10791SOL    HW233273   6.434   6.454   2.359
10792SOL     OW33274   3.832   3.705   5.265
10792SOL    HW133275   3.806   3.769   5.337
10792SOL    HW233276   3.927   3.677   5.277
10793SOL     OW33277   5.402   3.456   5.744
10793SOL    HW133278   5.356   3.506   5.817
10793SOL    HW233279   5.501   3.465   5.754
10794SOL     OW33280   3.534   3.572   3.918
10794SOL    HW133281   3.466   3.499   3.917
10794SOL    HW233282   3.492   3.655   3.956
10795SOL     OW33283   1.002   4.328   2.858
10795SOL    HW133284   1.028   4.407   2.914
10795SOL    HW233285   1.025   4.244   2.907
10796SOL     OW33286   0.796   6.487   5.272
10796SOL    HW133287   0.832   6.534   5.191
10796SOL    HW233288   0.825   6.535   5.354
10797SOL     OW33289   4.101   2.845   0.692
10797SOL    HW133290   4.166   2.900   0.639
10797SOL    HW233291   4.019   2.830   0.637
10798SOL     OW33292   1.871   1.329   0.878
10798SOL    HW133293   1.818   1.406   0.914
10798SOL    HW233294   1.810   1.253   0.859
10799SOL     OW33295   4.045   0.528   2.989
10799SOL    HW133296   4.011   0.553   3.079
10799SOL    HW233297   4.001   0.586   2.920
10800SOL     OW33298   0.995   6.151   0.058
10800SOL    HW133299   1.067   6.213   0.024
10800SOL    HW233300   1.031   6.097   0.134
10801SOL     OW33301   1.460   0.884   0.420
10801SOL    HW133302   1.396   0.960   0.425
10801SOL    HW233303   1.483   0.865   0.324
10802SOL     OW33304   6.377   6.621   3.899
10802SOL    HW133305   6.303   6.555   3.912
10802SOL    HW233306   6.385   6.678   3.980
10803SOL     OW33307   1.446   5.365   6.670
10803SOL    HW133308   1.410   5.378   6.763
10803SOL    HW233309   1.521   5.430   6.655
10804SOL     OW33310   0.306   3.185   3.489
10804SOL    HW133311   0.337   3.097   3.526
10804SOL    HW233312   0.326   3.257   3.555
10805SOL     OW33313   6.088   0.548   4.698
10805SOL    HW133314   5.991   0.532   4.717
10805SOL    HW233315   6.106   0.646   4.700
10806SOL     OW33316   2.764   4.854   6.726
10806SOL    HW133317   2.809   4.941   6.748
10806SOL    HW233318   2.724   4.815   6.809
10807SOL     OW33319   2.195   6.020   3.784
10807SOL    HW133320   2.229   6.042   3.693
10807SOL    HW233321   2.143   6.097   3.820
10808SOL     OW33322   0.086   2.189   6.043
10808SOL    HW133323   0.016   2.163   6.110
10808SOL    HW233324   0.134   2.270   6.076
10809SOL     OW33325   2.747   4.762   4.311
10809SOL    HW133326   2.670   4.776   4.373
10809SOL    HW233327   2.815   4.834   4.324
10810SOL     OW33328   0.396   0.669   4.160
10810SOL    HW133329   0.425   0.599   4.226
10810SOL    HW233330   0.461   0.745   4.163
10811SOL     OW33331   5.087   5.643   5.088
10811SOL    HW133332   5.055   5.581   5.159
10811SOL    HW233333   5.088   5.737   5.124
10812SOL     OW33334   0.008   3.158   6.482
10812SOL    HW133335   6.987   3.073   6.455
10812SOL    HW233336   0.035   3.208   6.400
10813SOL     OW33337   0.544   3.853   5.979
10813SOL    HW133338   0.509   3.859   5.886
10813SOL    HW233339   0.570   3.758   5.999
10814SOL     OW33340   2.114   0.258   0.154
10814SOL    HW133341   2.164   0.222   0.076
10814SOL    HW233342   2.021   0.220   0.154
10815SOL     OW33343   5.277   1.296   3.837
10815SOL    HW133344   5.362   1.345   3.818
10815SOL    HW233345   5.202   1.362   3.845
10816SOL     OW33346   3.413   2.934   3.460
10816SOL    HW133347   3.406   3.033   3.459
10816SOL    HW233348   3.376   2.896   3.376
10817SOL     OW33349   2.445   0.248   3.194
10817SOL    HW133350   2.415   0.156   3.169
10817SOL    HW233351   2.509   0.282   3.125
10818SOL     OW33352   4.724   5.356   6.059
10818SOL    HW133353   4.791   5.430   6.052
10818SOL    HW233354   4.684   5.339   5.969
10819SOL     OW33355   7.006   5.363   6.496
10819SOL    HW133356   6.976   5.458   6.489
10819SOL    HW233357   6.932   5.307   6.532
10820SOL     OW33358   1.200   5.375   5.493
10820SOL    HW133359   1.196   5.310   5.568
10820SOL    HW233360   1.268   5.446   5.514
10821SOL     OW33361   4.593   5.071   2.643
10821SOL    HW133362   4.567   4.974   2.642
10821SOL    HW233363   4.527   5.122   2.697
10822SOL     OW33364   5.813   2.379   0.643
10822SOL    HW133365   5.815   2.478   0.651
10822SOL    HW233366   5.888   2.339   0.696
10823SOL     OW33367   0.010   6.843   3.127
10823SOL    HW133368   0.017   6.776   3.201
10823SOL    HW233369   6.957   6.903   3.144
10824SOL     OW33370   1.075   1.072   4.531
10824SOL    HW133371   0.992   1.117   4.499
10824SOL    HW233372   1.055   1.021   4.615
10825SOL     OW33373   1.214   1.920   0.431
10825SOL    HW133374   1.168   1.994   0.480
10825SOL    HW233375   1.146   1.870   0.376
10826SOL     OW33376   1.844   2.062   2.391
10826SOL    HW133377   1.802   2.082   2.302
10826SOL    HW233378   1.905   2.137   2.417
10827SOL     OW33379   6.296   3.369   5.354
10827SOL    HW133380   6.225   3.349   5.422
10827SOL    HW233381   6.297   3.467   5.335
10828SOL     OW33382   6.729   3.780   6.794
10828SOL    HW133383   6.697   3.703   6.740
10828SOL    HW233384   6.683   3.864   6.764
10829SOL     OW33385   4.475   3.362   6.545
10829SOL    HW133386   4.572   3.342   6.550
10829SOL    HW233387   4.461   3.460   6.532
10830SOL     OW33388   5.172   1.476   3.123
10830SOL    HW133389   5.177   1.531   3.039
10830SOL    HW233390   5.099   1.511   3.181
10831SOL     OW33391   3.973   0.901   2.977
10831SOL    HW133392   4.047   0.954   2.936
10831SOL    HW233393   3.972   0.915   3.076
10832SOL     OW33394   6.695   3.355   0.821
10832SOL    HW133395   6.725   3.353   0.726
10832SOL    HW233396   6.669   3.449   0.846
10833SOL     OW33397   0.664   1.214   0.581
10833SOL    HW133398   0.753   1.186   0.544
10833SOL    HW233399   0.635   1.300   0.537
10834SOL     OW33400   6.656   6.914   0.686
10834SOL    HW133401   6.753   6.938   0.682
10834SOL    HW233402   6.601   6.997   0.688
10835SOL     OW33403   5.931   2.952   6.243
10835SOL    HW133404   5.936   3.034   6.187
10835SOL    HW233405   5.841   2.947   6.288
10836SOL     OW33406   0.555   1.767   3.194
10836SOL    HW133407   0.612   1.696   3.235
10836SOL    HW233408   0.482   1.792   3.258
10837SOL     OW33409   6.912   4.276   2.498
10837SOL    HW133410   7.011   4.269   2.508
10837SOL    HW233411   6.889   4.308   2.406
10838SOL     OW33412   6.234   5.733   3.530
10838SOL    HW133413   6.184   5.662   3.480
10838SOL    HW233414   6.328   5.702   3.547
10839SOL     OW33415   4.780   3.808   0.294
10839SOL    HW133416   4.733   3.794   0.206
10839SOL    HW233417   4.715   3.844   0.361
10840SOL     OW33418   3.290   0.320   0.931
10840SOL    HW133419   3.229   0.314   1.010
10840SOL    HW233420   3.262   0.253   0.862
10841SOL     OW33421   1.063   5.143   4.981
10841SOL    HW133422   1.152   5.189   4.983
10841SOL    HW233423   0.993   5.208   4.952
10842SOL     OW33424   4.759   4.130   1.208
10842SOL    HW133425   4.810   4.216   1.212
10842SOL    HW233426   4.714   4.113   1.296
10843SOL     OW33427   1.708   1.901   0.924
10843SOL    HW133428   1.667   1.861   1.006
10843SOL    HW233429   1.674   1.852   0.843
10844SOL     OW33430   1.131   5.696   4.721
10844SOL    HW133431   1.202   5.766   4.725
10844SOL    HW233432   1.045   5.734   4.756
10845SOL     OW33433   4.460   6.185   5.421
10845SOL    HW133434   4.447   6.091   5.453
10845SOL    HW233435   4.544   6.222   5.462
10846SOL     OW33436   5.530   6.559   0.522
10846SOL    HW133437   5.446   6.580   0.573
10846SOL    HW233438   5.526   6.600   0.431
10847SOL     OW33439   1.733   1.647   7.007
10847SOL    HW133440   1.758   1.719   6.941
10847SOL    HW233441   1.746   1.557   6.965
10848SOL     OW33442   1.630   4.137   0.703
10848SOL    HW133443   1.691   4.111   0.629
10848SOL    HW233444   1.667   4.106   0.791
10849SOL     OW33445   2.648   5.786   3.970
10849SOL    HW133446   2.737   5.769   3.928
10849SOL    HW233447   2.584   5.714   3.943
10850SOL     OW33448   3.726   6.190   0.568
10850SOL    HW133449   3.798   6.174   0.501
10850SOL    HW233450   3.637   6.188   0.521
10851SOL     OW33451   2.423   4.622   2.073
10851SOL    HW133452   2.514   4.647   2.106
10851SOL    HW233453   2.358   4.693   2.097
10852SOL     OW33454   2.162   1.652   1.125
10852SOL    HW133455   2.139   1.594   1.046
10852SOL    HW233456   2.219   1.729   1.094
10853SOL     OW33457   1.994   2.232   6.218
10853SOL    HW133458   1.984   2.314   6.275
10853SOL    HW233459   1.940   2.158   6.256
10854SOL     OW33460   4.093   5.951   5.388
10854SOL    HW133461   3.994   5.934   5.388
10854SOL    HW233462   4.115   6.014   5.313
10855SOL     OW33463   3.227   1.263   0.884
10855SOL    HW133464   3.188   1.282   0.974
10855SOL    HW233465   3.267   1.172   0.883
10856SOL     OW33466   6.994   0.415   6.950
10856SOL    HW133467   0.030   0.443   6.876
10856SOL    HW233468   6.925   0.486   6.964
10857SOL     OW33469   6.666   1.179   2.326
10857SOL    HW133470   6.691   1.273   2.350
10857SOL    HW233471   6.663   1.123   2.408
10858SOL     OW33472   2.331   5.789   1.562
10858SOL    HW133473   2.306   5.862   1.499
10858SOL    HW233474   2.278   5.797   1.646
10859SOL     OW33475   0.920   5.557   4.156
10859SOL    HW133476   1.003   5.501   4.155
10859SOL    HW233477   0.845   5.506   4.114
10860SOL     OW33478   6.852   2.782   2.480
10860SOL    HW133479   6.800   2.865   2.499
10860SOL    HW233480   6.846   2.719   2.558
10861SOL     OW33481   3.413   2.945   4.454
10861SOL    HW133482   3.499   2.994   4.465
10861SOL    HW233483   3.383   2.950   4.359
10862SOL     OW33484   1.743   0.088   5.031
10862SOL    HW133485   1.739   0.185   5.053
10862SOL    HW233486   1.839   0.058   5.033
10863SOL     OW33487   3.324   5.871   4.665
10863SOL    HW133488   3.378   5.806   4.718
10863SOL    HW233489   3.354   5.870   4.570
10864SOL     OW33490   3.549   6.484   2.183
10864SOL    HW133491   3.504   6.545   2.249
10864SOL    HW233492   3.645   6.510   2.174
10865SOL     OW33493   6.142   1.408   6.385
10865SOL    HW133494   6.126   1.346   6.462
10865SOL    HW233495   6.183   1.493   6.419
10866SOL     OW33496   5.314   4.795   0.330
10866SOL    HW133497   5.295   4.828   0.238
10866SOL    HW233498   5.405   4.825   0.358
10867SOL     OW33499   3.324   3.746   0.653
10867SOL    HW133500   3.261   3.685   0.700
10867SOL    HW233501   3.387   3.693   0.596
10868SOL     OW33502   3.254   1.705   3.487
10868SOL    HW133503   3.280   1.613   3.515
10868SOL    HW233504   3.326   1.769   3.512
10869NA      NA33505   5.925   2.250   5.629
10870NA      NA33506   4.311   4.626   5.229
10871NA      NA33507   2.149   3.740   1.337
10872NA      NA33508   4.850   3.916   5.064
10873NA      NA33509   4.394   2.507   5.208
10874NA      NA33510   3.826   4.597   1.563
10875NA      NA33511   6.651   5.621   5.402
10876NA      NA33512   3.736   3.588   5.085
10877NA      NA33513   4.823   6.697   6.783
10878NA      NA33514   3.636   0.106   5.616
10879NA      NA33515   6.647   4.682   2.396
10880NA      NA33516   2.099   0.492   3.449
10881NA      NA33517   3.235   4.846   1.231
10882NA      NA33518   3.427   3.607   2.783
   7.02545   7.02545   7.02545
