Generated by trjconv : CNT in water t= 407.00000
33518
    1C        C    1   2.847   2.771   4.748
    1C        C    2   2.899   2.720   4.869
    1C        C    3   2.843   2.777   4.984
    1C        C    4   2.850   2.771   4.261
    1C        C    5   2.906   2.728   4.384
    1C        C    6   2.852   2.775   4.506
    1C        C    7   3.017   2.641   4.625
    1C        C    8   2.901   2.723   4.627
    1C        C    9   3.076   2.600   4.746
    1C        C   10   3.011   2.634   4.867
    1C        C   11   3.185   2.494   4.977
    1C        C   12   3.064   2.565   4.977
    1C        C   13   2.851   2.772   3.772
    1C        C   14   2.902   2.723   3.894
    1C        C   15   2.845   2.768   4.016
    1C        C   16   3.017   2.645   4.138
    1C        C   17   2.899   2.722   4.138
    1C        C   18   3.084   2.620   4.260
    1C        C   19   3.024   2.651   4.384
    1C        C   20   3.214   2.557   4.503
    1C        C   21   3.082   2.605   4.505
    1C        C   22   3.279   2.531   4.626
    1C        C   23   3.208   2.547   4.747
    1C        C   24   3.416   2.484   4.863
    1C        C   25   3.275   2.508   4.867
    1C        C   26   3.494   2.470   4.978
    1C        C   27   2.846   2.768   3.283
    1C        C   28   2.906   2.728   3.405
    1C        C   29   2.855   2.775   3.529
    1C        C   30   3.017   2.638   3.650
    1C        C   31   2.905   2.723   3.651
    1C        C   32   3.079   2.604   3.773
    1C        C   33   3.015   2.639   3.894
    1C        C   34   3.211   2.559   4.016
    1C        C   35   3.077   2.605   4.016
    1C        C   36   3.279   2.539   4.138
    1C        C   37   3.211   2.558   4.260
    1C        C   38   3.419   2.503   4.384
    1C        C   39   3.281   2.534   4.381
    1C        C   40   3.490   2.498   4.505
    1C        C   41   3.417   2.503   4.626
    1C        C   42   3.635   2.482   4.745
    1C        C   43   3.493   2.483   4.743
    1C        C   44   3.709   2.485   4.865
    1C        C   45   3.633   2.470   4.982
    1C        C   46   2.838   2.754   2.795
    1C        C   47   2.891   2.706   2.917
    1C        C   48   2.843   2.760   3.038
    1C        C   49   3.016   2.642   3.165
    1C        C   50   2.898   2.719   3.161
    1C        C   51   3.083   2.607   3.284
    1C        C   52   3.018   2.642   3.404
    1C        C   53   3.208   2.553   3.528
    1C        C   54   3.076   2.602   3.526
    1C        C   55   3.279   2.535   3.649
    1C        C   56   3.210   2.553   3.771
    1C        C   57   3.417   2.510   3.893
    1C        C   58   3.277   2.533   3.894
    1C        C   59   3.486   2.506   4.016
    1C        C   60   3.418   2.511   4.140
    1C        C   61   3.630   2.499   4.259
    1C        C   62   3.489   2.496   4.261
    1C        C   63   3.703   2.508   4.380
    1C        C   64   3.632   2.500   4.501
    1C        C   65   3.837   2.546   4.622
    1C        C   66   3.703   2.500   4.623
    1C        C   67   3.903   2.570   4.744
    1C        C   68   3.844   2.526   4.865
    1C        C   69   4.053   2.586   4.976
    1C        C   70   3.925   2.531   4.979
    1C        C   71   2.824   2.735   2.307
    1C        C   72   2.879   2.691   2.430
    1C        C   73   2.825   2.739   2.551
    1C        C   74   3.003   2.623   2.675
    1C        C   75   2.885   2.700   2.673
    1C        C   76   3.068   2.590   2.796
    1C        C   77   3.010   2.629   2.919
    1C        C   78   3.206   2.551   3.039
    1C        C   79   3.075   2.604   3.042
    1C        C   80   3.276   2.532   3.160
    1C        C   81   3.214   2.554   3.285
    1C        C   82   3.417   2.499   3.403
    1C        C   83   3.279   2.530   3.408
    1C        C   84   3.488   2.497   3.526
    1C        C   85   3.417   2.506   3.648
    1C        C   86   3.628   2.506   3.770
    1C        C   87   3.487   2.502   3.771
    1C        C   88   3.698   2.515   3.892
    1C        C   89   3.627   2.513   4.014
    1C        C   90   3.835   2.551   4.138
    1C        C   91   3.699   2.512   4.136
    1C        C   92   3.905   2.574   4.258
    1C        C   93   3.839   2.546   4.380
    1C        C   94   4.029   2.642   4.502
    1C        C   95   3.906   2.573   4.501
    1C        C   96   4.092   2.678   4.623
    1C        C   97   4.031   2.632   4.742
    1C        C   98   4.195   2.768   4.863
    1C        C   99   4.099   2.661   4.863
    1C        C  100   4.219   2.845   4.977
    1C        C  101   2.821   2.730   2.070
    1C        C  102   2.991   2.592   2.190
    1C        C  103   2.879   2.682   2.187
    1C        C  104   3.061   2.571   2.311
    1C        C  105   2.999   2.615   2.430
    1C        C  106   3.197   2.540   2.552
    1C        C  107   3.065   2.590   2.552
    1C        C  108   3.267   2.524   2.673
    1C        C  109   3.201   2.543   2.796
    1C        C  110   3.411   2.500   2.914
    1C        C  111   3.271   2.524   2.917
    1C        C  112   3.484   2.499   3.035
    1C        C  113   3.416   2.507   3.158
    1C        C  114   3.627   2.504   3.281
    1C        C  115   3.486   2.495   3.280
    1C        C  116   3.699   2.512   3.402
    1C        C  117   3.629   2.503   3.524
    1C        C  118   3.835   2.547   3.648
    1C        C  119   3.697   2.513   3.647
    1C        C  120   3.899   2.574   3.771
    1C        C  121   3.836   2.549   3.894
    1C        C  122   4.025   2.646   4.014
    1C        C  123   3.901   2.577   4.016
    1C        C  124   4.087   2.682   4.136
    1C        C  125   4.030   2.640   4.258
    1C        C  126   4.206   2.760   4.378
    1C        C  127   4.088   2.682   4.379
    1C        C  128   4.250   2.819   4.498
    1C        C  129   4.196   2.774   4.620
    1C        C  130   4.329   2.937   4.740
    1C        C  131   4.250   2.819   4.743
    1C        C  132   4.356   3.006   4.860
    1C        C  133   4.276   2.971   4.970
    1C        C  134   3.174   2.475   2.081
    1C        C  135   3.037   2.505   2.087
    1C        C  136   3.260   2.485   2.191
    1C        C  137   3.195   2.525   2.309
    1C        C  138   3.405   2.489   2.430
    1C        C  139   3.266   2.514   2.431
    1C        C  140   3.478   2.490   2.550
    1C        C  141   3.406   2.497   2.672
    1C        C  142   3.621   2.495   2.792
    1C        C  143   3.480   2.490   2.792
    1C        C  144   3.694   2.512   2.912
    1C        C  145   3.626   2.503   3.035
    1C        C  146   3.833   2.544   3.158
    1C        C  147   3.696   2.512   3.157
    1C        C  148   3.900   2.571   3.280
    1C        C  149   3.836   2.547   3.403
    1C        C  150   4.031   2.627   3.524
    1C        C  151   3.904   2.565   3.526
    1C        C  152   4.088   2.669   3.647
    1C        C  153   4.025   2.638   3.769
    1C        C  154   4.196   2.767   3.889
    1C        C  155   4.085   2.679   3.891
    1C        C  156   4.252   2.812   4.010
    1C        C  157   4.201   2.766   4.134
    1C        C  158   4.343   2.921   4.254
    1C        C  159   4.256   2.811   4.256
    1C        C  160   4.377   2.986   4.375
    1C        C  161   4.332   2.934   4.499
    1C        C  162   4.446   3.117   4.617
    1C        C  163   4.370   2.998   4.619
    1C        C  164   4.472   3.183   4.739
    1C        C  165   4.435   3.122   4.861
    1C        C  166   4.519   3.319   4.973
    1C        C  167   4.482   3.185   4.977
    1C        C  168   3.479   2.446   2.074
    1C        C  169   3.399   2.462   2.189
    1C        C  170   3.616   2.474   2.307
    1C        C  171   3.474   2.469   2.308
    1C        C  172   3.689   2.497   2.425
    1C        C  173   3.619   2.498   2.548
    1C        C  174   3.829   2.535   2.666
    1C        C  175   3.692   2.503   2.669
    1C        C  176   3.895   2.564   2.787
    1C        C  177   3.831   2.546   2.912
    1C        C  178   4.026   2.629   3.035
    1C        C  179   3.898   2.569   3.034
    1C        C  180   4.087   2.665   3.157
    1C        C  181   4.029   2.628   3.280
    1C        C  182   4.206   2.745   3.400
    1C        C  183   4.092   2.661   3.402
    1C        C  184   4.251   2.801   3.521
    1C        C  185   4.199   2.756   3.644
    1C        C  186   4.343   2.915   3.766
    1C        C  187   4.250   2.808   3.765
    1C        C  188   4.386   2.974   3.887
    1C        C  189   4.345   2.918   4.010
    1C        C  190   4.452   3.103   4.130
    1C        C  191   4.386   2.978   4.132
    1C        C  192   4.477   3.172   4.251
    1C        C  193   4.445   3.109   4.374
    1C        C  194   4.510   3.315   4.492
    1C        C  195   4.475   3.178   4.493
    1C        C  196   4.526   3.386   4.613
    1C        C  197   4.507   3.321   4.737
    1C        C  198   4.553   3.537   4.850
    1C        C  199   4.531   3.396   4.856
    1C        C  200   4.573   3.618   4.966
    1C        C  201   3.616   2.418   2.077
    1C        C  202   3.826   2.518   2.186
    1C        C  203   3.694   2.465   2.188
    1C        C  204   3.899   2.545   2.306
    1C        C  205   3.827   2.527   2.426
    1C        C  206   4.023   2.623   2.546
    1C        C  207   3.899   2.556   2.545
    1C        C  208   4.084   2.660   2.668
    1C        C  209   4.023   2.625   2.790
    1C        C  210   4.197   2.749   2.909
    1C        C  211   4.086   2.661   2.911
    1C        C  212   4.246   2.801   3.031
    1C        C  213   4.198   2.753   3.154
    1C        C  214   4.342   2.906   3.275
    1C        C  215   4.255   2.794   3.277
    1C        C  216   4.377   2.968   3.396
    1C        C  217   4.338   2.913   3.520
    1C        C  218   4.437   3.102   3.640
    1C        C  219   4.376   2.974   3.642
    1C        C  220   4.470   3.166   3.761
    1C        C  221   4.449   3.101   3.885
    1C        C  222   4.515   3.303   4.004
    1C        C  223   4.476   3.167   4.007
    1C        C  224   4.519   3.377   4.124
    1C        C  225   4.506   3.310   4.248
    1C        C  226   4.515   3.525   4.368
    1C        C  227   4.513   3.383   4.368
    1C        C  228   4.517   3.599   4.488
    1C        C  229   4.534   3.527   4.608
    1C        C  230   4.503   3.742   4.728
    1C        C  231   4.540   3.604   4.726
    1C        C  232   4.494   3.821   4.845
    1C        C  233   4.536   3.753   4.960
    1C        C  234   4.016   2.615   2.066
    1C        C  235   3.897   2.543   2.068
    1C        C  236   4.087   2.649   2.182
    1C        C  237   4.026   2.607   2.302
    1C        C  238   4.201   2.735   2.423
    1C        C  239   4.086   2.651   2.423
    1C        C  240   4.256   2.785   2.543
    1C        C  241   4.198   2.743   2.665
    1C        C  242   4.343   2.900   2.783
    1C        C  243   4.251   2.792   2.786
    1C        C  244   4.377   2.963   2.905
    1C        C  245   4.337   2.909   3.030
    1C        C  246   4.444   3.091   3.150
    1C        C  247   4.380   2.965   3.152
    1C        C  248   4.464   3.160   3.272
    1C        C  249   4.434   3.097   3.395
    1C        C  250   4.494   3.303   3.512
    1C        C  251   4.460   3.166   3.516
    1C        C  252   4.506   3.368   3.637
    1C        C  253   4.501   3.303   3.762
    1C        C  254   4.522   3.515   3.876
    1C        C  255   4.523   3.374   3.883
    1C        C  256   4.521   3.586   3.998
    1C        C  257   4.521   3.518   4.122
    1C        C  258   4.487   3.730   4.239
    1C        C  259   4.516   3.591   4.243
    1C        C  260   4.464   3.800   4.360
    1C        C  261   4.486   3.737   4.485
    1C        C  262   4.425   3.940   4.601
    1C        C  263   4.469   3.806   4.607
    1C        C  264   4.399   4.011   4.721
    1C        C  265   4.430   3.947   4.843
    1C        C  266   4.323   4.134   4.959
    1C        C  267   4.397   4.017   4.960
    1C        C  268   4.267   2.770   2.064
    1C        C  269   4.198   2.736   2.181
    1C        C  270   4.350   2.889   2.300
    1C        C  271   4.254   2.784   2.301
    1C        C  272   4.386   2.952   2.421
    1C        C  273   4.346   2.893   2.543
    1C        C  274   4.451   3.083   2.659
    1C        C  275   4.384   2.959   2.662
    1C        C  276   4.473   3.149   2.782
    1C        C  277   4.452   3.083   2.905
    1C        C  278   4.511   3.288   3.022
    1C        C  279   4.477   3.151   3.027
    1C        C  280   4.518   3.362   3.142
    1C        C  281   4.498   3.297   3.266
    1C        C  282   4.510   3.510   3.388
    1C        C  283   4.505   3.369   3.387
    1C        C  284   4.510   3.580   3.512
    1C        C  285   4.512   3.509   3.634
    1C        C  286   4.485   3.724   3.751
    1C        C  287   4.507   3.584   3.754
    1C        C  288   4.471   3.792   3.874
    1C        C  289   4.494   3.725   3.996
    1C        C  290   4.424   3.930   4.116
    1C        C  291   4.473   3.797   4.116
    1C        C  292   4.398   3.999   4.236
    1C        C  293   4.420   3.934   4.359
    1C        C  294   4.327   4.128   4.477
    1C        C  295   4.395   4.004   4.479
    1C        C  296   4.286   4.189   4.597
    1C        C  297   4.326   4.133   4.720
    1C        C  298   4.200   4.312   4.836
    1C        C  299   4.286   4.198   4.840
    1C        C  300   4.172   4.401   4.945
    1C        C  301   4.348   2.883   2.060
    1C        C  302   4.471   3.066   2.171
    1C        C  303   4.393   2.946   2.177
    1C        C  304   4.484   3.139   2.292
    1C        C  305   4.450   3.078   2.415
    1C        C  306   4.514   3.283   2.536
    1C        C  307   4.481   3.146   2.536
    1C        C  308   4.513   3.356   2.657
    1C        C  309   4.500   3.287   2.780
    1C        C  310   4.524   3.500   2.900
    1C        C  311   4.519   3.359   2.900
    1C        C  312   4.522   3.572   3.022
    1C        C  313   4.521   3.503   3.145
    1C        C  314   4.486   3.717   3.263
    1C        C  315   4.511   3.578   3.264
    1C        C  316   4.471   3.789   3.384
    1C        C  317   4.484   3.718   3.506
    1C        C  318   4.424   3.923   3.626
    1C        C  319   4.469   3.790   3.627
    1C        C  320   4.390   3.984   3.748
    1C        C  321   4.420   3.924   3.872
    1C        C  322   4.317   4.112   3.990
    1C        C  323   4.391   3.991   3.993
    1C        C  324   4.282   4.172   4.113
    1C        C  325   4.327   4.122   4.237
    1C        C  326   4.192   4.292   4.355
    1C        C  327   4.286   4.187   4.355
    1C        C  328   4.136   4.340   4.476
    1C        C  329   4.193   4.295   4.597
    1C        C  330   4.024   4.436   4.712
    1C        C  331   4.138   4.351   4.714
    1C        C  332   3.970   4.490   4.831
    1C        C  333   4.052   4.474   4.943
    1C        C  334   4.552   3.267   2.061
    1C        C  335   4.540   3.128   2.062
    1C        C  336   4.539   3.348   2.174
    1C        C  337   4.518   3.277   2.294
    1C        C  338   4.522   3.494   2.412
    1C        C  339   4.521   3.353   2.413
    1C        C  340   4.516   3.567   2.533
    1C        C  341   4.521   3.497   2.656
    1C        C  342   4.493   3.708   2.774
    1C        C  343   4.517   3.569   2.777
    1C        C  344   4.473   3.777   2.896
    1C        C  345   4.492   3.710   3.019
    1C        C  346   4.422   3.915   3.139
    1C        C  347   4.467   3.781   3.139
    1C        C  348   4.395   3.986   3.258
    1C        C  349   4.424   3.922   3.380
    1C        C  350   4.319   4.106   3.501
    1C        C  351   4.393   3.986   3.503
    1C        C  352   4.280   4.165   3.623
    1C        C  353   4.319   4.106   3.746
    1C        C  354   4.184   4.273   3.868
    1C        C  355   4.278   4.167   3.866
    1C        C  356   4.127   4.317   3.990
    1C        C  357   4.183   4.273   4.112
    1C        C  358   4.016   4.408   4.229
    1C        C  359   4.134   4.330   4.232
    1C        C  360   3.957   4.451   4.350
    1C        C  361   4.019   4.420   4.472
    1C        C  362   3.827   4.520   4.593
    1C        C  363   3.958   4.467   4.591
    1C        C  364   3.762   4.550   4.714
    1C        C  365   3.839   4.544   4.832
    1C        C  366   3.633   4.581   4.952
    1C        C  367   3.771   4.571   4.952
    1C        C  368   4.504   3.562   2.053
    1C        C  369   4.522   3.488   2.171
    1C        C  370   4.500   3.704   2.287
    1C        C  371   4.514   3.564   2.290
    1C        C  372   4.482   3.775   2.408
    1C        C  373   4.494   3.706   2.531
    1C        C  374   4.428   3.909   2.650
    1C        C  375   4.482   3.778   2.652
    1C        C  376   4.393   3.974   2.771
    1C        C  377   4.423   3.909   2.893
    1C        C  378   4.319   4.096   3.012
    1C        C  379   4.393   3.975   3.015
    1C        C  380   4.276   4.158   3.131
    1C        C  381   4.320   4.106   3.255
    1C        C  382   4.180   4.264   3.377
    1C        C  383   4.274   4.159   3.378
    1C        C  384   4.129   4.312   3.499
    1C        C  385   4.184   4.268   3.622
    1C        C  386   4.012   4.391   3.741
    1C        C  387   4.131   4.316   3.745
    1C        C  388   3.951   4.429   3.863
    1C        C  389   4.010   4.396   3.987
    1C        C  390   3.820   4.493   4.108
    1C        C  391   3.951   4.440   4.108
    1C        C  392   3.753   4.515   4.230
    1C        C  393   3.826   4.505   4.350
    1C        C  394   3.619   4.552   4.474
    1C        C  395   3.759   4.535   4.470
    1C        C  396   3.549   4.563   4.596
    1C        C  397   3.622   4.567   4.717
    1C        C  398   3.412   4.545   4.841
    1C        C  399   3.551   4.572   4.839
    1C        C  400   3.343   4.506   4.956
    1C        C  401   4.492   3.701   2.054
    1C        C  402   4.454   3.918   2.166
    1C        C  403   4.485   3.780   2.169
    1C        C  404   4.413   3.977   2.287
    1C        C  405   4.432   3.907   2.409
    1C        C  406   4.329   4.097   2.525
    1C        C  407   4.402   3.976   2.529
    1C        C  408   4.282   4.154   2.645
    1C        C  409   4.317   4.092   2.768
    1C        C  410   4.180   4.255   2.887
    1C        C  411   4.276   4.152   2.889
    1C        C  412   4.125   4.301   3.009
    1C        C  413   4.180   4.262   3.133
    1C        C  414   4.008   4.387   3.253
    1C        C  415   4.127   4.311   3.254
    1C        C  416   3.945   4.416   3.376
    1C        C  417   4.007   4.383   3.498
    1C        C  418   3.817   4.479   3.619
    1C        C  419   3.947   4.423   3.620
    1C        C  420   3.750   4.503   3.741
    1C        C  421   3.821   4.486   3.862
    1C        C  422   3.615   4.531   3.987
    1C        C  423   3.754   4.509   3.984
    1C        C  424   3.544   4.536   4.109
    1C        C  425   3.614   4.541   4.232
    1C        C  426   3.403   4.548   4.356
    1C        C  427   3.544   4.552   4.354
    1C        C  428   3.335   4.541   4.480
    1C        C  429   3.408   4.548   4.601
    1C        C  430   3.195   4.519   4.724
    1C        C  431   3.336   4.539   4.722
    1C        C  432   3.124   4.496   4.845
    1C        C  433   3.205   4.497   4.960
    1C        C  434   4.388   4.124   2.054
    1C        C  435   4.451   3.999   2.052
    1C        C  436   4.305   4.163   2.165
    1C        C  437   4.336   4.097   2.287
    1C        C  438   4.185   4.255   2.404
    1C        C  439   4.288   4.157   2.405
    1C        C  440   4.134   4.308   2.525
    1C        C  441   4.187   4.259   2.646
    1C        C  442   4.010   4.383   2.764
    1C        C  443   4.127   4.304   2.766
    1C        C  444   3.946   4.417   2.885
    1C        C  445   4.008   4.381   3.007
    1C        C  446   3.817   4.472   3.130
    1C        C  447   3.948   4.417   3.129
    1C        C  448   3.749   4.495   3.251
    1C        C  449   3.816   4.473   3.374
    1C        C  450   3.611   4.522   3.498
    1C        C  451   3.750   4.501   3.497
    1C        C  452   3.543   4.536   3.621
    1C        C  453   3.612   4.533   3.744
    1C        C  454   3.402   4.532   3.865
    1C        C  455   3.543   4.543   3.866
    1C        C  456   3.334   4.525   3.989
    1C        C  457   3.403   4.539   4.111
    1C        C  458   3.197   4.496   4.235
    1C        C  459   3.334   4.530   4.234
    1C        C  460   3.130   4.478   4.358
    1C        C  461   3.198   4.506   4.478
    1C        C  462   3.002   4.434   4.602
    1C        C  463   3.131   4.489   4.602
    1C        C  464   2.931   4.404   4.720
    1C        C  465   2.990   4.446   4.842
    1C        C  466   2.798   4.345   4.957
    1C        C  467   2.909   4.429   4.959
    1C        C  468   4.125   4.286   2.043
    1C        C  469   4.191   4.249   2.161
    1C        C  470   4.010   4.372   2.278
    1C        C  471   4.131   4.297   2.281
    1C        C  472   3.946   4.403   2.399
    1C        C  473   4.013   4.379   2.522
    1C        C  474   3.815   4.466   2.643
    1C        C  475   3.946   4.413   2.641
    1C        C  476   3.745   4.490   2.764
    1C        C  477   3.816   4.470   2.884
    1C        C  478   3.610   4.512   3.008
    1C        C  479   3.749   4.491   3.007
    1C        C  480   3.540   4.523   3.131
    1C        C  481   3.611   4.521   3.253
    1C        C  482   3.398   4.524   3.375
    1C        C  483   3.540   4.524   3.375
    1C        C  484   3.330   4.523   3.498
    1C        C  485   3.401   4.531   3.620
    1C        C  486   3.194   4.492   3.744
    1C        C  487   3.332   4.523   3.743
    1C        C  488   3.132   4.467   3.868
    1C        C  489   3.197   4.491   3.991
    1C        C  490   3.001   4.414   4.116
    1C        C  491   3.127   4.477   4.113
    1C        C  492   2.939   4.381   4.238
    1C        C  493   3.001   4.421   4.359
    1C        C  494   2.828   4.305   4.484
    1C        C  495   2.939   4.392   4.483
    1C        C  496   2.772   4.257   4.605
    1C        C  497   2.817   4.318   4.724
    1C        C  498   2.665   4.167   4.842
    1C        C  499   2.752   4.278   4.843
    1C        C  500   2.593   4.126   4.955
    1C        C  501   4.008   4.360   2.038
    1C        C  502   3.820   4.467   2.156
    1C        C  503   3.948   4.407   2.156
    1C        C  504   3.747   4.480   2.276
    1C        C  505   3.813   4.451   2.397
    1C        C  506   3.611   4.511   2.519
    1C        C  507   3.748   4.477   2.520
    1C        C  508   3.538   4.517   2.640
    1C        C  509   3.606   4.513   2.764
    1C        C  510   3.396   4.521   2.887
    1C        C  511   3.537   4.520   2.887
    1C        C  512   3.326   4.518   3.009
    1C        C  513   3.399   4.523   3.130
    1C        C  514   3.191   4.487   3.257
    1C        C  515   3.329   4.517   3.253
    1C        C  516   3.122   4.469   3.379
    1C        C  517   3.191   4.495   3.500
    1C        C  518   2.997   4.411   3.625
    1C        C  519   3.125   4.471   3.623
    1C        C  520   2.942   4.371   3.749
    1C        C  521   3.006   4.403   3.871
    1C        C  522   2.833   4.284   3.997
    1C        C  523   2.943   4.373   3.994
    1C        C  524   2.785   4.236   4.120
    1C        C  525   2.831   4.290   4.242
    1C        C  526   2.691   4.137   4.364
    1C        C  527   2.775   4.251   4.365
    1C        C  528   2.649   4.079   4.486
    1C        C  529   2.685   4.146   4.605
    1C        C  530   2.588   3.957   4.733
    1C        C  531   2.640   4.089   4.727
    1C        C  532   2.546   3.900   4.856
    1C        C  533   2.539   3.997   4.962
    1C        C  534   3.624   4.558   2.043
    1C        C  535   3.754   4.508   2.039
    1C        C  536   3.537   4.536   2.155
    1C        C  537   3.608   4.514   2.276
    1C        C  538   3.396   4.519   2.400
    1C        C  539   3.538   4.518   2.398
    1C        C  540   3.324   4.514   2.521
    1C        C  541   3.397   4.514   2.643
    1C        C  542   3.188   4.477   2.765
    1C        C  543   3.326   4.508   2.765
    1C        C  544   3.123   4.454   2.889
    1C        C  545   3.189   4.483   3.010
    1C        C  546   2.997   4.400   3.136
    1C        C  547   3.126   4.459   3.134
    1C        C  548   2.938   4.365   3.260
    1C        C  549   2.998   4.402   3.382
    1C        C  550   2.831   4.276   3.507
    1C        C  551   2.936   4.370   3.505
    1C        C  552   2.780   4.233   3.631
    1C        C  553   2.828   4.287   3.753
    1C        C  554   2.692   4.125   3.877
    1C        C  555   2.781   4.235   3.875
    1C        C  556   2.656   4.065   3.999
    1C        C  557   2.694   4.128   4.120
    1C        C  558   2.597   3.943   4.247
    1C        C  559   2.655   4.072   4.244
    1C        C  560   2.569   3.880   4.371
    1C        C  561   2.594   3.949   4.491
    1C        C  562   2.534   3.748   4.617
    1C        C  563   2.567   3.885   4.614
    1C        C  564   2.515   3.680   4.740
    1C        C  565   2.521   3.759   4.858
    1C        C  566   2.521   3.545   4.978
    1C        C  567   2.523   3.684   4.976
    1C        C  568   3.330   4.472   2.040
    1C        C  569   3.397   4.513   2.156
    1C        C  570   3.187   4.474   2.278
    1C        C  571   3.324   4.513   2.278
    1C        C  572   3.121   4.454   2.401
    1C        C  573   3.187   4.481   2.523
    1C        C  574   2.989   4.399   2.647
    1C        C  575   3.118   4.459   2.644
    1C        C  576   2.930   4.362   2.770
    1C        C  577   2.995   4.396   2.891
    1C        C  578   2.829   4.268   3.018
    1C        C  579   2.938   4.358   3.015
    1C        C  580   2.777   4.222   3.141
    1C        C  581   2.830   4.274   3.261
    1C        C  582   2.693   4.115   3.388
    1C        C  583   2.781   4.225   3.385
    1C        C  584   2.653   4.060   3.511
    1C        C  585   2.692   4.122   3.632
    1C        C  586   2.593   3.937   3.758
    1C        C  587   2.653   4.065   3.755
    1C        C  588   2.569   3.872   3.882
    1C        C  589   2.597   3.937   4.004
    1C        C  590   2.538   3.736   4.128
    1C        C  591   2.573   3.872   4.128
    1C        C  592   2.527   3.671   4.253
    1C        C  593   2.532   3.744   4.374
    1C        C  594   2.515   3.533   4.498
    1C        C  595   2.524   3.674   4.497
    1C        C  596   2.510   3.463   4.621
    1C        C  597   2.508   3.538   4.740
    1C        C  598   2.525   3.326   4.864
    1C        C  599   2.512   3.467   4.862
    1C        C  600   2.520   3.241   4.975
    1C        C  601   3.196   4.438   2.043
    1C        C  602   2.983   4.395   2.160
    1C        C  603   3.116   4.446   2.158
    1C        C  604   2.930   4.353   2.285
    1C        C  605   2.994   4.392   2.405
    1C        C  606   2.820   4.272   2.528
    1C        C  607   2.927   4.363   2.526
    1C        C  608   2.771   4.222   2.651
    1C        C  609   2.822   4.272   2.773
    1C        C  610   2.686   4.112   2.897
    1C        C  611   2.775   4.221   2.897
    1C        C  612   2.648   4.052   3.020
    1C        C  613   2.687   4.113   3.141
    1C        C  614   2.583   3.933   3.267
    1C        C  615   2.651   4.057   3.266
    1C        C  616   2.558   3.871   3.391
    1C        C  617   2.585   3.936   3.513
    1C        C  618   2.527   3.734   3.640
    1C        C  619   2.568   3.869   3.637
    1C        C  620   2.519   3.665   3.763
    1C        C  621   2.528   3.737   3.885
    1C        C  622   2.509   3.526   4.010
    1C        C  623   2.514   3.667   4.007
    1C        C  624   2.518   3.457   4.133
    1C        C  625   2.522   3.529   4.254
    1C        C  626   2.539   3.321   4.381
    1C        C  627   2.514   3.460   4.377
    1C        C  628   2.558   3.252   4.502
    1C        C  629   2.540   3.325   4.621
    1C        C  630   2.593   3.120   4.742
    1C        C  631   2.551   3.256   4.744
    1C        C  632   2.611   3.046   4.863
    1C        C  633   2.558   3.106   4.982
    1C        C  634   2.783   4.300   2.057
    1C        C  635   2.890   4.390   2.051
    1C        C  636   2.747   4.227   2.172
    1C        C  637   2.815   4.269   2.288
    1C        C  638   2.677   4.108   2.411
    1C        C  639   2.763   4.220   2.410
    1C        C  640   2.643   4.047   2.534
    1C        C  641   2.685   4.110   2.653
    1C        C  642   2.586   3.924   2.776
    1C        C  643   2.645   4.052   2.776
    1C        C  644   2.561   3.859   2.899
    1C        C  645   2.586   3.925   3.021
    1C        C  646   2.525   3.727   3.149
    1C        C  647   2.560   3.864   3.146
    1C        C  648   2.521   3.659   3.273
    1C        C  649   2.531   3.732   3.394
    1C        C  650   2.515   3.524   3.521
    1C        C  651   2.515   3.665   3.518
    1C        C  652   2.513   3.456   3.644
    1C        C  653   2.514   3.524   3.768
    1C        C  654   2.538   3.313   3.890
    1C        C  655   2.514   3.452   3.890
    1C        C  656   2.556   3.248   4.015
    1C        C  657   2.539   3.317   4.137
    1C        C  658   2.607   3.118   4.259
    1C        C  659   2.556   3.250   4.260
    1C        C  660   2.632   3.051   4.380
    1C        C  661   2.603   3.118   4.502
    1C        C  662   2.711   2.938   4.624
    1C        C  663   2.625   3.050   4.624
    1C        C  664   2.756   2.880   4.745
    1C        C  665   2.697   2.932   4.864
    1C        C  666   2.745   2.875   4.982
    1C        C  667   2.686   4.020   2.056
    1C        C  668   2.686   4.100   2.170
    1C        C  669   2.588   3.910   2.293
    1C        C  670   2.643   4.041   2.291
    1C        C  671   2.559   3.845   2.415
    1C        C  672   2.585   3.918   2.533
    1C        C  673   2.523   3.718   2.662
    1C        C  674   2.559   3.854   2.656
    1C        C  675   2.508   3.649   2.784
    1C        C  676   2.527   3.722   2.904
    1C        C  677   2.506   3.515   3.030
    1C        C  678   2.514   3.656   3.028
    1C        C  679   2.509   3.446   3.154
    1C        C  680   2.514   3.518   3.275
    1C        C  681   2.535   3.311   3.401
    1C        C  682   2.515   3.451   3.400
    1C        C  683   2.549   3.245   3.526
    1C        C  684   2.532   3.316   3.647
    1C        C  685   2.603   3.113   3.772
    1C        C  686   2.553   3.245   3.768
    1C        C  687   2.635   3.050   3.894
    1C        C  688   2.606   3.116   4.015
    1C        C  689   2.715   2.934   4.140
    1C        C  690   2.638   3.052   4.137
    1C        C  691   2.755   2.875   4.262
    1C        C  692   2.709   2.933   4.382
    1C        C  693   2.755   2.878   4.504
    1C        C  694   2.628   3.892   2.056
    1C        C  695   2.529   3.703   2.177
    1C        C  696   2.582   3.834   2.175
    1C        C  697   2.507   3.635   2.299
    1C        C  698   2.519   3.709   2.418
    1C        C  699   2.483   3.505   2.543
    1C        C  700   2.501   3.645   2.543
    1C        C  701   2.498   3.435   2.665
    1C        C  702   2.502   3.508   2.785
    1C        C  703   2.526   3.301   2.913
    1C        C  704   2.510   3.441   2.910
    1C        C  705   2.547   3.234   3.037
    1C        C  706   2.531   3.307   3.157
    1C        C  707   2.603   3.109   3.278
    1C        C  708   2.551   3.241   3.280
    1C        C  709   2.633   3.049   3.403
    1C        C  710   2.604   3.115   3.524
    1C        C  711   2.713   2.935   3.649
    1C        C  712   2.635   3.053   3.647
    1C        C  713   2.757   2.878   3.770
    1C        C  714   2.716   2.934   3.893
    1C        C  715   2.755   2.877   4.017
    1C        C  716   2.459   3.496   2.062
    1C        C  717   2.493   3.632   2.061
    1C        C  718   2.465   3.420   2.183
    1C        C  719   2.481   3.495   2.303
    1C        C  720   2.510   3.288   2.427
    1C        C  721   2.482   3.426   2.426
    1C        C  722   2.538   3.223   2.549
    1C        C  723   2.525   3.296   2.669
    1C        C  724   2.599   3.101   2.792
    1C        C  725   2.540   3.229   2.792
    1C        C  726   2.626   3.036   2.915
    1C        C  727   2.597   3.102   3.036
    1C        C  728   2.707   2.921   3.160
    1C        C  729   2.629   3.039   3.158
    1C        C  730   2.752   2.873   3.285
    1C        C  731   2.713   2.933   3.407
    1C        C  732   2.758   2.877   3.528
    1C        C  733   2.484   3.196   2.073
    1C        C  734   2.489   3.279   2.186
    1C        C  735   2.583   3.084   2.305
    1C        C  736   2.528   3.215   2.307
    1C        C  737   2.617   3.023   2.428
    1C        C  738   2.587   3.090   2.548
    1C        C  739   2.700   2.912   2.670
    1C        C  740   2.627   3.033   2.671
    1C        C  741   2.742   2.857   2.793
    1C        C  742   2.701   2.916   2.915
    1C        C  743   2.745   2.862   3.037
    1C        C  744   2.548   3.072   2.069
    1C        C  745   2.683   2.897   2.184
    1C        C  746   2.605   3.015   2.184
    1C        C  747   2.729   2.842   2.305
    1C        C  748   2.689   2.901   2.427
    1C        C  749   2.736   2.849   2.549
    1C        C  750   2.732   2.838   2.068
    1C        C  751   3.643   2.290   2.008
    1C        O  752   3.682   2.181   2.057
    1C        O  753   3.684   2.291   1.874
    1C        C  754   4.650   3.056   1.994
    1C        O  755   4.635   2.997   1.884
    1C        O  756   4.749   2.994   2.071
    1C        C  757   4.460   4.240   1.997
    1C        O  758   4.540   4.307   2.068
    1C        O  759   4.439   4.273   1.863
    1C        C  760   3.598   4.675   1.955
    1C        O  761   3.648   4.788   1.978
    1C        O  762   3.571   4.671   1.818
    1C        C  763   2.866   4.497   1.952
    1C        O  764   2.863   4.478   1.827
    1C        O  765   2.852   4.633   1.982
    1C        C  766   2.355   3.465   1.961
    1C        O  767   2.368   3.477   1.836
    1C        O  768   2.218   3.460   1.991
    1C        C  769   4.662   3.577   5.077
    1C        O  770   4.631   3.615   5.193
    1C        O  771   4.798   3.595   5.053
    1C        C  772   4.290   4.454   5.017
    1C        O  773   4.293   4.467   5.142
    1C        O  774   4.402   4.509   4.953
    1C        C  775   4.145   2.528   5.076
    1C        O  776   4.246   2.460   5.043
    1C        O  777   4.123   2.539   5.214
    1C        C  778   2.897   4.546   5.049
    1C        O  779   2.807   4.633   5.037
    1C        O  780   2.947   4.538   5.180
    1C        C  781   2.448   3.036   5.051
    1C        O  782   2.345   3.007   4.984
    1C        O  783   2.468   3.009   5.186
    1C        C  784   2.424   3.983   5.055
    1C        O  785   2.305   4.004   5.018
    1C        O  786   2.436   3.995   5.194
    1C        C  787   2.950   2.394   2.040
    1C        O  788   2.885   2.397   1.933
    1C        O  789   2.946   2.276   2.113
    1C        C  790   3.189   2.387   5.080
    1C        O  791   3.217   2.269   5.046
    1C        O  792   3.197   2.408   5.218
    1C        H  793   4.219   3.050   5.015
    1C        H  794   4.203   2.809   5.077
    1C        H  795   4.459   3.139   5.070
    1C        H  796   4.482   3.374   5.058
    1C        H  797   4.545   3.811   5.050
    1C        H  798   4.376   3.955   5.044
    1C        H  799   4.302   4.182   5.052
    1C        H  800   4.030   4.521   5.037
    1C        H  801   3.825   4.596   5.041
    1C        H  802   3.595   4.642   5.032
    1C        H  803   3.395   4.423   5.000
    1C        H  804   3.161   4.487   5.057
    1C        H  805   3.895   2.475   5.065
    1C        H  806   3.673   2.451   5.079
    1C        H  807   3.010   2.572   5.069
    1C        H  808   3.441   2.434   5.064
    1C        H  809   2.842   2.712   5.069
    1C        H  810   2.692   2.903   5.071
    1C        H  811   2.462   3.279   5.056
    1C        H  812   2.489   3.505   5.072
    1C        H  813   2.516   3.738   5.068
    1C        H  814   2.554   4.202   5.019
    1C        H  815   2.764   4.318   5.056
    1C        H  816   2.687   2.860   1.973
    1C        H  817   2.828   2.673   1.980
    1C        H  818   3.209   2.419   1.996
    1C        H  819   3.443   2.487   1.982
    1C        H  820   3.866   2.504   1.973
    1C        H  821   4.040   2.655   1.969
    1C        H  822   4.279   2.693   1.990
    1C        H  823   4.418   2.883   1.979
    1C        H  824   4.545   3.310   1.963
    1C        H  825   4.437   3.518   1.982
    1C        H  826   4.498   3.751   1.959
    1C        H  827   3.822   4.563   1.977
    1C        H  828   3.993   4.413   1.946
    1C        H  829   4.177   4.286   1.950
    1C        H  830   4.518   3.981   1.970
    1C        H  831   2.586   3.860   1.963
    1C        H  832   2.729   4.059   1.966
    1C        H  833   2.725   4.283   1.969
    1C        H  834   3.391   4.421   1.969
    1C        H  835   3.150   4.419   1.949
    1C        H  836   2.530   3.007   1.986
    1C        H  837   2.417   3.217   1.993
    1C        H  838   2.521   3.669   1.965
    2V3OU   H29  839   2.810   3.550   4.704
    2V3OU   C27  840   2.796   3.504   4.805
    2V3OU   H27  841   2.733   3.573   4.866
    2V3OU   H28  842   2.745   3.405   4.796
    2V3OU   O11  843   2.914   3.472   4.880
    2V3OU   C15  844   2.919   3.399   4.996
    2V3OU   C13  845   3.049   3.378   5.046
    2V3OU   C14  846   3.072   3.275   5.138
    2V3OU   C16  847   2.969   3.191   5.179
    2V3OU    H6  848   2.995   3.100   5.236
    2V3OU   C12  849   3.210   3.233   5.171
    2V3OU    O2  850   3.234   3.131   5.240
    2V3OU   C10  851   3.325   3.308   5.118
    2V3OU    C8  852   3.458   3.273   5.132
    2V3OU   O10  853   3.490   3.155   5.192
    2V3OU   H26  854   3.403   3.116   5.209
    2V3OU    C6  855   3.565   3.352   5.079
    2V3OU    C5  856   3.539   3.471   5.012
    2V3OU    C4  857   3.702   3.294   5.074
    2V3OU    H4  858   3.727   3.229   5.163
    2V3OU    H5  859   3.712   3.225   4.985
    2V3OU    C2  860   3.817   3.395   5.070
    2V3OU    O6  861   3.804   3.484   5.182
    2V3OU   H21  862   3.765   3.557   5.132
    2V3OU    C3  863   3.782   3.496   4.960
    2V3OU    H2  864   3.859   3.576   4.949
    2V3OU    H3  865   3.786   3.435   4.866
    2V3OU   C25  866   3.949   3.320   5.058
    2V3OU    O7  867   3.999   3.294   4.948
    2V3OU   C26  868   4.031   3.288   5.182
    2V3OU   H22  869   4.054   3.387   5.231
    2V3OU   H23  870   4.122   3.229   5.153
    2V3OU    O8  871   3.965   3.210   5.279
    2V3OU   H24  872   3.931   3.272   5.345
    2V3OU    C1  873   3.647   3.564   4.968
    2V3OU    H1  874   3.629   3.620   4.871
    2V3OU    O3  875   3.658   3.657   5.076
    2V3OU   C19  876   3.617   3.793   5.060
    2V3OU    H9  877   3.520   3.804   5.004
    2V3OU    O4  878   3.717   3.855   4.983
    2V3OU   C20  879   3.848   3.878   5.038
    2V3OU   H10  880   3.898   3.777   5.042
    2V3OU   C24  881   3.616   3.858   5.199
    2V3OU   H16  882   3.547   3.798   5.263
    2V3OU   H17  883   3.567   3.958   5.185
    2V3OU   C23  884   3.754   3.872   5.264
    2V3OU   H15  885   3.792   3.766   5.281
    2V3OU    N1  886   3.739   3.951   5.385
    2V3OU   H19  887   3.810   3.920   5.449
    2V3OU   H20  888   3.653   3.928   5.430
    2V3OU   C21  889   3.851   3.952   5.171
    2V3OU   H11  890   3.951   3.928   5.218
    2V3OU    O5  891   3.831   4.093   5.176
    2V3OU   H18  892   3.780   4.107   5.257
    2V3OU   C22  893   3.921   3.950   4.925
    2V3OU   H12  894   3.867   4.046   4.906
    2V3OU   H13  895   3.911   3.890   4.831
    2V3OU   H14  896   4.027   3.971   4.954
    2V3OU   C11  897   3.160   3.472   5.023
    2V3OU    O1  898   3.131   3.585   4.980
    2V3OU    C9  899   3.299   3.428   5.046
    2V3OU    C7  900   3.401   3.509   4.998
    2V3OU    O9  901   3.382   3.620   4.918
    2V3OU   H25  902   3.285   3.627   4.920
    2V3OU   C17  903   2.818   3.320   5.056
    2V3OU    H7  904   2.713   3.348   5.054
    2V3OU   C18  905   2.837   3.213   5.143
    2V3OU    H8  906   2.751   3.158   5.183
    3SOL     OW  907   3.412   4.184   4.976
    3SOL    HW1  908   3.374   4.147   4.891
    3SOL    HW2  909   3.511   4.191   4.967
    4SOL     OW  910   6.618   0.135   0.355
    4SOL    HW1  911   6.572   0.061   0.404
    4SOL    HW2  912   6.716   0.115   0.350
    5SOL     OW  913   4.347   1.023   1.576
    5SOL    HW1  914   4.423   1.041   1.639
    5SOL    HW2  915   4.260   1.038   1.623
    6SOL     OW  916   5.481   0.626   3.065
    6SOL    HW1  917   5.518   0.565   3.135
    6SOL    HW2  918   5.542   0.704   3.054
    7SOL     OW  919   1.423   4.175   4.554
    7SOL    HW1  920   1.513   4.153   4.515
    7SOL    HW2  921   1.435   4.211   4.646
    8SOL     OW  922   2.010   3.092   6.019
    8SOL    HW1  923   1.935   3.080   6.085
    8SOL    HW2  924   2.007   3.185   5.982
    9SOL     OW  925   6.212   1.370   6.365
    9SOL    HW1  926   6.161   1.305   6.309
    9SOL    HW2  927   6.250   1.322   6.445
   10SOL     OW  928   5.006   4.642   3.282
   10SOL    HW1  929   5.052   4.663   3.196
   10SOL    HW2  930   4.981   4.545   3.284
   11SOL     OW  931   2.273   1.324   0.537
   11SOL    HW1  932   2.301   1.261   0.610
   11SOL    HW2  933   2.352   1.376   0.505
   12SOL     OW  934   2.921   4.811   3.546
   12SOL    HW1  935   2.836   4.847   3.507
   12SOL    HW2  936   2.899   4.747   3.620
   13SOL     OW  937   4.511   6.168   2.293
   13SOL    HW1  938   4.412   6.154   2.283
   13SOL    HW2  939   4.528   6.258   2.332
   14SOL     OW  940   4.830   4.997   4.960
   14SOL    HW1  941   4.775   4.917   4.937
   14SOL    HW2  942   4.859   4.991   5.056
   15SOL     OW  943   0.644   5.855   5.902
   15SOL    HW1  944   0.724   5.898   5.859
   15SOL    HW2  945   0.592   5.925   5.952
   16SOL     OW  946   6.803   3.005   5.984
   16SOL    HW1  947   6.823   3.056   5.900
   16SOL    HW2  948   6.859   2.923   5.987
   17SOL     OW  949   6.064   0.707   5.492
   17SOL    HW1  950   6.160   0.692   5.467
   17SOL    HW2  951   6.006   0.646   5.439
   18SOL     OW  952   3.490   6.721   5.035
   18SOL    HW1  953   3.415   6.724   4.969
   18SOL    HW2  954   3.500   6.811   5.078
   19SOL     OW  955   0.988   1.286   3.227
   19SOL    HW1  956   0.942   1.368   3.261
   19SOL    HW2  957   1.051   1.310   3.153
   20SOL     OW  958   5.673   2.495   5.296
   20SOL    HW1  959   5.590   2.549   5.314
   20SOL    HW2  960   5.741   2.554   5.252
   21SOL     OW  961   3.923   6.629   2.676
   21SOL    HW1  962   3.890   6.543   2.637
   21SOL    HW2  963   4.010   6.653   2.634
   22SOL     OW  964   2.410   6.760   4.733
   22SOL    HW1  965   2.506   6.737   4.742
   22SOL    HW2  966   2.365   6.754   4.822
   23SOL     OW  967   5.400   4.472   2.235
   23SOL    HW1  968   5.384   4.529   2.154
   23SOL    HW2  969   5.341   4.502   2.309
   24SOL     OW  970   4.563   0.658   1.143
   24SOL    HW1  971   4.551   0.757   1.143
   24SOL    HW2  972   4.513   0.618   1.066
   25SOL     OW  973   2.716   6.756   3.213
   25SOL    HW1  974   2.631   6.723   3.253
   25SOL    HW2  975   2.697   6.807   3.130
   26SOL     OW  976   0.619   2.614   6.423
   26SOL    HW1  977   0.690   2.652   6.482
   26SOL    HW2  978   0.530   2.621   6.469
   27SOL     OW  979   6.133   1.188   1.699
   27SOL    HW1  980   6.181   1.232   1.774
   27SOL    HW2  981   6.035   1.186   1.719
   28SOL     OW  982   1.803   0.527   4.099
   28SOL    HW1  983   1.854   0.558   4.180
   28SOL    HW2  984   1.837   0.438   4.070
   29SOL     OW  985   6.971   0.715   0.348
   29SOL    HW1  986   6.969   0.619   0.375
   29SOL    HW2  987   6.936   0.772   0.422
   30SOL     OW  988   4.424   0.602   5.122
   30SOL    HW1  989   4.351   0.603   5.054
   30SOL    HW2  990   4.386   0.577   5.211
   31SOL     OW  991   0.926   3.131   5.623
   31SOL    HW1  992   0.925   3.032   5.609
   31SOL    HW2  993   0.883   3.177   5.546
   32SOL     OW  994   1.596   0.349   1.186
   32SOL    HW1  995   1.636   0.433   1.149
   32SOL    HW2  996   1.670   0.290   1.220
   33SOL     OW  997   0.641   4.295   6.221
   33SOL    HW1  998   0.728   4.331   6.253
   33SOL    HW2  999   0.657   4.226   6.150
   34SOL     OW 1000   1.647   5.142   5.085
   34SOL    HW1 1001   1.683   5.236   5.088
   34SOL    HW2 1002   1.597   5.123   5.169
   35SOL     OW 1003   4.045   3.319   0.084
   35SOL    HW1 1004   3.991   3.238   0.108
   35SOL    HW2 1005   4.066   3.371   0.167
   36SOL     OW 1006   4.724   0.702   3.824
   36SOL    HW1 1007   4.696   0.794   3.799
   36SOL    HW2 1008   4.677   0.674   3.908
   37SOL     OW 1009   2.081   1.420   3.758
   37SOL    HW1 1010   2.091   1.507   3.709
   37SOL    HW2 1011   1.996   1.420   3.809
   38SOL     OW 1012   1.275   4.934   2.359
   38SOL    HW1 1013   1.335   5.011   2.379
   38SOL    HW2 1014   1.329   4.853   2.340
   39SOL     OW 1015   6.019   5.017   6.894
   39SOL    HW1 1016   5.978   4.954   6.828
   39SOL    HW2 1017   6.061   4.966   6.968
   40SOL     OW 1018   3.214   0.768   5.946
   40SOL    HW1 1019   3.279   0.782   5.871
   40SOL    HW2 1020   3.226   0.677   5.984
   41SOL     OW 1021   6.165   4.019   1.783
   41SOL    HW1 1022   6.068   4.022   1.805
   41SOL    HW2 1023   6.217   3.989   1.864
   42SOL     OW 1024   2.311   5.774   5.388
   42SOL    HW1 1025   2.334   5.680   5.414
   42SOL    HW2 1026   2.213   5.779   5.366
   43SOL     OW 1027   4.979   6.679   4.645
   43SOL    HW1 1028   4.959   6.582   4.659
   43SOL    HW2 1029   5.006   6.720   4.732
   44SOL     OW 1030   5.755   2.149   5.427
   44SOL    HW1 1031   5.836   2.197   5.394
   44SOL    HW2 1032   5.782   2.060   5.465
   45SOL     OW 1033   3.856   4.887   0.240
   45SOL    HW1 1034   3.764   4.872   0.204
   45SOL    HW2 1035   3.889   4.976   0.211
   46SOL     OW 1036   0.718   3.183   4.756
   46SOL    HW1 1037   0.703   3.086   4.736
   46SOL    HW2 1038   0.669   3.207   4.840
   47SOL     OW 1039   5.888   2.927   1.794
   47SOL    HW1 1040   5.812   2.866   1.817
   47SOL    HW2 1041   5.853   3.018   1.771
   48SOL     OW 1042   6.455   3.958   6.940
   48SOL    HW1 1043   6.525   3.959   6.868
   48SOL    HW2 1044   6.477   3.888   7.007
   49SOL     OW 1045   4.696   3.136   0.331
   49SOL    HW1 1046   4.651   3.138   0.242
   49SOL    HW2 1047   4.791   3.105   0.320
   50SOL     OW 1048   6.352   2.498   6.397
   50SOL    HW1 1049   6.365   2.474   6.494
   50SOL    HW2 1050   6.418   2.569   6.373
   51SOL     OW 1051   1.830   4.906   3.233
   51SOL    HW1 1052   1.847   4.816   3.272
   51SOL    HW2 1053   1.801   4.897   3.138
   52SOL     OW 1054   5.823   2.653   1.673
   52SOL    HW1 1055   5.880   2.585   1.719
   52SOL    HW2 1056   5.757   2.691   1.738
   53SOL     OW 1057   4.550   0.820   2.927
   53SOL    HW1 1058   4.568   0.880   3.005
   53SOL    HW2 1059   4.506   0.873   2.854
   54SOL     OW 1060   5.386   6.305   6.807
   54SOL    HW1 1061   5.440   6.362   6.868
   54SOL    HW2 1062   5.338   6.363   6.740
   55SOL     OW 1063   1.878   3.055   6.545
   55SOL    HW1 1064   1.816   3.064   6.623
   55SOL    HW2 1065   1.906   2.960   6.536
   56SOL     OW 1066   1.607   2.464   6.729
   56SOL    HW1 1067   1.638   2.369   6.732
   56SOL    HW2 1068   1.530   2.476   6.792
   57SOL     OW 1069   4.002   0.801   0.799
   57SOL    HW1 1070   3.952   0.887   0.795
   57SOL    HW2 1071   3.954   0.732   0.746
   58SOL     OW 1072   0.951   1.042   6.427
   58SOL    HW1 1073   0.969   1.067   6.332
   58SOL    HW2 1074   0.985   1.114   6.488
   59SOL     OW 1075   5.761   3.418   6.327
   59SOL    HW1 1076   5.717   3.505   6.346
   59SOL    HW2 1077   5.692   3.351   6.297
   60SOL     OW 1078   5.222   0.802   3.056
   60SOL    HW1 1079   5.130   0.782   3.025
   60SOL    HW2 1080   5.283   0.727   3.032
   61SOL     OW 1081   0.277   0.526   5.057
   61SOL    HW1 1082   0.365   0.574   5.066
   61SOL    HW2 1083   0.292   0.436   5.018
   62SOL     OW 1084   7.013   1.803   2.438
   62SOL    HW1 1085   6.974   1.882   2.485
   62SOL    HW2 1086   6.962   1.721   2.463
   63SOL     OW 1087   4.082   6.423   4.835
   63SOL    HW1 1088   4.091   6.353   4.763
   63SOL    HW2 1089   4.113   6.511   4.800
   64SOL     OW 1090   1.221   4.406   6.711
   64SOL    HW1 1091   1.288   4.452   6.651
   64SOL    HW2 1092   1.197   4.467   6.787
   65SOL     OW 1093   0.767   0.375   5.146
   65SOL    HW1 1094   0.830   0.321   5.091
   65SOL    HW2 1095   0.819   0.431   5.211
   66SOL     OW 1096   4.125   0.234   2.128
   66SOL    HW1 1097   4.138   0.324   2.169
   66SOL    HW2 1098   4.027   0.216   2.117
   67SOL     OW 1099   0.402   2.674   1.201
   67SOL    HW1 1100   0.407   2.620   1.286
   67SOL    HW2 1101   0.490   2.672   1.155
   68SOL     OW 1102   6.756   2.359   5.640
   68SOL    HW1 1103   6.786   2.367   5.545
   68SOL    HW2 1104   6.677   2.419   5.655
   69SOL     OW 1105   0.900   5.157   5.898
   69SOL    HW1 1106   0.927   5.154   5.994
   69SOL    HW2 1107   0.926   5.245   5.859
   70SOL     OW 1108   5.531   3.666   5.215
   70SOL    HW1 1109   5.517   3.679   5.313
   70SOL    HW2 1110   5.626   3.688   5.191
   71SOL     OW 1111   4.405   2.159   4.282
   71SOL    HW1 1112   4.411   2.257   4.262
   71SOL    HW2 1113   4.378   2.146   4.377
   72SOL     OW 1114   6.553   0.538   3.654
   72SOL    HW1 1115   6.531   0.625   3.611
   72SOL    HW2 1116   6.544   0.464   3.587
   73SOL     OW 1117   2.999   0.741   0.969
   73SOL    HW1 1118   2.934   0.671   0.999
   73SOL    HW2 1119   2.956   0.831   0.977
   74SOL     OW 1120   1.907   1.751   7.013
   74SOL    HW1 1121   1.827   1.782   0.040
   74SOL    HW2 1122   1.929   1.818   6.942
   75SOL     OW 1123   4.178   1.560   0.773
   75SOL    HW1 1124   4.240   1.633   0.800
   75SOL    HW2 1125   4.211   1.516   0.689
   76SOL     OW 1126   3.035   4.327   5.296
   76SOL    HW1 1127   3.133   4.348   5.305
   76SOL    HW2 1128   2.988   4.406   5.256
   77SOL     OW 1129   1.540   5.058   4.455
   77SOL    HW1 1130   1.576   4.985   4.398
   77SOL    HW2 1131   1.579   5.146   4.426
   78SOL     OW 1132   4.333   1.360   1.494
   78SOL    HW1 1133   4.273   1.296   1.542
   78SOL    HW2 1134   4.343   1.332   1.399
   79SOL     OW 1135   1.840   5.439   2.198
   79SOL    HW1 1136   1.850   5.378   2.119
   79SOL    HW2 1137   1.863   5.532   2.170
   80SOL     OW 1138   4.822   1.991   5.254
   80SOL    HW1 1139   4.918   1.977   5.275
   80SOL    HW2 1140   4.794   1.930   5.179
   81SOL     OW 1141   3.016   5.942   1.784
   81SOL    HW1 1142   2.931   5.889   1.784
   81SOL    HW2 1143   3.046   5.957   1.690
   82SOL     OW 1144   0.912   5.998   1.553
   82SOL    HW1 1145   0.861   5.913   1.567
   82SOL    HW2 1146   0.901   6.057   1.633
   83SOL     OW 1147   5.468   2.074   5.244
   83SOL    HW1 1148   5.480   2.173   5.251
   83SOL    HW2 1149   5.506   2.030   5.326
   84SOL     OW 1150   5.820   2.742   3.323
   84SOL    HW1 1151   5.803   2.777   3.230
   84SOL    HW2 1152   5.866   2.654   3.318
   85SOL     OW 1153   2.203   0.244   4.026
   85SOL    HW1 1154   2.113   0.263   3.988
   85SOL    HW2 1155   2.210   0.147   4.048
   86SOL     OW 1156   5.613   1.557   6.229
   86SOL    HW1 1157   5.536   1.593   6.282
   86SOL    HW2 1158   5.678   1.631   6.211
   87SOL     OW 1159   3.711   4.247   6.284
   87SOL    HW1 1160   3.685   4.262   6.379
   87SOL    HW2 1161   3.703   4.332   6.232
   88SOL     OW 1162   3.180   3.440   6.877
   88SOL    HW1 1163   3.143   3.523   6.918
   88SOL    HW2 1164   3.234   3.464   6.796
   89SOL     OW 1165   2.980   3.532   2.904
   89SOL    HW1 1166   2.965   3.440   2.941
   89SOL    HW2 1167   2.955   3.534   2.807
   90SOL     OW 1168   4.774   4.024   2.958
   90SOL    HW1 1169   4.768   4.108   2.903
   90SOL    HW2 1170   4.750   4.044   3.053
   91SOL     OW 1171   5.583   4.878   5.901
   91SOL    HW1 1172   5.634   4.939   5.962
   91SOL    HW2 1173   5.526   4.933   5.840
   92SOL     OW 1174   5.580   4.397   6.790
   92SOL    HW1 1175   5.678   4.415   6.803
   92SOL    HW2 1176   5.564   4.370   6.695
   93SOL     OW 1177   2.251   3.311   1.426
   93SOL    HW1 1178   2.206   3.274   1.506
   93SOL    HW2 1179   2.245   3.246   1.350
   94SOL     OW 1180   3.465   0.790   5.813
   94SOL    HW1 1181   3.486   0.887   5.806
   94SOL    HW2 1182   3.434   0.756   5.725
   95SOL     OW 1183   0.012   0.456   4.075
   95SOL    HW1 1184   6.975   0.422   4.004
   95SOL    HW2 1185   0.009   0.556   4.076
   96SOL     OW 1186   4.738   4.772   0.158
   96SOL    HW1 1187   4.718   4.835   0.233
   96SOL    HW2 1188   4.675   4.695   0.163
   97SOL     OW 1189   2.213   5.466   5.329
   97SOL    HW1 1190   2.160   5.463   5.244
   97SOL    HW2 1191   2.280   5.392   5.329
   98SOL     OW 1192   1.106   3.204   2.769
   98SOL    HW1 1193   1.128   3.221   2.673
   98SOL    HW2 1194   1.011   3.232   2.786
   99SOL     OW 1195   3.887   3.108   4.026
   99SOL    HW1 1196   3.943   3.047   4.082
   99SOL    HW2 1197   3.791   3.099   4.051
  100SOL     OW 1198   6.924   0.119   3.746
  100SOL    HW1 1199   6.982   0.154   3.673
  100SOL    HW2 1200   6.928   0.181   3.825
  101SOL     OW 1201   0.265   3.786   2.816
  101SOL    HW1 1202   0.242   3.818   2.725
  101SOL    HW2 1203   0.364   3.774   2.823
  102SOL     OW 1204   2.509   6.404   1.047
  102SOL    HW1 1205   2.433   6.428   0.987
  102SOL    HW2 1206   2.507   6.461   1.129
  103SOL     OW 1207   1.832   0.624   2.374
  103SOL    HW1 1208   1.901   0.581   2.316
  103SOL    HW2 1209   1.751   0.646   2.319
  104SOL     OW 1210   1.331   4.581   2.068
  104SOL    HW1 1211   1.339   4.641   2.148
  104SOL    HW2 1212   1.386   4.499   2.083
  105SOL     OW 1213   4.541   1.699   6.427
  105SOL    HW1 1214   4.487   1.772   6.469
  105SOL    HW2 1215   4.580   1.732   6.341
  106SOL     OW 1216   5.564   5.255   2.524
  106SOL    HW1 1217   5.589   5.172   2.473
  106SOL    HW2 1218   5.572   5.334   2.464
  107SOL     OW 1219   6.082   1.063   0.479
  107SOL    HW1 1220   6.012   1.109   0.534
  107SOL    HW2 1221   6.043   0.979   0.440
  108SOL     OW 1222   1.647   0.492   5.611
  108SOL    HW1 1223   1.711   0.549   5.559
  108SOL    HW2 1224   1.683   0.399   5.617
  109SOL     OW 1225   2.913   1.142   3.477
  109SOL    HW1 1226   2.958   1.057   3.503
  109SOL    HW2 1227   2.824   1.148   3.523
  110SOL     OW 1228   2.938   4.752   5.500
  110SOL    HW1 1229   2.873   4.707   5.438
  110SOL    HW2 1230   3.028   4.755   5.458
  111SOL     OW 1231   6.304   1.610   2.496
  111SOL    HW1 1232   6.343   1.645   2.411
  111SOL    HW2 1233   6.221   1.559   2.475
  112SOL     OW 1234   4.234   0.009   6.709
  112SOL    HW1 1235   4.157   0.008   6.644
  112SOL    HW2 1236   4.215   0.074   6.782
  113SOL     OW 1237   6.402   6.528   2.717
  113SOL    HW1 1238   6.349   6.593   2.662
  113SOL    HW2 1239   6.344   6.490   2.789
  114SOL     OW 1240   1.526   4.005   3.902
  114SOL    HW1 1241   1.572   4.093   3.909
  114SOL    HW2 1242   1.440   4.017   3.853
  115SOL     OW 1243   5.801   1.309   3.275
  115SOL    HW1 1244   5.765   1.246   3.343
  115SOL    HW2 1245   5.726   1.358   3.231
  116SOL     OW 1246   1.310   5.204   0.658
  116SOL    HW1 1247   1.364   5.246   0.586
  116SOL    HW2 1248   1.220   5.248   0.662
  117SOL     OW 1249   2.187   1.354   6.930
  117SOL    HW1 1250   2.204   1.257   6.944
  117SOL    HW2 1251   2.100   1.379   6.972
  118SOL     OW 1252   1.237   1.704   4.650
  118SOL    HW1 1253   1.247   1.754   4.564
  118SOL    HW2 1254   1.312   1.728   4.712
  119SOL     OW 1255   6.849   6.580   6.285
  119SOL    HW1 1256   6.896   6.664   6.258
  119SOL    HW2 1257   6.775   6.561   6.220
  120SOL     OW 1258   4.695   1.742   4.605
  120SOL    HW1 1259   4.730   1.835   4.618
  120SOL    HW2 1260   4.768   1.676   4.626
  121SOL     OW 1261   1.147   3.917   6.715
  121SOL    HW1 1262   1.144   3.880   6.808
  121SOL    HW2 1263   1.082   3.993   6.707
  122SOL     OW 1264   1.032   4.409   0.249
  122SOL    HW1 1265   1.050   4.491   0.304
  122SOL    HW2 1266   0.956   4.358   0.290
  123SOL     OW 1267   1.125   1.390   1.734
  123SOL    HW1 1268   1.112   1.319   1.664
  123SOL    HW2 1269   1.130   1.347   1.824
  124SOL     OW 1270   2.733   2.545   0.583
  124SOL    HW1 1271   2.693   2.465   0.628
  124SOL    HW2 1272   2.687   2.628   0.614
  125SOL     OW 1273   3.493   2.843   0.068
  125SOL    HW1 1274   3.496   2.884   7.001
  125SOL    HW2 1275   3.485   2.744   0.060
  126SOL     OW 1276   3.896   3.320   3.852
  126SOL    HW1 1277   3.861   3.390   3.914
  126SOL    HW2 1278   3.917   3.237   3.903
  127SOL     OW 1279   0.360   6.315   6.062
  127SOL    HW1 1280   0.343   6.409   6.090
  127SOL    HW2 1281   0.425   6.273   6.125
  128SOL     OW 1282   4.812   3.545   0.939
  128SOL    HW1 1283   4.730   3.590   0.905
  128SOL    HW2 1284   4.803   3.530   1.038
  129SOL     OW 1285   2.333   5.988   0.752
  129SOL    HW1 1286   2.298   5.949   0.666
  129SOL    HW2 1287   2.270   6.058   0.785
  130SOL     OW 1288   5.575   2.478   4.645
  130SOL    HW1 1289   5.648   2.496   4.579
  130SOL    HW2 1290   5.509   2.413   4.606
  131SOL     OW 1291   6.923   2.518   3.603
  131SOL    HW1 1292   6.925   2.536   3.701
  131SOL    HW2 1293   6.999   2.458   3.578
  132SOL     OW 1294   3.588   4.100   1.921
  132SOL    HW1 1295   3.554   4.125   1.830
  132SOL    HW2 1296   3.688   4.101   1.920
  133SOL     OW 1297   5.352   6.560   5.287
  133SOL    HW1 1298   5.401   6.641   5.255
  133SOL    HW2 1299   5.418   6.489   5.309
  134SOL     OW 1300   5.355   0.954   2.096
  134SOL    HW1 1301   5.391   0.974   2.187
  134SOL    HW2 1302   5.269   1.003   2.083
  135SOL     OW 1303   5.027   3.416   4.632
  135SOL    HW1 1304   5.093   3.489   4.614
  135SOL    HW2 1305   5.018   3.358   4.551
  136SOL     OW 1306   3.390   6.793   5.323
  136SOL    HW1 1307   3.476   6.828   5.287
  136SOL    HW2 1308   3.319   6.863   5.312
  137SOL     OW 1309   3.204   1.841   4.994
  137SOL    HW1 1310   3.293   1.803   4.969
  137SOL    HW2 1311   3.187   1.924   4.941
  138SOL     OW 1312   0.907   5.536   4.985
  138SOL    HW1 1313   0.979   5.535   5.054
  138SOL    HW2 1314   0.929   5.471   4.913
  139SOL     OW 1315   2.398   6.291   6.367
  139SOL    HW1 1316   2.340   6.228   6.315
  139SOL    HW2 1317   2.488   6.249   6.380
  140SOL     OW 1318   2.177   0.836   2.827
  140SOL    HW1 1319   2.107   0.765   2.817
  140SOL    HW2 1320   2.135   0.926   2.816
  141SOL     OW 1321   6.706   4.511   0.203
  141SOL    HW1 1322   6.789   4.557   0.234
  141SOL    HW2 1323   6.692   4.530   0.105
  142SOL     OW 1324   1.313   4.015   1.896
  142SOL    HW1 1325   1.255   4.039   1.974
  142SOL    HW2 1326   1.330   3.917   1.896
  143SOL     OW 1327   5.202   6.679   1.858
  143SOL    HW1 1328   5.273   6.734   1.815
  143SOL    HW2 1329   5.195   6.704   1.955
  144SOL     OW 1330   2.923   4.748   2.908
  144SOL    HW1 1331   2.976   4.720   2.988
  144SOL    HW2 1332   2.938   4.846   2.891
  145SOL     OW 1333   6.848   4.401   3.072
  145SOL    HW1 1334   6.861   4.442   3.162
  145SOL    HW2 1335   6.934   4.363   3.040
  146SOL     OW 1336   6.292   1.469   5.904
  146SOL    HW1 1337   6.229   1.401   5.867
  146SOL    HW2 1338   6.268   1.560   5.870
  147SOL     OW 1339   4.622   1.034   5.930
  147SOL    HW1 1340   4.579   0.944   5.929
  147SOL    HW2 1341   4.713   1.028   5.972
  148SOL     OW 1342   1.364   4.732   1.305
  148SOL    HW1 1343   1.365   4.641   1.263
  148SOL    HW2 1344   1.458   4.760   1.323
  149SOL     OW 1345   2.213   2.391   5.658
  149SOL    HW1 1346   2.159   2.321   5.610
  149SOL    HW2 1347   2.272   2.438   5.592
  150SOL     OW 1348   4.463   1.465   4.622
  150SOL    HW1 1349   4.401   1.456   4.543
  150SOL    HW2 1350   4.549   1.507   4.592
  151SOL     OW 1351   3.977   1.965   0.792
  151SOL    HW1 1352   3.964   1.867   0.779
  151SOL    HW2 1353   3.998   1.984   0.889
  152SOL     OW 1354   0.902   1.034   0.157
  152SOL    HW1 1355   1.002   1.034   0.155
  152SOL    HW2 1356   0.870   0.944   0.188
  153SOL     OW 1357   2.508   1.236   4.225
  153SOL    HW1 1358   2.563   1.170   4.173
  153SOL    HW2 1359   2.556   1.324   4.228
  154SOL     OW 1360   6.040   1.941   1.263
  154SOL    HW1 1361   6.044   1.841   1.255
  154SOL    HW2 1362   6.125   1.974   1.303
  155SOL     OW 1363   1.004   6.797   1.416
  155SOL    HW1 1364   0.983   6.711   1.463
  155SOL    HW2 1365   1.005   6.872   1.481
  156SOL     OW 1366   4.516   1.906   0.305
  156SOL    HW1 1367   4.597   1.855   0.333
  156SOL    HW2 1368   4.469   1.857   0.231
  157SOL     OW 1369   5.190   4.753   0.749
  157SOL    HW1 1370   5.103   4.785   0.711
  157SOL    HW2 1371   5.179   4.737   0.847
  158SOL     OW 1372   0.513   2.683   3.255
  158SOL    HW1 1373   0.525   2.781   3.235
  158SOL    HW2 1374   0.588   2.651   3.311
  159SOL     OW 1375   5.551   5.536   0.263
  159SOL    HW1 1376   5.539   5.633   0.242
  159SOL    HW2 1377   5.521   5.517   0.356
  160SOL     OW 1378   6.247   6.737   0.837
  160SOL    HW1 1379   6.246   6.805   0.764
  160SOL    HW2 1380   6.266   6.647   0.798
  161SOL     OW 1381   0.581   0.270   0.561
  161SOL    HW1 1382   0.591   0.231   0.469
  161SOL    HW2 1383   0.655   0.236   0.620
  162SOL     OW 1384   3.382   6.505   0.497
  162SOL    HW1 1385   3.356   6.557   0.579
  162SOL    HW2 1386   3.471   6.461   0.512
  163SOL     OW 1387   0.071   3.691   3.799
  163SOL    HW1 1388   6.999   3.691   3.825
  163SOL    HW2 1389   0.127   3.718   3.877
  164SOL     OW 1390   1.781   1.786   3.173
  164SOL    HW1 1391   1.748   1.806   3.266
  164SOL    HW2 1392   1.878   1.760   3.177
  165SOL     OW 1393   0.709   5.691   2.388
  165SOL    HW1 1394   0.691   5.685   2.290
  165SOL    HW2 1395   0.805   5.673   2.406
  166SOL     OW 1396   6.731   4.353   2.770
  166SOL    HW1 1397   6.676   4.278   2.807
  166SOL    HW2 1398   6.710   4.365   2.673
  167SOL     OW 1399   4.811   2.383   0.059
  167SOL    HW1 1400   4.819   2.358   0.155
  167SOL    HW2 1401   4.897   2.364   0.012
  168SOL     OW 1402   4.903   4.042   2.134
  168SOL    HW1 1403   4.959   4.092   2.068
  168SOL    HW2 1404   4.869   3.958   2.092
  169SOL     OW 1405   6.040   2.566   1.165
  169SOL    HW1 1406   6.003   2.486   1.212
  169SOL    HW2 1407   5.965   2.619   1.124
  170SOL     OW 1408   0.799   5.156   1.879
  170SOL    HW1 1409   0.830   5.079   1.822
  170SOL    HW2 1410   0.714   5.193   1.842
  171SOL     OW 1411   2.520   4.025   0.716
  171SOL    HW1 1412   2.577   4.024   0.634
  171SOL    HW2 1413   2.550   3.953   0.779
  172SOL     OW 1414   6.428   2.323   1.586
  172SOL    HW1 1415   6.515   2.275   1.573
  172SOL    HW2 1416   6.356   2.275   1.536
  173SOL     OW 1417   6.728   1.451   5.895
  173SOL    HW1 1418   6.693   1.368   5.939
  173SOL    HW2 1419   6.672   1.529   5.922
  174SOL     OW 1420   5.817   5.220   5.077
  174SOL    HW1 1421   5.789   5.259   5.165
  174SOL    HW2 1422   5.736   5.186   5.029
  175SOL     OW 1423   0.949   0.646   0.694
  175SOL    HW1 1424   0.968   0.574   0.762
  175SOL    HW2 1425   0.860   0.629   0.652
  176SOL     OW 1426   5.259   4.856   2.489
  176SOL    HW1 1427   5.267   4.939   2.434
  176SOL    HW2 1428   5.298   4.871   2.580
  177SOL     OW 1429   5.518   2.373   4.091
  177SOL    HW1 1430   5.483   2.407   4.178
  177SOL    HW2 1431   5.613   2.402   4.079
  178SOL     OW 1432   1.979   6.550   5.493
  178SOL    HW1 1433   2.027   6.531   5.579
  178SOL    HW2 1434   1.910   6.621   5.509
  179SOL     OW 1435   4.319   5.327   0.935
  179SOL    HW1 1436   4.262   5.259   0.890
  179SOL    HW2 1437   4.275   5.416   0.931
  180SOL     OW 1438   4.550   0.975   1.138
  180SOL    HW1 1439   4.570   0.994   1.234
  180SOL    HW2 1440   4.565   1.058   1.084
  181SOL     OW 1441   3.463   2.885   5.347
  181SOL    HW1 1442   3.405   2.819   5.299
  181SOL    HW2 1443   3.418   2.912   5.432
  182SOL     OW 1444   4.903   2.489   6.433
  182SOL    HW1 1445   4.972   2.509   6.503
  182SOL    HW2 1446   4.944   2.499   6.342
  183SOL     OW 1447   3.258   1.804   3.774
  183SOL    HW1 1448   3.185   1.766   3.717
  183SOL    HW2 1449   3.226   1.890   3.815
  184SOL     OW 1450   6.941   0.007   2.739
  184SOL    HW1 1451   6.973   6.998   2.828
  184SOL    HW2 1452   7.007   0.072   2.702
  185SOL     OW 1453   0.446   1.441   3.861
  185SOL    HW1 1454   0.351   1.411   3.848
  185SOL    HW2 1455   0.483   1.397   3.943
  186SOL     OW 1456   4.395   5.445   4.197
  186SOL    HW1 1457   4.398   5.544   4.210
  186SOL    HW2 1458   4.389   5.400   4.287
  187SOL     OW 1459   4.256   5.980   2.201
  187SOL    HW1 1460   4.217   6.071   2.215
  187SOL    HW2 1461   4.267   5.934   2.289
  188SOL     OW 1462   2.432   2.628   2.618
  188SOL    HW1 1463   2.472   2.539   2.639
  188SOL    HW2 1464   2.393   2.667   2.702
  189SOL     OW 1465   6.228   5.661   6.493
  189SOL    HW1 1466   6.260   5.732   6.431
  189SOL    HW2 1467   6.307   5.610   6.529
  190SOL     OW 1468   5.487   6.531   0.223
  190SOL    HW1 1469   5.423   6.586   0.278
  190SOL    HW2 1470   5.456   6.530   0.128
  191SOL     OW 1471   5.925   0.713   5.740
  191SOL    HW1 1472   5.985   0.722   5.661
  191SOL    HW2 1473   5.830   0.717   5.710
  192SOL     OW 1474   0.301   5.245   0.830
  192SOL    HW1 1475   0.332   5.340   0.832
  192SOL    HW2 1476   0.256   5.223   0.917
  193SOL     OW 1477   3.159   4.944   6.356
  193SOL    HW1 1478   3.099   4.900   6.289
  193SOL    HW2 1479   3.112   5.023   6.395
  194SOL     OW 1480   4.025   6.855   1.954
  194SOL    HW1 1481   4.004   6.767   1.997
  194SOL    HW2 1482   3.972   6.865   1.870
  195SOL     OW 1483   3.199   0.894   1.305
  195SOL    HW1 1484   3.204   0.939   1.216
  195SOL    HW2 1485   3.115   0.841   1.312
  196SOL     OW 1486   1.969   0.637   6.930
  196SOL    HW1 1487   1.932   0.585   6.853
  196SOL    HW2 1488   2.059   0.672   6.906
  197SOL     OW 1489   2.576   5.431   0.312
  197SOL    HW1 1490   2.675   5.442   0.302
  197SOL    HW2 1491   2.558   5.363   0.383
  198SOL     OW 1492   4.285   6.536   0.135
  198SOL    HW1 1493   4.222   6.488   0.075
  198SOL    HW2 1494   4.261   6.633   0.139
  199SOL     OW 1495   5.775   0.013   2.756
  199SOL    HW1 1496   5.826   0.086   2.801
  199SOL    HW2 1497   5.677   0.034   2.758
  200SOL     OW 1498   0.771   3.769   3.263
  200SOL    HW1 1499   0.685   3.735   3.224
  200SOL    HW2 1500   0.804   3.704   3.331
  201SOL     OW 1501   2.686   0.942   0.156
  201SOL    HW1 1502   2.736   1.028   0.164
  201SOL    HW2 1503   2.678   0.916   0.060
  202SOL     OW 1504   3.900   6.782   3.646
  202SOL    HW1 1505   3.903   6.748   3.740
  202SOL    HW2 1506   3.886   6.705   3.583
  203SOL     OW 1507   5.384   3.655   6.295
  203SOL    HW1 1508   5.341   3.608   6.372
  203SOL    HW2 1509   5.341   3.626   6.210
  204SOL     OW 1510   1.707   0.022   0.470
  204SOL    HW1 1511   1.665   0.006   0.380
  204SOL    HW2 1512   1.786   0.083   0.459
  205SOL     OW 1513   5.618   1.892   1.001
  205SOL    HW1 1514   5.667   1.968   0.958
  205SOL    HW2 1515   5.526   1.921   1.026
  206SOL     OW 1516   0.415   4.837   1.433
  206SOL    HW1 1517   0.506   4.878   1.427
  206SOL    HW2 1518   0.380   4.846   1.526
  207SOL     OW 1519   4.411   0.390   5.755
  207SOL    HW1 1520   4.328   0.429   5.714
  207SOL    HW2 1521   4.491   0.438   5.718
  208SOL     OW 1522   5.024   5.173   6.038
  208SOL    HW1 1523   5.057   5.254   6.087
  208SOL    HW2 1524   5.022   5.095   6.101
  209SOL     OW 1525   6.820   6.086   5.866
  209SOL    HW1 1526   6.831   6.048   5.774
  209SOL    HW2 1527   6.831   6.014   5.934
  210SOL     OW 1528   4.027   1.956   1.731
  210SOL    HW1 1529   4.000   1.921   1.642
  210SOL    HW2 1530   3.948   1.957   1.792
  211SOL     OW 1531   0.944   1.408   1.257
  211SOL    HW1 1532   1.007   1.444   1.326
  211SOL    HW2 1533   0.991   1.398   1.170
  212SOL     OW 1534   0.749   4.917   3.178
  212SOL    HW1 1535   0.784   4.964   3.259
  212SOL    HW2 1536   0.673   4.858   3.204
  213SOL     OW 1537   4.843   1.740   0.086
  213SOL    HW1 1538   4.759   1.692   0.112
  213SOL    HW2 1539   4.828   1.839   0.089
  214SOL     OW 1540   0.691   6.501   2.335
  214SOL    HW1 1541   0.673   6.431   2.265
  214SOL    HW2 1542   0.738   6.578   2.293
  215SOL     OW 1543   3.742   2.889   2.346
  215SOL    HW1 1544   3.703   2.932   2.427
  215SOL    HW2 1545   3.724   2.790   2.348
  216SOL     OW 1546   1.243   0.231   5.121
  216SOL    HW1 1547   1.149   0.257   5.098
  216SOL    HW2 1548   1.303   0.252   5.044
  217SOL     OW 1549   1.470   2.671   3.842
  217SOL    HW1 1550   1.439   2.576   3.842
  217SOL    HW2 1551   1.515   2.691   3.755
  218SOL     OW 1552   1.379   2.751   5.146
  218SOL    HW1 1553   1.287   2.784   5.123
  218SOL    HW2 1554   1.444   2.781   5.077
  219SOL     OW 1555   4.146   4.263   0.260
  219SOL    HW1 1556   4.244   4.260   0.281
  219SOL    HW2 1557   4.117   4.174   0.226
  220SOL     OW 1558   2.904   5.227   0.026
  220SOL    HW1 1559   2.894   5.280   6.967
  220SOL    HW2 1560   2.996   5.189   0.032
  221SOL     OW 1561   5.357   3.325   3.686
  221SOL    HW1 1562   5.343   3.424   3.685
  221SOL    HW2 1563   5.388   3.296   3.777
  222SOL     OW 1564   0.892   5.982   5.600
  222SOL    HW1 1565   0.903   5.916   5.675
  222SOL    HW2 1566   0.829   6.054   5.628
  223SOL     OW 1567   0.229   3.261   2.236
  223SOL    HW1 1568   0.252   3.211   2.152
  223SOL    HW2 1569   0.174   3.202   2.296
  224SOL     OW 1570   2.844   2.053   2.048
  224SOL    HW1 1571   2.896   2.137   2.065
  224SOL    HW2 1572   2.847   1.995   2.129
  225SOL     OW 1573   5.789   0.856   6.940
  225SOL    HW1 1574   5.701   0.873   6.897
  225SOL    HW2 1575   5.843   0.940   6.940
  226SOL     OW 1576   0.534   6.177   0.204
  226SOL    HW1 1577   0.624   6.218   0.214
  226SOL    HW2 1578   0.543   6.083   0.172
  227SOL     OW 1579   1.931   3.765   3.807
  227SOL    HW1 1580   1.951   3.856   3.771
  227SOL    HW2 1581   1.833   3.749   3.803
  228SOL     OW 1582   4.014   6.612   4.171
  228SOL    HW1 1583   4.076   6.639   4.097
  228SOL    HW2 1584   3.943   6.681   4.182
  229SOL     OW 1585   6.064   5.832   1.926
  229SOL    HW1 1586   6.132   5.899   1.896
  229SOL    HW2 1587   6.082   5.744   1.881
  230SOL     OW 1588   2.286   4.237   4.874
  230SOL    HW1 1589   2.188   4.258   4.883
  230SOL    HW2 1590   2.303   4.143   4.901
  231SOL     OW 1591   0.048   3.527   6.482
  231SOL    HW1 1592   0.045   3.571   6.571
  231SOL    HW2 1593   7.011   3.448   6.481
  232SOL     OW 1594   1.109   3.549   6.891
  232SOL    HW1 1595   1.176   3.557   6.817
  232SOL    HW2 1596   1.156   3.525   6.976
  233SOL     OW 1597   2.558   1.520   5.628
  233SOL    HW1 1598   2.651   1.490   5.604
  233SOL    HW2 1599   2.494   1.489   5.559
  234SOL     OW 1600   2.733   4.894   6.884
  234SOL    HW1 1601   2.710   4.923   6.977
  234SOL    HW2 1602   2.783   4.968   6.838
  235SOL     OW 1603   3.034   3.505   3.964
  235SOL    HW1 1604   2.998   3.593   3.934
  235SOL    HW2 1605   2.976   3.431   3.929
  236SOL     OW 1606   6.940   2.672   5.484
  236SOL    HW1 1607   7.006   2.724   5.539
  236SOL    HW2 1608   6.848   2.710   5.497
  237SOL     OW 1609   0.270   0.005   1.293
  237SOL    HW1 1610   0.253   0.032   1.199
  237SOL    HW2 1611   0.225   6.942   1.311
  238SOL     OW 1612   5.717   3.678   2.125
  238SOL    HW1 1613   5.806   3.664   2.169
  238SOL    HW2 1614   5.729   3.679   2.026
  239SOL     OW 1615   6.650   5.820   6.786
  239SOL    HW1 1616   6.748   5.833   6.770
  239SOL    HW2 1617   6.601   5.836   6.701
  240SOL     OW 1618   0.378   4.137   6.223
  240SOL    HW1 1619   0.444   4.198   6.267
  240SOL    HW2 1620   0.402   4.042   6.241
  241SOL     OW 1621   0.514   0.890   3.438
  241SOL    HW1 1622   0.521   0.988   3.418
  241SOL    HW2 1623   0.579   0.865   3.510
  242SOL     OW 1624   1.507   3.786   4.857
  242SOL    HW1 1625   1.498   3.872   4.908
  242SOL    HW2 1626   1.435   3.780   4.789
  243SOL     OW 1627   5.851   0.099   5.358
  243SOL    HW1 1628   5.810   0.038   5.291
  243SOL    HW2 1629   5.784   0.167   5.388
  244SOL     OW 1630   5.683   1.931   5.083
  244SOL    HW1 1631   5.607   1.971   5.134
  244SOL    HW2 1632   5.747   2.004   5.056
  245SOL     OW 1633   6.517   2.925   4.610
  245SOL    HW1 1634   6.598   2.924   4.551
  245SOL    HW2 1635   6.434   2.920   4.553
  246SOL     OW 1636   4.839   3.864   3.597
  246SOL    HW1 1637   4.760   3.922   3.578
  246SOL    HW2 1638   4.876   3.829   3.511
  247SOL     OW 1639   1.655   1.302   4.198
  247SOL    HW1 1640   1.685   1.279   4.291
  247SOL    HW2 1641   1.604   1.388   4.200
  248SOL     OW 1642   5.027   2.150   3.814
  248SOL    HW1 1643   5.049   2.236   3.860
  248SOL    HW2 1644   5.104   2.087   3.823
  249SOL     OW 1645   3.209   6.517   4.504
  249SOL    HW1 1646   3.304   6.539   4.481
  249SOL    HW2 1647   3.207   6.447   4.575
  250SOL     OW 1648   5.165   3.651   5.403
  250SOL    HW1 1649   5.074   3.659   5.362
  250SOL    HW2 1650   5.162   3.689   5.495
  251SOL     OW 1651   4.388   2.944   6.422
  251SOL    HW1 1652   4.392   2.922   6.520
  251SOL    HW2 1653   4.424   2.867   6.370
  252SOL     OW 1654   6.474   1.073   5.917
  252SOL    HW1 1655   6.393   1.056   5.973
  252SOL    HW2 1656   6.529   1.145   5.958
  253SOL     OW 1657   2.729   3.156   0.249
  253SOL    HW1 1658   2.661   3.084   0.258
  253SOL    HW2 1659   2.684   3.245   0.248
  254SOL     OW 1660   6.666   3.594   4.667
  254SOL    HW1 1661   6.677   3.652   4.586
  254SOL    HW2 1662   6.682   3.649   4.749
  255SOL     OW 1663   2.836   2.247   3.544
  255SOL    HW1 1664   2.820   2.331   3.492
  255SOL    HW2 1665   2.842   2.268   3.641
  256SOL     OW 1666   6.293   5.200   0.055
  256SOL    HW1 1667   6.233   5.280   0.059
  256SOL    HW2 1668   6.378   5.224   0.009
  257SOL     OW 1669   3.000   5.538   6.248
  257SOL    HW1 1670   2.993   5.546   6.347
  257SOL    HW2 1671   2.913   5.507   6.210
  258SOL     OW 1672   6.021   4.349   4.073
  258SOL    HW1 1673   5.926   4.374   4.056
  258SOL    HW2 1674   6.061   4.411   4.141
  259SOL     OW 1675   1.484   2.665   2.749
  259SOL    HW1 1676   1.577   2.632   2.763
  259SOL    HW2 1677   1.466   2.741   2.812
  260SOL     OW 1678   5.676   0.201   6.099
  260SOL    HW1 1679   5.679   0.286   6.046
  260SOL    HW2 1680   5.694   0.222   6.195
  261SOL     OW 1681   1.064   4.134   1.983
  261SOL    HW1 1682   1.028   4.176   1.900
  261SOL    HW2 1683   1.081   4.204   2.052
  262SOL     OW 1684   0.921   3.439   1.885
  262SOL    HW1 1685   0.897   3.534   1.907
  262SOL    HW2 1686   0.923   3.427   1.786
  263SOL     OW 1687   0.539   1.798   5.126
  263SOL    HW1 1688   0.600   1.853   5.069
  263SOL    HW2 1689   0.463   1.764   5.071
  264SOL     OW 1690   1.825   4.794   6.342
  264SOL    HW1 1691   1.765   4.765   6.267
  264SOL    HW2 1692   1.803   4.743   6.424
  265SOL     OW 1693   5.327   4.499   4.364
  265SOL    HW1 1694   5.271   4.419   4.386
  265SOL    HW2 1695   5.316   4.522   4.268
  266SOL     OW 1696   4.351   1.289   0.770
  266SOL    HW1 1697   4.285   1.223   0.732
  266SOL    HW2 1698   4.361   1.365   0.706
  267SOL     OW 1699   1.385   2.117   6.172
  267SOL    HW1 1700   1.461   2.169   6.211
  267SOL    HW2 1701   1.349   2.053   6.240
  268SOL     OW 1702   4.140   4.827   4.364
  268SOL    HW1 1703   4.173   4.815   4.458
  268SOL    HW2 1704   4.181   4.757   4.305
  269SOL     OW 1705   0.725   2.197   6.370
  269SOL    HW1 1706   0.634   2.240   6.370
  269SOL    HW2 1707   0.782   2.239   6.441
  270SOL     OW 1708   4.771   0.922   2.190
  270SOL    HW1 1709   4.832   0.847   2.217
  270SOL    HW2 1710   4.745   0.974   2.271
  271SOL     OW 1711   1.459   0.275   7.023
  271SOL    HW1 1712   1.406   0.298   0.081
  271SOL    HW2 1713   1.541   0.331   7.020
  272SOL     OW 1714   3.425   5.245   3.141
  272SOL    HW1 1715   3.381   5.185   3.208
  272SOL    HW2 1716   3.515   5.273   3.176
  273SOL     OW 1717   2.032   6.228   5.064
  273SOL    HW1 1718   1.939   6.198   5.046
  273SOL    HW2 1719   2.096   6.175   5.007
  274SOL     OW 1720   6.269   2.758   2.884
  274SOL    HW1 1721   6.209   2.762   2.964
  274SOL    HW2 1722   6.275   2.664   2.852
  275SOL     OW 1723   6.468   6.364   5.550
  275SOL    HW1 1724   6.568   6.355   5.545
  275SOL    HW2 1725   6.441   6.454   5.515
  276SOL     OW 1726   6.507   6.099   3.770
  276SOL    HW1 1727   6.423   6.145   3.742
  276SOL    HW2 1728   6.577   6.111   3.700
  277SOL     OW 1729   4.140   1.650   5.390
  277SOL    HW1 1730   4.153   1.713   5.314
  277SOL    HW2 1731   4.202   1.572   5.380
  278SOL     OW 1732   5.683   3.625   2.435
  278SOL    HW1 1733   5.616   3.581   2.375
  278SOL    HW2 1734   5.657   3.720   2.450
  279SOL     OW 1735   0.151   2.620   3.381
  279SOL    HW1 1736   0.165   2.612   3.479
  279SOL    HW2 1737   0.239   2.606   3.334
  280SOL     OW 1738   4.449   0.528   4.440
  280SOL    HW1 1739   4.473   0.432   4.425
  280SOL    HW2 1740   4.351   0.541   4.420
  281SOL     OW 1741   5.140   6.245   4.094
  281SOL    HW1 1742   5.132   6.344   4.107
  281SOL    HW2 1743   5.077   6.198   4.155
  282SOL     OW 1744   4.376   1.899   6.532
  282SOL    HW1 1745   4.365   1.976   6.594
  282SOL    HW2 1746   4.294   1.842   6.535
  283SOL     OW 1747   6.565   0.904   4.808
  283SOL    HW1 1748   6.656   0.869   4.831
  283SOL    HW2 1749   6.574   0.970   4.733
  284SOL     OW 1750   6.372   5.480   4.433
  284SOL    HW1 1751   6.322   5.397   4.407
  284SOL    HW2 1752   6.463   5.456   4.466
  285SOL     OW 1753   4.057   0.387   6.802
  285SOL    HW1 1754   3.982   0.327   6.774
  285SOL    HW2 1755   4.060   0.467   6.742
  286SOL     OW 1756   3.795   4.907   4.544
  286SOL    HW1 1757   3.804   4.966   4.464
  286SOL    HW2 1758   3.848   4.945   4.620
  287SOL     OW 1759   2.777   6.334   5.876
  287SOL    HW1 1760   2.855   6.273   5.862
  287SOL    HW2 1761   2.771   6.398   5.800
  288SOL     OW 1762   3.753   1.149   0.399
  288SOL    HW1 1763   3.730   1.230   0.454
  288SOL    HW2 1764   3.771   1.176   0.305
  289SOL     OW 1765   0.485   6.227   4.022
  289SOL    HW1 1766   0.456   6.314   3.981
  289SOL    HW2 1767   0.407   6.164   4.024
  290SOL     OW 1768   3.701   0.947   3.908
  290SOL    HW1 1769   3.717   0.894   3.825
  290SOL    HW2 1770   3.618   0.914   3.953
  291SOL     OW 1771   4.769   0.522   4.548
  291SOL    HW1 1772   4.670   0.513   4.564
  291SOL    HW2 1773   4.790   0.490   4.456
  292SOL     OW 1774   3.632   0.150   3.440
  292SOL    HW1 1775   3.641   0.061   3.485
  292SOL    HW2 1776   3.582   0.213   3.499
  293SOL     OW 1777   5.814   6.879   3.052
  293SOL    HW1 1778   5.813   6.913   2.958
  293SOL    HW2 1779   5.883   6.807   3.060
  294SOL     OW 1780   5.769   1.173   5.756
  294SOL    HW1 1781   5.795   1.083   5.791
  294SOL    HW2 1782   5.803   1.184   5.662
  295SOL     OW 1783   1.122   1.854   5.296
  295SOL    HW1 1784   1.188   1.908   5.348
  295SOL    HW2 1785   1.083   1.909   5.223
  296SOL     OW 1786   6.813   1.591   1.501
  296SOL    HW1 1787   6.893   1.622   1.553
  296SOL    HW2 1788   6.780   1.666   1.444
  297SOL     OW 1789   5.700   4.063   3.573
  297SOL    HW1 1790   5.686   4.069   3.672
  297SOL    HW2 1791   5.763   3.988   3.552
  298SOL     OW 1792   4.175   0.487   0.583
  298SOL    HW1 1793   4.177   0.456   0.487
  298SOL    HW2 1794   4.087   0.530   0.603
  299SOL     OW 1795   2.955   1.364   6.608
  299SOL    HW1 1796   3.047   1.387   6.640
  299SOL    HW2 1797   2.961   1.301   6.531
  300SOL     OW 1798   3.594   1.015   3.192
  300SOL    HW1 1799   3.570   0.937   3.134
  300SOL    HW2 1800   3.593   1.098   3.137
  301SOL     OW 1801   6.034   6.186   1.707
  301SOL    HW1 1802   6.064   6.119   1.639
  301SOL    HW2 1803   5.956   6.150   1.757
  302SOL     OW 1804   6.725   6.452   1.728
  302SOL    HW1 1805   6.629   6.480   1.719
  302SOL    HW2 1806   6.773   6.519   1.785
  303SOL     OW 1807   6.462   6.103   2.555
  303SOL    HW1 1808   6.474   6.187   2.607
  303SOL    HW2 1809   6.441   6.027   2.617
  304SOL     OW 1810   1.402   0.028   5.236
  304SOL    HW1 1811   1.355   6.982   5.289
  304SOL    HW2 1812   1.339   0.104   5.220
  305SOL     OW 1813   1.947   2.644   1.685
  305SOL    HW1 1814   1.864   2.659   1.630
  305SOL    HW2 1815   2.025   2.687   1.639
  306SOL     OW 1816   6.292   0.978   3.432
  306SOL    HW1 1817   6.230   1.053   3.455
  306SOL    HW2 1818   6.308   0.977   3.333
  307SOL     OW 1819   3.138   3.489   1.994
  307SOL    HW1 1820   3.048   3.450   1.974
  307SOL    HW2 1821   3.208   3.438   1.945
  308SOL     OW 1822   5.712   1.379   3.929
  308SOL    HW1 1823   5.634   1.441   3.933
  308SOL    HW2 1824   5.703   1.310   4.001
  309SOL     OW 1825   0.908   6.628   6.468
  309SOL    HW1 1826   0.943   6.591   6.554
  309SOL    HW2 1827   0.901   6.555   6.401
  310SOL     OW 1828   5.203   5.399   4.629
  310SOL    HW1 1829   5.201   5.419   4.531
  310SOL    HW2 1830   5.298   5.396   4.660
  311SOL     OW 1831   1.369   5.549   2.768
  311SOL    HW1 1832   1.345   5.629   2.822
  311SOL    HW2 1833   1.306   5.475   2.788
  312SOL     OW 1834   4.321   2.349   3.235
  312SOL    HW1 1835   4.241   2.367   3.293
  312SOL    HW2 1836   4.405   2.361   3.288
  313SOL     OW 1837   3.701   3.618   2.769
  313SOL    HW1 1838   3.664   3.546   2.829
  313SOL    HW2 1839   3.764   3.676   2.821
  314SOL     OW 1840   1.674   6.773   5.095
  314SOL    HW1 1841   1.611   6.848   5.076
  314SOL    HW2 1842   1.768   6.808   5.094
  315SOL     OW 1843   6.420   1.194   3.598
  315SOL    HW1 1844   6.413   1.103   3.557
  315SOL    HW2 1845   6.434   1.262   3.525
  316SOL     OW 1846   3.973   1.367   5.111
  316SOL    HW1 1847   4.023   1.281   5.120
  316SOL    HW2 1848   3.993   1.425   5.190
  317SOL     OW 1849   1.485   1.375   1.703
  317SOL    HW1 1850   1.478   1.475   1.696
  317SOL    HW2 1851   1.423   1.333   1.637
  318SOL     OW 1852   6.801   0.579   5.684
  318SOL    HW1 1853   6.779   0.542   5.594
  318SOL    HW2 1854   6.833   0.506   5.744
  319SOL     OW 1855   1.286   1.763   2.666
  319SOL    HW1 1856   1.312   1.667   2.668
  319SOL    HW2 1857   1.351   1.813   2.609
  320SOL     OW 1858   5.501   2.238   6.637
  320SOL    HW1 1859   5.551   2.293   6.570
  320SOL    HW2 1860   5.555   2.229   6.720
  321SOL     OW 1861   4.166   3.159   0.832
  321SOL    HW1 1862   4.258   3.119   0.825
  321SOL    HW2 1863   4.098   3.087   0.819
  322SOL     OW 1864   4.446   3.457   6.818
  322SOL    HW1 1865   4.477   3.550   6.836
  322SOL    HW2 1866   4.525   3.396   6.816
  323SOL     OW 1867   0.239   3.102   3.740
  323SOL    HW1 1868   0.266   3.195   3.717
  323SOL    HW2 1869   0.289   3.037   3.683
  324SOL     OW 1870   1.536   0.419   2.887
  324SOL    HW1 1871   1.567   0.508   2.853
  324SOL    HW2 1872   1.460   0.433   2.951
  325SOL     OW 1873   1.055   3.736   2.212
  325SOL    HW1 1874   1.133   3.749   2.273
  325SOL    HW2 1875   0.983   3.686   2.260
  326SOL     OW 1876   1.981   5.746   6.401
  326SOL    HW1 1877   1.994   5.647   6.395
  326SOL    HW2 1878   2.026   5.791   6.323
  327SOL     OW 1879   3.776   5.467   3.105
  327SOL    HW1 1880   3.752   5.421   3.190
  327SOL    HW2 1881   3.794   5.563   3.122
  328SOL     OW 1882   2.446   4.601   2.002
  328SOL    HW1 1883   2.405   4.544   2.073
  328SOL    HW2 1884   2.407   4.693   2.006
  329SOL     OW 1885   3.066   4.156   1.836
  329SOL    HW1 1886   2.985   4.211   1.854
  329SOL    HW2 1887   3.135   4.213   1.791
  330SOL     OW 1888   4.149   4.753   0.036
  330SOL    HW1 1889   4.211   4.758   6.983
  330SOL    HW2 1890   4.185   4.808   0.111
  331SOL     OW 1891   4.825   5.288   0.753
  331SOL    HW1 1892   4.894   5.306   0.824
  331SOL    HW2 1893   4.747   5.241   0.794
  332SOL     OW 1894   5.588   2.063   3.317
  332SOL    HW1 1895   5.558   2.156   3.294
  332SOL    HW2 1896   5.611   2.059   3.414
  333SOL     OW 1897   3.689   1.003   5.348
  333SOL    HW1 1898   3.764   1.068   5.362
  333SOL    HW2 1899   3.612   1.050   5.306
  334SOL     OW 1900   4.075   3.234   2.929
  334SOL    HW1 1901   4.162   3.242   2.881
  334SOL    HW2 1902   4.079   3.286   3.014
  335SOL     OW 1903   3.690   6.743   0.025
  335SOL    HW1 1904   3.650   6.657   0.057
  335SOL    HW2 1905   3.737   6.727   6.963
  336SOL     OW 1906   2.233   1.759   3.373
  336SOL    HW1 1907   2.287   1.821   3.316
  336SOL    HW2 1908   2.295   1.704   3.430
  337SOL     OW 1909   1.619   1.756   6.301
  337SOL    HW1 1910   1.666   1.704   6.372
  337SOL    HW2 1911   1.623   1.854   6.322
  338SOL     OW 1912   4.465   2.623   1.420
  338SOL    HW1 1913   4.396   2.637   1.491
  338SOL    HW2 1914   4.480   2.709   1.372
  339SOL     OW 1915   4.030   4.990   4.739
  339SOL    HW1 1916   4.107   4.999   4.676
  339SOL    HW2 1917   4.055   5.025   4.829
  340SOL     OW 1918   4.698   2.417   4.812
  340SOL    HW1 1919   4.681   2.351   4.739
  340SOL    HW2 1920   4.720   2.506   4.770
  341SOL     OW 1921   5.796   6.476   3.853
  341SOL    HW1 1922   5.795   6.448   3.949
  341SOL    HW2 1923   5.885   6.514   3.830
  342SOL     OW 1924   5.014   3.420   0.820
  342SOL    HW1 1925   4.955   3.347   0.787
  342SOL    HW2 1926   4.959   3.490   0.865
  343SOL     OW 1927   1.024   5.463   2.997
  343SOL    HW1 1928   1.045   5.392   3.064
  343SOL    HW2 1929   1.012   5.422   2.907
  344SOL     OW 1930   1.551   1.527   1.444
  344SOL    HW1 1931   1.627   1.473   1.407
  344SOL    HW2 1932   1.582   1.620   1.463
  345SOL     OW 1933   6.635   2.304   4.562
  345SOL    HW1 1934   6.667   2.231   4.502
  345SOL    HW2 1935   6.535   2.302   4.568
  346SOL     OW 1936   1.961   0.245   2.626
  346SOL    HW1 1937   2.022   0.213   2.554
  346SOL    HW2 1938   1.976   0.192   2.709
  347SOL     OW 1939   3.037   5.577   0.681
  347SOL    HW1 1940   3.045   5.666   0.726
  347SOL    HW2 1941   3.056   5.587   0.583
  348SOL     OW 1942   4.913   5.253   2.327
  348SOL    HW1 1943   4.979   5.327   2.319
  348SOL    HW2 1944   4.960   5.165   2.325
  349SOL     OW 1945   6.927   4.013   1.604
  349SOL    HW1 1946   6.966   3.921   1.611
  349SOL    HW2 1947   6.962   4.058   1.522
  350SOL     OW 1948   4.078   3.413   0.385
  350SOL    HW1 1949   4.136   3.490   0.361
  350SOL    HW2 1950   4.059   3.415   0.483
  351SOL     OW 1951   3.203   3.853   0.929
  351SOL    HW1 1952   3.195   3.755   0.948
  351SOL    HW2 1953   3.121   3.900   0.961
  352SOL     OW 1954   4.358   5.718   3.698
  352SOL    HW1 1955   4.419   5.733   3.620
  352SOL    HW2 1956   4.393   5.767   3.777
  353SOL     OW 1957   2.298   7.005   5.889
  353SOL    HW1 1958   2.337   6.950   5.962
  353SOL    HW2 1959   2.211   6.965   5.860
  354SOL     OW 1960   5.535   2.631   1.275
  354SOL    HW1 1961   5.628   2.621   1.309
  354SOL    HW2 1962   5.533   2.703   1.204
  355SOL     OW 1963   1.595   3.132   2.513
  355SOL    HW1 1964   1.563   3.198   2.445
  355SOL    HW2 1965   1.556   3.042   2.494
  356SOL     OW 1966   1.698   0.276   5.163
  356SOL    HW1 1967   1.662   0.230   5.245
  356SOL    HW2 1968   1.623   0.322   5.116
  357SOL     OW 1969   6.209   0.066   4.584
  357SOL    HW1 1970   6.221   0.135   4.656
  357SOL    HW2 1971   6.150   0.103   4.513
  358SOL     OW 1972   5.215   5.502   0.680
  358SOL    HW1 1973   5.247   5.410   0.657
  358SOL    HW2 1974   5.131   5.522   0.629
  359SOL     OW 1975   3.100   1.623   2.360
  359SOL    HW1 1976   3.018   1.579   2.397
  359SOL    HW2 1977   3.084   1.720   2.348
  360SOL     OW 1978   1.062   5.068   4.510
  360SOL    HW1 1979   1.107   5.032   4.592
  360SOL    HW2 1980   1.127   5.125   4.459
  361SOL     OW 1981   6.322   5.985   3.195
  361SOL    HW1 1982   6.349   5.963   3.288
  361SOL    HW2 1983   6.274   5.906   3.155
  362SOL     OW 1984   3.898   4.267   0.457
  362SOL    HW1 1985   3.936   4.175   0.455
  362SOL    HW2 1986   3.798   4.261   0.465
  363SOL     OW 1987   6.597   5.072   2.723
  363SOL    HW1 1988   6.673   5.014   2.695
  363SOL    HW2 1989   6.551   5.032   2.802
  364SOL     OW 1990   0.429   4.821   6.726
  364SOL    HW1 1991   0.507   4.884   6.732
  364SOL    HW2 1992   0.345   4.874   6.719
  365SOL     OW 1993   3.595   0.815   2.173
  365SOL    HW1 1994   3.635   0.806   2.081
  365SOL    HW2 1995   3.496   0.828   2.164
  366SOL     OW 1996   6.127   3.501   7.004
  366SOL    HW1 1997   6.122   3.446   0.063
  366SOL    HW2 1998   6.169   3.446   6.932
  367SOL     OW 1999   5.083   2.319   5.688
  367SOL    HW1 2000   5.118   2.368   5.608
  367SOL    HW2 2001   4.987   2.344   5.702
  368SOL     OW 2002   6.602   1.871   6.083
  368SOL    HW1 2003   6.602   1.881   6.183
  368SOL    HW2 2004   6.695   1.884   6.049
  369SOL     OW 2005   5.817   4.125   3.152
  369SOL    HW1 2006   5.729   4.167   3.173
  369SOL    HW2 2007   5.823   4.107   3.054
  370SOL     OW 2008   1.879   2.771   4.210
  370SOL    HW1 2009   1.791   2.728   4.230
  370SOL    HW2 2010   1.940   2.705   4.167
  371SOL     OW 2011   1.872   4.121   6.780
  371SOL    HW1 2012   1.967   4.099   6.756
  371SOL    HW2 2013   1.816   4.117   6.697
  372SOL     OW 2014   2.044   6.730   4.833
  372SOL    HW1 2015   2.116   6.680   4.880
  372SOL    HW2 2016   1.988   6.779   4.901
  373SOL     OW 2017   6.129   6.600   5.025
  373SOL    HW1 2018   6.058   6.598   4.954
  373SOL    HW2 2019   6.149   6.506   5.053
  374SOL     OW 2020   2.118   1.637   2.663
  374SOL    HW1 2021   2.146   1.650   2.567
  374SOL    HW2 2022   2.049   1.565   2.668
  375SOL     OW 2023   0.302   5.473   5.174
  375SOL    HW1 2024   0.285   5.571   5.175
  375SOL    HW2 2025   0.263   5.433   5.091
  376SOL     OW 2026   2.753   0.921   4.252
  376SOL    HW1 2027   2.770   0.988   4.325
  376SOL    HW2 2028   2.788   0.957   4.166
  377SOL     OW 2029   1.391   2.437   0.302
  377SOL    HW1 2030   1.367   2.342   0.284
  377SOL    HW2 2031   1.476   2.459   0.253
  378SOL     OW 2032   3.173   1.570   7.016
  378SOL    HW1 2033   3.267   1.542   0.011
  378SOL    HW2 2034   3.173   1.652   6.960
  379SOL     OW 2035   5.620   2.401   6.427
  379SOL    HW1 2036   5.720   2.399   6.431
  379SOL    HW2 2037   5.589   2.496   6.423
  380SOL     OW 2038   3.363   1.173   1.205
  380SOL    HW1 2039   3.459   1.169   1.178
  380SOL    HW2 2040   3.348   1.115   1.286
  381SOL     OW 2041   1.519   4.515   4.295
  381SOL    HW1 2042   1.509   4.502   4.197
  381SOL    HW2 2043   1.583   4.447   4.331
  382SOL     OW 2044   6.249   0.040   0.416
  382SOL    HW1 2045   6.280   0.107   0.483
  382SOL    HW2 2046   6.244   0.083   0.326
  383SOL     OW 2047   4.039   2.669   1.096
  383SOL    HW1 2048   4.105   2.680   1.022
  383SOL    HW2 2049   4.085   2.637   1.178
  384SOL     OW 2050   0.244   3.751   4.000
  384SOL    HW1 2051   0.279   3.845   3.993
  384SOL    HW2 2052   0.314   3.687   3.967
  385SOL     OW 2053   4.047   5.353   6.318
  385SOL    HW1 2054   4.140   5.388   6.326
  385SOL    HW2 2055   4.048   5.267   6.266
  386SOL     OW 2056   4.159   0.612   4.081
  386SOL    HW1 2057   4.230   0.682   4.090
  386SOL    HW2 2058   4.104   0.629   3.999
  387SOL     OW 2059   1.739   5.168   2.953
  387SOL    HW1 2060   1.832   5.133   2.958
  387SOL    HW2 2061   1.679   5.109   3.007
  388SOL     OW 2062   2.232   2.129   6.596
  388SOL    HW1 2063   2.212   2.033   6.619
  388SOL    HW2 2064   2.244   2.181   6.680
  389SOL     OW 2065   3.789   3.729   3.035
  389SOL    HW1 2066   3.691   3.713   3.047
  389SOL    HW2 2067   3.830   3.750   3.124
  390SOL     OW 2068   2.507   1.000   4.058
  390SOL    HW1 2069   2.413   1.031   4.068
  390SOL    HW2 2070   2.509   0.911   4.013
  391SOL     OW 2071   1.587   3.208   6.664
  391SOL    HW1 2072   1.653   3.146   6.707
  391SOL    HW2 2073   1.634   3.270   6.603
  392SOL     OW 2074   2.033   5.219   1.543
  392SOL    HW1 2075   1.963   5.271   1.496
  392SOL    HW2 2076   1.995   5.132   1.575
  393SOL     OW 2077   6.318   4.457   5.286
  393SOL    HW1 2078   6.322   4.450   5.385
  393SOL    HW2 2079   6.381   4.528   5.254
  394SOL     OW 2080   0.885   7.001   0.402
  394SOL    HW1 2081   0.802   6.946   0.397
  394SOL    HW2 2082   0.881   0.049   0.333
  395SOL     OW 2083   4.925   3.935   2.411
  395SOL    HW1 2084   4.875   3.953   2.326
  395SOL    HW2 2085   4.861   3.938   2.488
  396SOL     OW 2086   3.706   4.057   3.112
  396SOL    HW1 2087   3.781   4.016   3.060
  396SOL    HW2 2088   3.619   4.017   3.083
  397SOL     OW 2089   3.938   3.070   6.129
  397SOL    HW1 2090   3.923   2.976   6.096
  397SOL    HW2 2091   3.878   3.133   6.080
  398SOL     OW 2092   0.874   5.596   2.116
  398SOL    HW1 2093   0.845   5.500   2.113
  398SOL    HW2 2094   0.972   5.600   2.135
  399SOL     OW 2095   5.428   5.974   2.635
  399SOL    HW1 2096   5.457   5.972   2.539
  399SOL    HW2 2097   5.446   6.065   2.673
  400SOL     OW 2098   6.952   0.231   5.982
  400SOL    HW1 2099   6.879   0.267   6.042
  400SOL    HW2 2100   6.969   0.135   6.004
  401SOL     OW 2101   5.057   0.358   6.209
  401SOL    HW1 2102   5.132   0.425   6.213
  401SOL    HW2 2103   4.970   0.406   6.214
  402SOL     OW 2104   6.274   6.687   3.087
  402SOL    HW1 2105   6.195   6.665   3.029
  402SOL    HW2 2106   6.351   6.713   3.030
  403SOL     OW 2107   4.642   2.345   5.962
  403SOL    HW1 2108   4.606   2.345   6.055
  403SOL    HW2 2109   4.593   2.277   5.907
  404SOL     OW 2110   1.458   6.969   3.619
  404SOL    HW1 2111   1.503   0.014   3.562
  404SOL    HW2 2112   1.365   6.955   3.587
  405SOL     OW 2113   2.089   2.110   1.387
  405SOL    HW1 2114   2.150   2.084   1.312
  405SOL    HW2 2115   2.117   2.198   1.424
  406SOL     OW 2116   1.196   2.769   3.841
  406SOL    HW1 2117   1.206   2.780   3.940
  406SOL    HW2 2118   1.259   2.699   3.809
  407SOL     OW 2119   2.542   0.044   4.122
  407SOL    HW1 2120   2.527   0.112   4.194
  407SOL    HW2 2121   2.600   0.083   4.051
  408SOL     OW 2122   1.413   0.836   3.193
  408SOL    HW1 2123   1.465   0.918   3.168
  408SOL    HW2 2124   1.417   0.822   3.292
  409SOL     OW 2125   5.822   3.121   2.440
  409SOL    HW1 2126   5.801   3.034   2.397
  409SOL    HW2 2127   5.750   3.187   2.420
  410SOL     OW 2128   2.541   0.260   0.161
  410SOL    HW1 2129   2.460   0.201   0.153
  410SOL    HW2 2130   2.623   0.204   0.169
  411SOL     OW 2131   5.874   6.291   6.548
  411SOL    HW1 2132   5.861   6.332   6.458
  411SOL    HW2 2133   5.830   6.347   6.617
  412SOL     OW 2134   4.274   6.884   2.891
  412SOL    HW1 2135   4.313   6.952   2.952
  412SOL    HW2 2136   4.177   6.871   2.913
  413SOL     OW 2137   3.963   4.460   1.002
  413SOL    HW1 2138   4.014   4.374   0.992
  413SOL    HW2 2139   3.939   4.495   0.912
  414SOL     OW 2140   4.223   5.236   2.656
  414SOL    HW1 2141   4.129   5.268   2.662
  414SOL    HW2 2142   4.281   5.309   2.619
  415SOL     OW 2143   1.537   5.617   0.460
  415SOL    HW1 2144   1.635   5.621   0.442
  415SOL    HW2 2145   1.489   5.678   0.397
  416SOL     OW 2146   4.522   5.656   5.030
  416SOL    HW1 2147   4.520   5.671   5.128
  416SOL    HW2 2148   4.429   5.642   4.996
  417SOL     OW 2149   3.189   6.646   1.262
  417SOL    HW1 2150   3.237   6.730   1.234
  417SOL    HW2 2151   3.187   6.641   1.362
  418SOL     OW 2152   4.847   6.239   0.501
  418SOL    HW1 2153   4.944   6.257   0.491
  418SOL    HW2 2154   4.805   6.314   0.553
  419SOL     OW 2155   0.862   0.188   1.144
  419SOL    HW1 2156   0.841   0.098   1.182
  419SOL    HW2 2157   0.952   0.218   1.176
  420SOL     OW 2158   6.299   3.766   1.086
  420SOL    HW1 2159   6.233   3.691   1.096
  420SOL    HW2 2160   6.387   3.730   1.057
  421SOL     OW 2161   0.975   4.989   6.189
  421SOL    HW1 2162   0.931   4.910   6.147
  421SOL    HW2 2163   1.015   4.963   6.276
  422SOL     OW 2164   6.403   5.771   0.546
  422SOL    HW1 2165   6.303   5.777   0.542
  422SOL    HW2 2166   6.433   5.774   0.641
  423SOL     OW 2167   6.515   3.319   7.016
  423SOL    HW1 2168   6.453   3.292   6.942
  423SOL    HW2 2169   6.518   3.246   0.060
  424SOL     OW 2170   2.837   3.549   1.029
  424SOL    HW1 2171   2.891   3.517   1.108
  424SOL    HW2 2172   2.813   3.471   0.972
  425SOL     OW 2173   5.156   1.151   2.106
  425SOL    HW1 2174   5.210   1.176   2.026
  425SOL    HW2 2175   5.058   1.155   2.083
  426SOL     OW 2176   5.886   2.464   5.059
  426SOL    HW1 2177   5.954   2.436   5.127
  426SOL    HW2 2178   5.882   2.395   4.986
  427SOL     OW 2179   5.669   5.286   2.824
  427SOL    HW1 2180   5.585   5.277   2.876
  427SOL    HW2 2181   5.649   5.279   2.726
  428SOL     OW 2182   4.574   0.301   5.117
  428SOL    HW1 2183   4.479   0.314   5.090
  428SOL    HW2 2184   4.631   0.369   5.069
  429SOL     OW 2185   2.899   5.184   1.222
  429SOL    HW1 2186   2.854   5.131   1.294
  429SOL    HW2 2187   2.858   5.275   1.216
  430SOL     OW 2188   0.759   6.631   3.850
  430SOL    HW1 2189   0.662   6.640   3.826
  430SOL    HW2 2190   0.769   6.561   3.921
  431SOL     OW 2191   3.533   0.889   0.232
  431SOL    HW1 2192   3.556   0.800   0.193
  431SOL    HW2 2193   3.438   0.888   0.264
  432SOL     OW 2194   6.633   2.631   0.913
  432SOL    HW1 2195   6.707   2.650   0.849
  432SOL    HW2 2196   6.593   2.542   0.893
  433SOL     OW 2197   2.868   6.733   3.512
  433SOL    HW1 2198   2.844   6.766   3.603
  433SOL    HW2 2199   2.803   6.663   3.483
  434SOL     OW 2200   5.064   4.982   1.586
  434SOL    HW1 2201   5.022   4.899   1.549
  434SOL    HW2 2202   5.082   5.047   1.512
  435SOL     OW 2203   3.659   2.544   5.353
  435SOL    HW1 2204   3.573   2.591   5.334
  435SOL    HW2 2205   3.730   2.611   5.371
  436SOL     OW 2206   2.108   6.561   1.180
  436SOL    HW1 2207   2.186   6.620   1.160
  436SOL    HW2 2208   2.052   6.552   1.098
  437SOL     OW 2209   0.446   0.044   6.607
  437SOL    HW1 2210   0.495   0.115   6.556
  437SOL    HW2 2211   0.348   0.053   6.591
  438SOL     OW 2212   1.285   3.089   2.174
  438SOL    HW1 2213   1.298   3.185   2.153
  438SOL    HW2 2214   1.359   3.035   2.134
  439SOL     OW 2215   6.225   4.241   3.522
  439SOL    HW1 2216   6.254   4.155   3.480
  439SOL    HW2 2217   6.302   4.282   3.571
  440SOL     OW 2218   0.997   2.041   4.645
  440SOL    HW1 2219   1.089   2.057   4.680
  440SOL    HW2 2220   0.998   2.046   4.545
  441SOL     OW 2221   0.680   1.885   3.128
  441SOL    HW1 2222   0.715   1.961   3.073
  441SOL    HW2 2223   0.726   1.800   3.103
  442SOL     OW 2224   2.209   4.975   0.103
  442SOL    HW1 2225   2.198   5.015   0.012
  442SOL    HW2 2226   2.155   4.891   0.109
  443SOL     OW 2227   1.270   4.025   4.884
  443SOL    HW1 2228   1.175   4.052   4.870
  443SOL    HW2 2229   1.300   3.969   4.807
  444SOL     OW 2230   5.220   2.064   5.989
  444SOL    HW1 2231   5.185   2.158   5.997
  444SOL    HW2 2232   5.230   2.025   6.080
  445SOL     OW 2233   1.565   5.736   3.301
  445SOL    HW1 2234   1.537   5.706   3.393
  445SOL    HW2 2235   1.664   5.751   3.300
  446SOL     OW 2236   4.045   4.820   3.221
  446SOL    HW1 2237   3.961   4.784   3.182
  446SOL    HW2 2238   4.114   4.830   3.148
  447SOL     OW 2239   0.338   3.409   0.044
  447SOL    HW1 2240   0.309   3.383   6.977
  447SOL    HW2 2241   0.349   3.328   0.100
  448SOL     OW 2242   3.476   0.623   4.859
  448SOL    HW1 2243   3.549   0.634   4.791
  448SOL    HW2 2244   3.475   0.703   4.919
  449SOL     OW 2245   4.473   0.926   5.198
  449SOL    HW1 2246   4.568   0.955   5.206
  449SOL    HW2 2247   4.468   0.843   5.142
  450SOL     OW 2248   0.860   6.106   3.007
  450SOL    HW1 2249   0.864   6.076   3.102
  450SOL    HW2 2250   0.857   6.206   3.004
  451SOL     OW 2251   1.702   2.140   2.856
  451SOL    HW1 2252   1.634   2.157   2.927
  451SOL    HW2 2253   1.758   2.222   2.843
  452SOL     OW 2254   6.137   5.793   0.570
  452SOL    HW1 2255   6.112   5.867   0.633
  452SOL    HW2 2256   6.056   5.737   0.551
  453SOL     OW 2257   3.130   0.192   4.986
  453SOL    HW1 2258   3.040   0.189   4.943
  453SOL    HW2 2259   3.168   0.100   4.990
  454SOL     OW 2260   0.168   5.411   6.126
  454SOL    HW1 2261   0.140   5.400   6.031
  454SOL    HW2 2262   0.222   5.495   6.135
  455SOL     OW 2263   0.016   0.754   4.353
  455SOL    HW1 2264   6.958   0.773   4.299
  455SOL    HW2 2265   0.095   0.794   4.307
  456SOL     OW 2266   4.403   5.811   4.481
  456SOL    HW1 2267   4.443   5.752   4.551
  456SOL    HW2 2268   4.305   5.821   4.497
  457SOL     OW 2269   2.013   3.782   3.260
  457SOL    HW1 2270   1.940   3.834   3.215
  457SOL    HW2 2271   2.051   3.716   3.195
  458SOL     OW 2272   4.911   6.228   4.517
  458SOL    HW1 2273   4.815   6.219   4.546
  458SOL    HW2 2274   4.958   6.141   4.530
  459SOL     OW 2275   1.270   0.544   4.082
  459SOL    HW1 2276   1.225   0.540   3.993
  459SOL    HW2 2277   1.368   0.561   4.069
  460SOL     OW 2278   1.108   0.908   2.405
  460SOL    HW1 2279   1.204   0.930   2.426
  460SOL    HW2 2280   1.068   0.983   2.353
  461SOL     OW 2281   5.923   6.628   4.866
  461SOL    HW1 2282   5.840   6.681   4.874
  461SOL    HW2 2283   5.967   6.648   4.778
  462SOL     OW 2284   4.152   2.171   6.016
  462SOL    HW1 2285   4.201   2.087   5.992
  462SOL    HW2 2286   4.054   2.155   6.007
  463SOL     OW 2287   6.257   6.258   3.138
  463SOL    HW1 2288   6.161   6.271   3.161
  463SOL    HW2 2289   6.277   6.160   3.132
  464SOL     OW 2290   2.918   2.081   6.224
  464SOL    HW1 2291   2.922   2.035   6.313
  464SOL    HW2 2292   3.007   2.119   6.202
  465SOL     OW 2293   1.496   2.298   4.651
  465SOL    HW1 2294   1.501   2.255   4.741
  465SOL    HW2 2295   1.434   2.247   4.593
  466SOL     OW 2296   0.882   5.697   2.981
  466SOL    HW1 2297   0.929   5.612   3.007
  466SOL    HW2 2298   0.808   5.676   2.919
  467SOL     OW 2299   1.206   0.739   6.328
  467SOL    HW1 2300   1.113   0.753   6.294
  467SOL    HW2 2301   1.210   0.654   6.380
  468SOL     OW 2302   2.879   6.471   0.442
  468SOL    HW1 2303   2.898   6.463   0.344
  468SOL    HW2 2304   2.914   6.390   0.489
  469SOL     OW 2305   2.517   4.557   0.704
  469SOL    HW1 2306   2.611   4.530   0.722
  469SOL    HW2 2307   2.515   4.642   0.652
  470SOL     OW 2308   3.589   0.490   2.328
  470SOL    HW1 2309   3.524   0.564   2.347
  470SOL    HW2 2310   3.661   0.491   2.396
  471SOL     OW 2311   1.753   2.166   4.617
  471SOL    HW1 2312   1.798   2.213   4.693
  471SOL    HW2 2313   1.662   2.204   4.605
  472SOL     OW 2314   4.923   3.755   6.799
  472SOL    HW1 2315   4.912   3.669   6.847
  472SOL    HW2 2316   4.947   3.737   6.703
  473SOL     OW 2317   0.676   3.207   1.471
  473SOL    HW1 2318   0.604   3.214   1.402
  473SOL    HW2 2319   0.757   3.256   1.440
  474SOL     OW 2320   4.636   4.983   3.800
  474SOL    HW1 2321   4.563   5.051   3.798
  474SOL    HW2 2322   4.692   4.991   3.718
  475SOL     OW 2323   6.053   1.205   6.212
  475SOL    HW1 2324   6.026   1.110   6.223
  475SOL    HW2 2325   5.971   1.263   6.213
  476SOL     OW 2326   0.709   4.280   2.220
  476SOL    HW1 2327   0.694   4.333   2.304
  476SOL    HW2 2328   0.645   4.203   2.217
  477SOL     OW 2329   2.336   4.694   5.153
  477SOL    HW1 2330   2.293   4.706   5.064
  477SOL    HW2 2331   2.404   4.621   5.148
  478SOL     OW 2332   3.109   6.693   2.398
  478SOL    HW1 2333   3.177   6.728   2.462
  478SOL    HW2 2334   3.104   6.593   2.406
  479SOL     OW 2335   4.380   2.292   6.912
  479SOL    HW1 2336   4.349   2.386   6.899
  479SOL    HW2 2337   4.310   2.241   6.962
  480SOL     OW 2338   2.182   0.780   0.484
  480SOL    HW1 2339   2.246   0.844   0.525
  480SOL    HW2 2340   2.209   0.686   0.506
  481SOL     OW 2341   1.762   0.126   6.865
  481SOL    HW1 2342   1.752   0.052   6.931
  481SOL    HW2 2343   1.759   0.214   6.913
  482SOL     OW 2344   4.498   5.096   2.877
  482SOL    HW1 2345   4.559   5.159   2.830
  482SOL    HW2 2346   4.446   5.043   2.809
  483SOL     OW 2347   6.494   1.542   2.051
  483SOL    HW1 2348   6.590   1.536   2.022
  483SOL    HW2 2349   6.489   1.583   2.142
  484SOL     OW 2350   0.767   2.873   5.235
  484SOL    HW1 2351   0.731   2.804   5.297
  484SOL    HW2 2352   0.866   2.864   5.228
  485SOL     OW 2353   4.436   5.678   2.205
  485SOL    HW1 2354   4.426   5.586   2.168
  485SOL    HW2 2355   4.533   5.694   2.228
  486SOL     OW 2356   7.001   1.156   1.098
  486SOL    HW1 2357   0.003   1.094   1.172
  486SOL    HW2 2358   6.903   1.178   1.107
  487SOL     OW 2359   0.960   2.132   0.688
  487SOL    HW1 2360   1.033   2.132   0.619
  487SOL    HW2 2361   1.000   2.148   0.778
  488SOL     OW 2362   0.533   1.296   1.433
  488SOL    HW1 2363   0.483   1.250   1.507
  488SOL    HW2 2364   0.473   1.310   1.355
  489SOL     OW 2365   3.346   6.456   6.510
  489SOL    HW1 2366   3.441   6.486   6.500
  489SOL    HW2 2367   3.288   6.535   6.526
  490SOL     OW 2368   6.843   6.208   3.361
  490SOL    HW1 2369   6.916   6.147   3.391
  490SOL    HW2 2370   6.871   6.303   3.375
  491SOL     OW 2371   0.282   3.184   2.541
  491SOL    HW1 2372   0.268   3.116   2.613
  491SOL    HW2 2373   0.199   3.191   2.485
  492SOL     OW 2374   3.180   0.423   4.661
  492SOL    HW1 2375   3.152   0.505   4.712
  492SOL    HW2 2376   3.144   0.428   4.568
  493SOL     OW 2377   5.658   6.420   5.095
  493SOL    HW1 2378   5.739   6.363   5.087
  493SOL    HW2 2379   5.685   6.512   5.125
  494SOL     OW 2380   0.296   0.099   0.029
  494SOL    HW1 2381   0.244   0.027   0.074
  494SOL    HW2 2382   0.394   0.083   0.042
  495SOL     OW 2383   5.182   6.056   3.287
  495SOL    HW1 2384   5.154   6.004   3.368
  495SOL    HW2 2385   5.102   6.101   3.248
  496SOL     OW 2386   5.307   3.705   2.602
  496SOL    HW1 2387   5.300   3.638   2.528
  496SOL    HW2 2388   5.273   3.793   2.570
  497SOL     OW 2389   3.424   1.449   5.161
  497SOL    HW1 2390   3.499   1.400   5.116
  497SOL    HW2 2391   3.344   1.450   5.101
  498SOL     OW 2392   1.585   3.931   1.558
  498SOL    HW1 2393   1.536   3.946   1.472
  498SOL    HW2 2394   1.648   3.854   1.547
  499SOL     OW 2395   3.166   0.349   4.334
  499SOL    HW1 2396   3.119   0.294   4.264
  499SOL    HW2 2397   3.102   0.415   4.373
  500SOL     OW 2398   1.066   3.470   2.491
  500SOL    HW1 2399   1.049   3.402   2.420
  500SOL    HW2 2400   1.162   3.468   2.517
  501SOL     OW 2401   2.969   0.007   0.349
  501SOL    HW1 2402   3.003   6.938   0.343
  501SOL    HW2 2403   3.020   0.056   0.420
  502SOL     OW 2404   6.747   4.512   6.514
  502SOL    HW1 2405   6.821   4.467   6.565
  502SOL    HW2 2406   6.760   4.495   6.416
  503SOL     OW 2407   5.609   5.670   5.797
  503SOL    HW1 2408   5.568   5.626   5.717
  503SOL    HW2 2409   5.583   5.767   5.799
  504SOL     OW 2410   2.275   5.581   3.139
  504SOL    HW1 2411   2.257   5.521   3.061
  504SOL    HW2 2412   2.215   5.660   3.135
  505SOL     OW 2413   3.685   6.247   5.427
  505SOL    HW1 2414   3.677   6.160   5.378
  505SOL    HW2 2415   3.622   6.314   5.387
  506SOL     OW 2416   1.354   5.384   4.664
  506SOL    HW1 2417   1.295   5.462   4.644
  506SOL    HW2 2418   1.372   5.380   4.762
  507SOL     OW 2419   3.139   0.863   3.750
  507SOL    HW1 2420   3.234   0.831   3.753
  507SOL    HW2 2421   3.102   0.865   3.842
  508SOL     OW 2422   6.321   3.489   2.801
  508SOL    HW1 2423   6.257   3.541   2.745
  508SOL    HW2 2424   6.271   3.424   2.857
  509SOL     OW 2425   2.860   0.797   0.681
  509SOL    HW1 2426   2.928   0.723   0.687
  509SOL    HW2 2427   2.795   0.788   0.756
  510SOL     OW 2428   6.678   4.856   5.680
  510SOL    HW1 2429   6.658   4.766   5.720
  510SOL    HW2 2430   6.707   4.919   5.752
  511SOL     OW 2431   0.003   6.716   6.558
  511SOL    HW1 2432   0.084   6.708   6.616
  511SOL    HW2 2433   0.012   6.795   6.498
  512SOL     OW 2434   0.500   2.676   0.399
  512SOL    HW1 2435   0.503   2.771   0.431
  512SOL    HW2 2436   0.408   2.655   0.367
  513SOL     OW 2437   5.637   6.378   2.932
  513SOL    HW1 2438   5.578   6.355   3.009
  513SOL    HW2 2439   5.653   6.297   2.876
  514SOL     OW 2440   6.875   2.827   3.593
  514SOL    HW1 2441   6.849   2.734   3.621
  514SOL    HW2 2442   6.941   2.822   3.519
  515SOL     OW 2443   1.893   0.885   6.630
  515SOL    HW1 2444   1.950   0.839   6.563
  515SOL    HW2 2445   1.801   0.847   6.628
  516SOL     OW 2446   2.929   4.740   1.733
  516SOL    HW1 2447   2.899   4.676   1.803
  516SOL    HW2 2448   3.011   4.705   1.687
  517SOL     OW 2449   4.784   5.932   1.720
  517SOL    HW1 2450   4.869   5.977   1.747
  517SOL    HW2 2451   4.707   5.978   1.765
  518SOL     OW 2452   3.042   2.180   2.565
  518SOL    HW1 2453   2.957   2.221   2.530
  518SOL    HW2 2454   3.114   2.191   2.497
  519SOL     OW 2455   0.418   0.799   4.791
  519SOL    HW1 2456   0.440   0.848   4.707
  519SOL    HW2 2457   0.483   0.825   4.863
  520SOL     OW 2458   6.253   4.932   0.045
  520SOL    HW1 2459   6.290   5.021   0.017
  520SOL    HW2 2460   6.191   4.944   0.122
  521SOL     OW 2461   6.503   3.059   6.713
  521SOL    HW1 2462   6.430   3.095   6.655
  521SOL    HW2 2463   6.464   3.001   6.784
  522SOL     OW 2464   3.598   3.526   5.372
  522SOL    HW1 2465   3.505   3.494   5.350
  522SOL    HW2 2466   3.661   3.496   5.300
  523SOL     OW 2467   0.629   4.571   2.385
  523SOL    HW1 2468   0.662   4.494   2.439
  523SOL    HW2 2469   0.663   4.656   2.425
  524SOL     OW 2470   1.684   1.039   6.998
  524SOL    HW1 2471   1.707   1.136   6.995
  524SOL    HW2 2472   1.760   0.986   6.961
  525SOL     OW 2473   2.619   3.791   6.885
  525SOL    HW1 2474   2.635   3.890   6.882
  525SOL    HW2 2475   2.536   3.772   6.938
  526SOL     OW 2476   2.801   0.290   4.469
  526SOL    HW1 2477   2.774   0.375   4.424
  526SOL    HW2 2478   2.822   0.221   4.400
  527SOL     OW 2479   5.929   3.130   5.867
  527SOL    HW1 2480   5.859   3.182   5.916
  527SOL    HW2 2481   6.011   3.122   5.923
  528SOL     OW 2482   0.787   2.115   4.379
  528SOL    HW1 2483   0.844   2.100   4.299
  528SOL    HW2 2484   0.811   2.202   4.421
  529SOL     OW 2485   0.931   5.862   4.306
  529SOL    HW1 2486   1.012   5.896   4.352
  529SOL    HW2 2487   0.951   5.848   4.209
  530SOL     OW 2488   2.671   3.003   5.390
  530SOL    HW1 2489   2.611   3.030   5.315
  530SOL    HW2 2490   2.704   2.910   5.375
  531SOL     OW 2491   6.977   0.434   1.954
  531SOL    HW1 2492   7.024   0.346   1.949
  531SOL    HW2 2493   6.946   0.462   1.863
  532SOL     OW 2494   0.943   2.210   6.845
  532SOL    HW1 2495   0.967   2.132   6.786
  532SOL    HW2 2496   0.844   2.213   6.857
  533SOL     OW 2497   3.705   6.146   3.970
  533SOL    HW1 2498   3.677   6.242   3.963
  533SOL    HW2 2499   3.624   6.087   3.969
  534SOL     OW 2500   5.235   5.014   3.490
  534SOL    HW1 2501   5.313   4.998   3.430
  534SOL    HW2 2502   5.245   5.103   3.535
  535SOL     OW 2503   1.119   3.836   4.578
  535SOL    HW1 2504   1.071   3.895   4.643
  535SOL    HW2 2505   1.215   3.863   4.573
  536SOL     OW 2506   0.273   4.781   2.152
  536SOL    HW1 2507   0.193   4.755   2.099
  536SOL    HW2 2508   0.330   4.843   2.098
  537SOL     OW 2509   1.659   6.578   3.689
  537SOL    HW1 2510   1.655   6.485   3.653
  537SOL    HW2 2511   1.566   6.614   3.700
  538SOL     OW 2512   2.217   5.301   3.825
  538SOL    HW1 2513   2.171   5.390   3.822
  538SOL    HW2 2514   2.169   5.241   3.890
  539SOL     OW 2515   0.562   5.921   0.133
  539SOL    HW1 2516   0.531   5.871   0.214
  539SOL    HW2 2517   0.580   5.857   0.059
  540SOL     OW 2518   6.964   1.036   2.069
  540SOL    HW1 2519   6.955   0.962   2.136
  540SOL    HW2 2520   0.015   1.015   2.007
  541SOL     OW 2521   3.043   6.857   4.716
  541SOL    HW1 2522   3.040   6.799   4.798
  541SOL    HW2 2523   3.003   6.808   4.639
  542SOL     OW 2524   6.902   0.493   0.494
  542SOL    HW1 2525   6.935   0.400   0.510
  542SOL    HW2 2526   6.898   0.543   0.580
  543SOL     OW 2527   0.775   5.298   5.420
  543SOL    HW1 2528   0.754   5.201   5.410
  543SOL    HW2 2529   0.696   5.352   5.391
  544SOL     OW 2530   2.004   4.144   1.123
  544SOL    HW1 2531   2.020   4.234   1.165
  544SOL    HW2 2532   2.010   4.073   1.193
  545SOL     OW 2533   3.262   1.397   3.373
  545SOL    HW1 2534   3.296   1.462   3.441
  545SOL    HW2 2535   3.170   1.425   3.344
  546SOL     OW 2536   1.436   3.230   0.664
  546SOL    HW1 2537   1.511   3.251   0.726
  546SOL    HW2 2538   1.402   3.315   0.623
  547SOL     OW 2539   3.067   1.173   6.378
  547SOL    HW1 2540   3.138   1.217   6.432
  547SOL    HW2 2541   3.024   1.100   6.431
  548SOL     OW 2542   3.610   2.838   2.979
  548SOL    HW1 2543   3.670   2.883   2.913
  548SOL    HW2 2544   3.524   2.813   2.934
  549SOL     OW 2545   4.556   3.422   1.634
  549SOL    HW1 2546   4.634   3.443   1.575
  549SOL    HW2 2547   4.473   3.462   1.596
  550SOL     OW 2548   6.608   4.030   3.619
  550SOL    HW1 2549   6.696   3.984   3.609
  550SOL    HW2 2550   6.582   4.072   3.532
  551SOL     OW 2551   6.781   1.001   1.189
  551SOL    HW1 2552   6.773   1.100   1.201
  551SOL    HW2 2553   6.725   0.973   1.111
  552SOL     OW 2554   4.499   5.083   0.649
  552SOL    HW1 2555   4.447   5.012   0.600
  552SOL    HW2 2556   4.466   5.173   0.621
  553SOL     OW 2557   1.983   0.169   1.817
  553SOL    HW1 2558   1.919   0.178   1.893
  553SOL    HW2 2559   1.981   0.075   1.783
  554SOL     OW 2560   4.854   6.611   6.263
  554SOL    HW1 2561   4.765   6.580   6.297
  554SOL    HW2 2562   4.914   6.532   6.250
  555SOL     OW 2563   2.483   5.105   4.245
  555SOL    HW1 2564   2.384   5.122   4.252
  555SOL    HW2 2565   2.518   5.146   4.161
  556SOL     OW 2566   6.379   2.224   4.457
  556SOL    HW1 2567   6.387   2.175   4.370
  556SOL    HW2 2568   6.348   2.318   4.440
  557SOL     OW 2569   0.488   5.512   6.365
  557SOL    HW1 2570   0.493   5.575   6.443
  557SOL    HW2 2571   0.433   5.552   6.293
  558SOL     OW 2572   3.744   3.976   4.393
  558SOL    HW1 2573   3.683   4.042   4.437
  558SOL    HW2 2574   3.729   3.886   4.434
  559SOL     OW 2575   5.907   6.176   0.056
  559SOL    HW1 2576   6.005   6.173   0.039
  559SOL    HW2 2577   5.889   6.227   0.140
  560SOL     OW 2578   4.006   6.508   0.667
  560SOL    HW1 2579   4.031   6.583   0.606
  560SOL    HW2 2580   4.075   6.499   0.739
  561SOL     OW 2581   6.474   0.279   6.895
  561SOL    HW1 2582   6.390   0.230   6.870
  561SOL    HW2 2583   6.502   0.253   6.987
  562SOL     OW 2584   4.701   0.330   6.755
  562SOL    HW1 2585   4.636   0.392   6.797
  562SOL    HW2 2586   4.708   0.246   6.810
  563SOL     OW 2587   2.832   0.157   3.152
  563SOL    HW1 2588   2.767   0.233   3.154
  563SOL    HW2 2589   2.921   0.190   3.182
  564SOL     OW 2590   2.867   2.510   6.210
  564SOL    HW1 2591   2.785   2.480   6.258
  564SOL    HW2 2592   2.865   2.477   6.115
  565SOL     OW 2593   4.242   3.151   5.383
  565SOL    HW1 2594   4.156   3.119   5.422
  565SOL    HW2 2595   4.247   3.251   5.389
  566SOL     OW 2596   5.033   4.050   3.637
  566SOL    HW1 2597   4.988   3.960   3.642
  566SOL    HW2 2598   5.074   4.062   3.547
  567SOL     OW 2599   2.939   3.726   3.592
  567SOL    HW1 2600   2.950   3.800   3.526
  567SOL    HW2 2601   2.987   3.644   3.558
  568SOL     OW 2602   3.551   2.341   1.017
  568SOL    HW1 2603   3.620   2.328   1.087
  568SOL    HW2 2604   3.592   2.325   0.927
  569SOL     OW 2605   1.550   3.119   0.258
  569SOL    HW1 2606   1.469   3.092   0.311
  569SOL    HW2 2607   1.624   3.144   0.320
  570SOL     OW 2608   1.882   6.711   6.364
  570SOL    HW1 2609   1.788   6.681   6.352
  570SOL    HW2 2610   1.933   6.698   6.279
  571SOL     OW 2611   3.777   6.670   2.920
  571SOL    HW1 2612   3.706   6.731   2.882
  571SOL    HW2 2613   3.841   6.645   2.847
  572SOL     OW 2614   2.988   5.071   5.823
  572SOL    HW1 2615   2.970   5.169   5.831
  572SOL    HW2 2616   3.080   5.057   5.787
  573SOL     OW 2617   3.905   2.136   5.020
  573SOL    HW1 2618   3.998   2.150   4.987
  573SOL    HW2 2619   3.891   2.040   5.042
  574SOL     OW 2620   2.007   2.232   3.978
  574SOL    HW1 2621   1.955   2.298   4.031
  574SOL    HW2 2622   2.034   2.273   3.891
  575SOL     OW 2623   6.150   3.978   6.290
  575SOL    HW1 2624   6.173   3.889   6.331
  575SOL    HW2 2625   6.098   3.963   6.206
  576SOL     OW 2626   1.838   1.994   1.965
  576SOL    HW1 2627   1.821   2.042   2.051
  576SOL    HW2 2628   1.779   2.030   1.893
  577SOL     OW 2629   2.054   1.677   3.577
  577SOL    HW1 2630   2.080   1.748   3.642
  577SOL    HW2 2631   2.105   1.690   3.492
  578SOL     OW 2632   6.757   3.151   3.917
  578SOL    HW1 2633   6.787   3.082   3.850
  578SOL    HW2 2634   6.829   3.219   3.929
  579SOL     OW 2635   3.312   2.275   1.196
  579SOL    HW1 2636   3.232   2.277   1.137
  579SOL    HW2 2637   3.394   2.295   1.142
  580SOL     OW 2638   0.618   4.630   6.096
  580SOL    HW1 2639   0.641   4.553   6.035
  580SOL    HW2 2640   0.521   4.626   6.118
  581SOL     OW 2641   3.089   3.174   2.744
  581SOL    HW1 2642   3.175   3.224   2.735
  581SOL    HW2 2643   3.023   3.211   2.679
  582SOL     OW 2644   5.836   5.059   2.342
  582SOL    HW1 2645   5.747   5.032   2.379
  582SOL    HW2 2646   5.851   5.013   2.255
  583SOL     OW 2647   2.857   4.807   6.600
  583SOL    HW1 2648   2.908   4.781   6.517
  583SOL    HW2 2649   2.791   4.735   6.622
  584SOL     OW 2650   0.575   5.221   5.787
  584SOL    HW1 2651   0.671   5.215   5.813
  584SOL    HW2 2652   0.551   5.145   5.727
  585SOL     OW 2653   6.500   2.727   6.285
  585SOL    HW1 2654   6.513   2.776   6.371
  585SOL    HW2 2655   6.580   2.741   6.226
  586SOL     OW 2656   3.416   7.000   0.332
  586SOL    HW1 2657   3.389   0.071   0.339
  586SOL    HW2 2658   3.424   6.974   0.236
  587SOL     OW 2659   1.926   2.260   5.319
  587SOL    HW1 2660   1.916   2.355   5.348
  587SOL    HW2 2661   1.993   2.214   5.378
  588SOL     OW 2662   3.479   6.507   1.395
  588SOL    HW1 2663   3.494   6.538   1.489
  588SOL    HW2 2664   3.460   6.586   1.337
  589SOL     OW 2665   4.038   5.081   1.874
  589SOL    HW1 2666   3.990   5.164   1.846
  589SOL    HW2 2667   3.978   5.026   1.933
  590SOL     OW 2668   6.754   3.056   2.125
  590SOL    HW1 2669   6.750   3.062   2.025
  590SOL    HW2 2670   6.758   3.148   2.164
  591SOL     OW 2671   3.872   6.996   3.917
  591SOL    HW1 2672   3.828   6.975   3.829
  591SOL    HW2 2673   3.896   0.068   3.919
  592SOL     OW 2674   4.338   0.794   0.638
  592SOL    HW1 2675   4.351   0.695   0.651
  592SOL    HW2 2676   4.240   0.814   0.632
  593SOL     OW 2677   4.371   1.930   3.893
  593SOL    HW1 2678   4.335   1.977   3.974
  593SOL    HW2 2679   4.470   1.920   3.901
  594SOL     OW 2680   4.147   2.828   6.596
  594SOL    HW1 2681   4.141   2.901   6.528
  594SOL    HW2 2682   4.157   2.867   6.687
  595SOL     OW 2683   4.653   6.723   4.008
  595SOL    HW1 2684   4.660   6.628   4.039
  595SOL    HW2 2685   4.646   6.725   3.908
  596SOL     OW 2686   1.123   4.164   1.544
  596SOL    HW1 2687   1.179   4.188   1.623
  596SOL    HW2 2688   1.182   4.138   1.468
  597SOL     OW 2689   4.052   6.432   6.056
  597SOL    HW1 2690   4.083   6.519   6.095
  597SOL    HW2 2691   3.966   6.446   6.008
  598SOL     OW 2692   3.352   4.085   0.742
  598SOL    HW1 2693   3.297   4.121   0.817
  598SOL    HW2 2694   3.298   4.088   0.658
  599SOL     OW 2695   0.611   0.931   2.863
  599SOL    HW1 2696   0.541   0.870   2.826
  599SOL    HW2 2697   0.580   1.026   2.855
  600SOL     OW 2698   0.545   6.900   0.628
  600SOL    HW1 2699   0.458   6.948   0.613
  600SOL    HW2 2700   0.592   6.941   0.706
  601SOL     OW 2701   3.058   5.863   3.111
  601SOL    HW1 2702   3.103   5.810   3.038
  601SOL    HW2 2703   3.005   5.937   3.070
  602SOL     OW 2704   0.840   1.159   0.646
  602SOL    HW1 2705   0.936   1.167   0.673
  602SOL    HW2 2706   0.830   1.082   0.583
  603SOL     OW 2707   3.963   1.614   4.025
  603SOL    HW1 2708   3.938   1.576   3.936
  603SOL    HW2 2709   3.964   1.713   4.019
  604SOL     OW 2710   0.915   3.080   0.469
  604SOL    HW1 2711   1.012   3.076   0.446
  604SOL    HW2 2712   0.904   3.095   0.567
  605SOL     OW 2713   6.717   5.900   3.384
  605SOL    HW1 2714   6.776   5.819   3.383
  605SOL    HW2 2715   6.692   5.924   3.289
  606SOL     OW 2716   4.637   0.528   5.720
  606SOL    HW1 2717   4.636   0.574   5.809
  606SOL    HW2 2718   4.728   0.490   5.703
  607SOL     OW 2719   5.717   1.106   4.417
  607SOL    HW1 2720   5.792   1.109   4.483
  607SOL    HW2 2721   5.644   1.047   4.453
  608SOL     OW 2722   3.311   6.834   0.548
  608SOL    HW1 2723   3.355   6.856   0.461
  608SOL    HW2 2724   3.246   6.759   0.535
  609SOL     OW 2725   3.313   3.210   4.769
  609SOL    HW1 2726   3.274   3.199   4.860
  609SOL    HW2 2727   3.392   3.151   4.758
  610SOL     OW 2728   5.836   2.143   2.757
  610SOL    HW1 2729   5.803   2.144   2.852
  610SOL    HW2 2730   5.758   2.132   2.695
  611SOL     OW 2731   0.530   0.723   0.173
  611SOL    HW1 2732   0.445   0.755   0.130
  611SOL    HW2 2733   0.597   0.701   0.102
  612SOL     OW 2734   3.362   5.853   5.960
  612SOL    HW1 2735   3.382   5.771   5.906
  612SOL    HW2 2736   3.316   5.827   6.044
  613SOL     OW 2737   4.260   1.185   5.345
  613SOL    HW1 2738   4.300   1.277   5.343
  613SOL    HW2 2739   4.319   1.124   5.398
  614SOL     OW 2740   6.038   5.188   1.272
  614SOL    HW1 2741   6.039   5.249   1.193
  614SOL    HW2 2742   6.100   5.111   1.256
  615SOL     OW 2743   1.032   0.540   6.737
  615SOL    HW1 2744   0.968   0.576   6.806
  615SOL    HW2 2745   1.103   0.487   6.783
  616SOL     OW 2746   6.016   1.874   3.747
  616SOL    HW1 2747   5.994   1.786   3.705
  616SOL    HW2 2748   5.981   1.948   3.691
  617SOL     OW 2749   0.485   4.578   6.630
  617SOL    HW1 2750   0.502   4.600   6.534
  617SOL    HW2 2751   0.464   4.661   6.681
  618SOL     OW 2752   5.867   3.512   1.327
  618SOL    HW1 2753   5.963   3.485   1.327
  618SOL    HW2 2754   5.819   3.465   1.401
  619SOL     OW 2755   3.453   6.657   6.801
  619SOL    HW1 2756   3.415   6.665   6.709
  619SOL    HW2 2757   3.497   6.742   6.827
  620SOL     OW 2758   5.806   3.469   1.725
  620SOL    HW1 2759   5.730   3.534   1.731
  620SOL    HW2 2760   5.893   3.518   1.732
  621SOL     OW 2761   2.607   0.178   4.953
  621SOL    HW1 2762   2.542   0.112   4.914
  621SOL    HW2 2763   2.621   0.157   5.050
  622SOL     OW 2764   0.539   2.615   5.639
  622SOL    HW1 2765   0.462   2.554   5.620
  622SOL    HW2 2766   0.598   2.574   5.709
  623SOL     OW 2767   6.378   6.701   4.985
  623SOL    HW1 2768   6.292   6.651   4.990
  623SOL    HW2 2769   6.445   6.647   4.933
  624SOL     OW 2770   6.616   1.226   0.091
  624SOL    HW1 2771   6.658   1.137   0.110
  624SOL    HW2 2772   6.568   1.258   0.173
  625SOL     OW 2773   1.984   0.752   0.291
  625SOL    HW1 2774   2.050   0.755   0.366
  625SOL    HW2 2775   2.025   0.793   0.209
  626SOL     OW 2776   1.303   5.467   3.154
  626SOL    HW1 2777   1.366   5.392   3.174
  626SOL    HW2 2778   1.351   5.539   3.104
  627SOL     OW 2779   6.568   6.124   0.345
  627SOL    HW1 2780   6.602   6.090   0.433
  627SOL    HW2 2781   6.600   6.218   0.331
  628SOL     OW 2782   5.403   3.817   5.040
  628SOL    HW1 2783   5.426   3.756   5.115
  628SOL    HW2 2784   5.485   3.866   5.010
  629SOL     OW 2785   0.295   1.369   0.036
  629SOL    HW1 2786   0.359   1.293   0.024
  629SOL    HW2 2787   0.321   1.443   6.999
  630SOL     OW 2788   6.380   0.849   0.729
  630SOL    HW1 2789   6.322   0.867   0.808
  630SOL    HW2 2790   6.360   0.915   0.657
  631SOL     OW 2791   2.549   2.205   4.558
  631SOL    HW1 2792   2.591   2.115   4.555
  631SOL    HW2 2793   2.452   2.198   4.533
  632SOL     OW 2794   4.852   2.888   0.583
  632SOL    HW1 2795   4.888   2.978   0.558
  632SOL    HW2 2796   4.778   2.863   0.521
  633SOL     OW 2797   2.225   5.042   1.180
  633SOL    HW1 2798   2.128   5.019   1.167
  633SOL    HW2 2799   2.251   5.025   1.275
  634SOL     OW 2800   3.600   3.445   3.238
  634SOL    HW1 2801   3.533   3.404   3.176
  634SOL    HW2 2802   3.660   3.374   3.274
  635SOL     OW 2803   4.638   0.655   0.207
  635SOL    HW1 2804   4.564   0.592   0.182
  635SOL    HW2 2805   4.616   0.699   0.294
  636SOL     OW 2806   3.378   0.328   4.869
  636SOL    HW1 2807   3.305   0.323   4.800
  636SOL    HW2 2808   3.397   0.424   4.889
  637SOL     OW 2809   6.026   1.693   2.774
  637SOL    HW1 2810   6.054   1.774   2.722
  637SOL    HW2 2811   5.934   1.666   2.747
  638SOL     OW 2812   5.751   3.475   3.958
  638SOL    HW1 2813   5.731   3.542   3.886
  638SOL    HW2 2814   5.764   3.523   4.045
  639SOL     OW 2815   5.452   4.974   3.305
  639SOL    HW1 2816   5.410   5.036   3.238
  639SOL    HW2 2817   5.549   4.994   3.312
  640SOL     OW 2818   0.284   3.474   3.296
  640SOL    HW1 2819   0.361   3.505   3.352
  640SOL    HW2 2820   0.246   3.551   3.246
  641SOL     OW 2821   1.613   4.551   5.385
  641SOL    HW1 2822   1.594   4.520   5.478
  641SOL    HW2 2823   1.625   4.472   5.325
  642SOL     OW 2824   1.023   3.179   4.594
  642SOL    HW1 2825   0.934   3.133   4.593
  642SOL    HW2 2826   1.018   3.261   4.538
  643SOL     OW 2827   6.726   6.540   0.057
  643SOL    HW1 2828   6.771   6.579   7.002
  643SOL    HW2 2829   6.647   6.486   0.028
  644SOL     OW 2830   0.401   0.553   4.705
  644SOL    HW1 2831   0.484   0.564   4.650
  644SOL    HW2 2832   0.381   0.639   4.753
  645SOL     OW 2833   3.164   4.837   3.067
  645SOL    HW1 2834   3.239   4.775   3.087
  645SOL    HW2 2835   3.097   4.835   3.142
  646SOL     OW 2836   4.044   0.890   4.717
  646SOL    HW1 2837   3.995   0.846   4.641
  646SOL    HW2 2838   3.993   0.969   4.749
  647SOL     OW 2839   4.755   1.991   4.675
  647SOL    HW1 2840   4.704   2.076   4.661
  647SOL    HW2 2841   4.849   2.013   4.702
  648SOL     OW 2842   6.294   2.798   3.479
  648SOL    HW1 2843   6.293   2.702   3.449
  648SOL    HW2 2844   6.255   2.855   3.407
  649SOL     OW 2845   2.177   4.225   0.282
  649SOL    HW1 2846   2.224   4.309   0.254
  649SOL    HW2 2847   2.089   4.249   0.323
  650SOL     OW 2848   6.454   5.494   0.601
  650SOL    HW1 2849   6.538   5.447   0.624
  650SOL    HW2 2850   6.474   5.588   0.572
  651SOL     OW 2851   1.899   0.473   6.012
  651SOL    HW1 2852   1.979   0.515   5.968
  651SOL    HW2 2853   1.816   0.504   5.966
  652SOL     OW 2854   3.996   6.875   1.617
  652SOL    HW1 2855   4.058   6.797   1.612
  652SOL    HW2 2856   4.048   6.958   1.638
  653SOL     OW 2857   0.636   6.536   0.409
  653SOL    HW1 2858   0.593   6.544   0.320
  653SOL    HW2 2859   0.700   6.459   0.408
  654SOL     OW 2860   0.153   6.177   5.629
  654SOL    HW1 2861   0.090   6.237   5.579
  654SOL    HW2 2862   0.194   6.112   5.566
  655SOL     OW 2863   7.018   5.286   2.004
  655SOL    HW1 2864   0.046   5.350   1.948
  655SOL    HW2 2865   6.942   5.249   1.950
  656SOL     OW 2866   2.991   6.315   1.009
  656SOL    HW1 2867   2.963   6.324   1.104
  656SOL    HW2 2868   2.916   6.274   0.956
  657SOL     OW 2869   2.814   3.161   1.466
  657SOL    HW1 2870   2.781   3.083   1.519
  657SOL    HW2 2871   2.834   3.237   1.527
  658SOL     OW 2872   1.624   4.400   4.674
  658SOL    HW1 2873   1.703   4.352   4.635
  658SOL    HW2 2874   1.577   4.340   4.739
  659SOL     OW 2875   2.944   5.772   5.115
  659SOL    HW1 2876   2.859   5.771   5.168
  659SOL    HW2 2877   2.983   5.679   5.112
  660SOL     OW 2878   4.653   5.218   2.440
  660SOL    HW1 2879   4.652   5.138   2.501
  660SOL    HW2 2880   4.747   5.239   2.415
  661SOL     OW 2881   5.024   4.147   4.516
  661SOL    HW1 2882   5.071   4.066   4.551
  661SOL    HW2 2883   5.088   4.203   4.464
  662SOL     OW 2884   4.340   2.123   6.683
  662SOL    HW1 2885   4.339   2.160   6.776
  662SOL    HW2 2886   4.405   2.175   6.628
  663SOL     OW 2887   0.362   5.236   6.527
  663SOL    HW1 2888   0.350   5.252   6.429
  663SOL    HW2 2889   0.460   5.237   6.550
  664SOL     OW 2890   2.106   5.577   7.024
  664SOL    HW1 2891   2.127   5.505   0.066
  664SOL    HW2 2892   2.105   5.666   0.046
  665SOL     OW 2893   4.143   5.269   1.532
  665SOL    HW1 2894   4.065   5.208   1.548
  665SOL    HW2 2895   4.127   5.357   1.576
  666SOL     OW 2896   3.451   1.653   0.361
  666SOL    HW1 2897   3.376   1.692   0.413
  666SOL    HW2 2898   3.469   1.709   0.280
  667SOL     OW 2899   7.004   2.783   4.435
  667SOL    HW1 2900   6.928   2.848   4.425
  667SOL    HW2 2901   0.065   2.827   4.409
  668SOL     OW 2902   4.337   5.796   6.918
  668SOL    HW1 2903   4.338   5.699   6.944
  668SOL    HW2 2904   4.277   5.808   6.839
  669SOL     OW 2905   1.719   6.955   3.191
  669SOL    HW1 2906   1.631   7.000   3.177
  669SOL    HW2 2907   1.730   6.882   3.124
  670SOL     OW 2908   2.979   3.732   3.285
  670SOL    HW1 2909   3.044   3.758   3.356
  670SOL    HW2 2910   2.988   3.794   3.207
  671SOL     OW 2911   2.344   5.859   6.250
  671SOL    HW1 2912   2.326   5.955   6.229
  671SOL    HW2 2913   2.355   5.808   6.164
  672SOL     OW 2914   0.915   3.591   3.715
  672SOL    HW1 2915   1.008   3.603   3.751
  672SOL    HW2 2916   0.912   3.620   3.620
  673SOL     OW 2917   4.676   6.825   6.852
  673SOL    HW1 2918   4.669   6.766   6.932
  673SOL    HW2 2919   4.752   6.794   6.794
  674SOL     OW 2920   0.585   2.873   4.353
  674SOL    HW1 2921   0.584   2.951   4.289
  674SOL    HW2 2922   0.502   2.819   4.340
  675SOL     OW 2923   1.231   2.068   4.798
  675SOL    HW1 2924   1.316   2.015   4.796
  675SOL    HW2 2925   1.237   2.138   4.869
  676SOL     OW 2926   3.032   4.892   4.356
  676SOL    HW1 2927   3.034   4.887   4.456
  676SOL    HW2 2928   2.949   4.849   4.323
  677SOL     OW 2929   5.732   0.567   0.005
  677SOL    HW1 2930   5.716   0.499   6.959
  677SOL    HW2 2931   5.753   0.655   6.988
  678SOL     OW 2932   2.652   1.642   5.305
  678SOL    HW1 2933   2.607   1.692   5.231
  678SOL    HW2 2934   2.646   1.697   5.389
  679SOL     OW 2935   4.183   1.572   4.206
  679SOL    HW1 2936   4.223   1.663   4.218
  679SOL    HW2 2937   4.114   1.576   4.133
  680SOL     OW 2938   5.958   4.578   6.051
  680SOL    HW1 2939   5.967   4.541   5.959
  680SOL    HW2 2940   5.898   4.520   6.106
  681SOL     OW 2941   6.698   6.575   0.708
  681SOL    HW1 2942   6.786   6.617   0.726
  681SOL    HW2 2943   6.664   6.605   0.619
  682SOL     OW 2944   2.399   6.925   6.316
  682SOL    HW1 2945   2.322   6.872   6.351
  682SOL    HW2 2946   2.484   6.876   6.335
  683SOL     OW 2947   3.788   0.505   5.741
  683SOL    HW1 2948   3.750   0.415   5.763
  683SOL    HW2 2949   3.825   0.505   5.649
  684SOL     OW 2950   6.871   1.138   6.165
  684SOL    HW1 2951   6.908   1.230   6.183
  684SOL    HW2 2952   6.937   1.070   6.196
  685SOL     OW 2953   5.180   0.519   5.902
  685SOL    HW1 2954   5.213   0.431   5.934
  685SOL    HW2 2955   5.238   0.592   5.938
  686SOL     OW 2956   5.846   3.157   3.251
  686SOL    HW1 2957   5.775   3.092   3.222
  686SOL    HW2 2958   5.920   3.156   3.184
  687SOL     OW 2959   0.031   3.176   6.401
  687SOL    HW1 2960   0.001   3.081   6.392
  687SOL    HW2 2961   6.981   3.230   6.439
  688SOL     OW 2962   1.937   3.561   0.226
  688SOL    HW1 2963   1.989   3.480   0.252
  688SOL    HW2 2964   1.945   3.576   0.127
  689SOL     OW 2965   1.482   4.442   5.606
  689SOL    HW1 2966   1.401   4.408   5.557
  689SOL    HW2 2967   1.460   4.529   5.651
  690SOL     OW 2968   0.866   2.963   3.224
  690SOL    HW1 2969   0.853   3.032   3.296
  690SOL    HW2 2970   0.938   2.900   3.252
  691SOL     OW 2971   1.863   2.343   6.260
  691SOL    HW1 2972   1.801   2.266   6.272
  691SOL    HW2 2973   1.912   2.360   6.345
  692SOL     OW 2974   3.226   6.890   3.312
  692SOL    HW1 2975   3.159   6.833   3.264
  692SOL    HW2 2976   3.319   6.861   3.287
  693SOL     OW 2977   6.664   1.702   3.354
  693SOL    HW1 2978   6.656   1.603   3.342
  693SOL    HW2 2979   6.668   1.723   3.452
  694SOL     OW 2980   3.705   5.826   1.598
  694SOL    HW1 2981   3.766   5.856   1.672
  694SOL    HW2 2982   3.735   5.867   1.512
  695SOL     OW 2983   4.638   5.182   4.900
  695SOL    HW1 2984   4.717   5.122   4.916
  695SOL    HW2 2985   4.656   5.272   4.941
  696SOL     OW 2986   3.115   5.301   2.110
  696SOL    HW1 2987   3.180   5.321   2.036
  696SOL    HW2 2988   3.050   5.231   2.079
  697SOL     OW 2989   1.181   3.475   5.430
  697SOL    HW1 2990   1.106   3.455   5.367
  697SOL    HW2 2991   1.166   3.564   5.473
  698SOL     OW 2992   5.286   0.234   4.258
  698SOL    HW1 2993   5.338   0.149   4.249
  698SOL    HW2 2994   5.331   0.306   4.205
  699SOL     OW 2995   1.743   4.459   0.818
  699SOL    HW1 2996   1.697   4.397   0.754
  699SOL    HW2 2997   1.807   4.408   0.874
  700SOL     OW 2998   2.767   2.012   3.410
  700SOL    HW1 2999   2.773   2.012   3.310
  700SOL    HW2 3000   2.790   2.103   3.445
  701SOL     OW 3001   1.275   4.645   6.967
  701SOL    HW1 3002   1.259   4.734   6.924
  701SOL    HW2 3003   1.187   4.597   6.978
  702SOL     OW 3004   5.392   5.985   5.590
  702SOL    HW1 3005   5.416   5.905   5.536
  702SOL    HW2 3006   5.296   6.009   5.574
  703SOL     OW 3007   4.326   3.480   0.119
  703SOL    HW1 3008   4.241   3.527   0.145
  703SOL    HW2 3009   4.373   3.532   0.049
  704SOL     OW 3010   1.240   1.273   5.937
  704SOL    HW1 3011   1.316   1.339   5.932
  704SOL    HW2 3012   1.194   1.268   5.849
  705SOL     OW 3013   4.561   0.246   3.675
  705SOL    HW1 3014   4.638   0.273   3.619
  705SOL    HW2 3015   4.512   0.171   3.631
  706SOL     OW 3016   4.059   1.595   3.551
  706SOL    HW1 3017   4.089   1.604   3.456
  706SOL    HW2 3018   3.959   1.594   3.555
  707SOL     OW 3019   4.463   0.063   1.833
  707SOL    HW1 3020   4.375   0.053   1.881
  707SOL    HW2 3021   4.486   7.002   1.787
  708SOL     OW 3022   4.749   0.260   0.765
  708SOL    HW1 3023   4.717   0.351   0.790
  708SOL    HW2 3024   4.671   0.201   0.745
  709SOL     OW 3025   1.388   5.181   1.514
  709SOL    HW1 3026   1.394   5.209   1.419
  709SOL    HW2 3027   1.308   5.225   1.557
  710SOL     OW 3028   3.574   4.123   2.860
  710SOL    HW1 3029   3.523   4.051   2.908
  710SOL    HW2 3030   3.599   4.194   2.925
  711SOL     OW 3031   0.008   2.775   5.766
  711SOL    HW1 3032   6.956   2.711   5.771
  711SOL    HW2 3033   0.054   2.778   5.855
  712SOL     OW 3034   1.508   3.909   1.293
  712SOL    HW1 3035   1.601   3.874   1.308
  712SOL    HW2 3036   1.466   3.859   1.218
  713SOL     OW 3037   3.206   3.642   1.503
  713SOL    HW1 3038   3.155   3.725   1.529
  713SOL    HW2 3039   3.219   3.585   1.584
  714SOL     OW 3040   5.538   4.375   5.508
  714SOL    HW1 3041   5.609   4.364   5.438
  714SOL    HW2 3042   5.550   4.463   5.553
  715SOL     OW 3043   4.923   5.879   6.975
  715SOL    HW1 3044   4.958   5.795   7.016
  715SOL    HW2 3045   4.897   5.861   6.880
  716SOL     OW 3046   0.757   5.421   1.222
  716SOL    HW1 3047   0.733   5.500   1.165
  716SOL    HW2 3048   0.808   5.355   1.166
  717SOL     OW 3049   6.418   4.830   6.340
  717SOL    HW1 3050   6.444   4.733   6.336
  717SOL    HW2 3051   6.439   4.874   6.253
  718SOL     OW 3052   4.166   2.345   6.420
  718SOL    HW1 3053   4.243   2.297   6.378
  718SOL    HW2 3054   4.201   2.424   6.471
  719SOL     OW 3055   6.538   2.526   1.295
  719SOL    HW1 3056   6.552   2.566   1.386
  719SOL    HW2 3057   6.496   2.594   1.235
  720SOL     OW 3058   2.590   1.745   5.894
  720SOL    HW1 3059   2.657   1.705   5.956
  720SOL    HW2 3060   2.606   1.711   5.801
  721SOL     OW 3061   1.530   0.960   4.993
  721SOL    HW1 3062   1.630   0.966   4.996
  721SOL    HW2 3063   1.502   0.905   4.914
  722SOL     OW 3064   4.126   6.701   5.043
  722SOL    HW1 3065   4.131   6.795   5.077
  722SOL    HW2 3066   4.151   6.698   4.947
  723SOL     OW 3067   1.962   2.781   2.123
  723SOL    HW1 3068   2.059   2.789   2.148
  723SOL    HW2 3069   1.933   2.863   2.075
  724SOL     OW 3070   1.597   1.506   5.642
  724SOL    HW1 3071   1.619   1.444   5.566
  724SOL    HW2 3072   1.509   1.550   5.624
  725SOL     OW 3073   2.713   5.018   2.201
  725SOL    HW1 3074   2.772   5.060   2.270
  725SOL    HW2 3075   2.622   5.059   2.204
  726SOL     OW 3076   3.768   4.564   0.366
  726SOL    HW1 3077   3.743   4.572   0.269
  726SOL    HW2 3078   3.857   4.608   0.381
  727SOL     OW 3079   4.076   6.193   4.257
  727SOL    HW1 3080   4.087   6.281   4.302
  727SOL    HW2 3081   4.166   6.157   4.232
  728SOL     OW 3082   6.886   3.799   5.175
  728SOL    HW1 3083   6.902   3.808   5.077
  728SOL    HW2 3084   6.966   3.757   5.218
  729SOL     OW 3085   2.257   0.551   0.647
  729SOL    HW1 3086   2.332   0.491   0.618
  729SOL    HW2 3087   2.198   0.501   0.710
  730SOL     OW 3088   5.514   0.744   3.364
  730SOL    HW1 3089   5.560   0.819   3.317
  730SOL    HW2 3090   5.516   0.760   3.463
  731SOL     OW 3091   5.363   3.126   5.732
  731SOL    HW1 3092   5.278   3.166   5.765
  731SOL    HW2 3093   5.357   3.110   5.634
  732SOL     OW 3094   0.716   3.242   1.160
  732SOL    HW1 3095   0.627   3.288   1.161
  732SOL    HW2 3096   0.702   3.144   1.166
  733SOL     OW 3097   5.780   4.223   4.296
  733SOL    HW1 3098   5.782   4.263   4.388
  733SOL    HW2 3099   5.866   4.244   4.249
  734SOL     OW 3100   0.035   5.401   2.249
  734SOL    HW1 3101   0.119   5.378   2.200
  734SOL    HW2 3102   6.985   5.341   2.217
  735SOL     OW 3103   2.753   2.984   1.051
  735SOL    HW1 3104   2.759   2.938   0.963
  735SOL    HW2 3105   2.668   2.958   1.097
  736SOL     OW 3106   6.695   0.038   2.883
  736SOL    HW1 3107   6.701   0.080   2.973
  736SOL    HW2 3108   6.611   0.068   2.838
  737SOL     OW 3109   5.031   3.345   1.271
  737SOL    HW1 3110   5.007   3.253   1.303
  737SOL    HW2 3111   5.097   3.337   1.197
  738SOL     OW 3112   1.359   4.890   4.150
  738SOL    HW1 3113   1.427   4.919   4.083
  738SOL    HW2 3114   1.404   4.850   4.230
  739SOL     OW 3115   4.765   6.481   5.534
  739SOL    HW1 3116   4.818   6.555   5.575
  739SOL    HW2 3117   4.677   6.473   5.581
  740SOL     OW 3118   5.123   0.554   0.812
  740SOL    HW1 3119   5.059   0.631   0.804
  740SOL    HW2 3120   5.173   0.561   0.898
  741SOL     OW 3121   1.949   6.527   3.108
  741SOL    HW1 3122   2.022   6.463   3.082
  741SOL    HW2 3123   1.863   6.497   3.066
  742SOL     OW 3124   2.476   0.028   2.073
  742SOL    HW1 3125   2.385   0.017   2.033
  742SOL    HW2 3126   2.540   0.059   2.002
  743SOL     OW 3127   1.952   4.312   4.124
  743SOL    HW1 3128   2.046   4.282   4.109
  743SOL    HW2 3129   1.896   4.233   4.151
  744SOL     OW 3130   6.871   6.493   6.579
  744SOL    HW1 3131   6.830   6.467   6.492
  744SOL    HW2 3132   6.929   6.574   6.566
  745SOL     OW 3133   1.342   6.240   3.705
  745SOL    HW1 3134   1.370   6.219   3.612
  745SOL    HW2 3135   1.389   6.178   3.769
  746SOL     OW 3136   0.128   6.552   5.453
  746SOL    HW1 3137   0.214   6.507   5.479
  746SOL    HW2 3138   0.132   6.579   5.357
  747SOL     OW 3139   4.629   5.004   4.251
  747SOL    HW1 3140   4.602   5.079   4.311
  747SOL    HW2 3141   4.547   4.956   4.219
  748SOL     OW 3142   4.491   5.078   2.039
  748SOL    HW1 3143   4.464   5.009   1.972
  748SOL    HW2 3144   4.437   5.161   2.026
  749SOL     OW 3145   0.019   3.156   4.992
  749SOL    HW1 3146   0.091   3.217   5.026
  749SOL    HW2 3147   6.973   3.211   4.946
  750SOL     OW 3148   2.314   3.049   0.539
  750SOL    HW1 3149   2.215   3.039   0.528
  750SOL    HW2 3150   2.333   3.116   0.610
  751SOL     OW 3151   4.304   1.801   6.209
  751SOL    HW1 3152   4.238   1.777   6.280
  751SOL    HW2 3153   4.257   1.812   6.121
  752SOL     OW 3154   4.606   2.525   1.726
  752SOL    HW1 3155   4.525   2.476   1.694
  752SOL    HW2 3156   4.580   2.616   1.758
  753SOL     OW 3157   2.133   3.116   4.329
  753SOL    HW1 3158   2.112   3.022   4.355
  753SOL    HW2 3159   2.186   3.116   4.244
  754SOL     OW 3160   5.631   3.795   6.788
  754SOL    HW1 3161   5.537   3.769   6.766
  754SOL    HW2 3162   5.661   3.744   6.868
  755SOL     OW 3163   1.105   5.822   7.001
  755SOL    HW1 3164   1.010   5.841   0.002
  755SOL    HW2 3165   1.124   5.864   6.913
  756SOL     OW 3166   5.087   0.218   1.466
  756SOL    HW1 3167   5.079   0.164   1.551
  756SOL    HW2 3168   5.183   0.225   1.440
  757SOL     OW 3169   0.627   6.420   2.998
  757SOL    HW1 3170   0.588   6.413   3.090
  757SOL    HW2 3171   0.561   6.464   2.937
  758SOL     OW 3172   3.607   0.995   1.731
  758SOL    HW1 3173   3.654   0.914   1.767
  758SOL    HW2 3174   3.514   0.998   1.767
  759SOL     OW 3175   6.783   0.940   0.495
  759SOL    HW1 3176   6.714   0.900   0.434
  759SOL    HW2 3177   6.774   1.039   0.496
  760SOL     OW 3178   4.410   1.414   6.199
  760SOL    HW1 3179   4.509   1.426   6.195
  760SOL    HW2 3180   4.370   1.484   6.257
  761SOL     OW 3181   5.242   3.401   6.878
  761SOL    HW1 3182   5.231   3.486   6.826
  761SOL    HW2 3183   5.187   3.329   6.835
  762SOL     OW 3184   1.900   6.011   3.414
  762SOL    HW1 3185   1.882   5.996   3.317
  762SOL    HW2 3186   1.839   5.954   3.468
  763SOL     OW 3187   4.209   5.478   6.648
  763SOL    HW1 3188   4.218   5.465   6.549
  763SOL    HW2 3189   4.197   5.575   6.668
  764SOL     OW 3190   4.140   6.989   4.267
  764SOL    HW1 3191   4.128   0.045   4.210
  764SOL    HW2 3192   4.216   7.004   4.331
  765SOL     OW 3193   1.427   6.404   1.255
  765SOL    HW1 3194   1.378   6.318   1.270
  765SOL    HW2 3195   1.414   6.435   1.161
  766SOL     OW 3196   6.897   1.597   0.097
  766SOL    HW1 3197   6.941   1.565   0.012
  766SOL    HW2 3198   6.808   1.636   0.075
  767SOL     OW 3199   0.987   6.216   2.088
  767SOL    HW1 3200   1.081   6.183   2.093
  767SOL    HW2 3201   0.977   6.297   2.145
  768SOL     OW 3202   2.026   0.718   2.567
  768SOL    HW1 3203   2.094   0.776   2.522
  768SOL    HW2 3204   1.940   0.723   2.517
  769SOL     OW 3205   3.123   6.668   4.235
  769SOL    HW1 3206   3.166   6.644   4.322
  769SOL    HW2 3207   3.026   6.689   4.250
  770SOL     OW 3208   2.147   4.652   3.201
  770SOL    HW1 3209   2.240   4.653   3.164
  770SOL    HW2 3210   2.116   4.557   3.211
  771SOL     OW 3211   2.018   5.707   2.584
  771SOL    HW1 3212   2.068   5.718   2.670
  771SOL    HW2 3213   2.080   5.720   2.507
  772SOL     OW 3214   6.655   5.192   0.708
  772SOL    HW1 3215   6.705   5.275   0.683
  772SOL    HW2 3216   6.645   5.188   0.807
  773SOL     OW 3217   0.658   2.818   3.515
  773SOL    HW1 3218   0.633   2.860   3.428
  773SOL    HW2 3219   0.720   2.879   3.564
  774SOL     OW 3220   1.327   1.618   1.804
  774SOL    HW1 3221   1.303   1.521   1.816
  774SOL    HW2 3222   1.353   1.634   1.709
  775SOL     OW 3223   1.284   2.386   3.863
  775SOL    HW1 3224   1.379   2.361   3.842
  775SOL    HW2 3225   1.269   2.379   3.961
  776SOL     OW 3226   0.071   0.454   6.118
  776SOL    HW1 3227   0.161   0.492   6.100
  776SOL    HW2 3228   0.057   0.372   6.063
  777SOL     OW 3229   3.877   0.591   0.935
  777SOL    HW1 3230   3.862   0.493   0.921
  777SOL    HW2 3231   3.940   0.605   1.011
  778SOL     OW 3232   3.569   1.475   3.658
  778SOL    HW1 3233   3.489   1.508   3.609
  778SOL    HW2 3234   3.591   1.538   3.733
  779SOL     OW 3235   0.453   1.729   2.325
  779SOL    HW1 3236   0.370   1.783   2.331
  779SOL    HW2 3237   0.527   1.777   2.372
  780SOL     OW 3238   5.572   3.270   4.931
  780SOL    HW1 3239   5.608   3.322   4.854
  780SOL    HW2 3240   5.515   3.329   4.988
  781SOL     OW 3241   5.913   1.402   5.908
  781SOL    HW1 3242   5.998   1.353   5.924
  781SOL    HW2 3243   5.847   1.341   5.864
  782SOL     OW 3244   1.508   4.284   0.395
  782SOL    HW1 3245   1.539   4.190   0.380
  782SOL    HW2 3246   1.526   4.339   0.313
  783SOL     OW 3247   3.620   4.352   0.482
  783SOL    HW1 3248   3.565   4.330   0.402
  783SOL    HW2 3249   3.688   4.421   0.457
  784SOL     OW 3250   4.978   0.129   5.319
  784SOL    HW1 3251   5.062   0.079   5.342
  784SOL    HW2 3252   4.910   0.065   5.284
  785SOL     OW 3253   6.585   2.023   3.091
  785SOL    HW1 3254   6.657   2.069   3.039
  785SOL    HW2 3255   6.553   1.943   3.040
  786SOL     OW 3256   0.595   0.796   0.657
  786SOL    HW1 3257   0.632   0.826   0.570
  786SOL    HW2 3258   0.625   0.858   0.730
  787SOL     OW 3259   2.959   0.932   5.983
  787SOL    HW1 3260   3.030   0.864   5.966
  787SOL    HW2 3261   3.002   1.020   6.002
  788SOL     OW 3262   2.440   2.633   4.722
  788SOL    HW1 3263   2.479   2.575   4.651
  788SOL    HW2 3264   2.496   2.627   4.805
  789SOL     OW 3265   6.105   4.218   1.556
  789SOL    HW1 3266   6.094   4.317   1.566
  789SOL    HW2 3267   6.121   4.177   1.646
  790SOL     OW 3268   2.181   1.722   4.411
  790SOL    HW1 3269   2.103   1.741   4.353
  790SOL    HW2 3270   2.235   1.805   4.425
  791SOL     OW 3271   3.558   6.967   3.983
  791SOL    HW1 3272   3.601   0.004   4.050
  791SOL    HW2 3273   3.477   6.925   4.024
  792SOL     OW 3274   6.607   0.098   1.503
  792SOL    HW1 3275   6.698   0.139   1.499
  792SOL    HW2 3276   6.538   0.170   1.501
  793SOL     OW 3277   4.679   6.620   2.035
  793SOL    HW1 3278   4.669   6.719   2.024
  793SOL    HW2 3279   4.609   6.586   2.098
  794SOL     OW 3280   2.280   3.940   5.402
  794SOL    HW1 3281   2.292   4.008   5.474
  794SOL    HW2 3282   2.337   3.965   5.323
  795SOL     OW 3283   3.035   5.182   4.987
  795SOL    HW1 3284   3.052   5.104   5.047
  795SOL    HW2 3285   3.069   5.162   4.895
  796SOL     OW 3286   0.519   2.389   6.273
  796SOL    HW1 3287   0.520   2.446   6.191
  796SOL    HW2 3288   0.533   2.446   6.353
  797SOL     OW 3289   5.107   2.538   2.511
  797SOL    HW1 3290   5.162   2.620   2.496
  797SOL    HW2 3291   5.049   2.552   2.591
  798SOL     OW 3292   4.907   0.308   1.043
  798SOL    HW1 3293   4.982   0.242   1.040
  798SOL    HW2 3294   4.856   0.304   0.957
  799SOL     OW 3295   6.845   1.183   3.737
  799SOL    HW1 3296   6.787   1.193   3.818
  799SOL    HW2 3297   6.871   1.274   3.704
  800SOL     OW 3298   5.474   0.673   2.263
  800SOL    HW1 3299   5.557   0.725   2.244
  800SOL    HW2 3300   5.408   0.733   2.309
  801SOL     OW 3301   1.485   3.789   2.804
  801SOL    HW1 3302   1.399   3.740   2.793
  801SOL    HW2 3303   1.496   3.815   2.900
  802SOL     OW 3304   4.496   1.013   0.674
  802SOL    HW1 3305   4.434   0.940   0.646
  802SOL    HW2 3306   4.448   1.077   0.734
  803SOL     OW 3307   6.731   5.983   5.192
  803SOL    HW1 3308   6.797   6.036   5.138
  803SOL    HW2 3309   6.717   5.894   5.150
  804SOL     OW 3310   6.565   5.878   0.025
  804SOL    HW1 3311   6.509   5.795   0.032
  804SOL    HW2 3312   6.600   5.886   6.956
  805SOL     OW 3313   4.215   2.345   5.830
  805SOL    HW1 3314   4.203   2.269   5.893
  805SOL    HW2 3315   4.141   2.411   5.842
  806SOL     OW 3316   3.612   2.078   4.906
  806SOL    HW1 3317   3.624   2.018   4.826
  806SOL    HW2 3318   3.696   2.129   4.922
  807SOL     OW 3319   0.968   2.105   3.370
  807SOL    HW1 3320   0.945   2.202   3.372
  807SOL    HW2 3321   1.060   2.092   3.407
  808SOL     OW 3322   5.399   3.085   6.321
  808SOL    HW1 3323   5.362   3.178   6.323
  808SOL    HW2 3324   5.333   3.024   6.278
  809SOL     OW 3325   1.354   5.026   1.843
  809SOL    HW1 3326   1.335   4.932   1.871
  809SOL    HW2 3327   1.451   5.036   1.822
  810SOL     OW 3328   4.167   2.715   0.864
  810SOL    HW1 3329   4.122   2.650   0.803
  810SOL    HW2 3330   4.127   2.806   0.851
  811SOL     OW 3331   4.806   4.966   3.586
  811SOL    HW1 3332   4.844   5.057   3.606
  811SOL    HW2 3333   4.879   4.905   3.557
  812SOL     OW 3334   0.245   0.567   1.967
  812SOL    HW1 3335   0.160   0.569   2.020
  812SOL    HW2 3336   0.229   0.604   1.876
  813SOL     OW 3337   4.090   5.348   3.617
  813SOL    HW1 3338   4.162   5.278   3.615
  813SOL    HW2 3339   4.016   5.318   3.677
  814SOL     OW 3340   4.957   6.595   3.444
  814SOL    HW1 3341   5.012   6.673   3.472
  814SOL    HW2 3342   4.974   6.517   3.505
  815SOL     OW 3343   6.379   3.057   2.096
  815SOL    HW1 3344   6.437   3.069   2.177
  815SOL    HW2 3345   6.284   3.078   2.119
  816SOL     OW 3346   0.268   6.686   0.128
  816SOL    HW1 3347   0.286   6.589   0.112
  816SOL    HW2 3348   0.171   6.700   0.145
  817SOL     OW 3349   1.921   3.821   2.377
  817SOL    HW1 3350   1.890   3.883   2.449
  817SOL    HW2 3351   1.992   3.865   2.322
  818SOL     OW 3352   6.781   2.712   0.708
  818SOL    HW1 3353   6.802   2.627   0.658
  818SOL    HW2 3354   6.829   2.788   0.665
  819SOL     OW 3355   5.928   3.051   4.185
  819SOL    HW1 3356   5.959   3.144   4.169
  819SOL    HW2 3357   5.874   3.020   4.107
  820SOL     OW 3358   1.383   2.660   5.836
  820SOL    HW1 3359   1.344   2.731   5.895
  820SOL    HW2 3360   1.358   2.678   5.741
  821SOL     OW 3361   2.760   4.371   0.477
  821SOL    HW1 3362   2.720   4.461   0.492
  821SOL    HW2 3363   2.688   4.307   0.448
  822SOL     OW 3364   0.806   5.371   4.204
  822SOL    HW1 3365   0.783   5.468   4.195
  822SOL    HW2 3366   0.828   5.334   4.114
  823SOL     OW 3367   4.387   4.250   6.682
  823SOL    HW1 3368   4.324   4.175   6.703
  823SOL    HW2 3369   4.473   4.236   6.732
  824SOL     OW 3370   5.507   1.118   5.258
  824SOL    HW1 3371   5.451   1.068   5.323
  824SOL    HW2 3372   5.478   1.095   5.165
  825SOL     OW 3373   2.148   3.094   1.904
  825SOL    HW1 3374   2.097   3.168   1.948
  825SOL    HW2 3375   2.178   3.029   1.973
  826SOL     OW 3376   6.140   4.124   0.833
  826SOL    HW1 3377   6.154   4.095   0.928
  826SOL    HW2 3378   6.051   4.168   0.824
  827SOL     OW 3379   3.286   5.161   5.456
  827SOL    HW1 3380   3.366   5.178   5.399
  827SOL    HW2 3381   3.210   5.130   5.399
  828SOL     OW 3382   6.202   0.471   5.193
  828SOL    HW1 3383   6.224   0.563   5.160
  828SOL    HW2 3384   6.287   0.421   5.212
  829SOL     OW 3385   2.979   3.481   4.253
  829SOL    HW1 3386   2.946   3.560   4.304
  829SOL    HW2 3387   3.031   3.512   4.173
  830SOL     OW 3388   5.193   4.238   6.035
  830SOL    HW1 3389   5.097   4.227   6.059
  830SOL    HW2 3390   5.200   4.283   5.946
  831SOL     OW 3391   0.051   0.088   4.491
  831SOL    HW1 3392   0.142   0.084   4.532
  831SOL    HW2 3393   0.035   0.006   4.435
  832SOL     OW 3394   1.990   1.154   0.268
  832SOL    HW1 3395   1.899   1.147   0.310
  832SOL    HW2 3396   1.991   1.103   0.182
  833SOL     OW 3397   0.435   5.667   5.856
  833SOL    HW1 3398   0.483   5.596   5.804
  833SOL    HW2 3399   0.499   5.740   5.881
  834SOL     OW 3400   3.634   3.585   2.050
  834SOL    HW1 3401   3.702   3.603   1.979
  834SOL    HW2 3402   3.606   3.489   2.047
  835SOL     OW 3403   4.111   6.488   4.382
  835SOL    HW1 3404   4.047   6.509   4.455
  835SOL    HW2 3405   4.073   6.517   4.294
  836SOL     OW 3406   2.926   6.273   6.763
  836SOL    HW1 3407   2.962   6.296   6.672
  836SOL    HW2 3408   2.993   6.219   6.813
  837SOL     OW 3409   4.897   0.410   6.976
  837SOL    HW1 3410   4.859   0.356   6.902
  837SOL    HW2 3411   4.972   0.467   6.941
  838SOL     OW 3412   0.932   0.214   4.986
  838SOL    HW1 3413   0.999   0.285   4.964
  838SOL    HW2 3414   0.897   0.173   4.902
  839SOL     OW 3415   2.940   1.239   2.591
  839SOL    HW1 3416   2.863   1.291   2.556
  839SOL    HW2 3417   2.952   1.258   2.689
  840SOL     OW 3418   6.216   1.272   5.528
  840SOL    HW1 3419   6.278   1.205   5.486
  840SOL    HW2 3420   6.258   1.363   5.525
  841SOL     OW 3421   6.051   4.322   0.294
  841SOL    HW1 3422   5.971   4.382   0.301
  841SOL    HW2 3423   6.128   4.363   0.343
  842SOL     OW 3424   4.413   5.313   3.349
  842SOL    HW1 3425   4.342   5.352   3.290
  842SOL    HW2 3426   4.459   5.386   3.399
  843SOL     OW 3427   5.332   2.084   0.131
  843SOL    HW1 3428   5.410   2.047   0.181
  843SOL    HW2 3429   5.309   2.023   0.055
  844SOL     OW 3430   4.632   6.449   0.489
  844SOL    HW1 3431   4.541   6.454   0.531
  844SOL    HW2 3432   4.623   6.434   0.390
  845SOL     OW 3433   6.216   2.826   4.791
  845SOL    HW1 3434   6.231   2.777   4.705
  845SOL    HW2 3435   6.263   2.779   4.866
  846SOL     OW 3436   5.237   1.362   6.350
  846SOL    HW1 3437   5.184   1.356   6.434
  846SOL    HW2 3438   5.250   1.457   6.324
  847SOL     OW 3439   6.264   3.205   0.798
  847SOL    HW1 3440   6.334   3.270   0.828
  847SOL    HW2 3441   6.220   3.164   0.878
  848SOL     OW 3442   5.736   1.119   6.278
  848SOL    HW1 3443   5.753   1.217   6.264
  848SOL    HW2 3444   5.821   1.074   6.305
  849SOL     OW 3445   0.054   5.825   5.118
  849SOL    HW1 3446   0.110   5.788   5.044
  849SOL    HW2 3447   0.052   5.761   5.194
  850SOL     OW 3448   4.559   0.567   3.547
  850SOL    HW1 3449   4.464   0.538   3.559
  850SOL    HW2 3450   4.616   0.522   3.616
  851SOL     OW 3451   0.537   1.476   0.563
  851SOL    HW1 3452   0.475   1.407   0.601
  851SOL    HW2 3453   0.509   1.498   0.469
  852SOL     OW 3454   2.489   2.518   0.077
  852SOL    HW1 3455   2.496   2.604   0.025
  852SOL    HW2 3456   2.565   2.458   0.052
  853SOL     OW 3457   0.799   3.888   3.523
  853SOL    HW1 3458   0.824   3.913   3.429
  853SOL    HW2 3459   0.873   3.914   3.585
  854SOL     OW 3460   5.187   6.360   2.106
  854SOL    HW1 3461   5.181   6.331   2.011
  854SOL    HW2 3462   5.096   6.387   2.139
  855SOL     OW 3463   6.089   7.003   1.229
  855SOL    HW1 3464   6.116   6.939   1.156
  855SOL    HW2 3465   5.991   6.998   1.243
  856SOL     OW 3466   1.816   0.936   4.961
  856SOL    HW1 3467   1.844   0.939   5.057
  856SOL    HW2 3468   1.868   1.004   4.909
  857SOL     OW 3469   5.650   5.283   1.578
  857SOL    HW1 3470   5.748   5.275   1.565
  857SOL    HW2 3471   5.615   5.201   1.625
  858SOL     OW 3472   2.667   4.851   1.967
  858SOL    HW1 3473   2.633   4.865   2.060
  858SOL    HW2 3474   2.739   4.782   1.968
  859SOL     OW 3475   5.779   5.213   6.878
  859SOL    HW1 3476   5.776   5.312   6.861
  859SOL    HW2 3477   5.873   5.181   6.869
  860SOL     OW 3478   4.721   3.869   0.407
  860SOL    HW1 3479   4.816   3.881   0.378
  860SOL    HW2 3480   4.719   3.846   0.504
  861SOL     OW 3481   2.505   6.957   4.483
  861SOL    HW1 3482   2.578   6.956   4.552
  861SOL    HW2 3483   2.457   0.020   4.488
  862SOL     OW 3484   6.027   4.214   4.986
  862SOL    HW1 3485   6.045   4.116   4.983
  862SOL    HW2 3486   6.114   4.264   4.992
  863SOL     OW 3487   1.073   6.986   0.816
  863SOL    HW1 3488   1.134   7.010   0.740
  863SOL    HW2 3489   1.027   0.044   0.850
  864SOL     OW 3490   5.171   4.383   3.822
  864SOL    HW1 3491   5.220   4.358   3.739
  864SOL    HW2 3492   5.163   4.482   3.828
  865SOL     OW 3493   0.787   6.814   4.075
  865SOL    HW1 3494   0.815   6.769   3.990
  865SOL    HW2 3495   0.719   6.758   4.122
  866SOL     OW 3496   2.798   1.323   2.134
  866SOL    HW1 3497   2.731   1.309   2.061
  866SOL    HW2 3498   2.870   1.384   2.102
  867SOL     OW 3499   3.239   2.646   0.576
  867SOL    HW1 3500   3.150   2.599   0.582
  867SOL    HW2 3501   3.243   2.697   0.490
  868SOL     OW 3502   6.011   6.892   1.578
  868SOL    HW1 3503   6.092   6.877   1.522
  868SOL    HW2 3504   5.939   6.935   1.524
  869SOL     OW 3505   6.737   5.696   3.051
  869SOL    HW1 3506   6.699   5.610   3.085
  869SOL    HW2 3507   6.675   5.771   3.075
  870SOL     OW 3508   6.142   3.486   1.359
  870SOL    HW1 3509   6.204   3.533   1.422
  870SOL    HW2 3510   6.161   3.388   1.361
  871SOL     OW 3511   7.016   3.139   1.647
  871SOL    HW1 3512   0.075   3.085   1.635
  871SOL    HW2 3513   7.010   3.208   1.576
  872SOL     OW 3514   6.137   3.146   4.563
  872SOL    HW1 3515   6.199   3.206   4.614
  872SOL    HW2 3516   6.045   3.152   4.602
  873SOL     OW 3517   4.223   0.645   2.892
  873SOL    HW1 3518   4.284   0.696   2.831
  873SOL    HW2 3519   4.128   0.665   2.869
  874SOL     OW 3520   1.923   4.196   5.232
  874SOL    HW1 3521   1.965   4.276   5.188
  874SOL    HW2 3522   1.972   4.114   5.203
  875SOL     OW 3523   4.928   4.549   0.975
  875SOL    HW1 3524   4.948   4.642   1.004
  875SOL    HW2 3525   4.888   4.550   0.884
  876SOL     OW 3526   6.520   4.162   3.152
  876SOL    HW1 3527   6.532   4.196   3.059
  876SOL    HW2 3528   6.489   4.237   3.211
  877SOL     OW 3529   4.720   4.887   6.928
  877SOL    HW1 3530   4.756   4.857   7.016
  877SOL    HW2 3531   4.755   4.827   6.856
  878SOL     OW 3532   3.611   5.386   0.025
  878SOL    HW1 3533   3.642   5.403   6.956
  878SOL    HW2 3534   3.515   5.359   0.024
  879SOL     OW 3535   4.189   1.929   2.553
  879SOL    HW1 3536   4.195   1.954   2.456
  879SOL    HW2 3537   4.149   2.004   2.605
  880SOL     OW 3538   3.318   4.333   6.953
  880SOL    HW1 3539   3.265   4.418   6.952
  880SOL    HW2 3540   3.368   4.326   0.015
  881SOL     OW 3541   4.422   4.740   4.830
  881SOL    HW1 3542   4.424   4.805   4.906
  881SOL    HW2 3543   4.432   4.647   4.865
  882SOL     OW 3544   1.993   1.540   4.719
  882SOL    HW1 3545   1.911   1.511   4.669
  882SOL    HW2 3546   2.073   1.492   4.684
  883SOL     OW 3547   4.173   5.077   5.446
  883SOL    HW1 3548   4.179   5.176   5.436
  883SOL    HW2 3549   4.151   5.054   5.540
  884SOL     OW 3550   6.615   3.166   1.800
  884SOL    HW1 3551   6.515   3.175   1.805
  884SOL    HW2 3552   6.650   3.223   1.725
  885SOL     OW 3553   5.744   6.516   0.146
  885SOL    HW1 3554   5.792   6.454   0.209
  885SOL    HW2 3555   5.651   6.529   0.178
  886SOL     OW 3556   4.091   1.187   0.080
  886SOL    HW1 3557   4.163   1.174   0.149
  886SOL    HW2 3558   4.002   1.191   0.126
  887SOL     OW 3559   3.765   6.543   6.216
  887SOL    HW1 3560   3.741   6.622   6.160
  887SOL    HW2 3561   3.682   6.503   6.255
  888SOL     OW 3562   6.926   6.463   3.310
  888SOL    HW1 3563   6.960   6.550   3.346
  888SOL    HW2 3564   6.840   6.478   3.262
  889SOL     OW 3565   0.107   6.500   5.763
  889SOL    HW1 3566   0.081   6.522   5.669
  889SOL    HW2 3567   0.046   6.429   5.798
  890SOL     OW 3568   2.776   4.711   2.226
  890SOL    HW1 3569   2.776   4.811   2.229
  890SOL    HW2 3570   2.816   4.679   2.141
  891SOL     OW 3571   5.507   3.721   1.427
  891SOL    HW1 3572   5.464   3.632   1.439
  891SOL    HW2 3573   5.502   3.773   1.512
  892SOL     OW 3574   3.001   3.818   0.621
  892SOL    HW1 3575   3.029   3.838   0.715
  892SOL    HW2 3576   3.079   3.784   0.570
  893SOL     OW 3577   1.410   0.554   0.219
  893SOL    HW1 3578   1.470   0.519   0.290
  893SOL    HW2 3579   1.347   0.483   0.190
  894SOL     OW 3580   1.516   4.787   4.385
  894SOL    HW1 3581   1.524   4.691   4.357
  894SOL    HW2 3582   1.542   4.796   4.481
  895SOL     OW 3583   2.245   0.011   4.177
  895SOL    HW1 3584   2.345   0.015   4.177
  895SOL    HW2 3585   2.211   0.015   4.271
  896SOL     OW 3586   5.802   6.347   4.120
  896SOL    HW1 3587   5.716   6.322   4.164
  896SOL    HW2 3588   5.875   6.348   4.188
  897SOL     OW 3589   4.730   1.748   0.382
  897SOL    HW1 3590   4.820   1.706   0.371
  897SOL    HW2 3591   4.663   1.678   0.406
  898SOL     OW 3592   5.472   6.154   3.688
  898SOL    HW1 3593   5.422   6.160   3.601
  898SOL    HW2 3594   5.417   6.194   3.761
  899SOL     OW 3595   0.537   5.251   0.003
  899SOL    HW1 3596   0.624   5.207   0.024
  899SOL    HW2 3597   0.495   5.285   0.088
  900SOL     OW 3598   6.320   5.926   1.919
  900SOL    HW1 3599   6.387   5.913   1.845
  900SOL    HW2 3600   6.315   5.843   1.975
  901SOL     OW 3601   0.229   1.399   4.233
  901SOL    HW1 3602   0.230   1.302   4.257
  901SOL    HW2 3603   0.311   1.443   4.268
  902SOL     OW 3604   6.574   0.551   6.813
  902SOL    HW1 3605   6.519   0.492   6.872
  902SOL    HW2 3606   6.555   0.528   6.717
  903SOL     OW 3607   6.594   4.964   0.912
  903SOL    HW1 3608   6.673   4.935   0.859
  903SOL    HW2 3609   6.511   4.923   0.874
  904SOL     OW 3610   1.445   1.608   3.585
  904SOL    HW1 3611   1.491   1.697   3.587
  904SOL    HW2 3612   1.419   1.586   3.491
  905SOL     OW 3613   4.833   2.246   6.518
  905SOL    HW1 3614   4.857   2.337   6.485
  905SOL    HW2 3615   4.818   2.185   6.441
  906SOL     OW 3616   0.252   4.761   0.320
  906SOL    HW1 3617   0.170   4.750   0.377
  906SOL    HW2 3618   0.225   4.777   0.225
  907SOL     OW 3619   6.106   2.046   2.824
  907SOL    HW1 3620   6.112   2.002   2.734
  907SOL    HW2 3621   6.040   2.121   2.819
  908SOL     OW 3622   1.247   6.772   4.057
  908SOL    HW1 3623   1.238   6.872   4.054
  908SOL    HW2 3624   1.178   6.731   3.998
  909SOL     OW 3625   2.402   0.988   0.200
  909SOL    HW1 3626   2.496   0.957   0.187
  909SOL    HW2 3627   2.368   0.955   0.288
  910SOL     OW 3628   1.130   0.713   0.489
  910SOL    HW1 3629   1.092   0.640   0.432
  910SOL    HW2 3630   1.068   0.730   0.566
  911SOL     OW 3631   6.983   4.936   1.516
  911SOL    HW1 3632   0.015   4.895   1.445
  911SOL    HW2 3633   0.016   4.979   1.585
  912SOL     OW 3634   0.103   1.536   5.638
  912SOL    HW1 3635   0.040   1.466   5.672
  912SOL    HW2 3636   0.140   1.588   5.714
  913SOL     OW 3637   1.940   0.441   3.625
  913SOL    HW1 3638   1.981   0.497   3.553
  913SOL    HW2 3639   1.845   0.419   3.600
  914SOL     OW 3640   2.412   5.848   4.306
  914SOL    HW1 3641   2.411   5.767   4.247
  914SOL    HW2 3642   2.506   5.879   4.317
  915SOL     OW 3643   0.341   3.494   0.347
  915SOL    HW1 3644   0.377   3.586   0.359
  915SOL    HW2 3645   0.326   3.476   0.249
  916SOL     OW 3646   2.414   1.865   2.592
  916SOL    HW1 3647   2.460   1.777   2.595
  916SOL    HW2 3648   2.469   1.934   2.639
  917SOL     OW 3649   3.911   0.763   1.343
  917SOL    HW1 3650   3.817   0.796   1.346
  917SOL    HW2 3651   3.961   0.796   1.422
  918SOL     OW 3652   2.833   6.322   6.221
  918SOL    HW1 3653   2.758   6.382   6.250
  918SOL    HW2 3654   2.802   6.227   6.221
  919SOL     OW 3655   1.484   5.450   1.953
  919SOL    HW1 3656   1.558   5.431   2.017
  919SOL    HW2 3657   1.442   5.538   1.975
  920SOL     OW 3658   2.763   0.528   2.724
  920SOL    HW1 3659   2.836   0.515   2.791
  920SOL    HW2 3660   2.703   0.448   2.723
  921SOL     OW 3661   6.018   4.729   4.334
  921SOL    HW1 3662   6.110   4.767   4.323
  921SOL    HW2 3663   6.022   4.629   4.329
  922SOL     OW 3664   3.361   3.779   6.876
  922SOL    HW1 3665   3.453   3.812   6.896
  922SOL    HW2 3666   3.298   3.857   6.873
  923SOL     OW 3667   2.830   5.727   0.445
  923SOL    HW1 3668   2.929   5.729   0.433
  923SOL    HW2 3669   2.803   5.640   0.486
  924SOL     OW 3670   5.619   3.290   2.363
  924SOL    HW1 3671   5.532   3.243   2.347
  924SOL    HW2 3672   5.673   3.290   2.279
  925SOL     OW 3673   0.274   1.690   5.799
  925SOL    HW1 3674   0.346   1.667   5.864
  925SOL    HW2 3675   0.270   1.789   5.786
  926SOL     OW 3676   5.950   6.574   0.846
  926SOL    HW1 3677   5.937   6.543   0.752
  926SOL    HW2 3678   5.966   6.673   0.847
  927SOL     OW 3679   4.852   4.069   4.117
  927SOL    HW1 3680   4.844   4.076   4.217
  927SOL    HW2 3681   4.941   4.031   4.093
  928SOL     OW 3682   1.502   0.197   0.570
  928SOL    HW1 3683   1.583   0.142   0.550
  928SOL    HW2 3684   1.420   0.147   0.541
  929SOL     OW 3685   0.296   2.601   2.172
  929SOL    HW1 3686   0.395   2.590   2.180
  929SOL    HW2 3687   0.254   2.593   2.262
  930SOL     OW 3688   5.377   4.883   4.077
  930SOL    HW1 3689   5.352   4.934   4.159
  930SOL    HW2 3690   5.473   4.855   4.082
  931SOL     OW 3691   0.705   2.720   2.808
  931SOL    HW1 3692   0.732   2.811   2.837
  931SOL    HW2 3693   0.618   2.725   2.759
  932SOL     OW 3694   3.891   5.992   1.748
  932SOL    HW1 3695   3.800   6.018   1.780
  932SOL    HW2 3696   3.920   6.054   1.676
  933SOL     OW 3697   1.323   4.117   3.208
  933SOL    HW1 3698   1.259   4.041   3.200
  933SOL    HW2 3699   1.277   4.203   3.186
  934SOL     OW 3700   3.321   0.993   4.659
  934SOL    HW1 3701   3.285   0.907   4.696
  934SOL    HW2 3702   3.402   0.973   4.603
  935SOL     OW 3703   4.695   3.562   6.256
  935SOL    HW1 3704   4.623   3.495   6.276
  935SOL    HW2 3705   4.759   3.568   6.332
  936SOL     OW 3706   0.869   6.939   1.225
  936SOL    HW1 3707   0.937   6.915   1.295
  936SOL    HW2 3708   0.892   6.894   1.139
  937SOL     OW 3709   5.244   1.748   4.462
  937SOL    HW1 3710   5.313   1.743   4.389
  937SOL    HW2 3711   5.182   1.823   4.443
  938SOL     OW 3712   6.824   4.269   5.883
  938SOL    HW1 3713   6.739   4.256   5.934
  938SOL    HW2 3714   6.829   4.203   5.808
  939SOL     OW 3715   4.702   1.213   6.223
  939SOL    HW1 3716   4.702   1.140   6.155
  939SOL    HW2 3717   4.734   1.298   6.181
  940SOL     OW 3718   0.193   0.900   2.579
  940SOL    HW1 3719   0.153   0.824   2.527
  940SOL    HW2 3720   0.191   0.982   2.523
  941SOL     OW 3721   5.279   1.425   3.752
  941SOL    HW1 3722   5.321   1.337   3.771
  941SOL    HW2 3723   5.285   1.445   3.654
  942SOL     OW 3724   5.383   6.925   4.976
  942SOL    HW1 3725   5.427   6.836   4.975
  942SOL    HW2 3726   5.422   6.982   4.904
  943SOL     OW 3727   6.586   3.398   2.569
  943SOL    HW1 3728   6.524   3.331   2.609
  943SOL    HW2 3729   6.549   3.490   2.581
  944SOL     OW 3730   6.115   3.494   4.509
  944SOL    HW1 3731   6.037   3.450   4.554
  944SOL    HW2 3732   6.172   3.424   4.466
  945SOL     OW 3733   4.469   4.526   4.018
  945SOL    HW1 3734   4.408   4.549   4.094
  945SOL    HW2 3735   4.487   4.427   4.018
  946SOL     OW 3736   5.884   2.407   6.357
  946SOL    HW1 3737   5.926   2.328   6.313
  946SOL    HW2 3738   5.956   2.463   6.399
  947SOL     OW 3739   3.294   3.454   6.382
  947SOL    HW1 3740   3.318   3.511   6.303
  947SOL    HW2 3741   3.239   3.377   6.351
  948SOL     OW 3742   3.277   1.057   0.521
  948SOL    HW1 3743   3.311   0.967   0.548
  948SOL    HW2 3744   3.339   1.097   0.453
  949SOL     OW 3745   6.114   5.380   6.458
  949SOL    HW1 3746   6.177   5.457   6.468
  949SOL    HW2 3747   6.162   5.303   6.417
  950SOL     OW 3748   4.160   4.951   1.671
  950SOL    HW1 3749   4.133   5.006   1.750
  950SOL    HW2 3750   4.194   4.862   1.701
  951SOL     OW 3751   0.708   0.585   1.406
  951SOL    HW1 3752   0.801   0.547   1.411
  951SOL    HW2 3753   0.676   0.581   1.311
  952SOL     OW 3754   5.233   1.194   2.510
  952SOL    HW1 3755   5.200   1.288   2.497
  952SOL    HW2 3756   5.238   1.175   2.608
  953SOL     OW 3757   4.349   6.116   5.270
  953SOL    HW1 3758   4.417   6.184   5.243
  953SOL    HW2 3759   4.258   6.156   5.267
  954SOL     OW 3760   6.281   0.100   1.396
  954SOL    HW1 3761   6.342   0.171   1.359
  954SOL    HW2 3762   6.210   0.080   1.329
  955SOL     OW 3763   0.934   5.217   3.544
  955SOL    HW1 3764   0.945   5.166   3.629
  955SOL    HW2 3765   1.024   5.235   3.504
  956SOL     OW 3766   0.997   1.510   1.528
  956SOL    HW1 3767   1.055   1.590   1.511
  956SOL    HW2 3768   1.034   1.458   1.605
  957SOL     OW 3769   1.527   5.172   5.632
  957SOL    HW1 3770   1.578   5.181   5.718
  957SOL    HW2 3771   1.444   5.119   5.648
  958SOL     OW 3772   4.923   2.174   1.146
  958SOL    HW1 3773   4.949   2.264   1.181
  958SOL    HW2 3774   4.833   2.180   1.102
  959SOL     OW 3775   2.796   4.735   2.674
  959SOL    HW1 3776   2.849   4.747   2.758
  959SOL    HW2 3777   2.856   4.743   2.595
  960SOL     OW 3778   1.730   5.700   4.101
  960SOL    HW1 3779   1.632   5.679   4.106
  960SOL    HW2 3780   1.748   5.788   4.146
  961SOL     OW 3781   4.219   6.843   2.408
  961SOL    HW1 3782   4.280   6.852   2.330
  961SOL    HW2 3783   4.127   6.819   2.377
  962SOL     OW 3784   1.652   0.975   3.379
  962SOL    HW1 3785   1.726   1.038   3.402
  962SOL    HW2 3786   1.569   1.003   3.426
  963SOL     OW 3787   6.255   7.017   0.736
  963SOL    HW1 3788   6.236   0.080   0.692
  963SOL    HW2 3789   6.336   0.000   0.794
  964SOL     OW 3790   5.536   2.999   0.848
  964SOL    HW1 3791   5.617   2.941   0.848
  964SOL    HW2 3792   5.534   3.054   0.931
  965SOL     OW 3793   6.248   1.423   1.056
  965SOL    HW1 3794   6.178   1.476   1.008
  965SOL    HW2 3795   6.285   1.477   1.132
  966SOL     OW 3796   6.366   1.701   3.319
  966SOL    HW1 3797   6.353   1.734   3.225
  966SOL    HW2 3798   6.461   1.675   3.333
  967SOL     OW 3799   1.572   5.283   0.499
  967SOL    HW1 3800   1.546   5.378   0.481
  967SOL    HW2 3801   1.603   5.241   0.413
  968SOL     OW 3802   5.031   2.881   2.466
  968SOL    HW1 3803   5.015   2.920   2.557
  968SOL    HW2 3804   4.955   2.907   2.406
  969SOL     OW 3805   3.697   6.216   6.018
  969SOL    HW1 3806   3.652   6.134   5.981
  969SOL    HW2 3807   3.773   6.188   6.077
  970SOL     OW 3808   4.121   2.072   5.330
  970SOL    HW1 3809   4.098   1.975   5.335
  970SOL    HW2 3810   4.039   2.127   5.350
  971SOL     OW 3811   6.892   1.204   2.706
  971SOL    HW1 3812   6.858   1.110   2.716
  971SOL    HW2 3813   6.821   1.268   2.736
  972SOL     OW 3814   6.340   4.818   0.727
  972SOL    HW1 3815   6.294   4.755   0.790
  972SOL    HW2 3816   6.380   4.766   0.652
  973SOL     OW 3817   0.794   4.799   6.605
  973SOL    HW1 3818   0.776   4.762   6.696
  973SOL    HW2 3819   0.708   4.818   6.559
  974SOL     OW 3820   3.403   0.665   2.444
  974SOL    HW1 3821   3.375   0.758   2.471
  974SOL    HW2 3822   3.411   0.609   2.526
  975SOL     OW 3823   3.093   6.379   6.170
  975SOL    HW1 3824   3.137   6.310   6.113
  975SOL    HW2 3825   2.994   6.365   6.168
  976SOL     OW 3826   6.808   2.718   2.267
  976SOL    HW1 3827   6.871   2.644   2.290
  976SOL    HW2 3828   6.805   2.784   2.342
  977SOL     OW 3829   1.567   1.109   4.033
  977SOL    HW1 3830   1.603   1.195   4.067
  977SOL    HW2 3831   1.571   1.040   4.106
  978SOL     OW 3832   5.595   4.393   4.577
  978SOL    HW1 3833   5.569   4.484   4.608
  978SOL    HW2 3834   5.513   4.336   4.569
  979SOL     OW 3835   6.406   1.381   3.401
  979SOL    HW1 3836   6.502   1.404   3.385
  979SOL    HW2 3837   6.348   1.459   3.375
  980SOL     OW 3838   5.662   2.434   3.489
  980SOL    HW1 3839   5.703   2.436   3.580
  980SOL    HW2 3840   5.629   2.526   3.465
  981SOL     OW 3841   1.478   1.927   4.818
  981SOL    HW1 3842   1.518   1.961   4.903
  981SOL    HW2 3843   1.491   1.828   4.813
  982SOL     OW 3844   1.751   2.626   2.122
  982SOL    HW1 3845   1.832   2.683   2.114
  982SOL    HW2 3846   1.722   2.622   2.218
  983SOL     OW 3847   5.919   2.272   3.398
  983SOL    HW1 3848   5.966   2.350   3.356
  983SOL    HW2 3849   5.831   2.303   3.434
  984SOL     OW 3850   3.977   0.914   5.494
  984SOL    HW1 3851   4.070   0.935   5.466
  984SOL    HW2 3852   3.917   0.992   5.473
  985SOL     OW 3853   4.462   4.957   7.015
  985SOL    HW1 3854   4.555   4.940   6.982
  985SOL    HW2 3855   4.465   4.984   0.087
  986SOL     OW 3856   5.466   5.743   6.304
  986SOL    HW1 3857   5.495   5.648   6.299
  986SOL    HW2 3858   5.368   5.747   6.326
  987SOL     OW 3859   3.504   6.688   1.586
  987SOL    HW1 3860   3.475   6.781   1.562
  987SOL    HW2 3861   3.603   6.687   1.600
  988SOL     OW 3862   3.870   2.314   0.872
  988SOL    HW1 3863   3.890   2.261   0.954
  988SOL    HW2 3864   3.784   2.281   0.831
  989SOL     OW 3865   0.410   0.572   6.248
  989SOL    HW1 3866   0.427   0.658   6.295
  989SOL    HW2 3867   0.357   0.511   6.308
  990SOL     OW 3868   4.380   0.050   3.979
  990SOL    HW1 3869   4.379   0.029   3.881
  990SOL    HW2 3870   4.425   6.999   4.028
  991SOL     OW 3871   1.571   2.331   4.967
  991SOL    HW1 3872   1.657   2.297   4.929
  991SOL    HW2 3873   1.519   2.254   5.005
  992SOL     OW 3874   0.536   2.722   6.794
  992SOL    HW1 3875   0.534   2.627   6.765
  992SOL    HW2 3876   0.470   2.735   6.869
  993SOL     OW 3877   2.506   5.346   2.481
  993SOL    HW1 3878   2.570   5.420   2.462
  993SOL    HW2 3879   2.437   5.342   2.408
  994SOL     OW 3880   3.527   4.086   2.603
  994SOL    HW1 3881   3.614   4.055   2.564
  994SOL    HW2 3882   3.538   4.102   2.701
  995SOL     OW 3883   1.806   2.626   6.187
  995SOL    HW1 3884   1.802   2.615   6.087
  995SOL    HW2 3885   1.773   2.543   6.231
  996SOL     OW 3886   1.558   3.461   3.827
  996SOL    HW1 3887   1.465   3.462   3.790
  996SOL    HW2 3888   1.581   3.368   3.856
  997SOL     OW 3889   0.508   0.115   1.348
  997SOL    HW1 3890   0.420   0.070   1.335
  997SOL    HW2 3891   0.573   0.050   1.387
  998SOL     OW 3892   4.526   6.760   2.807
  998SOL    HW1 3893   4.578   6.842   2.786
  998SOL    HW2 3894   4.439   6.785   2.850
  999SOL     OW 3895   5.464   5.859   1.230
  999SOL    HW1 3896   5.500   5.785   1.173
  999SOL    HW2 3897   5.426   5.820   1.314
 1000SOL     OW 3898   1.930   1.874   2.438
 1000SOL    HW1 3899   1.861   1.807   2.414
 1000SOL    HW2 3900   2.021   1.831   2.438
 1001SOL     OW 3901   4.022   6.189   6.415
 1001SOL    HW1 3902   4.011   6.159   6.320
 1001SOL    HW2 3903   4.093   6.259   6.420
 1002SOL     OW 3904   5.458   1.580   6.460
 1002SOL    HW1 3905   5.457   1.516   6.536
 1002SOL    HW2 3906   5.417   1.666   6.488
 1003SOL     OW 3907   2.265   6.909   1.913
 1003SOL    HW1 3908   2.340   6.843   1.913
 1003SOL    HW2 3909   2.192   6.875   1.973
 1004SOL     OW 3910   6.607   0.484   0.113
 1004SOL    HW1 3911   6.511   0.489   0.085
 1004SOL    HW2 3912   6.663   0.542   0.054
 1005SOL     OW 3913   0.035   0.955   2.800
 1005SOL    HW1 3914   6.970   0.924   2.767
 1005SOL    HW2 3915   0.102   0.946   2.727
 1006SOL     OW 3916   2.359   5.694   1.578
 1006SOL    HW1 3917   2.360   5.596   1.560
 1006SOL    HW2 3918   2.364   5.744   1.491
 1007SOL     OW 3919   6.328   0.850   3.671
 1007SOL    HW1 3920   6.419   0.883   3.697
 1007SOL    HW2 3921   6.306   0.883   3.579
 1008SOL     OW 3922   1.058   2.659   4.261
 1008SOL    HW1 3923   1.090   2.565   4.254
 1008SOL    HW2 3924   0.958   2.661   4.257
 1009SOL     OW 3925   6.725   5.388   3.630
 1009SOL    HW1 3926   6.631   5.357   3.618
 1009SOL    HW2 3927   6.729   5.487   3.618
 1010SOL     OW 3928   3.947   2.084   0.084
 1010SOL    HW1 3929   3.982   2.080   0.177
 1010SOL    HW2 3930   4.021   2.102   0.020
 1011SOL     OW 3931   2.976   5.522   3.533
 1011SOL    HW1 3932   2.904   5.501   3.467
 1011SOL    HW2 3933   3.060   5.544   3.483
 1012SOL     OW 3934   6.023   5.435   0.099
 1012SOL    HW1 3935   6.017   5.528   0.134
 1012SOL    HW2 3936   5.942   5.383   0.126
 1013SOL     OW 3937   0.491   1.154   0.016
 1013SOL    HW1 3938   0.573   1.158   0.073
 1013SOL    HW2 3939   0.462   1.059   0.006
 1014SOL     OW 3940   5.560   5.489   6.304
 1014SOL    HW1 3941   5.509   5.457   6.384
 1014SOL    HW2 3942   5.657   5.475   6.319
 1015SOL     OW 3943   3.816   6.746   4.889
 1015SOL    HW1 3944   3.785   6.679   4.957
 1015SOL    HW2 3945   3.815   6.704   4.798
 1016SOL     OW 3946   2.708   2.676   0.912
 1016SOL    HW1 3947   2.670   2.584   0.897
 1016SOL    HW2 3948   2.697   2.701   1.008
 1017SOL     OW 3949   5.254   2.700   1.083
 1017SOL    HW1 3950   5.331   2.764   1.090
 1017SOL    HW2 3951   5.180   2.732   1.143
 1018SOL     OW 3952   1.712   3.268   4.164
 1018SOL    HW1 3953   1.665   3.251   4.250
 1018SOL    HW2 3954   1.739   3.364   4.159
 1019SOL     OW 3955   0.335   1.293   0.666
 1019SOL    HW1 3956   0.355   1.219   0.602
 1019SOL    HW2 3957   0.276   1.360   0.622
 1020SOL     OW 3958   1.018   6.525   0.530
 1020SOL    HW1 3959   0.976   6.605   0.487
 1020SOL    HW2 3960   1.115   6.521   0.504
 1021SOL     OW 3961   5.616   1.233   1.875
 1021SOL    HW1 3962   5.605   1.271   1.967
 1021SOL    HW2 3963   5.634   1.135   1.882
 1022SOL     OW 3964   4.179   4.961   6.330
 1022SOL    HW1 3965   4.129   4.903   6.394
 1022SOL    HW2 3966   4.248   4.906   6.282
 1023SOL     OW 3967   6.714   0.127   2.271
 1023SOL    HW1 3968   6.780   0.177   2.327
 1023SOL    HW2 3969   6.660   0.067   2.330
 1024SOL     OW 3970   6.700   2.842   4.415
 1024SOL    HW1 3971   6.685   2.779   4.340
 1024SOL    HW2 3972   6.708   2.791   4.501
 1025SOL     OW 3973   3.725   4.577   0.105
 1025SOL    HW1 3974   3.772   4.660   0.074
 1025SOL    HW2 3975   3.684   4.531   0.026
 1026SOL     OW 3976   1.273   1.006   0.949
 1026SOL    HW1 3977   1.276   1.087   0.891
 1026SOL    HW2 3978   1.240   0.928   0.896
 1027SOL     OW 3979   2.799   5.600   1.506
 1027SOL    HW1 3980   2.865   5.526   1.516
 1027SOL    HW2 3981   2.732   5.596   1.579
 1028SOL     OW 3982   3.246   5.860   0.387
 1028SOL    HW1 3983   3.210   5.907   0.467
 1028SOL    HW2 3984   3.229   5.762   0.396
 1029SOL     OW 3985   1.842   0.503   0.312
 1029SOL    HW1 3986   1.819   0.510   0.409
 1029SOL    HW2 3987   1.877   0.592   0.280
 1030SOL     OW 3988   3.544   2.943   3.418
 1030SOL    HW1 3989   3.511   2.868   3.361
 1030SOL    HW2 3990   3.639   2.962   3.396
 1031SOL     OW 3991   4.202   5.504   1.695
 1031SOL    HW1 3992   4.252   5.529   1.612
 1031SOL    HW2 3993   4.129   5.571   1.711
 1032SOL     OW 3994   2.291   1.566   5.200
 1032SOL    HW1 3995   2.229   1.543   5.126
 1032SOL    HW2 3996   2.371   1.615   5.164
 1033SOL     OW 3997   1.934   6.046   1.241
 1033SOL    HW1 3998   1.964   5.954   1.266
 1033SOL    HW2 3999   2.009   6.111   1.256
 1034SOL     OW 4000   1.816   6.295   4.507
 1034SOL    HW1 4001   1.765   6.306   4.592
 1034SOL    HW2 4002   1.839   6.198   4.494
 1035SOL     OW 4003   2.715   1.896   3.677
 1035SOL    HW1 4004   2.738   1.938   3.589
 1035SOL    HW2 4005   2.618   1.911   3.696
 1036SOL     OW 4006   3.734   0.828   1.027
 1036SOL    HW1 4007   3.706   0.897   0.960
 1036SOL    HW2 4008   3.785   0.755   0.980
 1037SOL     OW 4009   1.210   1.213   1.277
 1037SOL    HW1 4010   1.287   1.162   1.240
 1037SOL    HW2 4011   1.125   1.170   1.250
 1038SOL     OW 4012   0.652   1.015   5.687
 1038SOL    HW1 4013   0.652   1.071   5.769
 1038SOL    HW2 4014   0.592   1.056   5.618
 1039SOL     OW 4015   4.395   1.923   5.077
 1039SOL    HW1 4016   4.383   1.887   5.170
 1039SOL    HW2 4017   4.436   1.852   5.019
 1040SOL     OW 4018   5.430   3.559   3.282
 1040SOL    HW1 4019   5.498   3.632   3.280
 1040SOL    HW2 4020   5.469   3.478   3.326
 1041SOL     OW 4021   6.635   0.169   4.044
 1041SOL    HW1 4022   6.582   0.186   4.127
 1041SOL    HW2 4023   6.575   0.132   3.973
 1042SOL     OW 4024   3.831   4.877   2.602
 1042SOL    HW1 4025   3.916   4.826   2.607
 1042SOL    HW2 4026   3.787   4.861   2.513
 1043SOL     OW 4027   3.909   1.301   6.345
 1043SOL    HW1 4028   3.942   1.300   6.439
 1043SOL    HW2 4029   3.885   1.208   6.316
 1044SOL     OW 4030   3.580   2.397   1.464
 1044SOL    HW1 4031   3.488   2.418   1.433
 1044SOL    HW2 4032   3.583   2.303   1.498
 1045SOL     OW 4033   3.412   0.671   1.831
 1045SOL    HW1 4034   3.358   0.749   1.864
 1045SOL    HW2 4035   3.383   0.588   1.878
 1046SOL     OW 4036   2.627   7.018   6.540
 1046SOL    HW1 4037   2.711   6.982   6.501
 1046SOL    HW2 4038   2.602   6.965   6.621
 1047SOL     OW 4039   1.338   5.380   2.341
 1047SOL    HW1 4040   1.394   5.436   2.401
 1047SOL    HW2 4041   1.276   5.439   2.288
 1048SOL     OW 4042   5.138   5.839   5.232
 1048SOL    HW1 4043   5.056   5.879   5.190
 1048SOL    HW2 4044   5.219   5.889   5.200
 1049SOL     OW 4045   0.042   3.768   4.720
 1049SOL    HW1 4046   0.135   3.731   4.727
 1049SOL    HW2 4047   0.022   3.791   4.625
 1050SOL     OW 4048   3.898   6.240   0.786
 1050SOL    HW1 4049   3.848   6.318   0.825
 1050SOL    HW2 4050   3.841   6.158   0.791
 1051SOL     OW 4051   4.159   4.474   0.019
 1051SOL    HW1 4052   4.152   4.574   0.021
 1051SOL    HW2 4053   4.125   4.437   0.105
 1052SOL     OW 4054   3.921   0.745   4.524
 1052SOL    HW1 4055   3.895   0.760   4.429
 1052SOL    HW2 4056   3.841   0.757   4.583
 1053SOL     OW 4057   6.099   6.083   3.426
 1053SOL    HW1 4058   6.101   5.986   3.450
 1053SOL    HW2 4059   6.191   6.113   3.404
 1054SOL     OW 4060   2.315   5.049   5.436
 1054SOL    HW1 4061   2.391   4.991   5.466
 1054SOL    HW2 4062   2.312   5.049   5.336
 1055SOL     OW 4063   5.706   6.123   4.444
 1055SOL    HW1 4064   5.789   6.143   4.391
 1055SOL    HW2 4065   5.725   6.135   4.541
 1056SOL     OW 4066   1.409   6.553   5.452
 1056SOL    HW1 4067   1.486   6.547   5.516
 1056SOL    HW2 4068   1.440   6.526   5.361
 1057SOL     OW 4069   3.374   3.734   3.468
 1057SOL    HW1 4070   3.276   3.715   3.475
 1057SOL    HW2 4071   3.425   3.665   3.520
 1058SOL     OW 4072   4.736   1.345   2.156
 1058SOL    HW1 4073   4.644   1.378   2.178
 1058SOL    HW2 4074   4.790   1.337   2.240
 1059SOL     OW 4075   3.722   0.490   1.532
 1059SOL    HW1 4076   3.631   0.493   1.573
 1059SOL    HW2 4077   3.713   0.485   1.432
 1060SOL     OW 4078   6.737   3.601   6.131
 1060SOL    HW1 4079   6.767   3.609   6.226
 1060SOL    HW2 4080   6.666   3.530   6.124
 1061SOL     OW 4081   3.775   4.080   0.901
 1061SOL    HW1 4082   3.708   4.140   0.856
 1061SOL    HW2 4083   3.866   4.099   0.863
 1062SOL     OW 4084   6.569   5.993   5.450
 1062SOL    HW1 4085   6.576   6.046   5.365
 1062SOL    HW2 4086   6.489   6.024   5.501
 1063SOL     OW 4087   1.270   3.942   0.603
 1063SOL    HW1 4088   1.311   3.894   0.526
 1063SOL    HW2 4089   1.323   3.924   0.686
 1064SOL     OW 4090   1.279   3.748   2.389
 1064SOL    HW1 4091   1.350   3.768   2.322
 1064SOL    HW2 4092   1.275   3.823   2.456
 1065SOL     OW 4093   4.932   0.578   4.070
 1065SOL    HW1 4094   4.899   0.656   4.123
 1065SOL    HW2 4095   4.857   0.539   4.017
 1066SOL     OW 4096   5.163   0.520   4.197
 1066SOL    HW1 4097   5.158   0.421   4.184
 1066SOL    HW2 4098   5.091   0.565   4.145
 1067SOL     OW 4099   1.299   2.879   0.846
 1067SOL    HW1 4100   1.384   2.899   0.797
 1067SOL    HW2 4101   1.240   2.960   0.845
 1068SOL     OW 4102   0.239   3.879   1.955
 1068SOL    HW1 4103   0.269   3.973   1.965
 1068SOL    HW2 4104   0.238   3.835   2.045
 1069SOL     OW 4105   4.366   4.289   0.992
 1069SOL    HW1 4106   4.273   4.258   1.012
 1069SOL    HW2 4107   4.428   4.257   1.064
 1070SOL     OW 4108   1.877   0.898   6.889
 1070SOL    HW1 4109   1.891   0.914   6.791
 1070SOL    HW2 4110   1.942   0.830   6.922
 1071SOL     OW 4111   3.859   0.277   3.317
 1071SOL    HW1 4112   3.879   0.237   3.227
 1071SOL    HW2 4113   3.794   0.219   3.366
 1072SOL     OW 4114   2.493   5.957   2.075
 1072SOL    HW1 4115   2.511   6.017   2.153
 1072SOL    HW2 4116   2.395   5.959   2.054
 1073SOL     OW 4117   3.850   5.492   2.016
 1073SOL    HW1 4118   3.773   5.554   2.004
 1073SOL    HW2 4119   3.857   5.464   2.112
 1074SOL     OW 4120   1.435   5.839   1.555
 1074SOL    HW1 4121   1.495   5.866   1.631
 1074SOL    HW2 4122   1.377   5.763   1.584
 1075SOL     OW 4123   4.884   4.958   3.149
 1075SOL    HW1 4124   4.785   4.945   3.141
 1075SOL    HW2 4125   4.931   4.880   3.107
 1076SOL     OW 4126   0.782   4.074   4.975
 1076SOL    HW1 4127   0.780   4.133   4.894
 1076SOL    HW2 4128   0.746   4.125   5.054
 1077SOL     OW 4129   6.069   6.839   0.152
 1077SOL    HW1 4130   6.128   6.841   0.233
 1077SOL    HW2 4131   5.989   6.897   0.167
 1078SOL     OW 4132   2.180   1.327   2.289
 1078SOL    HW1 4133   2.272   1.332   2.329
 1078SOL    HW2 4134   2.181   1.368   2.198
 1079SOL     OW 4135   2.142   5.185   3.313
 1079SOL    HW1 4136   2.101   5.210   3.401
 1079SOL    HW2 4137   2.223   5.243   3.297
 1080SOL     OW 4138   2.590   5.313   3.146
 1080SOL    HW1 4139   2.593   5.360   3.058
 1080SOL    HW2 4140   2.678   5.322   3.192
 1081SOL     OW 4141   1.148   1.216   5.661
 1081SOL    HW1 4142   1.052   1.192   5.649
 1081SOL    HW2 4143   1.206   1.149   5.615
 1082SOL     OW 4144   1.582   6.907   5.566
 1082SOL    HW1 4145   1.566   7.002   5.594
 1082SOL    HW2 4146   1.571   6.847   5.645
 1083SOL     OW 4147   3.938   3.326   2.226
 1083SOL    HW1 4148   3.862   3.373   2.271
 1083SOL    HW2 4149   3.976   3.384   2.154
 1084SOL     OW 4150   6.311   5.700   0.950
 1084SOL    HW1 4151   6.226   5.746   0.977
 1084SOL    HW2 4152   6.377   5.704   1.025
 1085SOL     OW 4153   2.062   4.631   3.916
 1085SOL    HW1 4154   2.071   4.707   3.981
 1085SOL    HW2 4155   2.144   4.574   3.921
 1086SOL     OW 4156   6.138   5.471   3.629
 1086SOL    HW1 4157   6.046   5.462   3.591
 1086SOL    HW2 4158   6.206   5.460   3.556
 1087SOL     OW 4159   5.032   3.008   5.150
 1087SOL    HW1 4160   5.051   2.926   5.096
 1087SOL    HW2 4161   4.959   3.060   5.107
 1088SOL     OW 4162   5.302   4.304   3.623
 1088SOL    HW1 4163   5.317   4.316   3.525
 1088SOL    HW2 4164   5.387   4.322   3.673
 1089SOL     OW 4165   0.278   0.432   4.433
 1089SOL    HW1 4166   0.200   0.494   4.430
 1089SOL    HW2 4167   0.332   0.450   4.515
 1090SOL     OW 4168   3.134   1.208   4.788
 1090SOL    HW1 4169   3.049   1.252   4.758
 1090SOL    HW2 4170   3.134   1.112   4.758
 1091SOL     OW 4171   1.468   2.062   4.189
 1091SOL    HW1 4172   1.559   2.024   4.204
 1091SOL    HW2 4173   1.465   2.107   4.100
 1092SOL     OW 4174   2.452   3.828   1.307
 1092SOL    HW1 4175   2.378   3.829   1.375
 1092SOL    HW2 4176   2.493   3.736   1.304
 1093SOL     OW 4177   1.511   1.633   2.277
 1093SOL    HW1 4178   1.424   1.611   2.320
 1093SOL    HW2 4179   1.512   1.600   2.183
 1094SOL     OW 4180   0.120   6.817   1.435
 1094SOL    HW1 4181   0.025   6.787   1.443
 1094SOL    HW2 4182   0.151   6.855   1.522
 1095SOL     OW 4183   6.416   2.213   6.367
 1095SOL    HW1 4184   6.339   2.183   6.422
 1095SOL    HW2 4185   6.417   2.313   6.363
 1096SOL     OW 4186   3.868   5.181   1.552
 1096SOL    HW1 4187   3.850   5.083   1.558
 1096SOL    HW2 4188   3.857   5.223   1.643
 1097SOL     OW 4189   1.393   5.114   4.865
 1097SOL    HW1 4190   1.454   5.114   4.945
 1097SOL    HW2 4191   1.419   5.038   4.804
 1098SOL     OW 4192   5.238   2.501   0.891
 1098SOL    HW1 4193   5.299   2.546   0.825
 1098SOL    HW2 4194   5.220   2.563   0.968
 1099SOL     OW 4195   4.072   1.936   4.320
 1099SOL    HW1 4196   4.062   1.865   4.390
 1099SOL    HW2 4197   4.151   1.993   4.342
 1100SOL     OW 4198   0.682   1.378   6.460
 1100SOL    HW1 4199   0.617   1.434   6.409
 1100SOL    HW2 4200   0.674   1.283   6.430
 1101SOL     OW 4201   5.712   3.724   1.258
 1101SOL    HW1 4202   5.784   3.666   1.296
 1101SOL    HW2 4203   5.634   3.726   1.321
 1102SOL     OW 4204   1.068   4.819   4.346
 1102SOL    HW1 4205   1.043   4.915   4.334
 1102SOL    HW2 4206   1.024   4.764   4.275
 1103SOL     OW 4207   2.097   1.480   2.042
 1103SOL    HW1 4208   2.129   1.566   2.002
 1103SOL    HW2 4209   1.997   1.480   2.045
 1104SOL     OW 4210   2.041   4.150   5.770
 1104SOL    HW1 4211   2.085   4.228   5.816
 1104SOL    HW2 4212   1.948   4.175   5.744
 1105SOL     OW 4213   4.952   4.002   6.861
 1105SOL    HW1 4214   4.928   3.907   6.840
 1105SOL    HW2 4215   5.042   4.006   6.904
 1106SOL     OW 4216   0.501   1.898   6.345
 1106SOL    HW1 4217   0.596   1.879   6.320
 1106SOL    HW2 4218   0.473   1.985   6.305
 1107SOL     OW 4219   0.826   0.222   6.920
 1107SOL    HW1 4220   0.841   0.296   6.985
 1107SOL    HW2 4221   0.909   0.206   6.867
 1108SOL     OW 4222   2.463   0.783   4.783
 1108SOL    HW1 4223   2.515   0.727   4.846
 1108SOL    HW2 4224   2.386   0.826   4.831
 1109SOL     OW 4225   3.664   5.557   4.545
 1109SOL    HW1 4226   3.586   5.616   4.524
 1109SOL    HW2 4227   3.680   5.494   4.469
 1110SOL     OW 4228   2.852   2.585   1.297
 1110SOL    HW1 4229   2.822   2.584   1.393
 1110SOL    HW2 4230   2.923   2.654   1.284
 1111SOL     OW 4231   5.050   6.922   6.511
 1111SOL    HW1 4232   5.088   7.003   6.466
 1111SOL    HW2 4233   4.957   6.906   6.477
 1112SOL     OW 4234   6.033   1.025   2.673
 1112SOL    HW1 4235   6.068   1.028   2.767
 1112SOL    HW2 4236   5.983   0.940   2.658
 1113SOL     OW 4237   6.091   3.172   2.466
 1113SOL    HW1 4238   5.997   3.138   2.467
 1113SOL    HW2 4239   6.098   3.253   2.524
 1114SOL     OW 4240   4.973   0.273   5.942
 1114SOL    HW1 4241   5.056   0.258   5.889
 1114SOL    HW2 4242   4.996   0.275   6.039
 1115SOL     OW 4243   3.897   1.820   0.154
 1115SOL    HW1 4244   3.803   1.850   0.136
 1115SOL    HW2 4245   3.961   1.875   0.100
 1116SOL     OW 4246   5.246   5.492   3.934
 1116SOL    HW1 4247   5.166   5.504   3.992
 1116SOL    HW2 4248   5.218   5.493   3.838
 1117SOL     OW 4249   2.408   2.774   1.314
 1117SOL    HW1 4250   2.439   2.838   1.243
 1117SOL    HW2 4251   2.440   2.682   1.292
 1118SOL     OW 4252   1.628   4.602   3.211
 1118SOL    HW1 4253   1.567   4.660   3.156
 1118SOL    HW2 4254   1.719   4.644   3.213
 1119SOL     OW 4255   4.252   3.982   1.741
 1119SOL    HW1 4256   4.290   4.072   1.763
 1119SOL    HW2 4257   4.154   3.990   1.724
 1120SOL     OW 4258   5.146   6.444   5.702
 1120SOL    HW1 4259   5.242   6.447   5.727
 1120SOL    HW2 4260   5.134   6.383   5.624
 1121SOL     OW 4261   5.042   2.766   2.071
 1121SOL    HW1 4262   4.948   2.761   2.105
 1121SOL    HW2 4263   5.093   2.833   2.125
 1122SOL     OW 4264   5.583   2.915   6.757
 1122SOL    HW1 4265   5.620   3.003   6.788
 1122SOL    HW2 4266   5.503   2.932   6.700
 1123SOL     OW 4267   5.239   1.378   1.648
 1123SOL    HW1 4268   5.224   1.315   1.572
 1123SOL    HW2 4269   5.164   1.444   1.652
 1124SOL     OW 4270   6.831   3.710   4.883
 1124SOL    HW1 4271   6.824   3.624   4.933
 1124SOL    HW2 4272   6.924   3.722   4.849
 1125SOL     OW 4273   2.756   2.279   5.170
 1125SOL    HW1 4274   2.823   2.253   5.239
 1125SOL    HW2 4275   2.738   2.377   5.177
 1126SOL     OW 4276   4.455   6.514   6.913
 1126SOL    HW1 4277   4.517   6.572   6.965
 1126SOL    HW2 4278   4.361   6.532   6.941
 1127SOL     OW 4279   2.616   4.069   6.140
 1127SOL    HW1 4280   2.707   4.036   6.114
 1127SOL    HW2 4281   2.546   4.015   6.093
 1128SOL     OW 4282   4.356   2.380   3.942
 1128SOL    HW1 4283   4.265   2.352   3.972
 1128SOL    HW2 4284   4.380   2.330   3.858
 1129SOL     OW 4285   4.259   0.090   0.456
 1129SOL    HW1 4286   4.167   0.127   0.444
 1129SOL    HW2 4287   4.307   0.143   0.526
 1130SOL     OW 4288   1.749   4.335   1.659
 1130SOL    HW1 4289   1.711   4.249   1.692
 1130SOL    HW2 4290   1.680   4.382   1.603
 1131SOL     OW 4291   0.442   6.185   5.796
 1131SOL    HW1 4292   0.352   6.165   5.759
 1131SOL    HW2 4293   0.443   6.277   5.835
 1132SOL     OW 4294   5.282   6.899   5.958
 1132SOL    HW1 4295   5.292   6.954   6.041
 1132SOL    HW2 4296   5.274   6.803   5.982
 1133SOL     OW 4297   0.574   2.349   1.956
 1133SOL    HW1 4298   0.572   2.392   1.865
 1133SOL    HW2 4299   0.603   2.254   1.947
 1134SOL     OW 4300   5.728   2.504   6.758
 1134SOL    HW1 4301   5.811   2.560   6.749
 1134SOL    HW2 4302   5.657   2.542   6.699
 1135SOL     OW 4303   3.094   2.199   3.492
 1135SOL    HW1 4304   3.001   2.213   3.526
 1135SOL    HW2 4305   3.090   2.165   3.397
 1136SOL     OW 4306   2.213   4.961   3.717
 1136SOL    HW1 4307   2.312   4.967   3.730
 1136SOL    HW2 4308   2.169   4.941   3.804
 1137SOL     OW 4309   0.842   1.907   6.933
 1137SOL    HW1 4310   0.853   1.995   6.979
 1137SOL    HW2 4311   0.820   1.836   7.000
 1138SOL     OW 4312   2.157   3.335   5.939
 1138SOL    HW1 4313   2.230   3.281   5.897
 1138SOL    HW2 4314   2.172   3.432   5.921
 1139SOL     OW 4315   1.506   6.259   3.165
 1139SOL    HW1 4316   1.495   6.160   3.155
 1139SOL    HW2 4317   1.424   6.297   3.209
 1140SOL     OW 4318   3.871   2.101   3.156
 1140SOL    HW1 4319   3.924   2.131   3.236
 1140SOL    HW2 4320   3.934   2.077   3.082
 1141SOL     OW 4321   5.273   5.522   5.768
 1141SOL    HW1 4322   5.339   5.559   5.703
 1141SOL    HW2 4323   5.295   5.427   5.788
 1142SOL     OW 4324   5.035   0.161   4.321
 1142SOL    HW1 4325   4.987   0.122   4.243
 1142SOL    HW2 4326   5.132   0.172   4.300
 1143SOL     OW 4327   4.198   2.231   2.383
 1143SOL    HW1 4328   4.158   2.213   2.473
 1143SOL    HW2 4329   4.126   2.261   2.320
 1144SOL     OW 4330   0.003   4.432   4.202
 1144SOL    HW1 4331   0.098   4.439   4.232
 1144SOL    HW2 4332   7.024   4.435   4.102
 1145SOL     OW 4333   6.908   5.715   3.289
 1145SOL    HW1 4334   6.999   5.721   3.330
 1145SOL    HW2 4335   6.916   5.701   3.191
 1146SOL     OW 4336   5.378   1.783   0.821
 1146SOL    HW1 4337   5.396   1.813   0.914
 1146SOL    HW2 4338   5.339   1.859   0.768
 1147SOL     OW 4339   1.166   3.583   1.673
 1147SOL    HW1 4340   1.118   3.661   1.712
 1147SOL    HW2 4341   1.100   3.512   1.649
 1148SOL     OW 4342   3.460   6.231   6.138
 1148SOL    HW1 4343   3.538   6.211   6.078
 1148SOL    HW2 4344   3.390   6.280   6.086
 1149SOL     OW 4345   6.301   3.409   3.106
 1149SOL    HW1 4346   6.363   3.336   3.077
 1149SOL    HW2 4347   6.226   3.370   3.160
 1150SOL     OW 4348   2.453   4.710   1.270
 1150SOL    HW1 4349   2.484   4.620   1.302
 1150SOL    HW2 4350   2.533   4.769   1.253
 1151SOL     OW 4351   5.645   5.842   6.118
 1151SOL    HW1 4352   5.601   5.800   6.040
 1151SOL    HW2 4353   5.604   5.808   6.203
 1152SOL     OW 4354   1.315   0.458   4.458
 1152SOL    HW1 4355   1.336   0.413   4.544
 1152SOL    HW2 4356   1.334   0.396   4.382
 1153SOL     OW 4357   2.264   6.199   3.139
 1153SOL    HW1 4358   2.333   6.136   3.103
 1153SOL    HW2 4359   2.205   6.150   3.203
 1154SOL     OW 4360   0.222   3.566   1.660
 1154SOL    HW1 4361   0.320   3.551   1.654
 1154SOL    HW2 4362   0.194   3.562   1.756
 1155SOL     OW 4363   3.492   6.007   0.426
 1155SOL    HW1 4364   3.493   6.008   0.526
 1155SOL    HW2 4365   3.440   5.927   0.394
 1156SOL     OW 4366   2.206   0.119   3.569
 1156SOL    HW1 4367   2.274   0.161   3.629
 1156SOL    HW2 4368   2.117   0.117   3.614
 1157SOL     OW 4369   6.980   2.360   5.064
 1157SOL    HW1 4370   6.955   2.433   5.127
 1157SOL    HW2 4371   0.037   2.386   5.013
 1158SOL     OW 4372   5.756   4.881   5.626
 1158SOL    HW1 4373   5.686   4.908   5.559
 1158SOL    HW2 4374   5.713   4.832   5.701
 1159SOL     OW 4375   3.979   6.866   2.868
 1159SOL    HW1 4376   3.963   6.805   2.790
 1159SOL    HW2 4377   3.891   6.890   2.909
 1160SOL     OW 4378   3.695   4.054   2.205
 1160SOL    HW1 4379   3.735   4.049   2.296
 1160SOL    HW2 4380   3.760   4.019   2.137
 1161SOL     OW 4381   5.238   0.429   4.999
 1161SOL    HW1 4382   5.209   0.334   5.012
 1161SOL    HW2 4383   5.159   0.490   5.011
 1162SOL     OW 4384   3.392   3.012   0.924
 1162SOL    HW1 4385   3.456   2.971   0.989
 1162SOL    HW2 4386   3.339   2.940   0.880
 1163SOL     OW 4387   5.020   2.326   1.952
 1163SOL    HW1 4388   4.926   2.358   1.963
 1163SOL    HW2 4389   5.021   2.227   1.936
 1164SOL     OW 4390   5.255   2.906   2.975
 1164SOL    HW1 4391   5.196   2.853   3.035
 1164SOL    HW2 4392   5.255   2.867   2.883
 1165SOL     OW 4393   1.150   3.483   3.895
 1165SOL    HW1 4394   1.144   3.385   3.874
 1165SOL    HW2 4395   1.212   3.527   3.830
 1166SOL     OW 4396   3.935   1.902   6.470
 1166SOL    HW1 4397   3.899   1.836   6.405
 1166SOL    HW2 4398   3.982   1.976   6.421
 1167SOL     OW 4399   3.628   0.420   5.164
 1167SOL    HW1 4400   3.587   0.350   5.105
 1167SOL    HW2 4401   3.693   0.377   5.227
 1168SOL     OW 4402   6.142   0.025   3.189
 1168SOL    HW1 4403   6.082   0.075   3.251
 1168SOL    HW2 4404   6.130   0.059   3.096
 1169SOL     OW 4405   0.220   3.175   0.740
 1169SOL    HW1 4406   0.262   3.258   0.704
 1169SOL    HW2 4407   0.154   3.199   0.811
 1170SOL     OW 4408   3.779   1.066   2.398
 1170SOL    HW1 4409   3.798   1.078   2.495
 1170SOL    HW2 4410   3.777   0.969   2.375
 1171SOL     OW 4411   2.793   6.054   1.125
 1171SOL    HW1 4412   2.753   6.080   1.037
 1171SOL    HW2 4413   2.821   5.958   1.121
 1172SOL     OW 4414   3.932   3.985   3.973
 1172SOL    HW1 4415   3.877   4.050   3.921
 1172SOL    HW2 4416   3.993   3.936   3.912
 1173SOL     OW 4417   3.536   0.358   5.461
 1173SOL    HW1 4418   3.485   0.353   5.375
 1173SOL    HW2 4419   3.528   0.450   5.499
 1174SOL     OW 4420   2.617   5.585   0.688
 1174SOL    HW1 4421   2.550   5.583   0.613
 1174SOL    HW2 4422   2.654   5.678   0.696
 1175SOL     OW 4423   6.062   4.812   0.218
 1175SOL    HW1 4424   6.083   4.849   0.309
 1175SOL    HW2 4425   6.135   4.750   0.189
 1176SOL     OW 4426   5.689   5.006   0.990
 1176SOL    HW1 4427   5.638   5.065   0.927
 1176SOL    HW2 4428   5.681   5.043   1.083
 1177SOL     OW 4429   6.914   2.582   5.211
 1177SOL    HW1 4430   6.936   2.634   5.294
 1177SOL    HW2 4431   6.824   2.608   5.178
 1178SOL     OW 4432   4.740   4.262   2.548
 1178SOL    HW1 4433   4.707   4.272   2.454
 1178SOL    HW2 4434   4.764   4.166   2.564
 1179SOL     OW 4435   1.799   3.883   0.767
 1179SOL    HW1 4436   1.786   3.807   0.703
 1179SOL    HW2 4437   1.896   3.903   0.775
 1180SOL     OW 4438   2.251   1.320   3.546
 1180SOL    HW1 4439   2.197   1.333   3.630
 1180SOL    HW2 4440   2.192   1.333   3.466
 1181SOL     OW 4441   1.228   4.776   4.558
 1181SOL    HW1 4442   1.258   4.681   4.563
 1181SOL    HW2 4443   1.178   4.791   4.473
 1182SOL     OW 4444   2.367   4.301   3.638
 1182SOL    HW1 4445   2.273   4.280   3.613
 1182SOL    HW2 4446   2.417   4.329   3.556
 1183SOL     OW 4447   4.559   5.341   1.663
 1183SOL    HW1 4448   4.501   5.261   1.652
 1183SOL    HW2 4449   4.577   5.357   1.760
 1184SOL     OW 4450   3.430   3.234   5.555
 1184SOL    HW1 4451   3.458   3.158   5.614
 1184SOL    HW2 4452   3.369   3.295   5.605
 1185SOL     OW 4453   2.418   0.640   0.359
 1185SOL    HW1 4454   2.434   0.623   0.262
 1185SOL    HW2 4455   2.464   0.569   0.413
 1186SOL     OW 4456   6.349   0.080   5.138
 1186SOL    HW1 4457   6.280   0.066   5.210
 1186SOL    HW2 4458   6.420   0.141   5.173
 1187SOL     OW 4459   5.343   5.974   4.637
 1187SOL    HW1 4460   5.320   6.017   4.550
 1187SOL    HW2 4461   5.334   5.875   4.629
 1188SOL     OW 4462   2.414   6.831   6.064
 1188SOL    HW1 4463   2.391   6.865   6.155
 1188SOL    HW2 4464   2.398   6.732   6.060
 1189SOL     OW 4465   5.286   1.413   2.263
 1189SOL    HW1 4466   5.242   1.423   2.174
 1189SOL    HW2 4467   5.217   1.407   2.335
 1190SOL     OW 4468   3.641   5.307   3.325
 1190SOL    HW1 4469   3.687   5.222   3.350
 1190SOL    HW2 4470   3.562   5.321   3.385
 1191SOL     OW 4471   3.613   5.191   6.305
 1191SOL    HW1 4472   3.705   5.176   6.268
 1191SOL    HW2 4473   3.552   5.119   6.272
 1192SOL     OW 4474   5.607   4.657   3.285
 1192SOL    HW1 4475   5.508   4.644   3.288
 1192SOL    HW2 4476   5.628   4.754   3.295
 1193SOL     OW 4477   5.402   6.990   4.342
 1193SOL    HW1 4478   5.344   6.971   4.420
 1193SOL    HW2 4479   5.361   6.950   4.259
 1194SOL     OW 4480   6.829   0.584   0.730
 1194SOL    HW1 4481   6.747   0.631   0.765
 1194SOL    HW2 4482   6.845   0.501   0.783
 1195SOL     OW 4483   6.265   1.083   6.091
 1195SOL    HW1 4484   6.179   1.131   6.107
 1195SOL    HW2 4485   6.319   1.083   6.175
 1196SOL     OW 4486   0.269   5.021   2.325
 1196SOL    HW1 4487   0.330   5.095   2.299
 1196SOL    HW2 4488   0.277   4.946   2.259
 1197SOL     OW 4489   3.960   5.965   5.219
 1197SOL    HW1 4490   4.011   5.879   5.214
 1197SOL    HW2 4491   4.024   6.041   5.225
 1198SOL     OW 4492   2.840   2.227   2.359
 1198SOL    HW1 4493   2.801   2.138   2.335
 1198SOL    HW2 4494   2.889   2.264   2.280
 1199SOL     OW 4495   3.268   4.025   2.678
 1199SOL    HW1 4496   3.358   4.067   2.665
 1199SOL    HW2 4497   3.257   3.950   2.613
 1200SOL     OW 4498   4.266   3.905   5.275
 1200SOL    HW1 4499   4.354   3.942   5.304
 1200SOL    HW2 4500   4.204   3.980   5.253
 1201SOL     OW 4501   1.815   1.740   5.058
 1201SOL    HW1 4502   1.776   1.669   4.999
 1201SOL    HW2 4503   1.909   1.758   5.030
 1202SOL     OW 4504   5.671   6.811   5.930
 1202SOL    HW1 4505   5.643   6.875   6.002
 1202SOL    HW2 4506   5.616   6.828   5.848
 1203SOL     OW 4507   5.370   0.245   1.015
 1203SOL    HW1 4508   5.318   0.308   1.073
 1203SOL    HW2 4509   5.315   0.219   0.936
 1204SOL     OW 4510   3.640   1.480   0.479
 1204SOL    HW1 4511   3.563   1.537   0.448
 1204SOL    HW2 4512   3.717   1.539   0.504
 1205SOL     OW 4513   5.611   2.678   6.574
 1205SOL    HW1 4514   5.692   2.735   6.558
 1205SOL    HW2 4515   5.564   2.709   6.657
 1206SOL     OW 4516   2.047   1.487   5.017
 1206SOL    HW1 4517   2.108   1.410   5.039
 1206SOL    HW2 4518   1.996   1.465   4.934
 1207SOL     OW 4519   6.582   6.413   0.448
 1207SOL    HW1 4520   6.594   6.511   0.468
 1207SOL    HW2 4521   6.656   6.383   0.387
 1208SOL     OW 4522   3.369   3.590   2.674
 1208SOL    HW1 4523   3.463   3.606   2.702
 1208SOL    HW2 4524   3.321   3.677   2.665
 1209SOL     OW 4525   6.461   5.608   5.376
 1209SOL    HW1 4526   6.407   5.688   5.402
 1209SOL    HW2 4527   6.430   5.528   5.429
 1210SOL     OW 4528   3.877   0.501   2.504
 1210SOL    HW1 4529   3.832   0.530   2.588
 1210SOL    HW2 4530   3.885   0.401   2.503
 1211SOL     OW 4531   1.301   3.499   3.683
 1211SOL    HW1 4532   1.294   3.400   3.697
 1211SOL    HW2 4533   1.346   3.517   3.595
 1212SOL     OW 4534   1.279   3.077   5.730
 1212SOL    HW1 4535   1.215   3.015   5.775
 1212SOL    HW2 4536   1.232   3.163   5.706
 1213SOL     OW 4537   6.404   2.897   5.000
 1213SOL    HW1 4538   6.326   2.835   5.017
 1213SOL    HW2 4539   6.408   2.920   4.903
 1214SOL     OW 4540   1.880   3.412   4.702
 1214SOL    HW1 4541   1.965   3.359   4.706
 1214SOL    HW2 4542   1.812   3.362   4.647
 1215SOL     OW 4543   2.228   4.346   2.787
 1215SOL    HW1 4544   2.252   4.437   2.752
 1215SOL    HW2 4545   2.296   4.318   2.855
 1216SOL     OW 4546   0.908   6.589   1.604
 1216SOL    HW1 4547   0.826   6.532   1.609
 1216SOL    HW2 4548   0.989   6.530   1.601
 1217SOL     OW 4549   1.032   6.484   6.692
 1217SOL    HW1 4550   1.118   6.433   6.696
 1217SOL    HW2 4551   0.958   6.427   6.729
 1218SOL     OW 4552   1.272   3.201   5.318
 1218SOL    HW1 4553   1.334   3.177   5.243
 1218SOL    HW2 4554   1.226   3.287   5.297
 1219SOL     OW 4555   4.710   4.930   0.384
 1219SOL    HW1 4556   4.676   4.857   0.444
 1219SOL    HW2 4557   4.787   4.976   0.427
 1220SOL     OW 4558   5.570   3.398   2.647
 1220SOL    HW1 4559   5.667   3.378   2.657
 1220SOL    HW2 4560   5.554   3.445   2.560
 1221SOL     OW 4561   5.788   3.936   0.040
 1221SOL    HW1 4562   5.768   3.838   0.038
 1221SOL    HW2 4563   5.886   3.950   0.024
 1222SOL     OW 4564   6.954   6.661   0.823
 1222SOL    HW1 4565   7.017   6.710   0.883
 1222SOL    HW2 4566   6.960   6.563   0.843
 1223SOL     OW 4567   5.920   0.193   6.585
 1223SOL    HW1 4568   5.937   0.109   6.636
 1223SOL    HW2 4569   5.983   0.264   6.616
 1224SOL     OW 4570   3.845   5.789   7.023
 1224SOL    HW1 4571   3.856   5.873   6.970
 1224SOL    HW2 4572   3.809   5.717   6.963
 1225SOL     OW 4573   4.014   1.589   1.210
 1225SOL    HW1 4574   3.917   1.573   1.190
 1225SOL    HW2 4575   4.030   1.576   1.308
 1226SOL     OW 4576   5.781   6.462   1.046
 1226SOL    HW1 4577   5.806   6.413   1.129
 1226SOL    HW2 4578   5.862   6.477   0.990
 1227SOL     OW 4579   5.687   4.534   5.673
 1227SOL    HW1 4580   5.639   4.622   5.674
 1227SOL    HW2 4581   5.749   4.531   5.594
 1228SOL     OW 4582   3.507   2.945   2.005
 1228SOL    HW1 4583   3.564   2.869   1.972
 1228SOL    HW2 4584   3.555   2.992   2.079
 1229SOL     OW 4585   1.327   6.572   2.185
 1229SOL    HW1 4586   1.384   6.498   2.147
 1229SOL    HW2 4587   1.232   6.558   2.157
 1230SOL     OW 4588   5.295   5.482   2.845
 1230SOL    HW1 4589   5.197   5.497   2.858
 1230SOL    HW2 4590   5.346   5.550   2.898
 1231SOL     OW 4591   2.001   2.801   6.212
 1231SOL    HW1 4592   1.963   2.891   6.230
 1231SOL    HW2 4593   1.931   2.742   6.171
 1232SOL     OW 4594   3.932   1.403   4.651
 1232SOL    HW1 4595   3.988   1.426   4.731
 1232SOL    HW2 4596   3.968   1.451   4.571
 1233SOL     OW 4597   1.364   4.683   3.799
 1233SOL    HW1 4598   1.448   4.736   3.805
 1233SOL    HW2 4599   1.378   4.603   3.740
 1234SOL     OW 4600   6.850   3.247   0.085
 1234SOL    HW1 4601   6.828   3.343   0.069
 1234SOL    HW2 4602   6.784   3.189   0.038
 1235SOL     OW 4603   6.116   4.865   0.517
 1235SOL    HW1 4604   6.042   4.836   0.578
 1235SOL    HW2 4605   6.204   4.838   0.556
 1236SOL     OW 4606   3.460   1.424   0.214
 1236SOL    HW1 4607   3.542   1.443   0.159
 1236SOL    HW2 4608   3.438   1.503   0.270
 1237SOL     OW 4609   1.499   0.690   4.467
 1237SOL    HW1 4610   1.542   0.677   4.378
 1237SOL    HW2 4611   1.419   0.631   4.475
 1238SOL     OW 4612   0.432   0.432   3.007
 1238SOL    HW1 4613   0.440   0.475   3.097
 1238SOL    HW2 4614   0.339   0.399   2.994
 1239SOL     OW 4615   0.240   5.077   4.266
 1239SOL    HW1 4616   0.271   5.048   4.356
 1239SOL    HW2 4617   0.268   5.010   4.197
 1240SOL     OW 4618   6.122   5.774   2.905
 1240SOL    HW1 4619   6.046   5.711   2.891
 1240SOL    HW2 4620   6.195   5.752   2.840
 1241SOL     OW 4621   6.913   5.412   4.368
 1241SOL    HW1 4622   7.011   5.403   4.349
 1241SOL    HW2 4623   6.861   5.376   4.291
 1242SOL     OW 4624   1.364   3.684   0.125
 1242SOL    HW1 4625   1.321   3.653   0.210
 1242SOL    HW2 4626   1.461   3.659   0.126
 1243SOL     OW 4627   0.767   3.444   5.851
 1243SOL    HW1 4628   0.865   3.456   5.870
 1243SOL    HW2 4629   0.753   3.355   5.807
 1244SOL     OW 4630   5.737   6.670   5.187
 1244SOL    HW1 4631   5.671   6.725   5.237
 1244SOL    HW2 4632   5.829   6.702   5.206
 1245SOL     OW 4633   5.171   5.883   1.222
 1245SOL    HW1 4634   5.240   5.828   1.175
 1245SOL    HW2 4635   5.083   5.872   1.177
 1246SOL     OW 4636   4.847   1.155   0.927
 1246SOL    HW1 4637   4.785   1.229   0.902
 1246SOL    HW2 4638   4.941   1.182   0.905
 1247SOL     OW 4639   6.858   6.885   3.725
 1247SOL    HW1 4640   6.856   6.824   3.804
 1247SOL    HW2 4641   6.879   6.978   3.755
 1248SOL     OW 4642   0.016   6.693   4.524
 1248SOL    HW1 4643   7.004   6.600   4.531
 1248SOL    HW2 4644   6.994   6.752   4.591
 1249SOL     OW 4645   0.435   4.607   1.271
 1249SOL    HW1 4646   0.441   4.682   1.337
 1249SOL    HW2 4647   0.516   4.548   1.280
 1250SOL     OW 4648   5.921   3.998   5.173
 1250SOL    HW1 4649   5.931   3.986   5.075
 1250SOL    HW2 4650   6.007   3.973   5.218
 1251SOL     OW 4651   2.321   1.321   3.171
 1251SOL    HW1 4652   2.342   1.387   3.099
 1251SOL    HW2 4653   2.405   1.293   3.216
 1252SOL     OW 4654   3.112   5.582   0.160
 1252SOL    HW1 4655   3.146   5.663   0.112
 1252SOL    HW2 4656   3.046   5.535   0.101
 1253SOL     OW 4657   3.204   0.421   0.775
 1253SOL    HW1 4658   3.251   0.373   0.701
 1253SOL    HW2 4659   3.135   0.483   0.736
 1254SOL     OW 4660   6.150   1.684   3.053
 1254SOL    HW1 4661   6.189   1.776   3.056
 1254SOL    HW2 4662   6.093   1.675   2.971
 1255SOL     OW 4663   5.842   2.733   5.050
 1255SOL    HW1 4664   5.747   2.749   5.020
 1255SOL    HW2 4665   5.858   2.635   5.061
 1256SOL     OW 4666   6.563   5.632   3.670
 1256SOL    HW1 4667   6.576   5.712   3.728
 1256SOL    HW2 4668   6.572   5.659   3.574
 1257SOL     OW 4669   0.934   4.492   3.567
 1257SOL    HW1 4670   0.882   4.494   3.653
 1257SOL    HW2 4671   0.899   4.563   3.506
 1258SOL     OW 4672   1.764   5.821   3.569
 1258SOL    HW1 4673   1.734   5.797   3.661
 1258SOL    HW2 4674   1.818   5.746   3.530
 1259SOL     OW 4675   4.810   0.571   5.152
 1259SOL    HW1 4676   4.788   0.648   5.211
 1259SOL    HW2 4677   4.755   0.577   5.068
 1260SOL     OW 4678   2.895   0.743   2.123
 1260SOL    HW1 4679   2.805   0.783   2.142
 1260SOL    HW2 4680   2.944   0.802   2.059
 1261SOL     OW 4681   0.226   3.856   6.744
 1261SOL    HW1 4682   0.292   3.891   6.811
 1261SOL    HW2 4683   0.146   3.916   6.741
 1262SOL     OW 4684   4.362   5.085   1.158
 1262SOL    HW1 4685   4.281   5.121   1.112
 1262SOL    HW2 4686   4.398   5.154   1.221
 1263SOL     OW 4687   6.577   2.050   1.171
 1263SOL    HW1 4688   6.568   2.060   1.072
 1263SOL    HW2 4689   6.642   1.977   1.192
 1264SOL     OW 4690   0.581   4.634   3.419
 1264SOL    HW1 4691   0.516   4.709   3.412
 1264SOL    HW2 4692   0.531   4.548   3.431
 1265SOL     OW 4693   0.525   3.830   4.192
 1265SOL    HW1 4694   0.470   3.746   4.188
 1265SOL    HW2 4695   0.595   3.820   4.263
 1266SOL     OW 4696   2.525   1.357   5.325
 1266SOL    HW1 4697   2.527   1.454   5.299
 1266SOL    HW2 4698   2.432   1.332   5.353
 1267SOL     OW 4699   0.025   5.535   2.716
 1267SOL    HW1 4700   0.018   5.475   2.636
 1267SOL    HW2 4701   6.977   5.604   2.712
 1268SOL     OW 4702   5.303   2.029   6.754
 1268SOL    HW1 4703   5.388   2.080   6.743
 1268SOL    HW2 4704   5.225   2.086   6.729
 1269SOL     OW 4705   6.829   6.618   5.305
 1269SOL    HW1 4706   6.919   6.660   5.293
 1269SOL    HW2 4707   6.765   6.686   5.338
 1270SOL     OW 4708   2.188   4.062   4.383
 1270SOL    HW1 4709   2.184   3.972   4.427
 1270SOL    HW2 4710   2.244   4.124   4.438
 1271SOL     OW 4711   3.345   2.068   3.181
 1271SOL    HW1 4712   3.303   2.157   3.197
 1271SOL    HW2 4713   3.305   2.001   3.243
 1272SOL     OW 4714   0.164   5.690   1.067
 1272SOL    HW1 4715   0.104   5.610   1.065
 1272SOL    HW2 4716   0.189   5.711   1.161
 1273SOL     OW 4717   1.818   4.054   0.383
 1273SOL    HW1 4718   1.864   4.142   0.390
 1273SOL    HW2 4719   1.881   3.986   0.345
 1274SOL     OW 4720   0.429   2.872   1.888
 1274SOL    HW1 4721   0.378   2.799   1.934
 1274SOL    HW2 4722   0.524   2.870   1.920
 1275SOL     OW 4723   4.373   0.714   3.802
 1275SOL    HW1 4724   4.445   0.684   3.865
 1275SOL    HW2 4725   4.413   0.769   3.729
 1276SOL     OW 4726   6.721   0.513   3.067
 1276SOL    HW1 4727   6.689   0.443   3.004
 1276SOL    HW2 4728   6.732   0.474   3.158
 1277SOL     OW 4729   0.440   1.173   4.956
 1277SOL    HW1 4730   0.480   1.088   4.989
 1277SOL    HW2 4731   0.454   1.245   5.023
 1278SOL     OW 4732   2.180   2.024   5.805
 1278SOL    HW1 4733   2.172   2.015   5.904
 1278SOL    HW2 4734   2.098   1.985   5.762
 1279SOL     OW 4735   2.556   7.019   0.964
 1279SOL    HW1 4736   2.529   6.932   1.007
 1279SOL    HW2 4737   2.619   7.002   0.889
 1280SOL     OW 4738   2.403   0.407   2.662
 1280SOL    HW1 4739   2.312   0.444   2.644
 1280SOL    HW2 4740   2.440   0.367   2.578
 1281SOL     OW 4741   1.056   5.910   2.988
 1281SOL    HW1 4742   1.016   5.818   2.987
 1281SOL    HW2 4743   0.988   5.975   3.023
 1282SOL     OW 4744   0.474   1.254   1.115
 1282SOL    HW1 4745   0.443   1.204   1.034
 1282SOL    HW2 4746   0.559   1.302   1.093
 1283SOL     OW 4747   5.420   3.675   5.492
 1283SOL    HW1 4748   5.335   3.663   5.442
 1283SOL    HW2 4749   5.401   3.705   5.585
 1284SOL     OW 4750   2.959   2.564   1.730
 1284SOL    HW1 4751   2.911   2.501   1.792
 1284SOL    HW2 4752   3.048   2.526   1.706
 1285SOL     OW 4753   5.967   3.259   6.397
 1285SOL    HW1 4754   5.893   3.324   6.387
 1285SOL    HW2 4755   5.939   3.185   6.457
 1286SOL     OW 4756   4.808   4.535   2.283
 1286SOL    HW1 4757   4.852   4.567   2.367
 1286SOL    HW2 4758   4.783   4.439   2.293
 1287SOL     OW 4759   6.031   4.865   6.641
 1287SOL    HW1 4760   6.129   4.848   6.647
 1287SOL    HW2 4761   6.012   4.920   6.559
 1288SOL     OW 4762   0.540   2.978   0.494
 1288SOL    HW1 4763   0.607   2.974   0.420
 1288SOL    HW2 4764   0.555   3.062   0.547
 1289SOL     OW 4765   0.128   5.912   1.537
 1289SOL    HW1 4766   0.030   5.921   1.522
 1289SOL    HW2 4767   0.143   5.843   1.608
 1290SOL     OW 4768   0.421   0.915   6.946
 1290SOL    HW1 4769   0.454   0.867   6.865
 1290SOL    HW2 4770   0.354   0.859   6.994
 1291SOL     OW 4771   2.387   4.718   6.605
 1291SOL    HW1 4772   2.425   4.707   6.514
 1291SOL    HW2 4773   2.397   4.813   6.635
 1292SOL     OW 4774   6.833   4.582   2.187
 1292SOL    HW1 4775   6.859   4.590   2.283
 1292SOL    HW2 4776   6.868   4.495   2.150
 1293SOL     OW 4777   2.542   0.972   6.065
 1293SOL    HW1 4778   2.636   0.984   6.031
 1293SOL    HW2 4779   2.483   1.042   6.024
 1294SOL     OW 4780   0.291   3.208   1.685
 1294SOL    HW1 4781   0.386   3.235   1.695
 1294SOL    HW2 4782   0.249   3.262   1.612
 1295SOL     OW 4783   6.126   3.965   2.654
 1295SOL    HW1 4784   6.187   4.005   2.723
 1295SOL    HW2 4785   6.116   3.867   2.671
 1296SOL     OW 4786   3.135   1.887   6.058
 1296SOL    HW1 4787   3.206   1.817   6.052
 1296SOL    HW2 4788   3.059   1.862   5.998
 1297SOL     OW 4789   5.929   1.809   5.673
 1297SOL    HW1 4790   5.880   1.837   5.590
 1297SOL    HW2 4791   5.867   1.760   5.734
 1298SOL     OW 4792   5.748   3.432   3.424
 1298SOL    HW1 4793   5.772   3.343   3.385
 1298SOL    HW2 4794   5.774   3.504   3.359
 1299SOL     OW 4795   2.057   4.357   3.273
 1299SOL    HW1 4796   2.139   4.300   3.270
 1299SOL    HW2 4797   2.041   4.387   3.367
 1300SOL     OW 4798   2.996   3.738   2.173
 1300SOL    HW1 4799   3.002   3.781   2.263
 1300SOL    HW2 4800   2.953   3.648   2.181
 1301SOL     OW 4801   1.265   6.540   2.459
 1301SOL    HW1 4802   1.245   6.445   2.483
 1301SOL    HW2 4803   1.242   6.555   2.363
 1302SOL     OW 4804   2.250   6.802   4.465
 1302SOL    HW1 4805   2.341   6.813   4.503
 1302SOL    HW2 4806   2.186   6.863   4.512
 1303SOL     OW 4807   4.049   1.167   1.006
 1303SOL    HW1 4808   4.111   1.095   0.976
 1303SOL    HW2 4809   4.098   1.254   1.012
 1304SOL     OW 4810   1.293   0.955   6.219
 1304SOL    HW1 4811   1.266   0.872   6.267
 1304SOL    HW2 4812   1.280   0.943   6.120
 1305SOL     OW 4813   5.382   5.807   4.942
 1305SOL    HW1 4814   5.300   5.802   4.885
 1305SOL    HW2 4815   5.408   5.715   4.971
 1306SOL     OW 4816   0.916   4.070   5.268
 1306SOL    HW1 4817   0.963   3.985   5.248
 1306SOL    HW2 4818   0.817   4.059   5.253
 1307SOL     OW 4819   1.702   3.075   4.890
 1307SOL    HW1 4820   1.700   3.127   4.976
 1307SOL    HW2 4821   1.797   3.052   4.868
 1308SOL     OW 4822   4.125   5.971   4.622
 1308SOL    HW1 4823   4.118   5.937   4.716
 1308SOL    HW2 4824   4.064   5.920   4.563
 1309SOL     OW 4825   5.603   3.280   5.551
 1309SOL    HW1 4826   5.523   3.223   5.532
 1309SOL    HW2 4827   5.640   3.315   5.465
 1310SOL     OW 4828   5.754   4.189   5.288
 1310SOL    HW1 4829   5.744   4.244   5.205
 1310SOL    HW2 4830   5.820   4.116   5.271
 1311SOL     OW 4831   5.971   6.707   4.214
 1311SOL    HW1 4832   5.876   6.716   4.187
 1311SOL    HW2 4833   5.984   6.620   4.261
 1312SOL     OW 4834   0.707   0.675   6.958
 1312SOL    HW1 4835   0.785   0.731   6.930
 1312SOL    HW2 4836   0.638   0.675   6.885
 1313SOL     OW 4837   2.638   5.739   5.614
 1313SOL    HW1 4838   2.552   5.766   5.658
 1313SOL    HW2 4839   2.624   5.653   5.565
 1314SOL     OW 4840   1.913   1.292   5.983
 1314SOL    HW1 4841   1.882   1.220   5.922
 1314SOL    HW2 4842   1.848   1.368   5.982
 1315SOL     OW 4843   1.167   1.372   0.731
 1315SOL    HW1 4844   1.166   1.340   0.636
 1315SOL    HW2 4845   1.256   1.351   0.772
 1316SOL     OW 4846   1.972   7.013   3.094
 1316SOL    HW1 4847   1.882   7.000   3.135
 1316SOL    HW2 4848   2.019   0.065   3.139
 1317SOL     OW 4849   0.716   4.659   4.730
 1317SOL    HW1 4850   0.641   4.662   4.796
 1317SOL    HW2 4851   0.748   4.752   4.712
 1318SOL     OW 4852   0.652   1.021   0.825
 1318SOL    HW1 4853   0.718   1.055   0.759
 1318SOL    HW2 4854   0.577   1.087   0.835
 1319SOL     OW 4855   5.947   1.064   6.931
 1319SOL    HW1 4856   5.936   1.155   6.891
 1319SOL    HW2 4857   6.034   1.060   6.980
 1320SOL     OW 4858   5.684   4.473   0.094
 1320SOL    HW1 4859   5.600   4.511   0.055
 1320SOL    HW2 4860   5.732   4.420   0.024
 1321SOL     OW 4861   4.398   3.261   0.277
 1321SOL    HW1 4862   4.374   3.342   0.224
 1321SOL    HW2 4863   4.468   3.209   0.228
 1322SOL     OW 4864   5.142   1.244   3.071
 1322SOL    HW1 4865   5.219   1.180   3.067
 1322SOL    HW2 4866   5.176   1.337   3.085
 1323SOL     OW 4867   5.468   1.367   5.356
 1323SOL    HW1 4868   5.503   1.275   5.338
 1323SOL    HW2 4869   5.542   1.424   5.392
 1324SOL     OW 4870   1.644   2.130   2.185
 1324SOL    HW1 4871   1.596   2.106   2.270
 1324SOL    HW2 4872   1.722   2.189   2.207
 1325SOL     OW 4873   2.256   7.024   2.814
 1325SOL    HW1 4874   2.295   0.085   2.846
 1325SOL    HW2 4875   2.285   6.949   2.874
 1326SOL     OW 4876   4.887   2.868   4.554
 1326SOL    HW1 4877   4.852   2.896   4.464
 1326SOL    HW2 4878   4.912   2.949   4.607
 1327SOL     OW 4879   2.685   5.298   2.825
 1327SOL    HW1 4880   2.775   5.264   2.797
 1327SOL    HW2 4881   2.617   5.225   2.816
 1328SOL     OW 4882   1.028   2.082   0.080
 1328SOL    HW1 4883   1.001   2.162   0.132
 1328SOL    HW2 4884   1.049   2.108   7.011
 1329SOL     OW 4885   6.627   1.438   0.768
 1329SOL    HW1 4886   6.651   1.497   0.691
 1329SOL    HW2 4887   6.528   1.430   0.774
 1330SOL     OW 4888   6.621   6.728   0.907
 1330SOL    HW1 4889   6.635   6.687   0.817
 1330SOL    HW2 4890   6.687   6.691   0.972
 1331SOL     OW 4891   5.331   1.433   2.997
 1331SOL    HW1 4892   5.380   1.391   2.921
 1331SOL    HW2 4893   5.276   1.509   2.964
 1332SOL     OW 4894   4.080   0.628   1.182
 1332SOL    HW1 4895   4.000   0.665   1.230
 1332SOL    HW2 4896   4.163   0.653   1.232
 1333SOL     OW 4897   3.679   4.234   4.932
 1333SOL    HW1 4898   3.724   4.220   5.020
 1333SOL    HW2 4899   3.696   4.327   4.899
 1334SOL     OW 4900   1.141   2.816   5.020
 1334SOL    HW1 4901   1.219   2.869   4.990
 1334SOL    HW2 4902   1.095   2.775   4.941
 1335SOL     OW 4903   2.563   6.733   2.392
 1335SOL    HW1 4904   2.538   6.696   2.482
 1335SOL    HW2 4905   2.608   6.822   2.405
 1336SOL     OW 4906   1.397   1.399   7.007
 1336SOL    HW1 4907   1.362   1.491   6.989
 1336SOL    HW2 4908   1.487   1.388   6.965
 1337SOL     OW 4909   1.419   2.701   5.444
 1337SOL    HW1 4910   1.379   2.704   5.352
 1337SOL    HW2 4911   1.460   2.790   5.465
 1338SOL     OW 4912   4.201   3.878   6.345
 1338SOL    HW1 4913   4.230   3.788   6.378
 1338SOL    HW2 4914   4.272   3.917   6.287
 1339SOL     OW 4915   0.060   4.852   6.552
 1339SOL    HW1 4916   7.016   4.800   6.604
 1339SOL    HW2 4917   0.129   4.888   6.615
 1340SOL     OW 4918   1.065   2.024   1.189
 1340SOL    HW1 4919   1.154   2.058   1.158
 1340SOL    HW2 4920   1.061   1.925   1.179
 1341SOL     OW 4921   4.087   1.119   5.111
 1341SOL    HW1 4922   4.137   1.067   5.041
 1341SOL    HW2 4923   4.129   1.103   5.200
 1342SOL     OW 4924   1.641   5.734   6.133
 1342SOL    HW1 4925   1.625   5.636   6.143
 1342SOL    HW2 4926   1.582   5.771   6.061
 1343SOL     OW 4927   3.652   6.666   2.255
 1343SOL    HW1 4928   3.702   6.710   2.329
 1343SOL    HW2 4929   3.572   6.721   2.231
 1344SOL     OW 4930   6.514   2.442   3.236
 1344SOL    HW1 4931   6.604   2.456   3.277
 1344SOL    HW2 4932   6.487   2.346   3.246
 1345SOL     OW 4933   0.721   1.339   3.536
 1345SOL    HW1 4934   0.813   1.332   3.575
 1345SOL    HW2 4935   0.666   1.400   3.592
 1346SOL     OW 4936   1.144   6.660   3.127
 1346SOL    HW1 4937   1.054   6.683   3.165
 1346SOL    HW2 4938   1.141   6.568   3.088
 1347SOL     OW 4939   6.227   6.559   3.516
 1347SOL    HW1 4940   6.216   6.528   3.422
 1347SOL    HW2 4941   6.206   6.656   3.523
 1348SOL     OW 4942   6.054   5.357   4.034
 1348SOL    HW1 4943   5.975   5.350   3.973
 1348SOL    HW2 4944   6.103   5.270   4.034
 1349SOL     OW 4945   4.835   2.973   6.596
 1349SOL    HW1 4946   4.849   3.041   6.669
 1349SOL    HW2 4947   4.769   3.008   6.530
 1350SOL     OW 4948   3.566   4.899   6.784
 1350SOL    HW1 4949   3.564   4.957   6.702
 1350SOL    HW2 4950   3.486   4.840   6.785
 1351SOL     OW 4951   1.148   0.745   3.087
 1351SOL    HW1 4952   1.231   0.799   3.103
 1351SOL    HW2 4953   1.154   0.700   2.997
 1352SOL     OW 4954   7.022   0.199   3.509
 1352SOL    HW1 4955   0.077   0.258   3.517
 1352SOL    HW2 4956   0.021   0.117   3.457
 1353SOL     OW 4957   6.873   4.799   5.499
 1353SOL    HW1 4958   6.824   4.842   5.576
 1353SOL    HW2 4959   6.855   4.850   5.415
 1354SOL     OW 4960   6.632   1.193   0.865
 1354SOL    HW1 4961   6.636   1.285   0.827
 1354SOL    HW2 4962   6.692   1.133   0.813
 1355SOL     OW 4963   5.201   4.010   0.447
 1355SOL    HW1 4964   5.290   4.009   0.401
 1355SOL    HW2 4965   5.210   4.058   0.535
 1356SOL     OW 4966   3.633   4.099   3.361
 1356SOL    HW1 4967   3.645   4.125   3.265
 1356SOL    HW2 4968   3.547   4.049   3.371
 1357SOL     OW 4969   3.153   3.201   6.390
 1357SOL    HW1 4970   3.218   3.188   6.464
 1357SOL    HW2 4971   3.074   3.140   6.403
 1358SOL     OW 4972   2.235   2.758   6.323
 1358SOL    HW1 4973   2.198   2.769   6.415
 1358SOL    HW2 4974   2.161   2.764   6.256
 1359SOL     OW 4975   6.543   3.653   1.722
 1359SOL    HW1 4976   6.499   3.563   1.719
 1359SOL    HW2 4977   6.640   3.643   1.699
 1360SOL     OW 4978   3.944   3.796   2.441
 1360SOL    HW1 4979   3.871   3.728   2.437
 1360SOL    HW2 4980   3.982   3.808   2.349
 1361SOL     OW 4981   0.597   0.083   5.720
 1361SOL    HW1 4982   0.675   0.144   5.704
 1361SOL    HW2 4983   0.552   0.063   5.634
 1362SOL     OW 4984   3.009   3.307   5.505
 1362SOL    HW1 4985   2.935   3.240   5.501
 1362SOL    HW2 4986   3.066   3.288   5.585
 1363SOL     OW 4987   6.717   6.101   3.586
 1363SOL    HW1 4988   6.736   6.173   3.519
 1363SOL    HW2 4989   6.737   6.012   3.544
 1364SOL     OW 4990   0.078   2.985   0.560
 1364SOL    HW1 4991   0.170   2.951   0.542
 1364SOL    HW2 4992   0.083   3.070   0.613
 1365SOL     OW 4993   1.315   3.749   5.417
 1365SOL    HW1 4994   1.247   3.738   5.489
 1365SOL    HW2 4995   1.371   3.666   5.412
 1366SOL     OW 4996   0.317   2.975   1.320
 1366SOL    HW1 4997   0.281   2.963   1.412
 1366SOL    HW2 4998   0.383   2.902   1.299
 1367SOL     OW 4999   1.159   5.222   3.397
 1367SOL    HW1 5000   1.179   5.215   3.299
 1367SOL    HW2 5001   1.172   5.133   3.440
 1368SOL     OW 5002   6.938   6.730   3.991
 1368SOL    HW1 5003   6.918   6.679   4.075
 1368SOL    HW2 5004   6.916   6.826   4.004
 1369SOL     OW 5005   2.546   6.191   1.277
 1369SOL    HW1 5006   2.500   6.272   1.241
 1369SOL    HW2 5007   2.612   6.157   1.210
 1370SOL     OW 5008   0.447   2.212   3.774
 1370SOL    HW1 5009   0.446   2.119   3.737
 1370SOL    HW2 5010   0.521   2.219   3.842
 1371SOL     OW 5011   5.373   1.034   5.035
 1371SOL    HW1 5012   5.319   0.957   5.070
 1371SOL    HW2 5013   5.314   1.095   4.984
 1372SOL     OW 5014   6.349   2.392   0.741
 1372SOL    HW1 5015   6.370   2.409   0.644
 1372SOL    HW2 5016   6.284   2.460   0.773
 1373SOL     OW 5017   4.684   2.066   0.765
 1373SOL    HW1 5018   4.630   1.982   0.760
 1373SOL    HW2 5019   4.669   2.110   0.853
 1374SOL     OW 5020   5.588   4.304   0.384
 1374SOL    HW1 5021   5.574   4.270   0.291
 1374SOL    HW2 5022   5.619   4.229   0.443
 1375SOL     OW 5023   0.050   5.923   6.062
 1375SOL    HW1 5024   0.076   5.932   5.966
 1375SOL    HW2 5025   6.981   5.889   6.068
 1376SOL     OW 5026   2.997   4.763   6.178
 1376SOL    HW1 5027   2.923   4.734   6.240
 1376SOL    HW2 5028   3.028   4.685   6.125
 1377SOL     OW 5029   1.267   2.323   4.122
 1377SOL    HW1 5030   1.360   2.288   4.123
 1377SOL    HW2 5031   1.232   2.328   4.216
 1378SOL     OW 5032   4.413   2.467   4.788
 1378SOL    HW1 5033   4.346   2.496   4.857
 1378SOL    HW2 5034   4.502   2.455   4.831
 1379SOL     OW 5035   5.115   5.857   2.424
 1379SOL    HW1 5036   5.018   5.858   2.445
 1379SOL    HW2 5037   5.157   5.943   2.456
 1380SOL     OW 5038   6.582   6.356   2.599
 1380SOL    HW1 5039   6.516   6.412   2.649
 1380SOL    HW2 5040   6.610   6.403   2.516
 1381SOL     OW 5041   5.429   2.237   6.323
 1381SOL    HW1 5042   5.501   2.304   6.345
 1381SOL    HW2 5043   5.445   2.153   6.373
 1382SOL     OW 5044   4.909   3.364   1.797
 1382SOL    HW1 5045   4.852   3.295   1.755
 1382SOL    HW2 5046   4.896   3.452   1.751
 1383SOL     OW 5047   1.081   6.330   1.567
 1383SOL    HW1 5048   1.133   6.278   1.499
 1383SOL    HW2 5049   1.071   6.275   1.650
 1384SOL     OW 5050   4.451   6.787   1.126
 1384SOL    HW1 5051   4.357   6.771   1.155
 1384SOL    HW2 5052   4.470   6.885   1.126
 1385SOL     OW 5053   2.499   5.051   3.751
 1385SOL    HW1 5054   2.456   5.140   3.770
 1385SOL    HW2 5055   2.518   5.004   3.837
 1386SOL     OW 5056   3.113   6.545   3.135
 1386SOL    HW1 5057   3.067   6.633   3.131
 1386SOL    HW2 5058   3.128   6.520   3.231
 1387SOL     OW 5059   3.112   6.183   1.889
 1387SOL    HW1 5060   3.082   6.102   1.838
 1387SOL    HW2 5061   3.119   6.261   1.826
 1388SOL     OW 5062   6.464   6.337   1.235
 1388SOL    HW1 5063   6.451   6.403   1.161
 1388SOL    HW2 5064   6.555   6.297   1.228
 1389SOL     OW 5065   5.833   1.516   3.035
 1389SOL    HW1 5066   5.803   1.569   2.956
 1389SOL    HW2 5067   5.760   1.453   3.062
 1390SOL     OW 5068   0.237   3.825   0.191
 1390SOL    HW1 5069   0.307   3.821   0.120
 1390SOL    HW2 5070   0.149   3.794   0.154
 1391SOL     OW 5071   6.689   0.531   4.117
 1391SOL    HW1 5072   6.705   0.544   4.020
 1391SOL    HW2 5073   6.601   0.486   4.131
 1392SOL     OW 5074   5.020   5.763   6.063
 1392SOL    HW1 5075   5.002   5.761   6.162
 1392SOL    HW2 5076   5.115   5.736   6.046
 1393SOL     OW 5077   6.438   5.372   5.016
 1393SOL    HW1 5078   6.484   5.421   5.090
 1393SOL    HW2 5079   6.424   5.434   4.939
 1394SOL     OW 5080   3.232   5.807   5.071
 1394SOL    HW1 5081   3.134   5.819   5.088
 1394SOL    HW2 5082   3.279   5.894   5.084
 1395SOL     OW 5083   2.342   4.187   6.488
 1395SOL    HW1 5084   2.344   4.100   6.440
 1395SOL    HW2 5085   2.257   4.236   6.466
 1396SOL     OW 5086   2.165   0.881   4.656
 1396SOL    HW1 5087   2.249   0.883   4.601
 1396SOL    HW2 5088   2.189   0.892   4.753
 1397SOL     OW 5089   0.360   0.249   4.081
 1397SOL    HW1 5090   0.301   0.278   4.005
 1397SOL    HW2 5091   0.455   0.245   4.050
 1398SOL     OW 5092   2.170   0.979   6.180
 1398SOL    HW1 5093   2.233   1.038   6.231
 1398SOL    HW2 5094   2.149   1.020   6.092
 1399SOL     OW 5095   4.117   6.828   0.932
 1399SOL    HW1 5096   4.207   6.816   0.892
 1399SOL    HW2 5097   4.107   6.767   1.011
 1400SOL     OW 5098   6.639   1.598   3.059
 1400SOL    HW1 5099   6.578   1.678   3.066
 1400SOL    HW2 5100   6.729   1.623   3.094
 1401SOL     OW 5101   0.072   1.918   4.556
 1401SOL    HW1 5102   0.115   2.006   4.536
 1401SOL    HW2 5103   7.022   1.931   4.622
 1402SOL     OW 5104   0.614   4.259   0.565
 1402SOL    HW1 5105   0.706   4.271   0.527
 1402SOL    HW2 5106   0.576   4.348   0.588
 1403SOL     OW 5107   2.998   1.711   1.613
 1403SOL    HW1 5108   3.018   1.757   1.700
 1403SOL    HW2 5109   2.903   1.730   1.587
 1404SOL     OW 5110   5.312   6.784   6.806
 1404SOL    HW1 5111   5.366   6.738   6.736
 1404SOL    HW2 5112   5.215   6.780   6.781
 1405SOL     OW 5113   2.170   3.576   1.183
 1405SOL    HW1 5114   2.183   3.599   1.279
 1405SOL    HW2 5115   2.072   3.571   1.163
 1406SOL     OW 5116   1.430   5.344   1.298
 1406SOL    HW1 5117   1.356   5.384   1.245
 1406SOL    HW2 5118   1.518   5.369   1.256
 1407SOL     OW 5119   0.726   1.972   2.196
 1407SOL    HW1 5120   0.702   1.892   2.250
 1407SOL    HW2 5121   0.819   2.001   2.219
 1408SOL     OW 5122   5.123   0.985   5.705
 1408SOL    HW1 5123   5.218   0.984   5.736
 1408SOL    HW2 5124   5.092   0.891   5.688
 1409SOL     OW 5125   0.591   6.883   5.160
 1409SOL    HW1 5126   0.585   6.982   5.144
 1409SOL    HW2 5127   0.668   6.864   5.221
 1410SOL     OW 5128   2.218   3.798   6.769
 1410SOL    HW1 5129   2.204   3.887   6.724
 1410SOL    HW2 5130   2.312   3.793   6.804
 1411SOL     OW 5131   2.825   6.526   2.430
 1411SOL    HW1 5132   2.755   6.562   2.369
 1411SOL    HW2 5133   2.841   6.430   2.408
 1412SOL     OW 5134   0.511   2.162   1.062
 1412SOL    HW1 5135   0.510   2.084   0.999
 1412SOL    HW2 5136   0.456   2.141   1.142
 1413SOL     OW 5137   2.184   1.245   5.082
 1413SOL    HW1 5138   2.210   1.242   5.178
 1413SOL    HW2 5139   2.253   1.295   5.030
 1414SOL     OW 5140   2.694   0.810   1.273
 1414SOL    HW1 5141   2.645   0.884   1.226
 1414SOL    HW2 5142   2.661   0.803   1.367
 1415SOL     OW 5143   2.642   0.821   4.576
 1415SOL    HW1 5144   2.738   0.834   4.600
 1415SOL    HW2 5145   2.591   0.793   4.658
 1416SOL     OW 5146   4.377   4.668   4.268
 1416SOL    HW1 5147   4.413   4.665   4.362
 1416SOL    HW2 5148   4.427   4.736   4.215
 1417SOL     OW 5149   2.775   1.677   6.914
 1417SOL    HW1 5150   2.798   1.660   6.818
 1417SOL    HW2 5151   2.768   1.775   6.930
 1418SOL     OW 5152   2.945   3.764   3.863
 1418SOL    HW1 5153   2.996   3.849   3.863
 1418SOL    HW2 5154   2.934   3.731   3.769
 1419SOL     OW 5155   2.665   6.692   4.729
 1419SOL    HW1 5156   2.658   6.661   4.634
 1419SOL    HW2 5157   2.703   6.785   4.732
 1420SOL     OW 5158   2.289   6.929   1.456
 1420SOL    HW1 5159   2.201   6.955   1.416
 1420SOL    HW2 5160   2.320   7.002   1.517
 1421SOL     OW 5161   1.682   3.525   3.273
 1421SOL    HW1 5162   1.710   3.432   3.251
 1421SOL    HW2 5163   1.669   3.533   3.372
 1422SOL     OW 5164   2.211   3.939   1.881
 1422SOL    HW1 5165   2.141   3.979   1.821
 1422SOL    HW2 5166   2.278   4.009   1.905
 1423SOL     OW 5167   5.334   6.451   3.100
 1423SOL    HW1 5168   5.304   6.526   3.041
 1423SOL    HW2 5169   5.410   6.481   3.157
 1424SOL     OW 5170   6.966   4.216   4.947
 1424SOL    HW1 5171   6.916   4.155   5.008
 1424SOL    HW2 5172   6.922   4.306   4.947
 1425SOL     OW 5173   1.142   6.322   4.629
 1425SOL    HW1 5174   1.082   6.401   4.645
 1425SOL    HW2 5175   1.178   6.327   4.536
 1426SOL     OW 5176   0.977   2.233   6.180
 1426SOL    HW1 5177   0.988   2.148   6.128
 1426SOL    HW2 5178   0.888   2.235   6.224
 1427SOL     OW 5179   0.241   0.078   3.191
 1427SOL    HW1 5180   0.271   0.149   3.126
 1427SOL    HW2 5181   0.241   7.014   3.145
 1428SOL     OW 5182   5.561   2.716   0.628
 1428SOL    HW1 5183   5.602   2.748   0.543
 1428SOL    HW2 5184   5.463   2.704   0.615
 1429SOL     OW 5185   5.517   1.951   0.290
 1429SOL    HW1 5186   5.551   1.865   0.326
 1429SOL    HW2 5187   5.455   1.994   0.355
 1430SOL     OW 5188   1.915   4.777   4.364
 1430SOL    HW1 5189   1.841   4.737   4.310
 1430SOL    HW2 5190   1.908   4.876   4.361
 1431SOL     OW 5191   2.327   1.797   0.901
 1431SOL    HW1 5192   2.319   1.710   0.853
 1431SOL    HW2 5193   2.312   1.783   0.999
 1432SOL     OW 5194   3.447   1.483   2.920
 1432SOL    HW1 5195   3.438   1.486   3.019
 1432SOL    HW2 5196   3.357   1.482   2.878
 1433SOL     OW 5197   4.324   1.698   4.487
 1433SOL    HW1 5198   4.321   1.755   4.405
 1433SOL    HW2 5199   4.340   1.603   4.461
 1434SOL     OW 5200   7.007   0.726   5.871
 1434SOL    HW1 5201   6.946   0.660   5.914
 1434SOL    HW2 5202   6.960   0.814   5.861
 1435SOL     OW 5203   6.071   0.451   2.219
 1435SOL    HW1 5204   6.135   0.406   2.158
 1435SOL    HW2 5205   5.982   0.408   2.213
 1436SOL     OW 5206   5.946   3.814   0.556
 1436SOL    HW1 5207   5.879   3.857   0.495
 1436SOL    HW2 5208   6.024   3.876   0.569
 1437SOL     OW 5209   2.358   2.302   3.445
 1437SOL    HW1 5210   2.449   2.323   3.482
 1437SOL    HW2 5211   2.295   2.376   3.467
 1438SOL     OW 5212   3.561   6.815   1.301
 1438SOL    HW1 5213   3.481   6.829   1.243
 1438SOL    HW2 5214   3.549   6.866   1.386
 1439SOL     OW 5215   6.797   5.588   1.317
 1439SOL    HW1 5216   6.699   5.580   1.332
 1439SOL    HW2 5217   6.817   5.676   1.274
 1440SOL     OW 5218   2.954   3.869   0.355
 1440SOL    HW1 5219   3.029   3.810   0.324
 1440SOL    HW2 5220   2.949   3.866   0.455
 1441SOL     OW 5221   6.154   0.783   3.104
 1441SOL    HW1 5222   6.250   0.759   3.113
 1441SOL    HW2 5223   6.142   0.847   3.028
 1442SOL     OW 5224   6.912   5.726   6.984
 1442SOL    HW1 5225   6.928   5.628   6.973
 1442SOL    HW2 5226   6.859   5.743   0.042
 1443SOL     OW 5227   0.647   2.564   2.342
 1443SOL    HW1 5228   0.624   2.558   2.245
 1443SOL    HW2 5229   0.575   2.522   2.397
 1444SOL     OW 5230   5.238   5.957   0.728
 1444SOL    HW1 5231   5.217   6.052   0.751
 1444SOL    HW2 5232   5.169   5.922   0.664
 1445SOL     OW 5233   0.993   3.102   2.057
 1445SOL    HW1 5234   0.930   3.047   2.111
 1445SOL    HW2 5235   1.065   3.138   2.116
 1446SOL     OW 5236   5.966   0.976   6.384
 1446SOL    HW1 5237   6.054   0.930   6.398
 1446SOL    HW2 5238   5.935   1.016   6.470
 1447SOL     OW 5239   5.869   6.009   4.101
 1447SOL    HW1 5240   5.851   5.945   4.176
 1447SOL    HW2 5241   5.782   6.048   4.070
 1448SOL     OW 5242   6.781   3.064   5.217
 1448SOL    HW1 5243   6.820   3.154   5.238
 1448SOL    HW2 5244   6.847   3.012   5.163
 1449SOL     OW 5245   1.530   4.133   5.605
 1449SOL    HW1 5246   1.585   4.054   5.576
 1449SOL    HW2 5247   1.526   4.200   5.531
 1450SOL     OW 5248   0.935   1.869   0.209
 1450SOL    HW1 5249   0.839   1.893   0.225
 1450SOL    HW2 5250   0.974   1.932   0.142
 1451SOL     OW 5251   1.713   6.718   2.328
 1451SOL    HW1 5252   1.713   6.649   2.255
 1451SOL    HW2 5253   1.806   6.750   2.344
 1452SOL     OW 5254   4.307   2.713   5.335
 1452SOL    HW1 5255   4.358   2.799   5.331
 1452SOL    HW2 5256   4.209   2.732   5.332
 1453SOL     OW 5257   0.386   4.263   5.930
 1453SOL    HW1 5258   0.357   4.182   5.981
 1453SOL    HW2 5259   0.409   4.238   5.836
 1454SOL     OW 5260   1.360   1.943   2.033
 1454SOL    HW1 5261   1.388   1.847   2.030
 1454SOL    HW2 5262   1.440   2.002   2.021
 1455SOL     OW 5263   1.651   6.971   2.101
 1455SOL    HW1 5264   1.694   6.936   2.184
 1455SOL    HW2 5265   1.717   0.003   2.051
 1456SOL     OW 5266   6.443   6.959   6.214
 1456SOL    HW1 5267   6.345   6.944   6.204
 1456SOL    HW2 5268   6.473   6.925   6.303
 1457SOL     OW 5269   1.741   5.651   0.312
 1457SOL    HW1 5270   1.688   5.609   0.238
 1457SOL    HW2 5271   1.774   5.741   0.282
 1458SOL     OW 5272   5.884   4.859   5.295
 1458SOL    HW1 5273   5.966   4.847   5.239
 1458SOL    HW2 5274   5.831   4.774   5.294
 1459SOL     OW 5275   4.129   6.634   5.636
 1459SOL    HW1 5276   4.196   6.589   5.695
 1459SOL    HW2 5277   4.046   6.653   5.688
 1460SOL     OW 5278   1.953   6.854   5.060
 1460SOL    HW1 5279   1.926   6.950   5.074
 1460SOL    HW2 5280   2.030   6.832   5.120
 1461SOL     OW 5281   6.785   4.123   3.275
 1461SOL    HW1 5282   6.865   4.104   3.218
 1461SOL    HW2 5283   6.736   4.202   3.238
 1462SOL     OW 5284   1.272   0.926   6.545
 1462SOL    HW1 5285   1.301   0.875   6.464
 1462SOL    HW2 5286   1.289   1.023   6.531
 1463SOL     OW 5287   1.174   4.862   5.879
 1463SOL    HW1 5288   1.100   4.795   5.886
 1463SOL    HW2 5289   1.178   4.916   5.963
 1464SOL     OW 5290   6.793   5.241   2.252
 1464SOL    HW1 5291   6.822   5.146   2.236
 1464SOL    HW2 5292   6.736   5.245   2.334
 1465SOL     OW 5293   1.340   1.256   4.186
 1465SOL    HW1 5294   1.395   1.176   4.165
 1465SOL    HW2 5295   1.275   1.234   4.259
 1466SOL     OW 5296   3.748   1.732   2.083
 1466SOL    HW1 5297   3.694   1.765   2.161
 1466SOL    HW2 5298   3.808   1.805   2.050
 1467SOL     OW 5299   1.886   1.071   3.887
 1467SOL    HW1 5300   1.927   1.150   3.840
 1467SOL    HW2 5301   1.787   1.083   3.891
 1468SOL     OW 5302   2.208   5.976   2.001
 1468SOL    HW1 5303   2.169   5.930   1.921
 1468SOL    HW2 5304   2.178   6.072   2.002
 1469SOL     OW 5305   6.795   6.849   2.597
 1469SOL    HW1 5306   6.846   6.913   2.655
 1469SOL    HW2 5307   6.698   6.872   2.600
 1470SOL     OW 5308   0.158   1.382   2.199
 1470SOL    HW1 5309   0.221   1.383   2.122
 1470SOL    HW2 5310   0.103   1.466   2.199
 1471SOL     OW 5311   0.814   0.217   0.212
 1471SOL    HW1 5312   0.762   0.151   0.158
 1471SOL    HW2 5313   0.780   0.309   0.194
 1472SOL     OW 5314   3.440   5.630   0.557
 1472SOL    HW1 5315   3.507   5.613   0.630
 1472SOL    HW2 5316   3.483   5.683   0.484
 1473SOL     OW 5317   2.661   6.170   5.127
 1473SOL    HW1 5318   2.708   6.124   5.051
 1473SOL    HW2 5319   2.591   6.231   5.090
 1474SOL     OW 5320   4.440   4.349   1.342
 1474SOL    HW1 5321   4.384   4.344   1.425
 1474SOL    HW2 5322   4.434   4.262   1.292
 1475SOL     OW 5323   5.252   0.952   0.225
 1475SOL    HW1 5324   5.280   0.856   0.218
 1475SOL    HW2 5325   5.199   0.965   0.309
 1476SOL     OW 5326   2.366   1.266   1.184
 1476SOL    HW1 5327   2.429   1.294   1.256
 1476SOL    HW2 5328   2.406   1.191   1.132
 1477SOL     OW 5329   3.165   6.596   6.915
 1477SOL    HW1 5330   3.177   6.552   7.004
 1477SOL    HW2 5331   3.201   6.689   6.919
 1478SOL     OW 5332   6.002   5.316   5.360
 1478SOL    HW1 5333   5.982   5.384   5.430
 1478SOL    HW2 5334   6.055   5.358   5.286
 1479SOL     OW 5335   2.983   3.433   1.239
 1479SOL    HW1 5336   2.897   3.427   1.291
 1479SOL    HW2 5337   3.042   3.356   1.263
 1480SOL     OW 5338   2.918   0.119   4.662
 1480SOL    HW1 5339   2.930   0.023   4.637
 1480SOL    HW2 5340   2.892   0.171   4.581
 1481SOL     OW 5341   5.867   3.398   5.581
 1481SOL    HW1 5342   5.792   3.359   5.633
 1481SOL    HW2 5343   5.901   3.330   5.515
 1482SOL     OW 5344   4.779   0.852   1.354
 1482SOL    HW1 5345   4.837   0.899   1.287
 1482SOL    HW2 5346   4.714   0.917   1.392
 1483SOL     OW 5347   5.659   2.280   5.148
 1483SOL    HW1 5348   5.650   2.358   5.210
 1483SOL    HW2 5349   5.717   2.306   5.071
 1484SOL     OW 5350   4.680   4.596   3.764
 1484SOL    HW1 5351   4.636   4.669   3.712
 1484SOL    HW2 5352   4.706   4.632   3.854
 1485SOL     OW 5353   5.345   0.729   4.366
 1485SOL    HW1 5354   5.276   0.695   4.302
 1485SOL    HW2 5355   5.417   0.777   4.316
 1486SOL     OW 5356   4.751   0.525   3.173
 1486SOL    HW1 5357   4.684   0.590   3.210
 1486SOL    HW2 5358   4.743   0.521   3.074
 1487SOL     OW 5359   0.016   1.923   0.445
 1487SOL    HW1 5360   0.020   2.021   0.461
 1487SOL    HW2 5361   7.008   1.877   0.528
 1488SOL     OW 5362   4.517   0.150   3.317
 1488SOL    HW1 5363   4.458   0.208   3.373
 1488SOL    HW2 5364   4.610   0.187   3.317
 1489SOL     OW 5365   4.080   4.672   5.999
 1489SOL    HW1 5366   4.122   4.748   6.050
 1489SOL    HW2 5367   3.995   4.704   5.957
 1490SOL     OW 5368   0.424   3.376   0.710
 1490SOL    HW1 5369   0.507   3.406   0.664
 1490SOL    HW2 5370   0.362   3.454   0.719
 1491SOL     OW 5371   6.617   4.129   2.853
 1491SOL    HW1 5372   6.684   4.112   2.926
 1491SOL    HW2 5373   6.557   4.049   2.844
 1492SOL     OW 5374   5.953   0.137   2.523
 1492SOL    HW1 5375   5.885   0.089   2.578
 1492SOL    HW2 5376   6.008   0.071   2.473
 1493SOL     OW 5377   3.723   0.518   6.202
 1493SOL    HW1 5378   3.701   0.571   6.119
 1493SOL    HW2 5379   3.641   0.468   6.231
 1494SOL     OW 5380   6.076   2.650   6.723
 1494SOL    HW1 5381   6.074   2.738   6.771
 1494SOL    HW2 5382   6.141   2.589   6.769
 1495SOL     OW 5383   0.061   4.254   5.273
 1495SOL    HW1 5384   0.122   4.330   5.292
 1495SOL    HW2 5385   0.114   4.172   5.252
 1496SOL     OW 5386   1.076   0.503   0.336
 1496SOL    HW1 5387   0.998   0.483   0.395
 1496SOL    HW2 5388   1.136   0.424   0.332
 1497SOL     OW 5389   5.282   2.987   1.897
 1497SOL    HW1 5390   5.224   2.980   1.978
 1497SOL    HW2 5391   5.318   2.896   1.874
 1498SOL     OW 5392   2.446   4.395   1.236
 1498SOL    HW1 5393   2.432   4.422   1.141
 1498SOL    HW2 5394   2.541   4.414   1.262
 1499SOL     OW 5395   0.149   3.461   6.125
 1499SOL    HW1 5396   0.213   3.385   6.110
 1499SOL    HW2 5397   0.196   3.548   6.109
 1500SOL     OW 5398   0.403   6.807   6.927
 1500SOL    HW1 5399   0.501   6.799   6.912
 1500SOL    HW2 5400   0.383   6.800   0.000
 1501SOL     OW 5401   5.871   1.731   6.284
 1501SOL    HW1 5402   5.859   1.740   6.185
 1501SOL    HW2 5403   5.953   1.782   6.312
 1502SOL     OW 5404   4.832   1.272   6.449
 1502SOL    HW1 5405   4.754   1.307   6.501
 1502SOL    HW2 5406   4.802   1.252   6.355
 1503SOL     OW 5407   0.921   3.201   2.335
 1503SOL    HW1 5408   0.848   3.147   2.377
 1503SOL    HW2 5409   0.884   3.249   2.255
 1504SOL     OW 5410   0.835   6.902   3.326
 1504SOL    HW1 5411   0.805   6.983   3.375
 1504SOL    HW2 5412   0.807   6.908   3.231
 1505SOL     OW 5413   5.186   6.877   5.571
 1505SOL    HW1 5414   5.206   6.944   5.500
 1505SOL    HW2 5415   5.166   6.924   5.657
 1506SOL     OW 5416   0.931   6.930   0.012
 1506SOL    HW1 5417   0.889   6.931   6.946
 1506SOL    HW2 5418   0.970   6.839   0.029
 1507SOL     OW 5419   0.089   2.088   5.422
 1507SOL    HW1 5420   0.080   2.176   5.374
 1507SOL    HW2 5421   0.164   2.095   5.488
 1508SOL     OW 5422   6.575   1.435   1.627
 1508SOL    HW1 5423   6.667   1.431   1.589
 1508SOL    HW2 5424   6.543   1.342   1.647
 1509SOL     OW 5425   5.057   2.011   4.810
 1509SOL    HW1 5426   5.073   1.913   4.820
 1509SOL    HW2 5427   5.108   2.045   4.731
 1510SOL     OW 5428   5.778   0.082   4.480
 1510SOL    HW1 5429   5.803   0.017   4.552
 1510SOL    HW2 5430   5.849   0.152   4.471
 1511SOL     OW 5431   4.052   3.329   4.238
 1511SOL    HW1 5432   4.008   3.364   4.154
 1511SOL    HW2 5433   4.019   3.237   4.256
 1512SOL     OW 5434   6.558   5.639   1.433
 1512SOL    HW1 5435   6.561   5.573   1.507
 1512SOL    HW2 5436   6.620   5.715   1.454
 1513SOL     OW 5437   3.622   0.428   4.675
 1513SOL    HW1 5438   3.554   0.385   4.734
 1513SOL    HW2 5439   3.706   0.375   4.676
 1514SOL     OW 5440   3.978   2.854   5.954
 1514SOL    HW1 5441   3.967   2.809   5.865
 1514SOL    HW2 5442   4.034   2.797   6.013
 1515SOL     OW 5443   5.976   1.218   2.504
 1515SOL    HW1 5444   6.049   1.178   2.449
 1515SOL    HW2 5445   5.963   1.164   2.587
 1516SOL     OW 5446   5.372   5.255   5.330
 1516SOL    HW1 5447   5.467   5.268   5.359
 1516SOL    HW2 5448   5.317   5.333   5.362
 1517SOL     OW 5449   4.355   6.146   2.928
 1517SOL    HW1 5450   4.390   6.218   2.988
 1517SOL    HW2 5451   4.404   6.060   2.948
 1518SOL     OW 5452   6.837   2.954   0.570
 1518SOL    HW1 5453   6.935   2.957   0.552
 1518SOL    HW2 5454   6.819   2.995   0.660
 1519SOL     OW 5455   6.457   4.623   1.078
 1519SOL    HW1 5456   6.529   4.558   1.053
 1519SOL    HW2 5457   6.497   4.707   1.113
 1520SOL     OW 5458   0.722   4.836   1.463
 1520SOL    HW1 5459   0.810   4.832   1.417
 1520SOL    HW2 5460   0.704   4.748   1.508
 1521SOL     OW 5461   2.370   4.907   6.816
 1521SOL    HW1 5462   2.431   4.985   6.830
 1521SOL    HW2 5463   2.277   4.931   6.845
 1522SOL     OW 5464   6.351   5.486   4.801
 1522SOL    HW1 5465   6.364   5.585   4.798
 1522SOL    HW2 5466   6.253   5.465   4.805
 1523SOL     OW 5467   3.350   6.247   6.897
 1523SOL    HW1 5468   3.387   6.187   6.969
 1523SOL    HW2 5469   3.273   6.300   6.934
 1524SOL     OW 5470   2.554   1.637   2.574
 1524SOL    HW1 5471   2.552   1.539   2.593
 1524SOL    HW2 5472   2.595   1.653   2.484
 1525SOL     OW 5473   5.820   2.908   0.666
 1525SOL    HW1 5474   5.817   2.809   0.652
 1525SOL    HW2 5475   5.735   2.948   0.635
 1526SOL     OW 5476   0.143   0.887   6.848
 1526SOL    HW1 5477   0.191   0.966   6.886
 1526SOL    HW2 5478   0.045   0.897   6.862
 1527SOL     OW 5479   3.226   1.047   4.004
 1527SOL    HW1 5480   3.158   0.975   3.995
 1527SOL    HW2 5481   3.233   1.098   3.918
 1528SOL     OW 5482   4.154   4.797   1.977
 1528SOL    HW1 5483   4.056   4.818   1.986
 1528SOL    HW2 5484   4.165   4.702   1.950
 1529SOL     OW 5485   4.847   1.053   6.598
 1529SOL    HW1 5486   4.853   1.141   6.553
 1529SOL    HW2 5487   4.928   0.998   6.576
 1530SOL     OW 5488   3.500   1.436   1.387
 1530SOL    HW1 5489   3.408   1.469   1.406
 1530SOL    HW2 5490   3.508   1.341   1.416
 1531SOL     OW 5491   5.032   0.606   5.031
 1531SOL    HW1 5492   4.996   0.605   4.938
 1531SOL    HW2 5493   4.960   0.584   5.096
 1532SOL     OW 5494   3.784   4.311   5.970
 1532SOL    HW1 5495   3.693   4.354   5.974
 1532SOL    HW2 5496   3.774   4.214   5.951
 1533SOL     OW 5497   5.449   5.767   0.133
 1533SOL    HW1 5498   5.464   5.866   0.124
 1533SOL    HW2 5499   5.461   5.723   0.044
 1534SOL     OW 5500   3.189   6.013   6.297
 1534SOL    HW1 5501   3.181   5.918   6.330
 1534SOL    HW2 5502   3.268   6.057   6.340
 1535SOL     OW 5503   5.251   5.560   4.388
 1535SOL    HW1 5504   5.246   5.655   4.360
 1535SOL    HW2 5505   5.278   5.503   4.310
 1536SOL     OW 5506   4.334   5.108   6.533
 1536SOL    HW1 5507   4.306   5.039   6.466
 1536SOL    HW2 5508   4.256   5.168   6.553
 1537SOL     OW 5509   4.438   5.826   3.937
 1537SOL    HW1 5510   4.415   5.770   4.016
 1537SOL    HW2 5511   4.531   5.860   3.946
 1538SOL     OW 5512   3.549   6.377   6.754
 1538SOL    HW1 5513   3.515   6.470   6.738
 1538SOL    HW2 5514   3.481   6.325   6.806
 1539SOL     OW 5515   4.916   3.577   2.147
 1539SOL    HW1 5516   4.948   3.581   2.242
 1539SOL    HW2 5517   4.948   3.492   2.104
 1540SOL     OW 5518   0.332   6.867   5.383
 1540SOL    HW1 5519   0.298   6.897   5.294
 1540SOL    HW2 5520   0.396   6.791   5.371
 1541SOL     OW 5521   3.511   3.209   4.112
 1541SOL    HW1 5522   3.503   3.291   4.168
 1541SOL    HW2 5523   3.485   3.229   4.018
 1542SOL     OW 5524   6.705   0.241   1.803
 1542SOL    HW1 5525   6.709   0.329   1.756
 1542SOL    HW2 5526   6.610   0.219   1.826
 1543SOL     OW 5527   3.782   4.944   4.995
 1543SOL    HW1 5528   3.701   5.001   4.979
 1543SOL    HW2 5529   3.790   4.877   4.921
 1544SOL     OW 5530   3.703   4.029   3.626
 1544SOL    HW1 5531   3.635   3.958   3.645
 1544SOL    HW2 5532   3.684   4.070   3.536
 1545SOL     OW 5533   4.365   0.646   3.149
 1545SOL    HW1 5534   4.286   0.697   3.184
 1545SOL    HW2 5535   4.360   0.641   3.049
 1546SOL     OW 5536   5.501   6.339   5.296
 1546SOL    HW1 5537   5.569   6.341   5.223
 1546SOL    HW2 5538   5.422   6.284   5.266
 1547SOL     OW 5539   1.391   3.837   0.815
 1547SOL    HW1 5540   1.406   3.850   0.913
 1547SOL    HW2 5541   1.444   3.758   0.784
 1548SOL     OW 5542   5.241   4.054   6.963
 1548SOL    HW1 5543   5.206   4.147   6.962
 1548SOL    HW2 5544   5.335   4.054   6.998
 1549SOL     OW 5545   3.799   1.322   1.900
 1549SOL    HW1 5546   3.792   1.233   1.855
 1549SOL    HW2 5547   3.760   1.392   1.840
 1550SOL     OW 5548   3.354   3.714   1.301
 1550SOL    HW1 5549   3.308   3.686   1.385
 1550SOL    HW2 5550   3.408   3.796   1.318
 1551SOL     OW 5551   2.108   4.686   6.637
 1551SOL    HW1 5552   2.063   4.775   6.640
 1551SOL    HW2 5553   2.204   4.697   6.612
 1552SOL     OW 5554   1.900   5.228   1.082
 1552SOL    HW1 5555   1.967   5.233   1.008
 1552SOL    HW2 5556   1.842   5.148   1.069
 1553SOL     OW 5557   6.713   1.647   6.695
 1553SOL    HW1 5558   6.648   1.614   6.627
 1553SOL    HW2 5559   6.715   1.747   6.693
 1554SOL     OW 5560   3.260   2.125   3.683
 1554SOL    HW1 5561   3.348   2.095   3.645
 1554SOL    HW2 5562   3.221   2.196   3.624
 1555SOL     OW 5563   5.673   3.369   0.030
 1555SOL    HW1 5564   5.757   3.329   0.066
 1555SOL    HW2 5565   5.610   3.388   0.105
 1556SOL     OW 5566   1.750   2.108   6.496
 1556SOL    HW1 5567   1.825   2.149   6.548
 1556SOL    HW2 5568   1.757   2.008   6.502
 1557SOL     OW 5569   2.028   2.890   5.609
 1557SOL    HW1 5570   2.039   2.905   5.511
 1557SOL    HW2 5571   1.957   2.951   5.644
 1558SOL     OW 5572   6.236   0.700   5.038
 1558SOL    HW1 5573   6.248   0.668   4.945
 1558SOL    HW2 5574   6.324   0.731   5.075
 1559SOL     OW 5575   1.467   2.943   6.551
 1559SOL    HW1 5576   1.525   3.011   6.596
 1559SOL    HW2 5577   1.505   2.852   6.567
 1560SOL     OW 5578   6.846   0.551   5.989
 1560SOL    HW1 5579   6.922   0.530   6.050
 1560SOL    HW2 5580   6.760   0.548   6.040
 1561SOL     OW 5581   5.085   6.192   3.792
 1561SOL    HW1 5582   5.073   6.256   3.716
 1561SOL    HW2 5583   5.098   6.243   3.877
 1562SOL     OW 5584   4.875   6.064   2.633
 1562SOL    HW1 5585   4.962   6.092   2.590
 1562SOL    HW2 5586   4.804   6.061   2.563
 1563SOL     OW 5587   2.467   0.410   4.857
 1563SOL    HW1 5588   2.536   0.344   4.887
 1563SOL    HW2 5589   2.489   0.500   4.894
 1564SOL     OW 5590   1.447   1.102   3.498
 1564SOL    HW1 5591   1.351   1.128   3.487
 1564SOL    HW2 5592   1.477   1.124   3.591
 1565SOL     OW 5593   4.976   4.373   3.423
 1565SOL    HW1 5594   4.928   4.458   3.445
 1565SOL    HW2 5595   5.059   4.366   3.479
 1566SOL     OW 5596   5.648   4.372   2.856
 1566SOL    HW1 5597   5.593   4.454   2.841
 1566SOL    HW2 5598   5.601   4.310   2.918
 1567SOL     OW 5599   6.826   5.956   0.927
 1567SOL    HW1 5600   6.921   5.969   0.954
 1567SOL    HW2 5601   6.800   6.028   0.862
 1568SOL     OW 5602   1.348   6.764   0.134
 1568SOL    HW1 5603   1.423   6.713   0.092
 1568SOL    HW2 5604   1.357   6.861   0.111
 1569SOL     OW 5605   4.219   5.992   3.371
 1569SOL    HW1 5606   4.158   6.067   3.348
 1569SOL    HW2 5607   4.173   5.929   3.433
 1570SOL     OW 5608   1.533   6.815   0.664
 1570SOL    HW1 5609   1.616   6.829   0.718
 1570SOL    HW2 5610   1.555   6.818   0.567
 1571SOL     OW 5611   5.594   2.659   0.895
 1571SOL    HW1 5612   5.547   2.572   0.913
 1571SOL    HW2 5613   5.576   2.686   0.800
 1572SOL     OW 5614   0.390   0.333   1.540
 1572SOL    HW1 5615   0.349   0.278   1.613
 1572SOL    HW2 5616   0.429   0.273   1.470
 1573SOL     OW 5617   5.390   1.816   2.057
 1573SOL    HW1 5618   5.333   1.898   2.069
 1573SOL    HW2 5619   5.357   1.763   1.980
 1574SOL     OW 5620   6.260   1.258   1.971
 1574SOL    HW1 5621   6.240   1.276   2.067
 1574SOL    HW2 5622   6.282   1.344   1.925
 1575SOL     OW 5623   2.849   1.565   0.614
 1575SOL    HW1 5624   2.895   1.537   0.530
 1575SOL    HW2 5625   2.761   1.517   0.621
 1576SOL     OW 5626   6.671   6.592   4.138
 1576SOL    HW1 5627   6.725   6.539   4.073
 1576SOL    HW2 5628   6.699   6.570   4.232
 1577SOL     OW 5629   2.999   1.805   4.480
 1577SOL    HW1 5630   2.955   1.827   4.567
 1577SOL    HW2 5631   3.058   1.881   4.453
 1578SOL     OW 5632   6.206   3.544   5.651
 1578SOL    HW1 5633   6.253   3.576   5.734
 1578SOL    HW2 5634   6.188   3.446   5.658
 1579SOL     OW 5635   0.126   1.460   3.237
 1579SOL    HW1 5636   0.167   1.513   3.311
 1579SOL    HW2 5637   0.043   1.414   3.270
 1580SOL     OW 5638   2.740   3.710   5.392
 1580SOL    HW1 5639   2.817   3.685   5.334
 1580SOL    HW2 5640   2.733   3.810   5.396
 1581SOL     OW 5641   0.306   4.544   4.702
 1581SOL    HW1 5642   0.221   4.539   4.649
 1581SOL    HW2 5643   0.285   4.532   4.799
 1582SOL     OW 5644   1.474   6.853   4.363
 1582SOL    HW1 5645   1.523   6.849   4.450
 1582SOL    HW2 5646   1.536   6.886   4.292
 1583SOL     OW 5647   0.913   3.060   4.283
 1583SOL    HW1 5648   0.828   3.109   4.265
 1583SOL    HW2 5649   0.979   3.079   4.210
 1584SOL     OW 5650   1.464   6.494   4.819
 1584SOL    HW1 5651   1.470   6.505   4.720
 1584SOL    HW2 5652   1.374   6.457   4.843
 1585SOL     OW 5653   5.982   1.485   3.432
 1585SOL    HW1 5654   5.962   1.547   3.357
 1585SOL    HW2 5655   5.948   1.394   3.410
 1586SOL     OW 5656   3.676   4.135   1.365
 1586SOL    HW1 5657   3.655   4.042   1.336
 1586SOL    HW2 5658   3.740   4.132   1.442
 1587SOL     OW 5659   3.110   4.894   0.205
 1587SOL    HW1 5660   3.048   4.852   0.139
 1587SOL    HW2 5661   3.150   4.823   0.263
 1588SOL     OW 5662   4.469   1.672   3.203
 1588SOL    HW1 5663   4.514   1.597   3.250
 1588SOL    HW2 5664   4.386   1.638   3.158
 1589SOL     OW 5665   5.849   3.837   3.439
 1589SOL    HW1 5666   5.935   3.854   3.488
 1589SOL    HW2 5667   5.865   3.770   3.366
 1590SOL     OW 5668   2.100   6.834   5.663
 1590SOL    HW1 5669   2.052   6.870   5.743
 1590SOL    HW2 5670   2.196   6.863   5.666
 1591SOL     OW 5671   1.281   4.931   3.032
 1591SOL    HW1 5672   1.257   4.841   3.069
 1591SOL    HW2 5673   1.211   4.960   2.967
 1592SOL     OW 5674   2.265   4.177   1.605
 1592SOL    HW1 5675   2.316   4.136   1.681
 1592SOL    HW2 5676   2.252   4.275   1.622
 1593SOL     OW 5677   1.012   6.181   3.495
 1593SOL    HW1 5678   0.914   6.184   3.513
 1593SOL    HW2 5679   1.053   6.269   3.520
 1594SOL     OW 5680   0.248   5.035   3.022
 1594SOL    HW1 5681   0.279   5.104   3.088
 1594SOL    HW2 5682   0.151   5.050   3.002
 1595SOL     OW 5683   0.708   4.992   6.327
 1595SOL    HW1 5684   0.773   4.981   6.251
 1595SOL    HW2 5685   0.685   5.089   6.337
 1596SOL     OW 5686   1.144   3.292   5.638
 1596SOL    HW1 5687   1.169   3.325   5.547
 1596SOL    HW2 5688   1.054   3.247   5.633
 1597SOL     OW 5689   3.064   5.434   0.902
 1597SOL    HW1 5690   3.044   5.482   0.816
 1597SOL    HW2 5691   3.087   5.339   0.883
 1598SOL     OW 5692   0.662   4.253   0.258
 1598SOL    HW1 5693   0.593   4.324   0.250
 1598SOL    HW2 5694   0.721   4.272   0.337
 1599SOL     OW 5695   4.571   3.532   5.782
 1599SOL    HW1 5696   4.587   3.442   5.743
 1599SOL    HW2 5697   4.481   3.534   5.826
 1600SOL     OW 5698   5.322   1.947   5.047
 1600SOL    HW1 5699   5.374   1.975   5.127
 1600SOL    HW2 5700   5.292   2.028   4.996
 1601SOL     OW 5701   0.548   5.341   4.624
 1601SOL    HW1 5702   0.641   5.302   4.624
 1601SOL    HW2 5703   0.484   5.273   4.589
 1602SOL     OW 5704   2.134   5.735   4.357
 1602SOL    HW1 5705   2.083   5.649   4.357
 1602SOL    HW2 5706   2.229   5.717   4.334
 1603SOL     OW 5707   0.923   6.166   1.778
 1603SOL    HW1 5708   0.990   6.182   1.850
 1603SOL    HW2 5709   0.835   6.207   1.803
 1604SOL     OW 5710   5.889   4.678   6.767
 1604SOL    HW1 5711   5.793   4.679   6.740
 1604SOL    HW2 5712   5.939   4.750   6.718
 1605SOL     OW 5713   6.395   6.917   1.740
 1605SOL    HW1 5714   6.335   6.893   1.664
 1605SOL    HW2 5715   6.481   6.865   1.733
 1606SOL     OW 5716   4.761   0.760   5.320
 1606SOL    HW1 5717   4.691   0.736   5.386
 1606SOL    HW2 5718   4.775   0.859   5.320
 1607SOL     OW 5719   4.889   2.627   0.692
 1607SOL    HW1 5720   4.808   2.616   0.749
 1607SOL    HW2 5721   4.893   2.721   0.658
 1608SOL     OW 5722   1.469   0.138   5.622
 1608SOL    HW1 5723   1.370   0.139   5.631
 1608SOL    HW2 5724   1.510   0.201   5.687
 1609SOL     OW 5725   4.645   1.299   6.666
 1609SOL    HW1 5726   4.590   1.382   6.664
 1609SOL    HW2 5727   4.588   1.221   6.693
 1610SOL     OW 5728   5.740   4.068   5.532
 1610SOL    HW1 5729   5.741   4.141   5.464
 1610SOL    HW2 5730   5.794   4.096   5.611
 1611SOL     OW 5731   3.396   3.438   1.870
 1611SOL    HW1 5732   3.467   3.389   1.920
 1611SOL    HW2 5733   3.415   3.434   1.772
 1612SOL     OW 5734   2.964   0.892   5.556
 1612SOL    HW1 5735   2.975   0.799   5.591
 1612SOL    HW2 5736   3.051   0.925   5.520
 1613SOL     OW 5737   2.029   6.044   0.745
 1613SOL    HW1 5738   1.975   6.085   0.819
 1613SOL    HW2 5739   1.998   5.951   0.728
 1614SOL     OW 5740   6.639   4.351   0.495
 1614SOL    HW1 5741   6.572   4.292   0.451
 1614SOL    HW2 5742   6.666   4.423   0.431
 1615SOL     OW 5743   6.283   4.849   1.300
 1615SOL    HW1 5744   6.312   4.833   1.394
 1615SOL    HW2 5745   6.345   4.914   1.257
 1616SOL     OW 5746   4.483   2.175   5.816
 1616SOL    HW1 5747   4.473   2.082   5.852
 1616SOL    HW2 5748   4.393   2.218   5.810
 1617SOL     OW 5749   5.699   6.834   1.388
 1617SOL    HW1 5750   5.616   6.824   1.333
 1617SOL    HW2 5751   5.749   6.748   1.388
 1618SOL     OW 5752   0.831   3.638   1.337
 1618SOL    HW1 5753   0.747   3.623   1.286
 1618SOL    HW2 5754   0.878   3.719   1.303
 1619SOL     OW 5755   1.624   2.471   4.505
 1619SOL    HW1 5756   1.717   2.477   4.543
 1619SOL    HW2 5757   1.572   2.402   4.554
 1620SOL     OW 5758   1.823   5.761   0.970
 1620SOL    HW1 5759   1.806   5.788   1.065
 1620SOL    HW2 5760   1.770   5.679   0.948
 1621SOL     OW 5761   0.560   0.888   0.385
 1621SOL    HW1 5762   0.481   0.933   0.425
 1621SOL    HW2 5763   0.539   0.859   0.291
 1622SOL     OW 5764   1.551   1.973   4.563
 1622SOL    HW1 5765   1.508   1.929   4.642
 1622SOL    HW2 5766   1.633   2.022   4.592
 1623SOL     OW 5767   2.563   2.749   5.967
 1623SOL    HW1 5768   2.647   2.716   5.926
 1623SOL    HW2 5769   2.507   2.671   5.997
 1624SOL     OW 5770   2.727   0.842   5.893
 1624SOL    HW1 5771   2.732   0.775   5.819
 1624SOL    HW2 5772   2.819   0.874   5.917
 1625SOL     OW 5773   1.078   5.135   2.327
 1625SOL    HW1 5774   1.142   5.058   2.326
 1625SOL    HW2 5775   1.117   5.212   2.277
 1626SOL     OW 5776   2.314   1.687   6.712
 1626SOL    HW1 5777   2.361   1.699   6.624
 1626SOL    HW2 5778   2.382   1.677   6.785
 1627SOL     OW 5779   6.917   2.318   4.650
 1627SOL    HW1 5780   6.835   2.307   4.593
 1627SOL    HW2 5781   6.897   2.289   4.743
 1628SOL     OW 5782   4.586   5.036   6.669
 1628SOL    HW1 5783   4.622   5.125   6.698
 1628SOL    HW2 5784   4.510   5.050   6.605
 1629SOL     OW 5785   2.780   2.274   4.075
 1629SOL    HW1 5786   2.852   2.243   4.137
 1629SOL    HW2 5787   2.725   2.195   4.046
 1630SOL     OW 5788   0.510   6.066   6.044
 1630SOL    HW1 5789   0.583   6.125   6.078
 1630SOL    HW2 5790   0.458   6.114   5.973
 1631SOL     OW 5791   6.478   0.802   6.162
 1631SOL    HW1 5792   6.555   0.826   6.221
 1631SOL    HW2 5793   6.460   0.703   6.169
 1632SOL     OW 5794   0.124   1.269   6.873
 1632SOL    HW1 5795   0.128   1.294   6.970
 1632SOL    HW2 5796   0.035   1.297   6.836
 1633SOL     OW 5797   5.237   2.489   3.605
 1633SOL    HW1 5798   5.287   2.477   3.691
 1633SOL    HW2 5799   5.166   2.419   3.598
 1634SOL     OW 5800   4.489   5.697   5.342
 1634SOL    HW1 5801   4.572   5.719   5.394
 1634SOL    HW2 5802   4.413   5.751   5.378
 1635SOL     OW 5803   6.569   5.443   4.635
 1635SOL    HW1 5804   6.580   5.350   4.672
 1635SOL    HW2 5805   6.499   5.491   4.688
 1636SOL     OW 5806   2.050   4.361   1.325
 1636SOL    HW1 5807   2.136   4.309   1.334
 1636SOL    HW2 5808   2.071   4.459   1.326
 1637SOL     OW 5809   6.429   1.447   2.885
 1637SOL    HW1 5810   6.448   1.490   2.973
 1637SOL    HW2 5811   6.396   1.515   2.820
 1638SOL     OW 5812   1.121   3.717   4.086
 1638SOL    HW1 5813   1.166   3.781   4.024
 1638SOL    HW2 5814   1.105   3.630   4.039
 1639SOL     OW 5815   4.825   6.444   2.429
 1639SOL    HW1 5816   4.843   6.470   2.334
 1639SOL    HW2 5817   4.732   6.407   2.436
 1640SOL     OW 5818   5.782   1.971   0.728
 1640SOL    HW1 5819   5.802   2.043   0.794
 1640SOL    HW2 5820   5.867   1.940   0.685
 1641SOL     OW 5821   5.847   2.732   3.599
 1641SOL    HW1 5822   5.798   2.649   3.622
 1641SOL    HW2 5823   5.847   2.744   3.500
 1642SOL     OW 5824   6.711   3.263   0.554
 1642SOL    HW1 5825   6.676   3.182   0.506
 1642SOL    HW2 5826   6.806   3.279   0.526
 1643SOL     OW 5827   3.013   6.292   4.373
 1643SOL    HW1 5828   2.929   6.279   4.322
 1643SOL    HW2 5829   3.088   6.313   4.310
 1644SOL     OW 5830   2.014   2.570   1.005
 1644SOL    HW1 5831   2.002   2.486   1.059
 1644SOL    HW2 5832   2.102   2.568   0.959
 1645SOL     OW 5833   3.089   6.323   5.189
 1645SOL    HW1 5834   3.165   6.271   5.151
 1645SOL    HW2 5835   3.008   6.309   5.133
 1646SOL     OW 5836   2.595   5.101   1.368
 1646SOL    HW1 5837   2.540   5.109   1.284
 1646SOL    HW2 5838   2.657   5.023   1.359
 1647SOL     OW 5839   5.513   2.622   4.329
 1647SOL    HW1 5840   5.459   2.537   4.336
 1647SOL    HW2 5841   5.607   2.600   4.303
 1648SOL     OW 5842   6.043   6.445   1.801
 1648SOL    HW1 5843   6.112   6.435   1.873
 1648SOL    HW2 5844   6.013   6.355   1.770
 1649SOL     OW 5845   3.235   0.416   3.159
 1649SOL    HW1 5846   3.335   0.419   3.148
 1649SOL    HW2 5847   3.201   0.506   3.185
 1650SOL     OW 5848   3.272   6.839   4.053
 1650SOL    HW1 5849   3.221   6.796   4.128
 1650SOL    HW2 5850   3.270   6.938   4.064
 1651SOL     OW 5851   0.592   0.745   1.120
 1651SOL    HW1 5852   0.604   0.832   1.168
 1651SOL    HW2 5853   0.515   0.753   1.056
 1652SOL     OW 5854   1.824   2.099   1.524
 1652SOL    HW1 5855   1.896   2.063   1.465
 1652SOL    HW2 5856   1.748   2.133   1.467
 1653SOL     OW 5857   0.843   5.629   1.378
 1653SOL    HW1 5858   0.822   5.548   1.323
 1653SOL    HW2 5859   0.853   5.708   1.318
 1654SOL     OW 5860   0.072   3.192   1.921
 1654SOL    HW1 5861   0.084   3.286   1.955
 1654SOL    HW2 5862   0.054   3.194   1.823
 1655SOL     OW 5863   5.403   3.890   6.018
 1655SOL    HW1 5864   5.468   3.817   6.039
 1655SOL    HW2 5865   5.451   3.978   6.020
 1656SOL     OW 5866   1.837   4.179   3.270
 1656SOL    HW1 5867   1.750   4.229   3.273
 1656SOL    HW2 5868   1.912   4.243   3.252
 1657SOL     OW 5869   0.202   1.638   4.676
 1657SOL    HW1 5870   0.224   1.682   4.589
 1657SOL    HW2 5871   0.151   1.702   4.734
 1658SOL     OW 5872   6.902   0.344   2.886
 1658SOL    HW1 5873   6.878   0.294   2.969
 1658SOL    HW2 5874   6.825   0.401   2.858
 1659SOL     OW 5875   4.083   2.035   6.293
 1659SOL    HW1 5876   4.177   2.062   6.312
 1659SOL    HW2 5877   4.076   2.000   6.200
 1660SOL     OW 5878   0.924   5.232   3.995
 1660SOL    HW1 5879   0.965   5.302   3.937
 1660SOL    HW2 5880   0.992   5.163   4.018
 1661SOL     OW 5881   3.380   1.654   1.994
 1661SOL    HW1 5882   3.472   1.616   2.006
 1661SOL    HW2 5883   3.386   1.754   1.987
 1662SOL     OW 5884   6.208   1.118   3.766
 1662SOL    HW1 5885   6.277   1.159   3.707
 1662SOL    HW2 5886   6.236   1.127   3.862
 1663SOL     OW 5887   2.345   0.779   3.079
 1663SOL    HW1 5888   2.306   0.818   2.996
 1663SOL    HW2 5889   2.293   0.812   3.158
 1664SOL     OW 5890   1.602   0.552   3.807
 1664SOL    HW1 5891   1.563   0.548   3.899
 1664SOL    HW2 5892   1.643   0.642   3.792
 1665SOL     OW 5893   0.113   1.794   3.161
 1665SOL    HW1 5894   0.036   1.736   3.134
 1665SOL    HW2 5895   0.199   1.749   3.136
 1666SOL     OW 5896   6.060   2.758   0.761
 1666SOL    HW1 5897   6.126   2.820   0.717
 1666SOL    HW2 5898   5.995   2.726   0.692
 1667SOL     OW 5899   5.353   6.282   0.549
 1667SOL    HW1 5900   5.264   6.314   0.583
 1667SOL    HW2 5901   5.416   6.273   0.626
 1668SOL     OW 5902   4.862   6.516   5.270
 1668SOL    HW1 5903   4.811   6.478   5.348
 1668SOL    HW2 5904   4.941   6.567   5.304
 1669SOL     OW 5905   6.128   6.810   0.440
 1669SOL    HW1 5906   6.177   6.897   0.446
 1669SOL    HW2 5907   6.082   6.792   0.528
 1670SOL     OW 5908   7.003   5.688   5.810
 1670SOL    HW1 5909   6.995   5.700   5.711
 1670SOL    HW2 5910   0.000   5.775   5.852
 1671SOL     OW 5911   4.119   2.242   1.196
 1671SOL    HW1 5912   4.174   2.200   1.269
 1671SOL    HW2 5913   4.052   2.303   1.237
 1672SOL     OW 5914   1.648   4.055   2.848
 1672SOL    HW1 5915   1.735   4.102   2.837
 1672SOL    HW2 5916   1.606   4.041   2.759
 1673SOL     OW 5917   0.735   2.355   4.568
 1673SOL    HW1 5918   0.709   2.279   4.628
 1673SOL    HW2 5919   0.664   2.369   4.499
 1674SOL     OW 5920   1.767   3.811   1.297
 1674SOL    HW1 5921   1.857   3.856   1.301
 1674SOL    HW2 5922   1.761   3.743   1.370
 1675SOL     OW 5923   4.018   7.015   6.531
 1675SOL    HW1 5924   3.919   7.007   6.517
 1675SOL    HW2 5925   4.060   0.025   6.447
 1676SOL     OW 5926   3.237   1.202   2.700
 1676SOL    HW1 5927   3.196   1.155   2.778
 1676SOL    HW2 5928   3.234   1.143   2.620
 1677SOL     OW 5929   4.713   2.429   5.456
 1677SOL    HW1 5930   4.759   2.501   5.403
 1677SOL    HW2 5931   4.707   2.346   5.401
 1678SOL     OW 5932   5.768   5.040   4.153
 1678SOL    HW1 5933   5.684   5.093   4.141
 1678SOL    HW2 5934   5.838   5.097   4.196
 1679SOL     OW 5935   1.911   3.752   5.278
 1679SOL    HW1 5936   1.885   3.676   5.338
 1679SOL    HW2 5937   2.002   3.734   5.241
 1680SOL     OW 5938   1.003   1.469   4.123
 1680SOL    HW1 5939   1.041   1.462   4.031
 1680SOL    HW2 5940   0.936   1.397   4.137
 1681SOL     OW 5941   6.726   5.855   1.188
 1681SOL    HW1 5942   6.650   5.837   1.126
 1681SOL    HW2 5943   6.798   5.904   1.139
 1682SOL     OW 5944   0.229   3.137   4.832
 1682SOL    HW1 5945   0.234   3.055   4.775
 1682SOL    HW2 5946   0.149   3.133   4.891
 1683SOL     OW 5947   4.135   5.161   0.823
 1683SOL    HW1 5948   4.059   5.136   0.884
 1683SOL    HW2 5949   4.189   5.080   0.802
 1684SOL     OW 5950   1.382   6.691   3.006
 1684SOL    HW1 5951   1.422   6.783   3.005
 1684SOL    HW2 5952   1.283   6.698   3.021
 1685SOL     OW 5953   1.840   1.433   6.688
 1685SOL    HW1 5954   1.930   1.478   6.685
 1685SOL    HW2 5955   1.848   1.340   6.652
 1686SOL     OW 5956   2.112   5.613   6.038
 1686SOL    HW1 5957   2.166   5.622   6.121
 1686SOL    HW2 5958   2.058   5.529   6.041
 1687SOL     OW 5959   1.843   3.036   1.675
 1687SOL    HW1 5960   1.779   3.109   1.696
 1687SOL    HW2 5961   1.889   3.007   1.759
 1688SOL     OW 5962   1.580   1.941   3.654
 1688SOL    HW1 5963   1.500   1.993   3.685
 1688SOL    HW2 5964   1.661   1.974   3.703
 1689SOL     OW 5965   3.334   1.012   1.916
 1689SOL    HW1 5966   3.353   0.953   1.995
 1689SOL    HW2 5967   3.361   1.106   1.936
 1690SOL     OW 5968   1.442   2.720   3.234
 1690SOL    HW1 5969   1.460   2.763   3.146
 1690SOL    HW2 5970   1.407   2.789   3.298
 1691SOL     OW 5971   5.148   4.022   3.385
 1691SOL    HW1 5972   5.245   3.998   3.375
 1691SOL    HW2 5973   5.125   4.093   3.318
 1692SOL     OW 5974   6.849   0.178   1.216
 1692SOL    HW1 5975   6.843   0.183   1.316
 1692SOL    HW2 5976   6.764   0.138   1.180
 1693SOL     OW 5977   1.777   2.767   2.832
 1693SOL    HW1 5978   1.763   2.670   2.812
 1693SOL    HW2 5979   1.708   2.821   2.785
 1694SOL     OW 5980   3.787   6.456   3.905
 1694SOL    HW1 5981   3.814   6.531   3.965
 1694SOL    HW2 5982   3.863   6.391   3.898
 1695SOL     OW 5983   2.896   1.148   4.613
 1695SOL    HW1 5984   2.834   1.140   4.535
 1695SOL    HW2 5985   2.968   1.215   4.592
 1696SOL     OW 5986   5.275   5.260   0.588
 1696SOL    HW1 5987   5.367   5.224   0.569
 1696SOL    HW2 5988   5.219   5.188   0.628
 1697SOL     OW 5989   0.276   6.705   1.239
 1697SOL    HW1 5990   0.209   6.750   1.298
 1697SOL    HW2 5991   0.367   6.713   1.280
 1698SOL     OW 5992   4.680   1.685   1.354
 1698SOL    HW1 5993   4.626   1.624   1.295
 1698SOL    HW2 5994   4.757   1.722   1.302
 1699SOL     OW 5995   2.921   1.679   1.942
 1699SOL    HW1 5996   2.991   1.744   1.913
 1699SOL    HW2 5997   2.964   1.605   1.994
 1700SOL     OW 5998   6.229   2.360   3.597
 1700SOL    HW1 5999   6.325   2.331   3.595
 1700SOL    HW2 6000   6.204   2.387   3.690
 1701SOL     OW 6001   5.284   2.816   4.790
 1701SOL    HW1 6002   5.331   2.885   4.845
 1701SOL    HW2 6003   5.328   2.810   4.700
 1702SOL     OW 6004   6.425   3.284   0.512
 1702SOL    HW1 6005   6.513   3.301   0.557
 1702SOL    HW2 6006   6.358   3.352   0.543
 1703SOL     OW 6007   3.467   3.918   2.996
 1703SOL    HW1 6008   3.493   3.832   3.041
 1703SOL    HW2 6009   3.370   3.913   2.970
 1704SOL     OW 6010   0.333   1.464   1.045
 1704SOL    HW1 6011   0.370   1.389   1.098
 1704SOL    HW2 6012   0.407   1.509   0.994
 1705SOL     OW 6013   3.380   1.945   1.916
 1705SOL    HW1 6014   3.386   2.032   1.868
 1705SOL    HW2 6015   3.414   1.956   2.010
 1706SOL     OW 6016   4.174   6.746   1.244
 1706SOL    HW1 6017   4.152   6.667   1.302
 1706SOL    HW2 6018   4.139   6.829   1.287
 1707SOL     OW 6019   4.229   1.596   2.134
 1707SOL    HW1 6020   4.273   1.636   2.214
 1707SOL    HW2 6021   4.169   1.521   2.163
 1708SOL     OW 6022   5.585   6.268   3.182
 1708SOL    HW1 6023   5.634   6.181   3.190
 1708SOL    HW2 6024   5.558   6.300   3.273
 1709SOL     OW 6025   2.751   6.391   2.097
 1709SOL    HW1 6026   2.737   6.336   2.015
 1709SOL    HW2 6027   2.667   6.438   2.122
 1710SOL     OW 6028   6.318   4.393   4.047
 1710SOL    HW1 6029   6.400   4.339   4.033
 1710SOL    HW2 6030   6.287   4.431   3.960
 1711SOL     OW 6031   1.663   4.391   5.014
 1711SOL    HW1 6032   1.627   4.483   5.027
 1711SOL    HW2 6033   1.641   4.335   5.094
 1712SOL     OW 6034   0.572   3.250   6.341
 1712SOL    HW1 6035   0.572   3.334   6.285
 1712SOL    HW2 6036   0.585   3.275   6.437
 1713SOL     OW 6037   2.914   2.012   1.341
 1713SOL    HW1 6038   3.006   1.978   1.322
 1713SOL    HW2 6039   2.909   2.109   1.319
 1714SOL     OW 6040   3.791   1.689   6.280
 1714SOL    HW1 6041   3.754   1.620   6.343
 1714SOL    HW2 6042   3.727   1.702   6.204
 1715SOL     OW 6043   6.648   3.474   3.080
 1715SOL    HW1 6044   6.596   3.547   3.036
 1715SOL    HW2 6045   6.628   3.387   3.034
 1716SOL     OW 6046   5.737   6.437   1.403
 1716SOL    HW1 6047   5.657   6.406   1.352
 1716SOL    HW2 6048   5.814   6.375   1.386
 1717SOL     OW 6049   2.626   6.477   6.320
 1717SOL    HW1 6050   2.682   6.499   6.400
 1717SOL    HW2 6051   2.543   6.428   6.350
 1718SOL     OW 6052   1.834   2.489   0.798
 1718SOL    HW1 6053   1.916   2.507   0.853
 1718SOL    HW2 6054   1.856   2.496   0.701
 1719SOL     OW 6055   2.465   3.969   1.719
 1719SOL    HW1 6056   2.457   3.998   1.815
 1719SOL    HW2 6057   2.533   4.027   1.673
 1720SOL     OW 6058   6.479   1.968   1.686
 1720SOL    HW1 6059   6.545   1.902   1.724
 1720SOL    HW2 6060   6.526   2.029   1.623
 1721SOL     OW 6061   1.406   6.852   2.092
 1721SOL    HW1 6062   1.503   6.878   2.099
 1721SOL    HW2 6063   1.392   6.764   2.137
 1722SOL     OW 6064   5.087   1.062   3.360
 1722SOL    HW1 6065   5.124   1.154   3.363
 1722SOL    HW2 6066   5.138   1.004   3.424
 1723SOL     OW 6067   6.480   2.260   3.545
 1723SOL    HW1 6068   6.521   2.189   3.604
 1723SOL    HW2 6069   6.478   2.228   3.451
 1724SOL     OW 6070   6.057   1.193   0.972
 1724SOL    HW1 6071   6.004   1.235   1.046
 1724SOL    HW2 6072   6.120   1.260   0.933
 1725SOL     OW 6073   3.088   4.208   0.285
 1725SOL    HW1 6074   3.017   4.278   0.293
 1725SOL    HW2 6075   3.079   4.161   0.198
 1726SOL     OW 6076   0.202   4.574   4.953
 1726SOL    HW1 6077   0.115   4.594   4.998
 1726SOL    HW2 6078   0.264   4.652   4.962
 1727SOL     OW 6079   3.682   3.049   4.241
 1727SOL    HW1 6080   3.609   3.097   4.192
 1727SOL    HW2 6081   3.646   3.008   4.324
 1728SOL     OW 6082   5.187   4.726   4.416
 1728SOL    HW1 6083   5.111   4.719   4.352
 1728SOL    HW2 6084   5.251   4.650   4.401
 1729SOL     OW 6085   2.225   3.853   3.740
 1729SOL    HW1 6086   2.299   3.844   3.674
 1729SOL    HW2 6087   2.211   3.767   3.787
 1730SOL     OW 6088   6.466   0.697   5.201
 1730SOL    HW1 6089   6.514   0.627   5.148
 1730SOL    HW2 6090   6.468   0.783   5.151
 1731SOL     OW 6091   0.894   5.127   2.509
 1731SOL    HW1 6092   0.809   5.110   2.459
 1731SOL    HW2 6093   0.971   5.132   2.445
 1732SOL     OW 6094   2.265   4.162   6.130
 1732SOL    HW1 6095   2.348   4.218   6.124
 1732SOL    HW2 6096   2.214   4.187   6.212
 1733SOL     OW 6097   1.300   3.350   2.129
 1733SOL    HW1 6098   1.359   3.416   2.082
 1733SOL    HW2 6099   1.204   3.374   2.115
 1734SOL     OW 6100   4.928   3.027   1.592
 1734SOL    HW1 6101   4.934   2.975   1.677
 1734SOL    HW2 6102   4.833   3.056   1.577
 1735SOL     OW 6103   5.921   5.774   1.602
 1735SOL    HW1 6104   5.899   5.792   1.506
 1735SOL    HW2 6105   5.850   5.813   1.660
 1736SOL     OW 6106   4.861   1.995   0.025
 1736SOL    HW1 6107   4.815   2.083   0.032
 1736SOL    HW2 6108   4.873   1.972   6.953
 1737SOL     OW 6109   2.884   0.423   3.961
 1737SOL    HW1 6110   2.797   0.395   4.004
 1737SOL    HW2 6111   2.865   0.489   3.889
 1738SOL     OW 6112   2.369   2.662   3.634
 1738SOL    HW1 6113   2.295   2.719   3.669
 1738SOL    HW2 6114   2.420   2.622   3.710
 1739SOL     OW 6115   4.802   2.575   5.244
 1739SOL    HW1 6116   4.739   2.638   5.200
 1739SOL    HW2 6117   4.805   2.489   5.192
 1740SOL     OW 6118   0.380   1.213   6.755
 1740SOL    HW1 6119   0.443   1.178   6.825
 1740SOL    HW2 6120   0.286   1.190   6.781
 1741SOL     OW 6121   2.466   1.126   2.531
 1741SOL    HW1 6122   2.418   1.048   2.572
 1741SOL    HW2 6123   2.545   1.093   2.480
 1742SOL     OW 6124   3.754   5.850   5.773
 1742SOL    HW1 6125   3.721   5.760   5.746
 1742SOL    HW2 6126   3.678   5.904   5.809
 1743SOL     OW 6127   2.295   1.338   2.536
 1743SOL    HW1 6128   2.340   1.248   2.535
 1743SOL    HW2 6129   2.356   1.405   2.578
 1744SOL     OW 6130   1.220   6.732   1.734
 1744SOL    HW1 6131   1.288   6.725   1.661
 1744SOL    HW2 6132   1.234   6.816   1.786
 1745SOL     OW 6133   6.793   1.408   4.812
 1745SOL    HW1 6134   6.804   1.372   4.904
 1745SOL    HW2 6135   6.828   1.502   4.808
 1746SOL     OW 6136   2.542   6.246   5.544
 1746SOL    HW1 6137   2.451   6.288   5.554
 1746SOL    HW2 6138   2.533   6.146   5.545
 1747SOL     OW 6139   4.961   6.723   2.610
 1747SOL    HW1 6140   5.040   6.721   2.550
 1747SOL    HW2 6141   4.879   6.743   2.557
 1748SOL     OW 6142   0.295   1.002   4.034
 1748SOL    HW1 6143   0.219   1.068   4.030
 1748SOL    HW2 6144   0.288   0.948   4.117
 1749SOL     OW 6145   3.507   6.496   5.343
 1749SOL    HW1 6146   3.585   6.559   5.338
 1749SOL    HW2 6147   3.444   6.516   5.267
 1750SOL     OW 6148   5.480   1.211   3.813
 1750SOL    HW1 6149   5.542   1.271   3.864
 1750SOL    HW2 6150   5.418   1.165   3.877
 1751SOL     OW 6151   3.126   5.255   4.494
 1751SOL    HW1 6152   3.069   5.262   4.576
 1751SOL    HW2 6153   3.081   5.197   4.426
 1752SOL     OW 6154   6.681   2.176   1.557
 1752SOL    HW1 6155   6.683   2.212   1.464
 1752SOL    HW2 6156   6.771   2.137   1.579
 1753SOL     OW 6157   0.689   1.304   0.451
 1753SOL    HW1 6158   0.744   1.259   0.522
 1753SOL    HW2 6159   0.643   1.384   0.490
 1754SOL     OW 6160   3.859   3.050   1.082
 1754SOL    HW1 6161   3.906   2.995   1.151
 1754SOL    HW2 6162   3.888   3.022   0.991
 1755SOL     OW 6163   5.726   5.204   1.905
 1755SOL    HW1 6164   5.781   5.287   1.904
 1755SOL    HW2 6165   5.763   5.140   1.972
 1756SOL     OW 6166   4.982   4.326   5.542
 1756SOL    HW1 6167   5.065   4.280   5.510
 1756SOL    HW2 6168   5.008   4.412   5.586
 1757SOL     OW 6169   2.285   6.511   4.681
 1757SOL    HW1 6170   2.225   6.516   4.602
 1757SOL    HW2 6171   2.317   6.603   4.705
 1758SOL     OW 6172   2.695   0.553   3.455
 1758SOL    HW1 6173   2.689   0.653   3.450
 1758SOL    HW2 6174   2.606   0.516   3.481
 1759SOL     OW 6175   0.845   5.436   6.418
 1759SOL    HW1 6176   0.865   5.349   6.372
 1759SOL    HW2 6177   0.817   5.504   6.350
 1760SOL     OW 6178   6.132   1.372   1.497
 1760SOL    HW1 6179   6.129   1.310   1.576
 1760SOL    HW2 6180   6.063   1.443   1.508
 1761SOL     OW 6181   6.899   6.837   0.610
 1761SOL    HW1 6182   6.941   6.926   0.629
 1761SOL    HW2 6183   6.920   6.774   0.684
 1762SOL     OW 6184   6.398   1.595   5.046
 1762SOL    HW1 6185   6.364   1.555   4.961
 1762SOL    HW2 6186   6.345   1.559   5.123
 1763SOL     OW 6187   1.548   3.424   4.564
 1763SOL    HW1 6188   1.488   3.501   4.544
 1763SOL    HW2 6189   1.626   3.425   4.502
 1764SOL     OW 6190   1.758   3.685   2.852
 1764SOL    HW1 6191   1.680   3.721   2.800
 1764SOL    HW2 6192   1.839   3.740   2.833
 1765SOL     OW 6193   3.373   2.263   6.827
 1765SOL    HW1 6194   3.400   2.338   6.767
 1765SOL    HW2 6195   3.454   2.208   6.849
 1766SOL     OW 6196   4.996   2.992   4.264
 1766SOL    HW1 6197   5.072   2.953   4.315
 1766SOL    HW2 6198   4.966   2.928   4.193
 1767SOL     OW 6199   5.465   4.235   3.020
 1767SOL    HW1 6200   5.399   4.296   2.977
 1767SOL    HW2 6201   5.420   4.148   3.043
 1768SOL     OW 6202   3.978   0.722   4.954
 1768SOL    HW1 6203   3.993   0.786   4.879
 1768SOL    HW2 6204   3.961   0.773   5.038
 1769SOL     OW 6205   4.200   2.323   4.480
 1769SOL    HW1 6206   4.283   2.378   4.490
 1769SOL    HW2 6207   4.170   2.291   4.570
 1770SOL     OW 6208   1.616   5.808   5.143
 1770SOL    HW1 6209   1.633   5.904   5.162
 1770SOL    HW2 6210   1.519   5.794   5.124
 1771SOL     OW 6211   3.090   5.590   6.728
 1771SOL    HW1 6212   3.069   5.609   6.632
 1771SOL    HW2 6213   3.177   5.634   6.751
 1772SOL     OW 6214   3.319   6.366   3.751
 1772SOL    HW1 6215   3.225   6.346   3.777
 1772SOL    HW2 6216   3.320   6.420   3.667
 1773SOL     OW 6217   2.202   5.111   5.687
 1773SOL    HW1 6218   2.199   5.018   5.722
 1773SOL    HW2 6219   2.232   5.110   5.591
 1774SOL     OW 6220   4.537   6.016   1.596
 1774SOL    HW1 6221   4.555   6.114   1.588
 1774SOL    HW2 6222   4.622   5.965   1.586
 1775SOL     OW 6223   1.901   4.037   3.785
 1775SOL    HW1 6224   1.842   4.106   3.826
 1775SOL    HW2 6225   1.885   4.033   3.686
 1776SOL     OW 6226   3.222   0.071   3.653
 1776SOL    HW1 6227   3.170   0.083   3.568
 1776SOL    HW2 6228   3.283   7.017   3.644
 1777SOL     OW 6229   3.415   5.351   5.954
 1777SOL    HW1 6230   3.477   5.326   5.879
 1777SOL    HW2 6231   3.467   5.394   6.028
 1778SOL     OW 6232   4.196   3.466   5.465
 1778SOL    HW1 6233   4.137   3.506   5.395
 1778SOL    HW2 6234   4.286   3.448   5.425
 1779SOL     OW 6235   4.348   1.007   4.506
 1779SOL    HW1 6236   4.271   0.943   4.495
 1779SOL    HW2 6237   4.433   0.955   4.508
 1780SOL     OW 6238   3.201   2.867   6.911
 1780SOL    HW1 6239   3.297   2.889   6.891
 1780SOL    HW2 6240   3.162   2.819   6.833
 1781SOL     OW 6241   4.685   5.917   4.008
 1781SOL    HW1 6242   4.733   5.835   4.039
 1781SOL    HW2 6243   4.752   5.987   3.983
 1782SOL     OW 6244   2.900   1.958   2.717
 1782SOL    HW1 6245   2.919   1.949   2.815
 1782SOL    HW2 6246   2.956   2.032   2.679
 1783SOL     OW 6247   1.730   5.049   6.326
 1783SOL    HW1 6248   1.730   5.055   6.426
 1783SOL    HW2 6249   1.756   4.956   6.298
 1784SOL     OW 6250   4.005   1.406   6.100
 1784SOL    HW1 6251   3.951   1.406   6.016
 1784SOL    HW2 6252   3.955   1.356   6.171
 1785SOL     OW 6253   6.203   4.347   3.169
 1785SOL    HW1 6254   6.284   4.330   3.227
 1785SOL    HW2 6255   6.153   4.262   3.155
 1786SOL     OW 6256   1.713   2.783   0.323
 1786SOL    HW1 6257   1.673   2.874   0.339
 1786SOL    HW2 6258   1.715   2.766   0.224
 1787SOL     OW 6259   3.265   0.971   5.167
 1787SOL    HW1 6260   3.190   1.037   5.161
 1787SOL    HW2 6261   3.348   1.016   5.198
 1788SOL     OW 6262   3.149   2.826   0.379
 1788SOL    HW1 6263   3.070   2.764   0.379
 1788SOL    HW2 6264   3.116   2.920   0.375
 1789SOL     OW 6265   6.119   2.128   3.286
 1789SOL    HW1 6266   6.056   2.177   3.346
 1789SOL    HW2 6267   6.173   2.063   3.341
 1790SOL     OW 6268   3.945   5.968   3.976
 1790SOL    HW1 6269   3.910   6.056   4.008
 1790SOL    HW2 6270   4.044   5.975   3.962
 1791SOL     OW 6271   5.745   0.918   3.292
 1791SOL    HW1 6272   5.836   0.932   3.253
 1791SOL    HW2 6273   5.729   0.985   3.364
 1792SOL     OW 6274   6.819   2.963   4.750
 1792SOL    HW1 6275   6.850   3.016   4.671
 1792SOL    HW2 6276   6.832   2.866   4.733
 1793SOL     OW 6277   6.619   6.878   3.408
 1793SOL    HW1 6278   6.628   6.792   3.458
 1793SOL    HW2 6279   6.524   6.890   3.380
 1794SOL     OW 6280   5.522   5.931   5.822
 1794SOL    HW1 6281   5.474   5.960   5.904
 1794SOL    HW2 6282   5.468   5.954   5.741
 1795SOL     OW 6283   1.154   2.446   0.400
 1795SOL    HW1 6284   1.237   2.449   0.345
 1795SOL    HW2 6285   1.092   2.520   0.371
 1796SOL     OW 6286   2.429   0.523   4.238
 1796SOL    HW1 6287   2.495   0.595   4.216
 1796SOL    HW2 6288   2.346   0.537   4.184
 1797SOL     OW 6289   1.663   6.725   6.898
 1797SOL    HW1 6290   1.726   6.651   6.919
 1797SOL    HW2 6291   1.583   6.688   6.850
 1798SOL     OW 6292   5.385   2.465   3.848
 1798SOL    HW1 6293   5.461   2.527   3.869
 1798SOL    HW2 6294   5.336   2.443   3.932
 1799SOL     OW 6295   6.849   1.971   5.977
 1799SOL    HW1 6296   6.800   2.019   5.904
 1799SOL    HW2 6297   6.946   1.965   5.953
 1800SOL     OW 6298   3.893   4.888   2.039
 1800SOL    HW1 6299   3.920   4.914   2.132
 1800SOL    HW2 6300   3.799   4.853   2.040
 1801SOL     OW 6301   0.327   0.337   2.106
 1801SOL    HW1 6302   0.380   0.280   2.043
 1801SOL    HW2 6303   0.286   0.413   2.055
 1802SOL     OW 6304   5.554   5.539   3.280
 1802SOL    HW1 6305   5.456   5.560   3.280
 1802SOL    HW2 6306   5.582   5.509   3.371
 1803SOL     OW 6307   0.854   5.664   6.825
 1803SOL    HW1 6308   0.785   5.605   6.866
 1803SOL    HW2 6309   0.924   5.686   6.893
 1804SOL     OW 6310   2.668   3.991   5.349
 1804SOL    HW1 6311   2.633   3.994   5.443
 1804SOL    HW2 6312   2.591   3.989   5.285
 1805SOL     OW 6313   5.949   3.924   5.726
 1805SOL    HW1 6314   5.988   3.950   5.637
 1805SOL    HW2 6315   5.937   3.825   5.729
 1806SOL     OW 6316   0.213   0.759   0.397
 1806SOL    HW1 6317   0.276   0.711   0.337
 1806SOL    HW2 6318   0.119   0.732   0.375
 1807SOL     OW 6319   5.458   2.698   5.267
 1807SOL    HW1 6320   5.361   2.713   5.287
 1807SOL    HW2 6321   5.485   2.758   5.192
 1808SOL     OW 6322   0.488   4.461   6.374
 1808SOL    HW1 6323   0.431   4.406   6.435
 1808SOL    HW2 6324   0.532   4.401   6.307
 1809SOL     OW 6325   2.143   2.359   4.715
 1809SOL    HW1 6326   2.166   2.410   4.798
 1809SOL    HW2 6327   2.047   2.332   4.718
 1810SOL     OW 6328   3.021   6.811   3.167
 1810SOL    HW1 6329   2.993   6.817   3.071
 1810SOL    HW2 6330   2.940   6.814   3.226
 1811SOL     OW 6331   6.026   5.695   3.357
 1811SOL    HW1 6332   5.951   5.641   3.396
 1811SOL    HW2 6333   6.080   5.736   3.430
 1812SOL     OW 6334   4.422   6.481   5.309
 1812SOL    HW1 6335   4.437   6.555   5.375
 1812SOL    HW2 6336   4.511   6.449   5.275
 1813SOL     OW 6337   6.434   5.273   1.302
 1813SOL    HW1 6338   6.532   5.271   1.318
 1813SOL    HW2 6339   6.387   5.305   1.385
 1814SOL     OW 6340   6.189   0.910   0.933
 1814SOL    HW1 6341   6.173   0.860   1.018
 1814SOL    HW2 6342   6.134   0.994   0.933
 1815SOL     OW 6343   6.891   2.043   2.619
 1815SOL    HW1 6344   6.791   2.038   2.621
 1815SOL    HW2 6345   6.919   2.139   2.612
 1816SOL     OW 6346   3.154   3.182   1.002
 1816SOL    HW1 6347   3.228   3.116   0.989
 1816SOL    HW2 6348   3.125   3.218   0.913
 1817SOL     OW 6349   3.108   0.033   2.514
 1817SOL    HW1 6350   3.180   6.994   2.541
 1817SOL    HW2 6351   3.059   7.022   2.434
 1818SOL     OW 6352   2.100   6.931   2.588
 1818SOL    HW1 6353   2.164   6.971   2.654
 1818SOL    HW2 6354   2.011   6.917   2.632
 1819SOL     OW 6355   1.558   4.915   1.550
 1819SOL    HW1 6356   1.600   4.857   1.620
 1819SOL    HW2 6357   1.591   4.886   1.460
 1820SOL     OW 6358   4.705   1.063   2.412
 1820SOL    HW1 6359   4.690   1.161   2.424
 1820SOL    HW2 6360   4.727   1.022   2.501
 1821SOL     OW 6361   0.656   1.136   2.227
 1821SOL    HW1 6362   0.684   1.162   2.134
 1821SOL    HW2 6363   0.622   1.217   2.275
 1822SOL     OW 6364   2.545   3.149   0.789
 1822SOL    HW1 6365   2.640   3.144   0.756
 1822SOL    HW2 6366   2.487   3.185   0.716
 1823SOL     OW 6367   2.896   5.961   2.902
 1823SOL    HW1 6368   2.907   6.060   2.887
 1823SOL    HW2 6369   2.883   5.916   2.813
 1824SOL     OW 6370   3.145   2.508   0.874
 1824SOL    HW1 6371   3.220   2.564   0.838
 1824SOL    HW2 6372   3.143   2.421   0.823
 1825SOL     OW 6373   1.587   1.462   2.854
 1825SOL    HW1 6374   1.598   1.362   2.853
 1825SOL    HW2 6375   1.609   1.497   2.945
 1826SOL     OW 6376   3.074   0.557   1.233
 1826SOL    HW1 6377   3.165   0.593   1.216
 1826SOL    HW2 6378   3.022   0.622   1.288
 1827SOL     OW 6379   0.436   5.609   2.490
 1827SOL    HW1 6380   0.390   5.525   2.462
 1827SOL    HW2 6381   0.529   5.611   2.453
 1828SOL     OW 6382   0.834   2.458   0.440
 1828SOL    HW1 6383   0.806   2.510   0.360
 1828SOL    HW2 6384   0.873   2.520   0.508
 1829SOL     OW 6385   3.954   0.411   3.702
 1829SOL    HW1 6386   3.866   0.423   3.656
 1829SOL    HW2 6387   4.020   0.373   3.638
 1830SOL     OW 6388   5.781   5.869   4.312
 1830SOL    HW1 6389   5.787   5.779   4.354
 1830SOL    HW2 6390   5.756   5.937   4.381
 1831SOL     OW 6391   5.824   0.468   2.740
 1831SOL    HW1 6392   5.803   0.427   2.650
 1831SOL    HW2 6393   5.754   0.536   2.762
 1832SOL     OW 6394   5.447   1.507   0.835
 1832SOL    HW1 6395   5.399   1.595   0.838
 1832SOL    HW2 6396   5.478   1.483   0.927
 1833SOL     OW 6397   5.598   0.909   4.874
 1833SOL    HW1 6398   5.522   0.968   4.900
 1833SOL    HW2 6399   5.596   0.825   4.928
 1834SOL     OW 6400   2.499   3.493   0.554
 1834SOL    HW1 6401   2.400   3.500   0.540
 1834SOL    HW2 6402   2.519   3.498   0.652
 1835SOL     OW 6403   1.369   4.612   1.694
 1835SOL    HW1 6404   1.277   4.585   1.722
 1835SOL    HW2 6405   1.401   4.551   1.621
 1836SOL     OW 6406   5.626   1.745   0.676
 1836SOL    HW1 6407   5.662   1.838   0.690
 1836SOL    HW2 6408   5.545   1.733   0.732
 1837SOL     OW 6409   0.932   2.286   3.705
 1837SOL    HW1 6410   0.939   2.259   3.801
 1837SOL    HW2 6411   1.022   2.314   3.672
 1838SOL     OW 6412   6.804   2.178   4.055
 1838SOL    HW1 6413   6.864   2.190   3.975
 1838SOL    HW2 6414   6.859   2.178   4.138
 1839SOL     OW 6415   4.475   2.497   5.138
 1839SOL    HW1 6416   4.512   2.409   5.111
 1839SOL    HW2 6417   4.381   2.506   5.107
 1840SOL     OW 6418   3.571   5.788   1.053
 1840SOL    HW1 6419   3.644   5.723   1.032
 1840SOL    HW2 6420   3.530   5.765   1.141
 1841SOL     OW 6421   2.221   2.740   4.310
 1841SOL    HW1 6422   2.242   2.809   4.379
 1841SOL    HW2 6423   2.145   2.683   4.341
 1842SOL     OW 6424   0.878   5.618   0.800
 1842SOL    HW1 6425   0.855   5.524   0.775
 1842SOL    HW2 6426   0.927   5.662   0.724
 1843SOL     OW 6427   0.534   2.044   4.395
 1843SOL    HW1 6428   0.633   2.055   4.408
 1843SOL    HW2 6429   0.485   2.090   4.469
 1844SOL     OW 6430   3.136   0.687   5.356
 1844SOL    HW1 6431   3.045   0.656   5.327
 1844SOL    HW2 6432   3.206   0.628   5.314
 1845SOL     OW 6433   2.224   6.952   5.156
 1845SOL    HW1 6434   2.181   6.999   5.233
 1845SOL    HW2 6435   2.296   7.010   5.118
 1846SOL     OW 6436   3.859   1.866   0.412
 1846SOL    HW1 6437   3.941   1.873   0.469
 1846SOL    HW2 6438   3.886   1.851   0.317
 1847SOL     OW 6439   1.473   0.981   6.795
 1847SOL    HW1 6440   1.406   0.915   6.829
 1847SOL    HW2 6441   1.529   1.015   6.871
 1848SOL     OW 6442   1.321   6.972   1.845
 1848SOL    HW1 6443   1.382   6.943   1.918
 1848SOL    HW2 6444   1.374   6.986   1.761
 1849SOL     OW 6445   3.655   1.636   0.851
 1849SOL    HW1 6446   3.671   1.685   0.766
 1849SOL    HW2 6447   3.600   1.693   0.912
 1850SOL     OW 6448   6.546   3.003   2.326
 1850SOL    HW1 6449   6.591   2.941   2.261
 1850SOL    HW2 6450   6.611   3.073   2.355
 1851SOL     OW 6451   0.548   1.747   1.510
 1851SOL    HW1 6452   0.602   1.674   1.552
 1851SOL    HW2 6453   0.609   1.808   1.458
 1852SOL     OW 6454   5.769   4.009   1.269
 1852SOL    HW1 6455   5.737   3.914   1.265
 1852SOL    HW2 6456   5.856   4.013   1.318
 1853SOL     OW 6457   0.738   3.034   2.489
 1853SOL    HW1 6458   0.775   2.943   2.475
 1853SOL    HW2 6459   0.639   3.033   2.474
 1854SOL     OW 6460   2.694   5.832   3.113
 1854SOL    HW1 6461   2.767   5.787   3.061
 1854SOL    HW2 6462   2.617   5.850   3.052
 1855SOL     OW 6463   4.586   4.163   6.870
 1855SOL    HW1 6464   4.584   4.064   6.853
 1855SOL    HW2 6465   4.527   4.185   6.947
 1856SOL     OW 6466   6.432   3.706   5.170
 1856SOL    HW1 6467   6.409   3.775   5.102
 1856SOL    HW2 6468   6.502   3.743   5.232
 1857SOL     OW 6469   3.274   0.925   6.172
 1857SOL    HW1 6470   3.190   0.980   6.170
 1857SOL    HW2 6471   3.268   0.852   6.104
 1858SOL     OW 6472   5.990   2.518   3.812
 1858SOL    HW1 6473   6.083   2.489   3.831
 1858SOL    HW2 6474   5.991   2.597   3.750
 1859SOL     OW 6475   4.286   1.440   3.162
 1859SOL    HW1 6476   4.257   1.392   3.079
 1859SOL    HW2 6477   4.363   1.391   3.203
 1860SOL     OW 6478   6.113   0.710   3.364
 1860SOL    HW1 6479   6.104   0.741   3.269
 1860SOL    HW2 6480   6.199   0.745   3.401
 1861SOL     OW 6481   5.002   6.491   2.775
 1861SOL    HW1 6482   4.904   6.499   2.759
 1861SOL    HW2 6483   5.046   6.579   2.760
 1862SOL     OW 6484   1.996   0.255   6.427
 1862SOL    HW1 6485   1.985   0.162   6.392
 1862SOL    HW2 6486   2.077   0.260   6.485
 1863SOL     OW 6487   2.075   2.152   6.958
 1863SOL    HW1 6488   2.102   2.198   6.873
 1863SOL    HW2 6489   2.046   2.059   6.937
 1864SOL     OW 6490   1.132   6.585   5.687
 1864SOL    HW1 6491   1.217   6.626   5.656
 1864SOL    HW2 6492   1.106   6.625   5.775
 1865SOL     OW 6493   3.530   6.948   5.796
 1865SOL    HW1 6494   3.497   0.000   5.741
 1865SOL    HW2 6495   3.514   6.863   5.746
 1866SOL     OW 6496   4.585   4.896   3.058
 1866SOL    HW1 6497   4.576   4.960   2.982
 1866SOL    HW2 6498   4.496   4.884   3.102
 1867SOL     OW 6499   1.339   4.774   0.188
 1867SOL    HW1 6500   1.407   4.830   0.234
 1867SOL    HW2 6501   1.380   4.730   0.107
 1868SOL     OW 6502   4.889   4.019   0.785
 1868SOL    HW1 6503   4.863   3.951   0.717
 1868SOL    HW2 6504   4.845   3.998   0.873
 1869SOL     OW 6505   6.390   2.122   5.585
 1869SOL    HW1 6506   6.466   2.141   5.647
 1869SOL    HW2 6507   6.407   2.036   5.536
 1870SOL     OW 6508   1.837   3.039   6.270
 1870SOL    HW1 6509   1.741   3.046   6.243
 1870SOL    HW2 6510   1.849   3.077   6.361
 1871SOL     OW 6511   0.499   0.418   6.827
 1871SOL    HW1 6512   0.558   0.418   6.907
 1871SOL    HW2 6513   0.404   0.408   6.856
 1872SOL     OW 6514   3.811   3.307   0.353
 1872SOL    HW1 6515   3.900   3.345   0.378
 1872SOL    HW2 6516   3.823   3.226   0.296
 1873SOL     OW 6517   4.784   1.413   5.281
 1873SOL    HW1 6518   4.717   1.470   5.328
 1873SOL    HW2 6519   4.864   1.468   5.258
 1874SOL     OW 6520   3.003   1.136   1.138
 1874SOL    HW1 6521   2.918   1.086   1.120
 1874SOL    HW2 6522   2.993   1.190   1.222
 1875SOL     OW 6523   0.623   1.461   0.099
 1875SOL    HW1 6524   0.664   1.381   0.143
 1875SOL    HW2 6525   0.598   1.438   0.004
 1876SOL     OW 6526   3.709   0.233   5.798
 1876SOL    HW1 6527   3.764   0.169   5.853
 1876SOL    HW2 6528   3.635   0.184   5.753
 1877SOL     OW 6529   0.738   0.339   2.647
 1877SOL    HW1 6530   0.794   0.363   2.568
 1877SOL    HW2 6531   0.721   0.420   2.702
 1878SOL     OW 6532   6.568   1.902   3.758
 1878SOL    HW1 6533   6.611   1.967   3.695
 1878SOL    HW2 6534   6.469   1.920   3.763
 1879SOL     OW 6535   1.239   4.290   4.172
 1879SOL    HW1 6536   1.230   4.372   4.229
 1879SOL    HW2 6537   1.297   4.224   4.219
 1880SOL     OW 6538   6.813   1.679   4.827
 1880SOL    HW1 6539   6.723   1.697   4.866
 1880SOL    HW2 6540   6.883   1.724   4.881
 1881SOL     OW 6541   6.176   1.957   3.069
 1881SOL    HW1 6542   6.144   1.988   2.979
 1881SOL    HW2 6543   6.132   2.012   3.140
 1882SOL     OW 6544   1.543   4.264   6.366
 1882SOL    HW1 6545   1.525   4.308   6.454
 1882SOL    HW2 6546   1.582   4.331   6.303
 1883SOL     OW 6547   0.105   2.188   3.263
 1883SOL    HW1 6548   0.117   2.119   3.334
 1883SOL    HW2 6549   0.136   2.150   3.175
 1884SOL     OW 6550   0.028   1.722   0.678
 1884SOL    HW1 6551   7.020   1.644   0.732
 1884SOL    HW2 6552   0.124   1.709   0.655
 1885SOL     OW 6553   2.044   1.681   6.245
 1885SOL    HW1 6554   2.076   1.591   6.275
 1885SOL    HW2 6555   1.998   1.672   6.157
 1886SOL     OW 6556   1.503   0.313   1.540
 1886SOL    HW1 6557   1.477   0.307   1.636
 1886SOL    HW2 6558   1.579   0.250   1.522
 1887SOL     OW 6559   0.768   5.554   5.548
 1887SOL    HW1 6560   0.837   5.490   5.516
 1887SOL    HW2 6561   0.735   5.609   5.472
 1888SOL     OW 6562   2.877   2.537   6.848
 1888SOL    HW1 6563   2.896   2.555   6.944
 1888SOL    HW2 6564   2.833   2.448   6.838
 1889SOL     OW 6565   0.400   3.627   5.308
 1889SOL    HW1 6566   0.313   3.640   5.260
 1889SOL    HW2 6567   0.417   3.705   5.368
 1890SOL     OW 6568   1.492   5.601   4.144
 1890SOL    HW1 6569   1.439   5.550   4.212
 1890SOL    HW2 6570   1.432   5.663   4.094
 1891SOL     OW 6571   4.868   2.793   1.394
 1891SOL    HW1 6572   4.898   2.787   1.489
 1891SOL    HW2 6573   4.793   2.858   1.387
 1892SOL     OW 6574   1.016   0.141   2.355
 1892SOL    HW1 6575   1.072   0.095   2.286
 1892SOL    HW2 6576   0.946   0.196   2.309
 1893SOL     OW 6577   3.176   3.427   1.677
 1893SOL    HW1 6578   3.092   3.401   1.628
 1893SOL    HW2 6579   3.246   3.358   1.660
 1894SOL     OW 6580   4.118   3.490   3.759
 1894SOL    HW1 6581   4.021   3.473   3.742
 1894SOL    HW2 6582   4.159   3.530   3.677
 1895SOL     OW 6583   4.224   0.297   0.891
 1895SOL    HW1 6584   4.159   0.225   0.918
 1895SOL    HW2 6585   4.175   0.383   0.876
 1896SOL     OW 6586   5.941   1.579   1.491
 1896SOL    HW1 6587   5.968   1.671   1.521
 1896SOL    HW2 6588   5.843   1.577   1.472
 1897SOL     OW 6589   2.250   5.272   1.702
 1897SOL    HW1 6590   2.321   5.211   1.666
 1897SOL    HW2 6591   2.161   5.247   1.664
 1898SOL     OW 6592   1.875   5.089   3.783
 1898SOL    HW1 6593   1.920   5.048   3.862
 1898SOL    HW2 6594   1.900   5.039   3.700
 1899SOL     OW 6595   0.067   1.427   1.102
 1899SOL    HW1 6596   0.051   1.335   1.138
 1899SOL    HW2 6597   0.163   1.437   1.077
 1900SOL     OW 6598   2.190   0.786   6.850
 1900SOL    HW1 6599   2.260   0.719   6.877
 1900SOL    HW2 6600   2.234   0.874   6.830
 1901SOL     OW 6601   1.843   2.187   0.821
 1901SOL    HW1 6602   1.761   2.177   0.876
 1901SOL    HW2 6603   1.845   2.279   0.781
 1902SOL     OW 6604   2.247   0.864   4.942
 1902SOL    HW1 6605   2.306   0.906   5.012
 1902SOL    HW2 6606   2.174   0.812   4.987
 1903SOL     OW 6607   0.625   3.249   2.932
 1903SOL    HW1 6608   0.681   3.222   2.854
 1903SOL    HW2 6609   0.574   3.171   2.966
 1904SOL     OW 6610   5.787   5.232   3.478
 1904SOL    HW1 6611   5.818   5.145   3.516
 1904SOL    HW2 6612   5.861   5.300   3.485
 1905SOL     OW 6613   0.822   0.130   3.422
 1905SOL    HW1 6614   0.865   0.192   3.356
 1905SOL    HW2 6615   0.780   0.183   3.495
 1906SOL     OW 6616   3.147   0.323   5.423
 1906SOL    HW1 6617   3.181   0.384   5.495
 1906SOL    HW2 6618   3.081   0.259   5.463
 1907SOL     OW 6619   4.377   2.050   1.615
 1907SOL    HW1 6620   4.466   2.005   1.607
 1907SOL    HW2 6621   4.336   2.028   1.703
 1908SOL     OW 6622   3.726   5.759   6.332
 1908SOL    HW1 6623   3.760   5.840   6.380
 1908SOL    HW2 6624   3.627   5.753   6.342
 1909SOL     OW 6625   0.836   2.945   3.684
 1909SOL    HW1 6626   0.830   2.864   3.741
 1909SOL    HW2 6627   0.930   2.980   3.684
 1910SOL     OW 6628   0.071   5.432   5.883
 1910SOL    HW1 6629   0.002   5.504   5.886
 1910SOL    HW2 6630   0.130   5.446   5.804
 1911SOL     OW 6631   0.298   3.646   4.751
 1911SOL    HW1 6632   0.347   3.628   4.666
 1911SOL    HW2 6633   0.354   3.702   4.811
 1912SOL     OW 6634   2.732   6.253   1.828
 1912SOL    HW1 6635   2.795   6.258   1.751
 1912SOL    HW2 6636   2.711   6.158   1.849
 1913SOL     OW 6637   3.138   1.018   4.461
 1913SOL    HW1 6638   3.178   1.101   4.423
 1913SOL    HW2 6639   3.188   0.992   4.544
 1914SOL     OW 6640   3.426   3.012   6.884
 1914SOL    HW1 6641   3.354   3.078   6.904
 1914SOL    HW2 6642   3.455   3.023   6.789
 1915SOL     OW 6643   3.993   2.483   5.902
 1915SOL    HW1 6644   3.911   2.537   5.887
 1915SOL    HW2 6645   4.000   2.460   6.000
 1916SOL     OW 6646   4.355   5.645   1.511
 1916SOL    HW1 6647   4.280   5.603   1.460
 1916SOL    HW2 6648   4.438   5.590   1.501
 1917SOL     OW 6649   2.033   3.719   7.007
 1917SOL    HW1 6650   2.075   3.800   6.966
 1917SOL    HW2 6651   2.068   3.637   6.963
 1918SOL     OW 6652   1.270   1.357   5.013
 1918SOL    HW1 6653   1.228   1.287   5.072
 1918SOL    HW2 6654   1.334   1.313   4.950
 1919SOL     OW 6655   1.944   1.496   1.580
 1919SOL    HW1 6656   2.038   1.469   1.561
 1919SOL    HW2 6657   1.920   1.471   1.674
 1920SOL     OW 6658   6.339   3.830   3.066
 1920SOL    HW1 6659   6.331   3.902   2.996
 1920SOL    HW2 6660   6.298   3.863   3.151
 1921SOL     OW 6661   1.999   3.142   0.209
 1921SOL    HW1 6662   2.025   3.055   0.168
 1921SOL    HW2 6663   1.979   3.209   0.138
 1922SOL     OW 6664   2.819   3.653   1.775
 1922SOL    HW1 6665   2.895   3.718   1.767
 1922SOL    HW2 6666   2.741   3.687   1.723
 1923SOL     OW 6667   4.082   2.194   6.624
 1923SOL    HW1 6668   4.095   2.253   6.544
 1923SOL    HW2 6669   4.167   2.145   6.642
 1924SOL     OW 6670   4.637   6.798   0.281
 1924SOL    HW1 6671   4.558   6.860   0.280
 1924SOL    HW2 6672   4.707   6.835   0.342
 1925SOL     OW 6673   1.131   5.394   1.591
 1925SOL    HW1 6674   1.032   5.378   1.595
 1925SOL    HW2 6675   1.176   5.346   1.666
 1926SOL     OW 6676   3.362   0.109   2.115
 1926SOL    HW1 6677   3.403   0.167   2.185
 1926SOL    HW2 6678   3.262   0.109   2.126
 1927SOL     OW 6679   2.352   4.184   0.551
 1927SOL    HW1 6680   2.254   4.198   0.567
 1927SOL    HW2 6681   2.393   4.141   0.631
 1928SOL     OW 6682   5.269   4.439   4.687
 1928SOL    HW1 6683   5.172   4.443   4.712
 1928SOL    HW2 6684   5.288   4.353   4.639
 1929SOL     OW 6685   2.574   0.638   1.745
 1929SOL    HW1 6686   2.642   0.611   1.813
 1929SOL    HW2 6687   2.551   0.560   1.687
 1930SOL     OW 6688   5.774   3.144   6.673
 1930SOL    HW1 6689   5.733   3.201   6.744
 1930SOL    HW2 6690   5.855   3.098   6.710
 1931SOL     OW 6691   0.863   1.667   0.064
 1931SOL    HW1 6692   0.910   1.734   0.121
 1931SOL    HW2 6693   0.828   1.593   0.122
 1932SOL     OW 6694   4.811   2.905   3.540
 1932SOL    HW1 6695   4.855   2.995   3.531
 1932SOL    HW2 6696   4.815   2.857   3.452
 1933SOL     OW 6697   1.239   2.426   0.765
 1933SOL    HW1 6698   1.306   2.366   0.722
 1933SOL    HW2 6699   1.183   2.470   0.695
 1934SOL     OW 6700   7.011   1.095   4.937
 1934SOL    HW1 6701   6.982   1.156   5.011
 1934SOL    HW2 6702   6.933   1.072   4.880
 1935SOL     OW 6703   4.318   4.881   3.706
 1935SOL    HW1 6704   4.345   4.795   3.750
 1935SOL    HW2 6705   4.246   4.863   3.639
 1936SOL     OW 6706   4.932   3.678   4.089
 1936SOL    HW1 6707   4.835   3.655   4.086
 1936SOL    HW2 6708   4.961   3.715   4.001
 1937SOL     OW 6709   4.349   6.062   0.149
 1937SOL    HW1 6710   4.269   6.067   0.208
 1937SOL    HW2 6711   4.351   6.142   0.088
 1938SOL     OW 6712   1.561   1.955   0.800
 1938SOL    HW1 6713   1.478   1.912   0.836
 1938SOL    HW2 6714   1.579   2.039   0.851
 1939SOL     OW 6715   0.271   6.049   4.041
 1939SOL    HW1 6716   0.232   6.090   4.123
 1939SOL    HW2 6717   0.287   5.951   4.056
 1940SOL     OW 6718   6.073   4.269   1.258
 1940SOL    HW1 6719   6.066   4.172   1.282
 1940SOL    HW2 6720   6.046   4.325   1.337
 1941SOL     OW 6721   1.053   3.204   3.541
 1941SOL    HW1 6722   1.073   3.110   3.569
 1941SOL    HW2 6723   1.056   3.263   3.621
 1942SOL     OW 6724   5.485   3.918   2.845
 1942SOL    HW1 6725   5.495   3.819   2.836
 1942SOL    HW2 6726   5.462   3.958   2.756
 1943SOL     OW 6727   1.293   1.489   2.340
 1943SOL    HW1 6728   1.226   1.436   2.392
 1943SOL    HW2 6729   1.385   1.457   2.362
 1944SOL     OW 6730   6.457   4.339   0.006
 1944SOL    HW1 6731   6.434   4.430   6.995
 1944SOL    HW2 6732   6.373   4.286   0.015
 1945SOL     OW 6733   4.164   6.197   0.718
 1945SOL    HW1 6734   4.067   6.223   0.722
 1945SOL    HW2 6735   4.172   6.100   0.699
 1946SOL     OW 6736   5.899   6.638   1.366
 1946SOL    HW1 6737   5.985   6.603   1.402
 1946SOL    HW2 6738   5.824   6.580   1.396
 1947SOL     OW 6739   6.165   5.785   4.173
 1947SOL    HW1 6740   6.254   5.751   4.204
 1947SOL    HW2 6741   6.152   5.879   4.206
 1948SOL     OW 6742   5.485   5.212   3.008
 1948SOL    HW1 6743   5.402   5.155   3.009
 1948SOL    HW2 6744   5.512   5.233   3.102
 1949SOL     OW 6745   3.975   3.994   0.489
 1949SOL    HW1 6746   3.973   3.916   0.552
 1949SOL    HW2 6747   3.913   3.977   0.412
 1950SOL     OW 6748   4.094   3.368   3.368
 1950SOL    HW1 6749   4.076   3.445   3.430
 1950SOL    HW2 6750   4.049   3.386   3.280
 1951SOL     OW 6751   6.861   4.231   6.253
 1951SOL    HW1 6752   6.922   4.282   6.314
 1951SOL    HW2 6753   6.884   4.250   6.158
 1952SOL     OW 6754   5.505   5.092   1.200
 1952SOL    HW1 6755   5.501   5.153   1.120
 1952SOL    HW2 6756   5.508   5.148   1.283
 1953SOL     OW 6757   6.699   1.378   6.401
 1953SOL    HW1 6758   6.774   1.433   6.362
 1953SOL    HW2 6759   6.735   1.321   6.475
 1954SOL     OW 6760   5.374   6.902   1.439
 1954SOL    HW1 6761   5.394   6.844   1.360
 1954SOL    HW2 6762   5.410   6.994   1.423
 1955SOL     OW 6763   0.104   0.793   1.502
 1955SOL    HW1 6764   0.070   0.815   1.410
 1955SOL    HW2 6765   0.186   0.737   1.494
 1956SOL     OW 6766   4.788   6.900   3.052
 1956SOL    HW1 6767   4.848   6.822   3.068
 1956SOL    HW2 6768   4.741   6.888   2.964
 1957SOL     OW 6769   5.538   3.786   3.920
 1957SOL    HW1 6770   5.538   3.739   3.831
 1957SOL    HW2 6771   5.456   3.760   3.971
 1958SOL     OW 6772   4.799   1.228   1.724
 1958SOL    HW1 6773   4.827   1.311   1.772
 1958SOL    HW2 6774   4.763   1.162   1.790
 1959SOL     OW 6775   6.877   6.569   3.670
 1959SOL    HW1 6776   6.935   6.631   3.617
 1959SOL    HW2 6777   6.929   6.487   3.693
 1960SOL     OW 6778   0.253   3.323   2.801
 1960SOL    HW1 6779   0.288   3.271   2.723
 1960SOL    HW2 6780   0.179   3.272   2.845
 1961SOL     OW 6781   6.552   4.446   4.646
 1961SOL    HW1 6782   6.492   4.525   4.632
 1961SOL    HW2 6783   6.550   4.388   4.565
 1962SOL     OW 6784   1.129   6.075   2.408
 1962SOL    HW1 6785   1.043   6.027   2.390
 1962SOL    HW2 6786   1.202   6.009   2.425
 1963SOL     OW 6787   1.629   2.199   1.359
 1963SOL    HW1 6788   1.532   2.198   1.384
 1963SOL    HW2 6789   1.662   2.293   1.356
 1964SOL     OW 6790   5.086   4.511   1.907
 1964SOL    HW1 6791   4.994   4.544   1.931
 1964SOL    HW2 6792   5.091   4.496   1.808
 1965SOL     OW 6793   1.600   3.198   4.401
 1965SOL    HW1 6794   1.678   3.143   4.430
 1965SOL    HW2 6795   1.568   3.254   4.478
 1966SOL     OW 6796   1.550   5.118   1.134
 1966SOL    HW1 6797   1.527   5.021   1.129
 1966SOL    HW2 6798   1.581   5.140   1.227
 1967SOL     OW 6799   6.285   2.617   4.129
 1967SOL    HW1 6800   6.350   2.674   4.080
 1967SOL    HW2 6801   6.206   2.672   4.156
 1968SOL     OW 6802   2.755   1.106   5.519
 1968SOL    HW1 6803   2.756   1.127   5.422
 1968SOL    HW2 6804   2.776   1.009   5.532
 1969SOL     OW 6805   3.299   0.680   1.477
 1969SOL    HW1 6806   3.278   0.754   1.413
 1969SOL    HW2 6807   3.254   0.698   1.564
 1970SOL     OW 6808   6.713   0.012   5.839
 1970SOL    HW1 6809   6.761   0.099   5.850
 1970SOL    HW2 6810   6.757   6.982   5.769
 1971SOL     OW 6811   0.606   0.247   5.360
 1971SOL    HW1 6812   0.657   0.277   5.280
 1971SOL    HW2 6813   0.612   0.317   5.432
 1972SOL     OW 6814   6.217   2.684   1.467
 1972SOL    HW1 6815   6.175   2.775   1.460
 1972SOL    HW2 6816   6.200   2.633   1.383
 1973SOL     OW 6817   2.363   4.156   1.932
 1973SOL    HW1 6818   2.411   4.214   1.866
 1973SOL    HW2 6819   2.367   4.199   2.022
 1974SOL     OW 6820   4.520   7.005   4.878
 1974SOL    HW1 6821   4.483   6.933   4.820
 1974SOL    HW2 6822   4.606   0.013   4.840
 1975SOL     OW 6823   2.217   3.078   4.051
 1975SOL    HW1 6824   2.254   2.985   4.047
 1975SOL    HW2 6825   2.180   3.104   3.962
 1976SOL     OW 6826   5.133   6.502   6.311
 1976SOL    HW1 6827   5.187   6.426   6.277
 1976SOL    HW2 6828   5.084   6.474   6.394
 1977SOL     OW 6829   2.341   3.170   6.346
 1977SOL    HW1 6830   2.294   3.107   6.284
 1977SOL    HW2 6831   2.402   3.229   6.294
 1978SOL     OW 6832   1.624   6.160   2.903
 1978SOL    HW1 6833   1.568   6.192   2.979
 1978SOL    HW2 6834   1.591   6.201   2.817
 1979SOL     OW 6835   5.749   5.061   0.103
 1979SOL    HW1 6836   5.752   5.108   0.015
 1979SOL    HW2 6837   5.833   5.010   0.117
 1980SOL     OW 6838   3.760   0.468   3.040
 1980SOL    HW1 6839   3.845   0.433   2.999
 1980SOL    HW2 6840   3.781   0.546   3.099
 1981SOL     OW 6841   5.480   2.695   2.414
 1981SOL    HW1 6842   5.564   2.660   2.454
 1981SOL    HW2 6843   5.481   2.679   2.316
 1982SOL     OW 6844   6.856   3.763   3.933
 1982SOL    HW1 6845   6.775   3.804   3.975
 1982SOL    HW2 6846   6.847   3.663   3.935
 1983SOL     OW 6847   0.617   0.343   1.209
 1983SOL    HW1 6848   0.576   0.269   1.262
 1983SOL    HW2 6849   0.716   0.339   1.216
 1984SOL     OW 6850   5.185   2.585   5.300
 1984SOL    HW1 6851   5.179   2.542   5.210
 1984SOL    HW2 6852   5.113   2.653   5.310
 1985SOL     OW 6853   6.806   5.621   2.115
 1985SOL    HW1 6854   6.753   5.704   2.099
 1985SOL    HW2 6855   6.890   5.644   2.165
 1986SOL     OW 6856   2.844   1.351   6.212
 1986SOL    HW1 6857   2.767   1.312   6.161
 1986SOL    HW2 6858   2.903   1.277   6.245
 1987SOL     OW 6859   1.846   1.545   4.354
 1987SOL    HW1 6860   1.774   1.581   4.295
 1987SOL    HW2 6861   1.935   1.560   4.310
 1988SOL     OW 6862   6.765   1.279   1.189
 1988SOL    HW1 6863   6.819   1.317   1.263
 1988SOL    HW2 6864   6.743   1.351   1.123
 1989SOL     OW 6865   2.350   6.097   3.970
 1989SOL    HW1 6866   2.346   6.107   4.070
 1989SOL    HW2 6867   2.302   6.014   3.942
 1990SOL     OW 6868   3.600   0.095   0.857
 1990SOL    HW1 6869   3.655   0.024   0.902
 1990SOL    HW2 6870   3.519   0.053   0.816
 1991SOL     OW 6871   2.429   4.730   0.177
 1991SOL    HW1 6872   2.504   4.795   0.168
 1991SOL    HW2 6873   2.390   4.712   0.087
 1992SOL     OW 6874   6.902   0.078   0.880
 1992SOL    HW1 6875   6.936   0.019   0.953
 1992SOL    HW2 6876   6.814   0.117   0.907
 1993SOL     OW 6877   3.076   2.194   4.650
 1993SOL    HW1 6878   3.106   2.140   4.571
 1993SOL    HW2 6879   3.147   2.193   4.720
 1994SOL     OW 6880   4.653   1.734   0.736
 1994SOL    HW1 6881   4.731   1.793   0.713
 1994SOL    HW2 6882   4.642   1.730   0.835
 1995SOL     OW 6883   5.601   3.450   4.465
 1995SOL    HW1 6884   5.618   3.376   4.401
 1995SOL    HW2 6885   5.563   3.529   4.416
 1996SOL     OW 6886   2.703   1.178   1.170
 1996SOL    HW1 6887   2.757   1.194   1.087
 1996SOL    HW2 6888   2.762   1.183   1.250
 1997SOL     OW 6889   2.971   1.466   3.999
 1997SOL    HW1 6890   2.978   1.381   4.050
 1997SOL    HW2 6891   3.032   1.534   4.039
 1998SOL     OW 6892   1.234   3.591   0.765
 1998SOL    HW1 6893   1.266   3.581   0.671
 1998SOL    HW2 6894   1.245   3.686   0.794
 1999SOL     OW 6895   0.121   0.802   4.837
 1999SOL    HW1 6896   0.218   0.827   4.831
 1999SOL    HW2 6897   0.093   0.800   4.933
 2000SOL     OW 6898   4.105   4.061   6.120
 2000SOL    HW1 6899   4.145   4.055   6.029
 2000SOL    HW2 6900   4.159   4.123   6.177
 2001SOL     OW 6901   1.283   2.186   0.244
 2001SOL    HW1 6902   1.282   2.091   0.273
 2001SOL    HW2 6903   1.244   2.194   0.152
 2002SOL     OW 6904   0.994   5.861   0.863
 2002SOL    HW1 6905   1.051   5.784   0.890
 2002SOL    HW2 6906   0.908   5.826   0.824
 2003SOL     OW 6907   6.813   5.218   1.844
 2003SOL    HW1 6908   6.752   5.279   1.895
 2003SOL    HW2 6909   6.798   5.124   1.873
 2004SOL     OW 6910   4.432   1.206   4.325
 2004SOL    HW1 6911   4.406   1.129   4.384
 2004SOL    HW2 6912   4.530   1.205   4.309
 2005SOL     OW 6913   6.731   5.407   6.938
 2005SOL    HW1 6914   6.659   5.471   6.911
 2005SOL    HW2 6915   6.815   5.458   6.954
 2006SOL     OW 6916   5.276   6.871   4.115
 2006SOL    HW1 6917   5.215   6.925   4.056
 2006SOL    HW2 6918   5.341   6.822   4.058
 2007SOL     OW 6919   5.392   4.008   0.999
 2007SOL    HW1 6920   5.457   4.064   1.051
 2007SOL    HW2 6921   5.345   3.945   1.061
 2008SOL     OW 6922   2.146   3.351   3.915
 2008SOL    HW1 6923   2.202   3.329   3.995
 2008SOL    HW2 6924   2.156   3.449   3.894
 2009SOL     OW 6925   5.488   6.219   1.880
 2009SOL    HW1 6926   5.462   6.168   1.798
 2009SOL    HW2 6927   5.453   6.171   1.961
 2010SOL     OW 6928   1.788   1.703   1.859
 2010SOL    HW1 6929   1.774   1.795   1.822
 2010SOL    HW2 6930   1.851   1.707   1.936
 2011SOL     OW 6931   6.698   0.250   5.056
 2011SOL    HW1 6932   6.785   0.298   5.066
 2011SOL    HW2 6933   6.707   0.180   4.985
 2012SOL     OW 6934   1.429   3.789   2.149
 2012SOL    HW1 6935   1.369   3.771   2.071
 2012SOL    HW2 6936   1.519   3.750   2.130
 2013SOL     OW 6937   6.722   2.984   3.453
 2013SOL    HW1 6938   6.785   2.927   3.506
 2013SOL    HW2 6939   6.641   2.931   3.428
 2014SOL     OW 6940   2.927   0.498   2.941
 2014SOL    HW1 6941   2.982   0.577   2.966
 2014SOL    HW2 6942   2.964   0.416   2.986
 2015SOL     OW 6943   3.673   0.326   0.969
 2015SOL    HW1 6944   3.629   0.248   0.924
 2015SOL    HW2 6945   3.605   0.398   0.984
 2016SOL     OW 6946   1.460   5.625   5.852
 2016SOL    HW1 6947   1.381   5.650   5.907
 2016SOL    HW2 6948   1.436   5.631   5.755
 2017SOL     OW 6949   3.996   0.764   3.476
 2017SOL    HW1 6950   4.015   0.811   3.563
 2017SOL    HW2 6951   3.910   0.797   3.439
 2018SOL     OW 6952   6.968   2.634   3.844
 2018SOL    HW1 6953   6.907   2.690   3.901
 2018SOL    HW2 6954   0.033   2.679   3.839
 2019SOL     OW 6955   6.400   4.525   6.308
 2019SOL    HW1 6956   6.326   4.566   6.255
 2019SOL    HW2 6957   6.369   4.437   6.345
 2020SOL     OW 6958   1.283   6.328   6.302
 2020SOL    HW1 6959   1.200   6.383   6.294
 2020SOL    HW2 6960   1.301   6.307   6.398
 2021SOL     OW 6961   5.967   0.176   3.642
 2021SOL    HW1 6962   5.905   0.254   3.643
 2021SOL    HW2 6963   5.937   0.108   3.708
 2022SOL     OW 6964   1.609   4.668   4.622
 2022SOL    HW1 6965   1.614   4.569   4.639
 2022SOL    HW2 6966   1.702   4.705   4.614
 2023SOL     OW 6967   6.747   0.094   6.575
 2023SOL    HW1 6968   6.782   0.185   6.555
 2023SOL    HW2 6969   6.748   0.079   6.674
 2024SOL     OW 6970   0.110   5.956   3.830
 2024SOL    HW1 6971   0.017   5.992   3.816
 2024SOL    HW2 6972   0.155   6.009   3.902
 2025SOL     OW 6973   3.121   0.662   3.312
 2025SOL    HW1 6974   3.200   0.671   3.372
 2025SOL    HW2 6975   3.065   0.584   3.342
 2026SOL     OW 6976   6.384   1.740   6.870
 2026SOL    HW1 6977   6.392   1.740   6.770
 2026SOL    HW2 6978   6.440   1.814   6.907
 2027SOL     OW 6979   0.619   5.934   1.657
 2027SOL    HW1 6980   0.687   5.862   1.645
 2027SOL    HW2 6981   0.532   5.905   1.616
 2028SOL     OW 6982   3.477   5.514   2.664
 2028SOL    HW1 6983   3.505   5.582   2.732
 2028SOL    HW2 6984   3.403   5.458   2.701
 2029SOL     OW 6985   6.566   1.952   0.120
 2029SOL    HW1 6986   6.478   1.953   0.168
 2029SOL    HW2 6987   6.577   1.865   0.071
 2030SOL     OW 6988   3.273   6.844   2.610
 2030SOL    HW1 6989   3.226   6.812   2.692
 2030SOL    HW2 6990   3.372   6.839   2.624
 2031SOL     OW 6991   6.795   6.124   2.776
 2031SOL    HW1 6992   6.757   6.166   2.693
 2031SOL    HW2 6993   6.736   6.146   2.854
 2032SOL     OW 6994   3.268   1.457   0.795
 2032SOL    HW1 6995   3.198   1.386   0.802
 2032SOL    HW2 6996   3.346   1.422   0.743
 2033SOL     OW 6997   1.494   1.101   0.448
 2033SOL    HW1 6998   1.471   1.039   0.524
 2033SOL    HW2 6999   1.410   1.135   0.407
 2034SOL     OW 7000   1.651   5.416   5.603
 2034SOL    HW1 7001   1.574   5.360   5.634
 2034SOL    HW2 7002   1.699   5.453   5.682
 2035SOL     OW 7003   6.500   0.323   2.142
 2035SOL    HW1 7004   6.530   0.296   2.233
 2035SOL    HW2 7005   6.521   0.250   2.076
 2036SOL     OW 7006   1.504   3.352   2.979
 2036SOL    HW1 7007   1.578   3.375   2.916
 2036SOL    HW2 7008   1.484   3.254   2.974
 2037SOL     OW 7009   6.943   2.624   6.263
 2037SOL    HW1 7010   6.921   2.530   6.291
 2037SOL    HW2 7011   6.926   2.633   6.165
 2038SOL     OW 7012   2.794   1.268   0.131
 2038SOL    HW1 7013   2.777   1.206   0.054
 2038SOL    HW2 7014   2.859   1.339   0.103
 2039SOL     OW 7015   0.025   5.691   2.180
 2039SOL    HW1 7016   0.054   5.596   2.181
 2039SOL    HW2 7017   0.048   5.735   2.267
 2040SOL     OW 7018   2.012   2.297   6.705
 2040SOL    HW1 7019   2.026   2.288   6.606
 2040SOL    HW2 7020   1.915   2.309   6.723
 2041SOL     OW 7021   1.814   6.747   5.595
 2041SOL    HW1 7022   1.735   6.795   5.557
 2041SOL    HW2 7023   1.897   6.799   5.576
 2042SOL     OW 7024   4.985   6.921   6.122
 2042SOL    HW1 7025   4.962   6.861   6.045
 2042SOL    HW2 7026   4.936   6.891   6.203
 2043SOL     OW 7027   6.473   2.253   1.988
 2043SOL    HW1 7028   6.482   2.353   1.981
 2043SOL    HW2 7029   6.563   2.211   1.975
 2044SOL     OW 7030   5.794   0.812   1.769
 2044SOL    HW1 7031   5.800   0.718   1.736
 2044SOL    HW2 7032   5.832   0.874   1.701
 2045SOL     OW 7033   1.840   5.949   5.401
 2045SOL    HW1 7034   1.789   5.962   5.316
 2045SOL    HW2 7035   1.776   5.924   5.474
 2046SOL     OW 7036   6.886   1.737   5.731
 2046SOL    HW1 7037   6.906   1.835   5.729
 2046SOL    HW2 7038   6.869   1.705   5.638
 2047SOL     OW 7039   6.296   2.126   1.156
 2047SOL    HW1 7040   6.280   2.148   1.059
 2047SOL    HW2 7041   6.393   2.111   1.170
 2048SOL     OW 7042   0.535   1.807   4.714
 2048SOL    HW1 7043   0.631   1.836   4.708
 2048SOL    HW2 7044   0.518   1.736   4.646
 2049SOL     OW 7045   4.652   1.282   4.781
 2049SOL    HW1 7046   4.583   1.319   4.719
 2049SOL    HW2 7047   4.635   1.314   4.874
 2050SOL     OW 7048   6.993   2.119   4.931
 2050SOL    HW1 7049   6.980   2.216   4.954
 2050SOL    HW2 7050   7.018   2.069   5.014
 2051SOL     OW 7051   1.854   6.237   6.939
 2051SOL    HW1 7052   1.952   6.238   6.919
 2051SOL    HW2 7053   1.814   6.151   6.907
 2052SOL     OW 7054   1.170   3.132   0.842
 2052SOL    HW1 7055   1.245   3.192   0.870
 2052SOL    HW2 7056   1.133   3.163   0.754
 2053SOL     OW 7057   0.376   5.478   4.267
 2053SOL    HW1 7058   0.441   5.404   4.252
 2053SOL    HW2 7059   0.398   5.525   4.352
 2054SOL     OW 7060   3.509   2.907   2.552
 2054SOL    HW1 7061   3.436   2.935   2.615
 2054SOL    HW2 7062   3.469   2.888   2.462
 2055SOL     OW 7063   6.680   2.875   4.984
 2055SOL    HW1 7064   6.748   2.878   4.911
 2055SOL    HW2 7065   6.613   2.804   4.964
 2056SOL     OW 7066   4.598   4.537   1.221
 2056SOL    HW1 7067   4.531   4.480   1.268
 2056SOL    HW2 7068   4.561   4.629   1.208
 2057SOL     OW 7069   5.318   3.114   4.284
 2057SOL    HW1 7070   5.273   3.063   4.358
 2057SOL    HW2 7071   5.328   3.055   4.204
 2058SOL     OW 7072   0.432   6.506   2.579
 2058SOL    HW1 7073   0.424   6.537   2.674
 2058SOL    HW2 7074   0.498   6.431   2.574
 2059SOL     OW 7075   2.575   0.609   5.471
 2059SOL    HW1 7076   2.495   0.667   5.456
 2059SOL    HW2 7077   2.560   0.520   5.426
 2060SOL     OW 7078   0.839   3.505   0.428
 2060SOL    HW1 7079   0.913   3.566   0.400
 2060SOL    HW2 7080   0.810   3.451   0.349
 2061SOL     OW 7081   2.081   2.912   2.448
 2061SOL    HW1 7082   2.100   2.967   2.366
 2061SOL    HW2 7083   2.086   2.815   2.424
 2062SOL     OW 7084   6.550   5.043   5.250
 2062SOL    HW1 7085   6.476   5.062   5.186
 2062SOL    HW2 7086   6.519   4.975   5.317
 2063SOL     OW 7087   1.517   6.574   5.182
 2063SOL    HW1 7088   1.479   6.526   5.103
 2063SOL    HW2 7089   1.577   6.648   5.150
 2064SOL     OW 7090   1.520   3.641   4.252
 2064SOL    HW1 7091   1.590   3.621   4.183
 2064SOL    HW2 7092   1.437   3.591   4.231
 2065SOL     OW 7093   5.150   2.960   5.504
 2065SOL    HW1 7094   5.100   2.932   5.422
 2065SOL    HW2 7095   5.122   2.903   5.581
 2066SOL     OW 7096   6.319   3.775   5.499
 2066SOL    HW1 7097   6.381   3.853   5.503
 2066SOL    HW2 7098   6.332   3.718   5.581
 2067SOL     OW 7099   6.250   4.599   1.980
 2067SOL    HW1 7100   6.274   4.621   1.885
 2067SOL    HW2 7101   6.283   4.508   2.003
 2068SOL     OW 7102   3.321   1.487   3.896
 2068SOL    HW1 7103   3.286   1.577   3.872
 2068SOL    HW2 7104   3.383   1.495   3.974
 2069SOL     OW 7105   7.019   2.140   4.259
 2069SOL    HW1 7106   0.047   2.211   4.214
 2069SOL    HW2 7107   0.010   2.052   4.214
 2070SOL     OW 7108   1.522   3.093   1.172
 2070SOL    HW1 7109   1.609   3.059   1.210
 2070SOL    HW2 7110   1.463   3.015   1.150
 2071SOL     OW 7111   6.413   1.366   6.162
 2071SOL    HW1 7112   6.358   1.378   6.079
 2071SOL    HW2 7113   6.354   1.358   6.241
 2072SOL     OW 7114   3.906   4.874   5.532
 2072SOL    HW1 7115   3.891   4.873   5.434
 2072SOL    HW2 7116   3.921   4.780   5.564
 2073SOL     OW 7117   3.920   5.753   6.125
 2073SOL    HW1 7118   3.842   5.777   6.183
 2073SOL    HW2 7119   4.002   5.744   6.181
 2074SOL     OW 7120   1.543   3.283   6.005
 2074SOL    HW1 7121   1.624   3.331   5.972
 2074SOL    HW2 7122   1.571   3.213   6.070
 2075SOL     OW 7123   6.467   2.361   2.408
 2075SOL    HW1 7124   6.367   2.358   2.406
 2075SOL    HW2 7125   6.499   2.420   2.334
 2076SOL     OW 7126   6.173   6.949   4.985
 2076SOL    HW1 7127   6.134   6.883   5.049
 2076SOL    HW2 7128   6.235   7.010   5.034
 2077SOL     OW 7129   7.015   2.370   1.809
 2077SOL    HW1 7130   0.018   2.293   1.867
 2077SOL    HW2 7131   6.922   2.398   1.833
 2078SOL     OW 7132   1.816   4.897   5.918
 2078SOL    HW1 7133   1.825   4.994   5.939
 2078SOL    HW2 7134   1.744   4.883   5.850
 2079SOL     OW 7135   5.046   0.730   2.279
 2079SOL    HW1 7136   5.087   0.702   2.192
 2079SOL    HW2 7137   5.073   0.824   2.299
 2080SOL     OW 7138   2.838   2.263   4.528
 2080SOL    HW1 7139   2.910   2.250   4.596
 2080SOL    HW2 7140   2.749   2.271   4.573
 2081SOL     OW 7141   0.372   6.733   3.502
 2081SOL    HW1 7142   0.319   6.808   3.542
 2081SOL    HW2 7143   0.425   6.766   3.424
 2082SOL     OW 7144   0.695   6.365   2.588
 2082SOL    HW1 7145   0.666   6.275   2.553
 2082SOL    HW2 7146   0.699   6.430   2.512
 2083SOL     OW 7147   0.635   6.063   3.439
 2083SOL    HW1 7148   0.540   6.090   3.427
 2083SOL    HW2 7149   0.658   5.989   3.375
 2084SOL     OW 7150   1.358   2.216   1.399
 2084SOL    HW1 7151   1.321   2.309   1.400
 2084SOL    HW2 7152   1.325   2.168   1.317
 2085SOL     OW 7153   4.804   5.639   0.560
 2085SOL    HW1 7154   4.813   5.625   0.659
 2085SOL    HW2 7155   4.884   5.599   0.514
 2086SOL     OW 7156   3.438   6.570   0.038
 2086SOL    HW1 7157   3.435   6.597   6.966
 2086SOL    HW2 7158   3.502   6.494   0.048
 2087SOL     OW 7159   4.096   2.185   6.908
 2087SOL    HW1 7160   4.080   2.225   6.817
 2087SOL    HW2 7161   4.104   2.086   6.900
 2088SOL     OW 7162   0.976   5.817   6.232
 2088SOL    HW1 7163   1.054   5.757   6.250
 2088SOL    HW2 7164   1.004   5.912   6.244
 2089SOL     OW 7165   3.950   2.677   5.363
 2089SOL    HW1 7166   3.988   2.634   5.282
 2089SOL    HW2 7167   3.954   2.777   5.353
 2090SOL     OW 7168   4.560   3.240   5.497
 2090SOL    HW1 7169   4.478   3.183   5.488
 2090SOL    HW2 7170   4.605   3.220   5.584
 2091SOL     OW 7171   6.840   6.117   1.877
 2091SOL    HW1 7172   6.876   6.090   1.788
 2091SOL    HW2 7173   6.761   6.176   1.865
 2092SOL     OW 7174   4.827   3.907   1.127
 2092SOL    HW1 7175   4.850   3.999   1.160
 2092SOL    HW2 7176   4.896   3.842   1.159
 2093SOL     OW 7177   3.906   2.157   2.232
 2093SOL    HW1 7178   3.824   2.175   2.177
 2093SOL    HW2 7179   3.879   2.138   2.326
 2094SOL     OW 7180   5.777   2.597   0.340
 2094SOL    HW1 7181   5.695   2.654   0.349
 2094SOL    HW2 7182   5.828   2.599   0.426
 2095SOL     OW 7183   5.853   6.250   3.667
 2095SOL    HW1 7184   5.846   6.304   3.751
 2095SOL    HW2 7185   5.877   6.310   3.590
 2096SOL     OW 7186   4.529   6.367   2.467
 2096SOL    HW1 7187   4.474   6.319   2.536
 2096SOL    HW2 7188   4.558   6.456   2.503
 2097SOL     OW 7189   2.565   4.303   6.620
 2097SOL    HW1 7190   2.636   4.337   6.559
 2097SOL    HW2 7191   2.483   4.281   6.568
 2098SOL     OW 7192   3.691   5.965   3.364
 2098SOL    HW1 7193   3.698   6.064   3.360
 2098SOL    HW2 7194   3.739   5.924   3.287
 2099SOL     OW 7195   4.034   1.442   0.013
 2099SOL    HW1 7196   4.054   1.347   0.035
 2099SOL    HW2 7197   3.965   1.477   0.076
 2100SOL     OW 7198   5.376   1.300   0.530
 2100SOL    HW1 7199   5.299   1.354   0.563
 2100SOL    HW2 7200   5.366   1.283   0.432
 2101SOL     OW 7201   0.315   6.062   1.065
 2101SOL    HW1 7202   0.316   6.113   1.151
 2101SOL    HW2 7203   0.362   6.115   0.995
 2102SOL     OW 7204   4.038   2.813   1.748
 2102SOL    HW1 7205   3.978   2.873   1.801
 2102SOL    HW2 7206   3.997   2.793   1.659
 2103SOL     OW 7207   3.064   4.678   0.378
 2103SOL    HW1 7208   3.039   4.705   0.471
 2103SOL    HW2 7209   3.025   4.588   0.358
 2104SOL     OW 7210   1.977   4.594   2.682
 2104SOL    HW1 7211   1.940   4.585   2.775
 2104SOL    HW2 7212   2.021   4.683   2.673
 2105SOL     OW 7213   4.857   4.587   0.553
 2105SOL    HW1 7214   4.770   4.625   0.522
 2105SOL    HW2 7215   4.870   4.496   0.513
 2106SOL     OW 7216   5.384   3.458   1.404
 2106SOL    HW1 7217   5.294   3.471   1.443
 2106SOL    HW2 7218   5.424   3.373   1.439
 2107SOL     OW 7219   5.187   3.453   6.189
 2107SOL    HW1 7220   5.229   3.457   6.099
 2107SOL    HW2 7221   5.094   3.416   6.182
 2108SOL     OW 7222   5.819   6.299   5.887
 2108SOL    HW1 7223   5.911   6.328   5.914
 2108SOL    HW2 7224   5.818   6.278   5.789
 2109SOL     OW 7225   3.357   5.110   2.205
 2109SOL    HW1 7226   3.291   5.035   2.214
 2109SOL    HW2 7227   3.314   5.195   2.236
 2110SOL     OW 7228   4.005   0.671   6.554
 2110SOL    HW1 7229   4.006   0.604   6.479
 2110SOL    HW2 7230   4.097   0.707   6.568
 2111SOL     OW 7231   0.993   2.831   5.863
 2111SOL    HW1 7232   1.034   2.900   5.922
 2111SOL    HW2 7233   0.987   2.745   5.912
 2112SOL     OW 7234   5.919   1.291   6.792
 2112SOL    HW1 7235   5.847   1.360   6.782
 2112SOL    HW2 7236   6.008   1.336   6.791
 2113SOL     OW 7237   1.956   6.381   4.051
 2113SOL    HW1 7238   2.036   6.395   3.992
 2113SOL    HW2 7239   1.886   6.448   4.029
 2114SOL     OW 7240   2.383   3.101   0.268
 2114SOL    HW1 7241   2.331   3.082   0.351
 2114SOL    HW2 7242   2.428   3.190   0.275
 2115SOL     OW 7243   1.045   4.324   2.624
 2115SOL    HW1 7244   1.080   4.325   2.718
 2115SOL    HW2 7245   0.967   4.386   2.616
 2116SOL     OW 7246   1.041   2.711   0.345
 2116SOL    HW1 7247   0.965   2.719   0.409
 2116SOL    HW2 7248   1.007   2.699   0.252
 2117SOL     OW 7249   5.771   2.594   2.234
 2117SOL    HW1 7250   5.733   2.673   2.186
 2117SOL    HW2 7251   5.779   2.517   2.170
 2118SOL     OW 7252   6.746   3.825   2.814
 2118SOL    HW1 7253   6.761   3.860   2.722
 2118SOL    HW2 7254   6.660   3.774   2.817
 2119SOL     OW 7255   2.239   0.356   6.505
 2119SOL    HW1 7256   2.261   0.441   6.553
 2119SOL    HW2 7257   2.246   0.371   6.406
 2120SOL     OW 7258   6.630   2.121   2.359
 2120SOL    HW1 7259   6.575   2.200   2.389
 2120SOL    HW2 7260   6.624   2.049   2.428
 2121SOL     OW 7261   1.842   1.058   5.835
 2121SOL    HW1 7262   1.841   0.978   5.775
 2121SOL    HW2 7263   1.750   1.078   5.867
 2122SOL     OW 7264   5.580   0.123   5.711
 2122SOL    HW1 7265   5.530   0.187   5.769
 2122SOL    HW2 7266   5.537   0.033   5.716
 2123SOL     OW 7267   0.188   6.405   2.493
 2123SOL    HW1 7268   0.285   6.427   2.506
 2123SOL    HW2 7269   0.139   6.488   2.464
 2124SOL     OW 7270   3.378   2.997   5.956
 2124SOL    HW1 7271   3.385   2.976   5.858
 2124SOL    HW2 7272   3.448   2.945   6.006
 2125SOL     OW 7273   1.507   5.986   3.138
 2125SOL    HW1 7274   1.411   5.966   3.117
 2125SOL    HW2 7275   1.549   5.906   3.181
 2126SOL     OW 7276   3.732   3.375   0.728
 2126SOL    HW1 7277   3.689   3.454   0.685
 2126SOL    HW2 7278   3.663   3.306   0.749
 2127SOL     OW 7279   0.078   2.859   6.039
 2127SOL    HW1 7280   0.010   2.882   6.109
 2127SOL    HW2 7281   0.121   2.772   6.062
 2128SOL     OW 7282   5.945   3.910   1.058
 2128SOL    HW1 7283   5.931   3.854   0.976
 2128SOL    HW2 7284   5.856   3.926   1.102
 2129SOL     OW 7285   5.316   4.046   3.866
 2129SOL    HW1 7286   5.299   4.103   3.785
 2129SOL    HW2 7287   5.413   4.024   3.871
 2130SOL     OW 7288   2.526   1.284   1.398
 2130SOL    HW1 7289   2.548   1.191   1.428
 2130SOL    HW2 7290   2.604   1.344   1.415
 2131SOL     OW 7291   5.703   1.725   5.850
 2131SOL    HW1 7292   5.679   1.630   5.828
 2131SOL    HW2 7293   5.643   1.759   5.921
 2132SOL     OW 7294   2.815   1.612   6.586
 2132SOL    HW1 7295   2.811   1.596   6.487
 2132SOL    HW2 7296   2.869   1.539   6.629
 2133SOL     OW 7297   2.371   1.514   1.717
 2133SOL    HW1 7298   2.442   1.445   1.733
 2133SOL    HW2 7299   2.412   1.592   1.669
 2134SOL     OW 7300   0.429   6.958   4.180
 2134SOL    HW1 7301   0.504   6.907   4.222
 2134SOL    HW2 7302   0.396   0.003   4.244
 2135SOL     OW 7303   0.940   1.678   3.656
 2135SOL    HW1 7304   0.926   1.722   3.567
 2135SOL    HW2 7305   1.031   1.638   3.659
 2136SOL     OW 7306   1.051   3.529   4.906
 2136SOL    HW1 7307   0.984   3.542   4.978
 2136SOL    HW2 7308   1.049   3.434   4.875
 2137SOL     OW 7309   0.870   6.172   5.314
 2137SOL    HW1 7310   0.931   6.128   5.380
 2137SOL    HW2 7311   0.800   6.224   5.364
 2138SOL     OW 7312   0.242   2.366   1.136
 2138SOL    HW1 7313   0.146   2.348   1.113
 2138SOL    HW2 7314   0.299   2.351   1.055
 2139SOL     OW 7315   2.527   0.759   3.927
 2139SOL    HW1 7316   2.446   0.720   3.885
 2139SOL    HW2 7317   2.601   0.764   3.860
 2140SOL     OW 7318   2.637   6.430   2.791
 2140SOL    HW1 7319   2.728   6.446   2.753
 2140SOL    HW2 7320   2.640   6.435   2.891
 2141SOL     OW 7321   6.688   2.755   1.169
 2141SOL    HW1 7322   6.693   2.692   1.246
 2141SOL    HW2 7323   6.640   2.712   1.093
 2142SOL     OW 7324   1.676   1.916   3.410
 2142SOL    HW1 7325   1.637   1.915   3.503
 2142SOL    HW2 7326   1.636   1.992   3.359
 2143SOL     OW 7327   4.145   6.504   1.424
 2143SOL    HW1 7328   4.237   6.479   1.394
 2143SOL    HW2 7329   4.151   6.576   1.493
 2144SOL     OW 7330   1.371   0.714   2.861
 2144SOL    HW1 7331   1.293   0.727   2.801
 2144SOL    HW2 7332   1.417   0.802   2.876
 2145SOL     OW 7333   3.235   5.781   4.002
 2145SOL    HW1 7334   3.250   5.782   3.904
 2145SOL    HW2 7335   3.277   5.699   4.041
 2146SOL     OW 7336   3.074   3.920   1.718
 2146SOL    HW1 7337   3.072   4.013   1.756
 2146SOL    HW2 7338   3.060   3.853   1.791
 2147SOL     OW 7339   0.339   1.801   0.315
 2147SOL    HW1 7340   0.253   1.797   0.266
 2147SOL    HW2 7341   0.337   1.878   0.379
 2148SOL     OW 7342   4.947   3.754   3.846
 2148SOL    HW1 7343   4.898   3.793   3.769
 2148SOL    HW2 7344   4.997   3.672   3.817
 2149SOL     OW 7345   4.306   0.468   1.498
 2149SOL    HW1 7346   4.269   0.399   1.560
 2149SOL    HW2 7347   4.405   0.474   1.510
 2150SOL     OW 7348   3.905   2.098   2.709
 2150SOL    HW1 7349   3.880   2.129   2.618
 2150SOL    HW2 7350   3.848   2.145   2.777
 2151SOL     OW 7351   3.395   2.656   5.672
 2151SOL    HW1 7352   3.363   2.607   5.591
 2151SOL    HW2 7353   3.333   2.639   5.748
 2152SOL     OW 7354   6.063   6.772   2.065
 2152SOL    HW1 7355   5.994   6.751   2.135
 2152SOL    HW2 7356   6.022   6.763   1.974
 2153SOL     OW 7357   4.661   1.482   3.772
 2153SOL    HW1 7358   4.757   1.490   3.744
 2153SOL    HW2 7359   4.657   1.469   3.871
 2154SOL     OW 7360   2.878   5.412   4.592
 2154SOL    HW1 7361   2.819   5.489   4.616
 2154SOL    HW2 7362   2.869   5.393   4.494
 2155SOL     OW 7363   2.122   5.002   0.642
 2155SOL    HW1 7364   2.147   4.990   0.546
 2155SOL    HW2 7365   2.072   5.088   0.653
 2156SOL     OW 7366   1.838   0.234   1.275
 2156SOL    HW1 7367   1.929   0.273   1.259
 2156SOL    HW2 7368   1.821   0.159   1.212
 2157SOL     OW 7369   0.022   1.498   5.259
 2157SOL    HW1 7370   6.996   1.426   5.212
 2157SOL    HW2 7371   6.994   1.530   5.338
 2158SOL     OW 7372   3.708   6.927   1.012
 2158SOL    HW1 7373   3.763   6.863   0.958
 2158SOL    HW2 7374   3.762   6.961   1.089
 2159SOL     OW 7375   1.474   0.170   4.583
 2159SOL    HW1 7376   1.448   0.259   4.619
 2159SOL    HW2 7377   1.518   0.116   4.655
 2160SOL     OW 7378   3.995   4.057   1.246
 2160SOL    HW1 7379   3.962   4.149   1.268
 2160SOL    HW2 7380   3.920   3.992   1.254
 2161SOL     OW 7381   4.959   3.624   3.134
 2161SOL    HW1 7382   4.962   3.555   3.206
 2161SOL    HW2 7383   4.987   3.583   3.047
 2162SOL     OW 7384   2.131   0.637   6.629
 2162SOL    HW1 7385   2.136   0.690   6.714
 2162SOL    HW2 7386   2.192   0.677   6.562
 2163SOL     OW 7387   1.609   7.008   0.191
 2163SOL    HW1 7388   1.522   6.996   0.144
 2163SOL    HW2 7389   1.684   6.988   0.128
 2164SOL     OW 7390   2.012   0.806   6.374
 2164SOL    HW1 7391   2.039   0.891   6.330
 2164SOL    HW2 7392   2.093   0.762   6.414
 2165SOL     OW 7393   1.544   0.982   2.813
 2165SOL    HW1 7394   1.472   1.038   2.773
 2165SOL    HW2 7395   1.574   0.914   2.746
 2166SOL     OW 7396   1.117   2.121   5.571
 2166SOL    HW1 7397   1.034   2.158   5.529
 2166SOL    HW2 7398   1.183   2.098   5.499
 2167SOL     OW 7399   2.645   0.862   2.174
 2167SOL    HW1 7400   2.583   0.792   2.210
 2167SOL    HW2 7401   2.621   0.884   2.080
 2168SOL     OW 7402   5.755   3.555   4.972
 2168SOL    HW1 7403   5.823   3.494   5.013
 2168SOL    HW2 7404   5.684   3.499   4.929
 2169SOL     OW 7405   5.626   2.876   6.001
 2169SOL    HW1 7406   5.566   2.822   6.061
 2169SOL    HW2 7407   5.647   2.823   5.919
 2170SOL     OW 7408   5.445   4.655   5.327
 2170SOL    HW1 7409   5.413   4.715   5.254
 2170SOL    HW2 7410   5.416   4.561   5.307
 2171SOL     OW 7411   6.667   2.884   0.055
 2171SOL    HW1 7412   6.710   2.958   0.002
 2171SOL    HW2 7413   6.689   2.896   0.152
 2172SOL     OW 7414   3.071   1.284   0.230
 2172SOL    HW1 7415   2.973   1.269   0.244
 2172SOL    HW2 7416   3.097   1.372   0.270
 2173SOL     OW 7417   3.903   0.258   5.594
 2173SOL    HW1 7418   3.811   0.260   5.633
 2173SOL    HW2 7419   3.943   0.167   5.606
 2174SOL     OW 7420   6.670   4.399   5.083
 2174SOL    HW1 7421   6.727   4.408   5.001
 2174SOL    HW2 7422   6.711   4.452   5.157
 2175SOL     OW 7423   2.966   0.155   2.739
 2175SOL    HW1 7424   3.020   0.122   2.661
 2175SOL    HW2 7425   3.027   0.200   2.805
 2176SOL     OW 7426   2.189   2.520   1.852
 2176SOL    HW1 7427   2.125   2.569   1.792
 2176SOL    HW2 7428   2.245   2.457   1.797
 2177SOL     OW 7429   6.581   1.642   1.267
 2177SOL    HW1 7430   6.488   1.607   1.277
 2177SOL    HW2 7431   6.628   1.591   1.194
 2178SOL     OW 7432   1.182   5.157   0.032
 2178SOL    HW1 7433   1.180   5.077   0.092
 2178SOL    HW2 7434   1.095   5.206   0.038
 2179SOL     OW 7435   0.930   5.718   3.996
 2179SOL    HW1 7436   0.860   5.680   4.056
 2179SOL    HW2 7437   0.913   5.816   3.983
 2180SOL     OW 7438   3.188   3.972   2.945
 2180SOL    HW1 7439   3.185   4.016   2.855
 2180SOL    HW2 7440   3.126   3.894   2.946
 2181SOL     OW 7441   4.884   5.419   5.814
 2181SOL    HW1 7442   4.790   5.386   5.814
 2181SOL    HW2 7443   4.946   5.344   5.838
 2182SOL     OW 7444   6.807   3.507   6.667
 2182SOL    HW1 7445   6.892   3.536   6.712
 2182SOL    HW2 7446   6.729   3.536   6.723
 2183SOL     OW 7447   3.274   2.816   0.810
 2183SOL    HW1 7448   3.181   2.807   0.845
 2183SOL    HW2 7449   3.274   2.796   0.712
 2184SOL     OW 7450   3.636   1.259   6.564
 2184SOL    HW1 7451   3.693   1.186   6.601
 2184SOL    HW2 7452   3.582   1.224   6.488
 2185SOL     OW 7453   1.647   0.623   0.505
 2185SOL    HW1 7454   1.707   0.578   0.570
 2185SOL    HW2 7455   1.671   0.719   0.497
 2186SOL     OW 7456   6.987   4.472   2.678
 2186SOL    HW1 7457   0.030   4.497   2.747
 2186SOL    HW2 7458   6.895   4.478   2.717
 2187SOL     OW 7459   6.319   1.495   1.326
 2187SOL    HW1 7460   6.409   1.453   1.312
 2187SOL    HW2 7461   6.265   1.439   1.388
 2188SOL     OW 7462   5.129   6.493   3.793
 2188SOL    HW1 7463   5.060   6.530   3.855
 2188SOL    HW2 7464   5.083   6.443   3.719
 2189SOL     OW 7465   2.006   0.167   5.902
 2189SOL    HW1 7466   2.077   0.210   5.847
 2189SOL    HW2 7467   2.009   0.203   5.995
 2190SOL     OW 7468   6.623   2.514   1.685
 2190SOL    HW1 7469   6.678   2.574   1.627
 2190SOL    HW2 7470   6.528   2.513   1.652
 2191SOL     OW 7471   3.518   2.720   6.588
 2191SOL    HW1 7472   3.498   2.814   6.561
 2191SOL    HW2 7473   3.448   2.689   6.652
 2192SOL     OW 7474   4.107   6.207   5.284
 2192SOL    HW1 7475   4.072   6.218   5.377
 2192SOL    HW2 7476   4.095   6.294   5.234
 2193SOL     OW 7477   0.978   5.225   5.212
 2193SOL    HW1 7478   0.911   5.245   5.284
 2193SOL    HW2 7479   1.049   5.295   5.213
 2194SOL     OW 7480   2.287   6.135   0.371
 2194SOL    HW1 7481   2.256   6.040   0.378
 2194SOL    HW2 7482   2.265   6.183   0.455
 2195SOL     OW 7483   0.979   5.647   2.430
 2195SOL    HW1 7484   1.007   5.636   2.525
 2195SOL    HW2 7485   1.029   5.723   2.389
 2196SOL     OW 7486   3.586   1.235   5.596
 2196SOL    HW1 7487   3.539   1.295   5.531
 2196SOL    HW2 7488   3.665   1.193   5.552
 2197SOL     OW 7489   5.028   4.390   1.664
 2197SOL    HW1 7490   5.043   4.374   1.566
 2197SOL    HW2 7491   5.011   4.303   1.709
 2198SOL     OW 7492   6.750   4.238   0.141
 2198SOL    HW1 7493   6.697   4.234   0.056
 2198SOL    HW2 7494   6.711   4.308   0.201
 2199SOL     OW 7495   4.801   6.896   0.482
 2199SOL    HW1 7496   4.880   6.924   0.427
 2199SOL    HW2 7497   4.832   6.856   0.568
 2200SOL     OW 7498   4.183   0.794   4.477
 2200SOL    HW1 7499   4.234   0.788   4.562
 2200SOL    HW2 7500   4.090   0.758   4.490
 2201SOL     OW 7501   6.158   3.145   2.192
 2201SOL    HW1 7502   6.077   3.095   2.162
 2201SOL    HW2 7503   6.145   3.176   2.287
 2202SOL     OW 7504   3.877   4.922   4.096
 2202SOL    HW1 7505   3.825   4.911   4.011
 2202SOL    HW2 7506   3.973   4.899   4.079
 2203SOL     OW 7507   3.517   2.031   3.594
 2203SOL    HW1 7508   3.540   2.070   3.505
 2203SOL    HW2 7509   3.583   2.062   3.662
 2204SOL     OW 7510   3.135   1.843   0.153
 2204SOL    HW1 7511   3.215   1.879   0.200
 2204SOL    HW2 7512   3.159   1.759   0.105
 2205SOL     OW 7513   1.812   6.923   0.018
 2205SOL    HW1 7514   1.762   6.856   6.987
 2205SOL    HW2 7515   1.905   6.932   7.008
 2206SOL     OW 7516   3.349   3.465   6.667
 2206SOL    HW1 7517   3.443   3.486   6.694
 2206SOL    HW2 7518   3.344   3.460   6.567
 2207SOL     OW 7519   1.534   4.607   5.926
 2207SOL    HW1 7520   1.489   4.594   6.015
 2207SOL    HW2 7521   1.606   4.539   5.914
 2208SOL     OW 7522   0.158   3.449   2.033
 2208SOL    HW1 7523   0.247   3.461   1.988
 2208SOL    HW2 7524   0.171   3.405   2.122
 2209SOL     OW 7525   1.645   5.322   6.589
 2209SOL    HW1 7526   1.700   5.360   6.663
 2209SOL    HW2 7527   1.581   5.255   6.625
 2210SOL     OW 7528   0.833   5.570   3.584
 2210SOL    HW1 7529   0.739   5.599   3.566
 2210SOL    HW2 7530   0.865   5.513   3.508
 2211SOL     OW 7531   6.196   1.237   5.215
 2211SOL    HW1 7532   6.181   1.139   5.228
 2211SOL    HW2 7533   6.272   1.251   5.152
 2212SOL     OW 7534   0.989   0.106   5.928
 2212SOL    HW1 7535   0.957   0.200   5.920
 2212SOL    HW2 7536   0.996   0.081   6.025
 2213SOL     OW 7537   4.006   2.184   3.700
 2213SOL    HW1 7538   3.954   2.113   3.653
 2213SOL    HW2 7539   4.058   2.237   3.634
 2214SOL     OW 7540   5.309   0.371   4.514
 2214SOL    HW1 7541   5.303   0.344   4.418
 2214SOL    HW2 7542   5.392   0.333   4.554
 2215SOL     OW 7543   6.892   1.978   5.539
 2215SOL    HW1 7544   6.871   1.883   5.520
 2215SOL    HW2 7545   6.982   2.001   5.502
 2216SOL     OW 7546   1.078   6.473   0.799
 2216SOL    HW1 7547   1.045   6.379   0.801
 2216SOL    HW2 7548   1.071   6.509   0.706
 2217SOL     OW 7549   4.476   0.007   1.232
 2217SOL    HW1 7550   4.402   0.071   1.254
 2217SOL    HW2 7551   4.563   0.057   1.232
 2218SOL     OW 7552   1.316   5.540   6.462
 2218SOL    HW1 7553   1.376   5.573   6.535
 2218SOL    HW2 7554   1.353   5.454   6.426
 2219SOL     OW 7555   1.150   3.849   3.206
 2219SOL    HW1 7556   1.157   3.865   3.108
 2219SOL    HW2 7557   1.064   3.888   3.240
 2220SOL     OW 7558   0.516   2.046   5.330
 2220SOL    HW1 7559   0.491   2.016   5.238
 2220SOL    HW2 7560   0.491   1.975   5.396
 2221SOL     OW 7561   6.876   1.860   1.524
 2221SOL    HW1 7562   6.972   1.889   1.518
 2221SOL    HW2 7563   6.828   1.918   1.590
 2222SOL     OW 7564   4.947   6.966   2.176
 2222SOL    HW1 7565   4.962   6.869   2.191
 2222SOL    HW2 7566   4.870   6.997   2.233
 2223SOL     OW 7567   5.973   5.592   4.146
 2223SOL    HW1 7568   6.029   5.510   4.134
 2223SOL    HW2 7569   6.029   5.673   4.130
 2224SOL     OW 7570   1.955   5.109   1.951
 2224SOL    HW1 7571   1.997   5.023   1.920
 2224SOL    HW2 7572   1.862   5.090   1.983
 2225SOL     OW 7573   6.527   4.911   2.299
 2225SOL    HW1 7574   6.438   4.949   2.326
 2225SOL    HW2 7575   6.516   4.854   2.218
 2226SOL     OW 7576   3.748   2.655   1.120
 2226SOL    HW1 7577   3.704   2.579   1.071
 2226SOL    HW2 7578   3.836   2.675   1.077
 2227SOL     OW 7579   6.519   3.895   5.907
 2227SOL    HW1 7580   6.516   3.986   5.866
 2227SOL    HW2 7581   6.484   3.900   6.001
 2228SOL     OW 7582   3.018   4.616   6.457
 2228SOL    HW1 7583   2.962   4.560   6.395
 2228SOL    HW2 7584   3.093   4.560   6.492
 2229SOL     OW 7585   4.547   1.456   3.373
 2229SOL    HW1 7586   4.486   1.391   3.419
 2229SOL    HW2 7587   4.631   1.409   3.346
 2230SOL     OW 7588   0.765   5.737   5.057
 2230SOL    HW1 7589   0.825   5.662   5.031
 2230SOL    HW2 7590   0.820   5.813   5.091
 2231SOL     OW 7591   2.172   0.607   1.817
 2231SOL    HW1 7592   2.088   0.651   1.785
 2231SOL    HW2 7593   2.214   0.663   1.888
 2232SOL     OW 7594   6.760   3.011   2.593
 2232SOL    HW1 7595   6.740   3.086   2.529
 2232SOL    HW2 7596   6.792   3.049   2.680
 2233SOL     OW 7597   3.900   6.350   0.465
 2233SOL    HW1 7598   3.938   6.260   0.482
 2233SOL    HW2 7599   3.940   6.416   0.529
 2234SOL     OW 7600   3.430   1.342   0.627
 2234SOL    HW1 7601   3.500   1.381   0.569
 2234SOL    HW2 7602   3.397   1.256   0.587
 2235SOL     OW 7603   1.246   0.048   0.547
 2235SOL    HW1 7604   1.248   6.981   0.506
 2235SOL    HW2 7605   1.194   0.110   0.488
 2236SOL     OW 7606   0.661   4.447   1.268
 2236SOL    HW1 7607   0.733   4.510   1.241
 2236SOL    HW2 7608   0.700   4.370   1.317
 2237SOL     OW 7609   0.101   2.914   4.694
 2237SOL    HW1 7610   0.019   2.952   4.651
 2237SOL    HW2 7611   0.180   2.926   4.633
 2238SOL     OW 7612   0.370   5.667   2.189
 2238SOL    HW1 7613   0.342   5.732   2.260
 2238SOL    HW2 7614   0.461   5.692   2.155
 2239SOL     OW 7615   3.999   4.951   3.741
 2239SOL    HW1 7616   4.036   4.930   3.832
 2239SOL    HW2 7617   4.067   4.929   3.671
 2240SOL     OW 7618   6.683   4.988   3.354
 2240SOL    HW1 7619   6.681   4.895   3.391
 2240SOL    HW2 7620   6.590   5.018   3.332
 2241SOL     OW 7621   6.898   6.605   1.861
 2241SOL    HW1 7622   6.975   6.614   1.924
 2241SOL    HW2 7623   6.836   6.683   1.872
 2242SOL     OW 7624   4.928   2.399   2.940
 2242SOL    HW1 7625   4.857   2.397   3.011
 2242SOL    HW2 7626   5.011   2.438   2.978
 2243SOL     OW 7627   2.181   6.043   4.946
 2243SOL    HW1 7628   2.221   6.086   4.865
 2243SOL    HW2 7629   2.150   5.951   4.922
 2244SOL     OW 7630   2.462   0.274   4.318
 2244SOL    HW1 7631   2.449   0.286   4.416
 2244SOL    HW2 7632   2.450   0.362   4.272
 2245SOL     OW 7633   0.340   1.755   2.702
 2245SOL    HW1 7634   0.299   1.758   2.611
 2245SOL    HW2 7635   0.272   1.780   2.771
 2246SOL     OW 7636   1.060   3.938   6.308
 2246SOL    HW1 7637   1.090   3.843   6.312
 2246SOL    HW2 7638   1.132   3.998   6.343
 2247SOL     OW 7639   2.022   2.435   6.077
 2247SOL    HW1 7640   1.961   2.407   6.151
 2247SOL    HW2 7641   1.969   2.481   6.006
 2248SOL     OW 7642   4.811   4.435   5.366
 2248SOL    HW1 7643   4.880   4.456   5.297
 2248SOL    HW2 7644   4.853   4.387   5.442
 2249SOL     OW 7645   5.381   6.082   3.081
 2249SOL    HW1 7646   5.466   6.130   3.104
 2249SOL    HW2 7647   5.309   6.108   3.146
 2250SOL     OW 7648   6.373   4.242   1.115
 2250SOL    HW1 7649   6.437   4.166   1.105
 2250SOL    HW2 7650   6.279   4.209   1.101
 2251SOL     OW 7651   5.734   1.480   6.809
 2251SOL    HW1 7652   5.687   1.443   6.889
 2251SOL    HW2 7653   5.726   1.579   6.808
 2252SOL     OW 7654   5.482   2.538   5.021
 2252SOL    HW1 7655   5.489   2.583   5.110
 2252SOL    HW2 7656   5.543   2.582   4.955
 2253SOL     OW 7657   2.665   2.967   6.687
 2253SOL    HW1 7658   2.741   2.920   6.731
 2253SOL    HW2 7659   2.654   3.059   6.727
 2254SOL     OW 7660   1.946   3.491   6.328
 2254SOL    HW1 7661   1.905   3.498   6.237
 2254SOL    HW2 7662   1.928   3.575   6.380
 2255SOL     OW 7663   6.138   2.503   2.143
 2255SOL    HW1 7664   6.167   2.594   2.172
 2255SOL    HW2 7665   6.112   2.506   2.046
 2256SOL     OW 7666   4.031   4.954   2.317
 2256SOL    HW1 7667   4.079   4.867   2.306
 2256SOL    HW2 7668   3.944   4.938   2.364
 2257SOL     OW 7669   1.674   3.599   4.024
 2257SOL    HW1 7670   1.767   3.566   4.040
 2257SOL    HW2 7671   1.630   3.544   3.953
 2258SOL     OW 7672   1.790   5.423   5.112
 2258SOL    HW1 7673   1.699   5.463   5.111
 2258SOL    HW2 7674   1.813   5.393   5.204
 2259SOL     OW 7675   5.234   3.668   6.754
 2259SOL    HW1 7676   5.168   3.674   6.679
 2259SOL    HW2 7677   5.199   3.719   6.833
 2260SOL     OW 7678   5.215   4.966   1.791
 2260SOL    HW1 7679   5.151   4.961   1.714
 2260SOL    HW2 7680   5.308   4.956   1.757
 2261SOL     OW 7681   5.312   6.448   0.894
 2261SOL    HW1 7682   5.224   6.469   0.936
 2261SOL    HW2 7683   5.385   6.496   0.944
 2262SOL     OW 7684   5.198   2.519   4.044
 2262SOL    HW1 7685   5.102   2.527   4.018
 2262SOL    HW2 7686   5.233   2.609   4.072
 2263SOL     OW 7687   1.523   5.272   5.986
 2263SOL    HW1 7688   1.548   5.354   6.039
 2263SOL    HW2 7689   1.606   5.229   5.951
 2264SOL     OW 7690   3.259   3.597   3.021
 2264SOL    HW1 7691   3.193   3.575   2.949
 2264SOL    HW2 7692   3.215   3.587   3.110
 2265SOL     OW 7693   0.064   0.675   2.475
 2265SOL    HW1 7694   0.054   0.675   2.375
 2265SOL    HW2 7695   7.011   0.629   2.517
 2266SOL     OW 7696   6.195   0.587   0.687
 2266SOL    HW1 7697   6.266   0.622   0.626
 2266SOL    HW2 7698   6.236   0.562   0.774
 2267SOL     OW 7699   6.125   2.466   5.228
 2267SOL    HW1 7700   6.120   2.533   5.302
 2267SOL    HW2 7701   6.216   2.423   5.229
 2268SOL     OW 7702   0.002   6.459   0.030
 2268SOL    HW1 7703   0.098   6.446   0.054
 2268SOL    HW2 7704   6.970   6.444   0.111
 2269SOL     OW 7705   6.619   5.694   6.195
 2269SOL    HW1 7706   6.527   5.683   6.158
 2269SOL    HW2 7707   6.681   5.629   6.151
 2270SOL     OW 7708   2.940   3.148   1.886
 2270SOL    HW1 7709   2.919   3.242   1.858
 2270SOL    HW2 7710   3.027   3.120   1.846
 2271SOL     OW 7711   5.712   4.848   1.876
 2271SOL    HW1 7712   5.683   4.818   1.785
 2271SOL    HW2 7713   5.725   4.769   1.935
 2272SOL     OW 7714   5.552   1.838   5.489
 2272SOL    HW1 7715   5.541   1.894   5.571
 2272SOL    HW2 7716   5.463   1.812   5.454
 2273SOL     OW 7717   0.983   1.242   3.623
 2273SOL    HW1 7718   0.958   1.184   3.546
 2273SOL    HW2 7719   1.082   1.240   3.636
 2274SOL     OW 7720   1.483   3.455   4.840
 2274SOL    HW1 7721   1.446   3.541   4.877
 2274SOL    HW2 7722   1.513   3.470   4.746
 2275SOL     OW 7723   5.294   5.703   4.634
 2275SOL    HW1 7724   5.306   5.616   4.587
 2275SOL    HW2 7725   5.230   5.691   4.710
 2276SOL     OW 7726   4.287   4.033   0.616
 2276SOL    HW1 7727   4.314   4.129   0.608
 2276SOL    HW2 7728   4.279   3.993   0.525
 2277SOL     OW 7729   3.256   3.187   6.666
 2277SOL    HW1 7730   3.188   3.164   6.736
 2277SOL    HW2 7731   3.304   3.270   6.692
 2278SOL     OW 7732   5.382   6.142   1.627
 2278SOL    HW1 7733   5.358   6.238   1.617
 2278SOL    HW2 7734   5.337   6.088   1.556
 2279SOL     OW 7735   5.729   3.058   5.017
 2279SOL    HW1 7736   5.804   3.037   4.954
 2279SOL    HW2 7737   5.683   3.142   4.986
 2280SOL     OW 7738   6.197   6.308   5.425
 2280SOL    HW1 7739   6.147   6.360   5.494
 2280SOL    HW2 7740   6.295   6.322   5.437
 2281SOL     OW 7741   3.591   1.866   1.794
 2281SOL    HW1 7742   3.578   1.796   1.724
 2281SOL    HW2 7743   3.510   1.870   1.852
 2282SOL     OW 7744   4.650   5.501   3.462
 2282SOL    HW1 7745   4.655   5.450   3.548
 2282SOL    HW2 7746   4.691   5.447   3.388
 2283SOL     OW 7747   0.102   3.362   3.452
 2283SOL    HW1 7748   0.135   3.358   3.547
 2283SOL    HW2 7749   0.172   3.403   3.395
 2284SOL     OW 7750   2.588   2.092   1.672
 2284SOL    HW1 7751   2.544   2.073   1.760
 2284SOL    HW2 7752   2.612   2.189   1.668
 2285SOL     OW 7753   0.996   3.714   0.307
 2285SOL    HW1 7754   0.901   3.729   0.278
 2285SOL    HW2 7755   1.038   3.803   0.328
 2286SOL     OW 7756   6.132   6.139   4.535
 2286SOL    HW1 7757   6.151   6.237   4.527
 2286SOL    HW2 7758   6.089   6.120   4.622
 2287SOL     OW 7759   2.471   2.411   1.495
 2287SOL    HW1 7760   2.492   2.485   1.431
 2287SOL    HW2 7761   2.497   2.439   1.587
 2288SOL     OW 7762   6.929   6.608   2.637
 2288SOL    HW1 7763   6.876   6.690   2.616
 2288SOL    HW2 7764   6.914   6.539   2.567
 2289SOL     OW 7765   6.004   1.631   2.388
 2289SOL    HW1 7766   5.971   1.575   2.312
 2289SOL    HW2 7767   5.974   1.725   2.375
 2290SOL     OW 7768   3.095   3.950   3.492
 2290SOL    HW1 7769   3.146   3.956   3.406
 2290SOL    HW2 7770   3.143   4.002   3.563
 2291SOL     OW 7771   2.003   2.360   1.191
 2291SOL    HW1 7772   1.936   2.288   1.174
 2291SOL    HW2 7773   2.093   2.329   1.161
 2292SOL     OW 7774   4.695   1.891   3.184
 2292SOL    HW1 7775   4.602   1.856   3.172
 2292SOL    HW2 7776   4.699   1.985   3.150
 2293SOL     OW 7777   5.629   1.322   0.692
 2293SOL    HW1 7778   5.564   1.391   0.722
 2293SOL    HW2 7779   5.583   1.259   0.629
 2294SOL     OW 7780   1.318   2.637   6.421
 2294SOL    HW1 7781   1.272   2.647   6.509
 2294SOL    HW2 7782   1.251   2.610   6.351
 2295SOL     OW 7783   7.015   6.928   1.925
 2295SOL    HW1 7784   0.034   6.956   2.010
 2295SOL    HW2 7785   6.921   6.901   1.942
 2296SOL     OW 7786   2.560   5.325   3.531
 2296SOL    HW1 7787   2.489   5.371   3.477
 2296SOL    HW2 7788   2.548   5.347   3.627
 2297SOL     OW 7789   4.748   5.049   5.445
 2297SOL    HW1 7790   4.713   5.141   5.463
 2297SOL    HW2 7791   4.727   5.023   5.351
 2298SOL     OW 7792   3.706   3.239   4.583
 2298SOL    HW1 7793   3.611   3.253   4.610
 2298SOL    HW2 7794   3.729   3.302   4.509
 2299SOL     OW 7795   5.815   3.190   5.231
 2299SOL    HW1 7796   5.751   3.264   5.252
 2299SOL    HW2 7797   5.776   3.130   5.162
 2300SOL     OW 7798   4.049   6.141   3.139
 2300SOL    HW1 7799   3.981   6.149   3.066
 2300SOL    HW2 7800   4.003   6.137   3.227
 2301SOL     OW 7801   3.215   2.975   4.343
 2301SOL    HW1 7802   3.216   2.946   4.247
 2301SOL    HW2 7803   3.305   2.959   4.383
 2302SOL     OW 7804   4.251   1.747   0.301
 2302SOL    HW1 7805   4.175   1.760   0.238
 2302SOL    HW2 7806   4.331   1.714   0.251
 2303SOL     OW 7807   2.634   2.310   0.675
 2303SOL    HW1 7808   2.685   2.224   0.674
 2303SOL    HW2 7809   2.557   2.303   0.612
 2304SOL     OW 7810   6.175   6.257   2.673
 2304SOL    HW1 7811   6.172   6.157   2.685
 2304SOL    HW2 7812   6.088   6.289   2.636
 2305SOL     OW 7813   1.171   1.184   5.179
 2305SOL    HW1 7814   1.077   1.160   5.204
 2305SOL    HW2 7815   1.226   1.194   5.262
 2306SOL     OW 7816   2.248   4.641   3.550
 2306SOL    HW1 7817   2.315   4.659   3.621
 2306SOL    HW2 7818   2.232   4.724   3.497
 2307SOL     OW 7819   1.136   2.551   5.545
 2307SOL    HW1 7820   1.137   2.481   5.616
 2307SOL    HW2 7821   1.229   2.586   5.531
 2308SOL     OW 7822   2.613   4.550   1.791
 2308SOL    HW1 7823   2.558   4.571   1.872
 2308SOL    HW2 7824   2.709   4.539   1.817
 2309SOL     OW 7825   1.394   6.349   4.180
 2309SOL    HW1 7826   1.450   6.422   4.143
 2309SOL    HW2 7827   1.342   6.306   4.106
 2310SOL     OW 7828   4.387   6.804   1.494
 2310SOL    HW1 7829   4.424   6.887   1.536
 2310SOL    HW2 7830   4.453   6.768   1.428
 2311SOL     OW 7831   2.701   5.835   0.683
 2311SOL    HW1 7832   2.728   5.817   0.589
 2311SOL    HW2 7833   2.704   5.934   0.700
 2312SOL     OW 7834   3.729   5.447   2.539
 2312SOL    HW1 7835   3.648   5.474   2.591
 2312SOL    HW2 7836   3.724   5.349   2.519
 2313SOL     OW 7837   4.617   4.871   2.448
 2313SOL    HW1 7838   4.561   4.790   2.466
 2313SOL    HW2 7839   4.568   4.933   2.387
 2314SOL     OW 7840   3.174   5.930   3.597
 2314SOL    HW1 7841   3.132   5.871   3.528
 2314SOL    HW2 7842   3.260   5.966   3.562
 2315SOL     OW 7843   4.328   3.442   5.907
 2315SOL    HW1 7844   4.292   3.398   5.990
 2315SOL    HW2 7845   4.294   3.393   5.827
 2316SOL     OW 7846   5.535   3.226   3.048
 2316SOL    HW1 7847   5.491   3.310   3.014
 2316SOL    HW2 7848   5.490   3.196   3.132
 2317SOL     OW 7849   2.013   4.476   3.503
 2317SOL    HW1 7850   2.090   4.538   3.519
 2317SOL    HW2 7851   2.023   4.395   3.561
 2318SOL     OW 7852   0.470   1.202   3.052
 2318SOL    HW1 7853   0.394   1.138   3.056
 2318SOL    HW2 7854   0.477   1.253   3.138
 2319SOL     OW 7855   1.437   4.913   4.679
 2319SOL    HW1 7856   1.360   4.869   4.633
 2319SOL    HW2 7857   1.485   4.972   4.614
 2320SOL     OW 7858   0.102   2.865   4.104
 2320SOL    HW1 7859   0.129   2.796   4.036
 2320SOL    HW2 7860   0.002   2.868   4.109
 2321SOL     OW 7861   3.285   6.748   4.824
 2321SOL    HW1 7862   3.278   6.773   4.727
 2321SOL    HW2 7863   3.199   6.710   4.855
 2322SOL     OW 7864   1.587   0.894   5.425
 2322SOL    HW1 7865   1.545   0.831   5.360
 2322SOL    HW2 7866   1.534   0.979   5.428
 2323SOL     OW 7867   4.519   5.751   2.570
 2323SOL    HW1 7868   4.601   5.705   2.603
 2323SOL    HW2 7869   4.510   5.840   2.615
 2324SOL     OW 7870   0.580   6.122   2.514
 2324SOL    HW1 7871   0.505   6.118   2.581
 2324SOL    HW2 7872   0.546   6.094   2.425
 2325SOL     OW 7873   1.319   4.141   1.314
 2325SOL    HW1 7874   1.368   4.054   1.321
 2325SOL    HW2 7875   1.384   4.217   1.317
 2326SOL     OW 7876   1.616   5.070   6.892
 2326SOL    HW1 7877   1.531   5.121   6.906
 2326SOL    HW2 7878   1.636   5.015   6.973
 2327SOL     OW 7879   5.091   2.722   3.664
 2327SOL    HW1 7880   5.118   2.802   3.716
 2327SOL    HW2 7881   5.171   2.664   3.648
 2328SOL     OW 7882   4.581   1.288   2.859
 2328SOL    HW1 7883   4.513   1.313   2.790
 2328SOL    HW2 7884   4.647   1.363   2.868
 2329SOL     OW 7885   1.165   5.718   3.816
 2329SOL    HW1 7886   1.136   5.752   3.726
 2329SOL    HW2 7887   1.084   5.705   3.874
 2330SOL     OW 7888   0.503   4.341   2.883
 2330SOL    HW1 7889   0.449   4.391   2.815
 2330SOL    HW2 7890   0.488   4.243   2.872
 2331SOL     OW 7891   0.389   4.190   5.165
 2331SOL    HW1 7892   0.301   4.210   5.121
 2331SOL    HW2 7893   0.453   4.263   5.143
 2332SOL     OW 7894   5.484   1.994   5.704
 2332SOL    HW1 7895   5.568   2.035   5.738
 2332SOL    HW2 7896   5.406   2.053   5.728
 2333SOL     OW 7897   1.183   5.522   3.424
 2333SOL    HW1 7898   1.093   5.494   3.391
 2333SOL    HW2 7899   1.239   5.553   3.348
 2334SOL     OW 7900   3.093   0.151   6.772
 2334SOL    HW1 7901   3.011   0.101   6.799
 2334SOL    HW2 7902   3.070   0.246   6.752
 2335SOL     OW 7903   4.753   6.849   3.518
 2335SOL    HW1 7904   4.847   6.883   3.523
 2335SOL    HW2 7905   4.708   6.885   3.437
 2336SOL     OW 7906   4.906   0.662   6.102
 2336SOL    HW1 7907   4.832   0.662   6.035
 2336SOL    HW2 7908   4.976   0.728   6.076
 2337SOL     OW 7909   5.077   0.131   2.920
 2337SOL    HW1 7910   5.116   0.070   2.990
 2337SOL    HW2 7911   4.984   0.156   2.947
 2338SOL     OW 7912   0.577   6.918   6.448
 2338SOL    HW1 7913   0.546   6.943   6.356
 2338SOL    HW2 7914   0.511   6.951   6.516
 2339SOL     OW 7915   3.471   4.865   0.152
 2339SOL    HW1 7916   3.503   4.899   0.241
 2339SOL    HW2 7917   3.540   4.885   0.082
 2340SOL     OW 7918   3.414   5.732   4.590
 2340SOL    HW1 7919   3.323   5.708   4.624
 2340SOL    HW2 7920   3.478   5.739   4.666
 2341SOL     OW 7921   5.149   5.283   1.156
 2341SOL    HW1 7922   5.168   5.286   1.058
 2341SOL    HW2 7923   5.206   5.350   1.203
 2342SOL     OW 7924   6.419   0.430   5.028
 2342SOL    HW1 7925   6.350   0.466   4.966
 2342SOL    HW2 7926   6.485   0.375   4.977
 2343SOL     OW 7927   1.201   5.497   0.827
 2343SOL    HW1 7928   1.212   5.585   0.874
 2343SOL    HW2 7929   1.218   5.510   0.729
 2344SOL     OW 7930   2.191   2.235   2.549
 2344SOL    HW1 7931   2.286   2.238   2.518
 2344SOL    HW2 7932   2.175   2.308   2.616
 2345SOL     OW 7933   1.995   0.912   4.440
 2345SOL    HW1 7934   2.047   0.863   4.511
 2345SOL    HW2 7935   2.034   0.891   4.351
 2346SOL     OW 7936   5.346   3.775   5.722
 2346SOL    HW1 7937   5.393   3.851   5.767
 2346SOL    HW2 7938   5.253   3.768   5.758
 2347SOL     OW 7939   1.713   2.721   1.815
 2347SOL    HW1 7940   1.808   2.700   1.790
 2347SOL    HW2 7941   1.700   2.703   1.913
 2348SOL     OW 7942   2.759   6.139   2.611
 2348SOL    HW1 7943   2.822   6.187   2.550
 2348SOL    HW2 7944   2.789   6.044   2.623
 2349SOL     OW 7945   6.458   6.493   6.273
 2349SOL    HW1 7946   6.511   6.510   6.190
 2349SOL    HW2 7947   6.492   6.550   6.347
 2350SOL     OW 7948   2.690   0.103   6.166
 2350SOL    HW1 7949   2.599   0.061   6.160
 2350SOL    HW2 7950   2.731   0.108   6.075
 2351SOL     OW 7951   2.571   5.215   4.031
 2351SOL    HW1 7952   2.663   5.177   4.039
 2351SOL    HW2 7953   2.571   5.288   3.962
 2352SOL     OW 7954   0.305   4.168   3.460
 2352SOL    HW1 7955   0.214   4.206   3.474
 2352SOL    HW2 7956   0.297   4.077   3.419
 2353SOL     OW 7957   2.793   4.345   5.688
 2353SOL    HW1 7958   2.882   4.391   5.680
 2353SOL    HW2 7959   2.720   4.412   5.678
 2354SOL     OW 7960   3.265   1.833   0.773
 2354SOL    HW1 7961   3.195   1.762   0.789
 2354SOL    HW2 7962   3.324   1.839   0.854
 2355SOL     OW 7963   0.546   6.488   0.127
 2355SOL    HW1 7964   0.601   6.535   0.057
 2355SOL    HW2 7965   0.582   6.396   0.141
 2356SOL     OW 7966   2.532   5.050   2.855
 2356SOL    HW1 7967   2.473   5.080   2.930
 2356SOL    HW2 7968   2.532   4.950   2.849
 2357SOL     OW 7969   6.186   4.278   2.161
 2357SOL    HW1 7970   6.108   4.222   2.134
 2357SOL    HW2 7971   6.245   4.294   2.082
 2358SOL     OW 7972   3.773   1.123   5.933
 2358SOL    HW1 7973   3.845   1.063   5.898
 2358SOL    HW2 7974   3.687   1.102   5.888
 2359SOL     OW 7975   2.240   1.722   5.636
 2359SOL    HW1 7976   2.194   1.799   5.593
 2359SOL    HW2 7977   2.243   1.736   5.735
 2360SOL     OW 7978   4.344   4.634   1.107
 2360SOL    HW1 7979   4.254   4.666   1.077
 2360SOL    HW2 7980   4.400   4.712   1.135
 2361SOL     OW 7981   3.424   6.755   2.133
 2361SOL    HW1 7982   3.394   6.668   2.172
 2361SOL    HW2 7983   3.410   6.754   2.034
 2362SOL     OW 7984   4.213   5.287   4.864
 2362SOL    HW1 7985   4.156   5.205   4.855
 2362SOL    HW2 7986   4.174   5.360   4.809
 2363SOL     OW 7987   3.201   3.259   0.479
 2363SOL    HW1 7988   3.149   3.218   0.403
 2363SOL    HW2 7989   3.249   3.187   0.529
 2364SOL     OW 7990   4.696   1.808   1.986
 2364SOL    HW1 7991   4.663   1.733   1.929
 2364SOL    HW2 7992   4.633   1.885   1.979
 2365SOL     OW 7993   5.430   3.615   4.312
 2365SOL    HW1 7994   5.353   3.667   4.347
 2365SOL    HW2 7995   5.397   3.530   4.271
 2366SOL     OW 7996   2.657   4.285   5.364
 2366SOL    HW1 7997   2.562   4.255   5.367
 2366SOL    HW2 7998   2.717   4.207   5.384
 2367SOL     OW 7999   0.783   4.127   6.066
 2367SOL    HW1 8000   0.745   4.042   6.031
 2367SOL    HW2 8001   0.883   4.121   6.068
 2368SOL     OW 8002   5.509   0.435   3.830
 2368SOL    HW1 8003   5.460   0.357   3.791
 2368SOL    HW2 8004   5.521   0.421   3.929
 2369SOL     OW 8005   2.762   1.603   3.941
 2369SOL    HW1 8006   2.745   1.684   3.997
 2369SOL    HW2 8007   2.855   1.570   3.958
 2370SOL     OW 8008   5.441   3.183   1.519
 2370SOL    HW1 8009   5.375   3.110   1.533
 2370SOL    HW2 8010   5.457   3.231   1.605
 2371SOL     OW 8011   0.893   6.660   2.704
 2371SOL    HW1 8012   0.842   6.600   2.643
 2371SOL    HW2 8013   0.988   6.666   2.673
 2372SOL     OW 8014   6.633   1.242   6.057
 2372SOL    HW1 8015   6.699   1.189   6.111
 2372SOL    HW2 8016   6.562   1.278   6.117
 2373SOL     OW 8017   6.376   0.292   5.941
 2373SOL    HW1 8018   6.405   0.227   5.870
 2373SOL    HW2 8019   6.278   0.281   5.958
 2374SOL     OW 8020   6.050   6.620   2.909
 2374SOL    HW1 8021   5.969   6.594   2.856
 2374SOL    HW2 8022   6.121   6.551   2.896
 2375SOL     OW 8023   1.061   0.603   4.258
 2375SOL    HW1 8024   1.004   0.684   4.245
 2375SOL    HW2 8025   1.145   0.613   4.206
 2376SOL     OW 8026   6.257   2.541   3.369
 2376SOL    HW1 8027   6.345   2.527   3.323
 2376SOL    HW2 8028   6.245   2.470   3.439
 2377SOL     OW 8029   4.305   4.954   5.770
 2377SOL    HW1 8030   4.351   5.042   5.759
 2377SOL    HW2 8031   4.206   4.968   5.776
 2378SOL     OW 8032   6.616   1.768   0.904
 2378SOL    HW1 8033   6.518   1.786   0.912
 2378SOL    HW2 8034   6.639   1.685   0.955
 2379SOL     OW 8035   0.061   5.354   0.509
 2379SOL    HW1 8036   0.014   5.285   0.564
 2379SOL    HW2 8037   0.117   5.310   0.440
 2380SOL     OW 8038   5.058   4.061   4.834
 2380SOL    HW1 8039   5.123   4.080   4.907
 2380SOL    HW2 8040   5.107   4.017   4.758
 2381SOL     OW 8041   2.663   4.963   5.258
 2381SOL    HW1 8042   2.605   4.994   5.183
 2381SOL    HW2 8043   2.751   4.931   5.223
 2382SOL     OW 8044   1.654   6.116   2.119
 2382SOL    HW1 8045   1.745   6.139   2.084
 2382SOL    HW2 8046   1.643   6.154   2.211
 2383SOL     OW 8047   5.118   5.730   4.861
 2383SOL    HW1 8048   5.060   5.793   4.810
 2383SOL    HW2 8049   5.064   5.683   4.930
 2384SOL     OW 8050   1.017   1.998   1.485
 2384SOL    HW1 8051   1.083   2.021   1.556
 2384SOL    HW2 8052   1.043   1.911   1.442
 2385SOL     OW 8053   0.593   1.668   1.237
 2385SOL    HW1 8054   0.499   1.675   1.203
 2385SOL    HW2 8055   0.592   1.623   1.326
 2386SOL     OW 8056   3.731   5.433   4.312
 2386SOL    HW1 8057   3.828   5.439   4.289
 2386SOL    HW2 8058   3.676   5.446   4.230
 2387SOL     OW 8059   1.195   2.067   3.509
 2387SOL    HW1 8060   1.253   2.133   3.463
 2387SOL    HW2 8061   1.172   2.100   3.601
 2388SOL     OW 8062   6.932   2.100   6.464
 2388SOL    HW1 8063   6.895   2.044   6.539
 2388SOL    HW2 8064   6.940   2.044   6.382
 2389SOL     OW 8065   4.969   4.574   4.022
 2389SOL    HW1 8066   4.991   4.577   3.925
 2389SOL    HW2 8067   4.874   4.601   4.036
 2390SOL     OW 8068   4.663   3.412   6.020
 2390SOL    HW1 8069   4.653   3.469   5.939
 2390SOL    HW2 8070   4.648   3.468   6.102
 2391SOL     OW 8071   3.422   3.663   6.218
 2391SOL    HW1 8072   3.519   3.653   6.243
 2391SOL    HW2 8073   3.415   3.684   6.120
 2392SOL     OW 8074   3.483   5.480   5.291
 2392SOL    HW1 8075   3.407   5.517   5.345
 2392SOL    HW2 8076   3.532   5.412   5.346
 2393SOL     OW 8077   3.730   5.374   1.394
 2393SOL    HW1 8078   3.759   5.437   1.323
 2393SOL    HW2 8079   3.800   5.368   1.465
 2394SOL     OW 8080   0.254   3.225   3.132
 2394SOL    HW1 8081   0.283   3.314   3.169
 2394SOL    HW2 8082   0.175   3.238   3.072
 2395SOL     OW 8083   0.590   2.978   6.217
 2395SOL    HW1 8084   0.637   3.000   6.131
 2395SOL    HW2 8085   0.574   3.063   6.268
 2396SOL     OW 8086   6.004   0.731   4.898
 2396SOL    HW1 8087   6.076   0.744   4.966
 2396SOL    HW2 8088   5.949   0.652   4.923
 2397SOL     OW 8089   0.748   4.773   5.397
 2397SOL    HW1 8090   0.731   4.728   5.485
 2397SOL    HW2 8091   0.707   4.718   5.324
 2398SOL     OW 8092   2.479   5.375   3.789
 2398SOL    HW1 8093   2.473   5.475   3.792
 2398SOL    HW2 8094   2.387   5.336   3.794
 2399SOL     OW 8095   2.585   2.466   3.533
 2399SOL    HW1 8096   2.601   2.460   3.631
 2399SOL    HW2 8097   2.551   2.557   3.510
 2400SOL     OW 8098   1.621   3.598   0.139
 2400SOL    HW1 8099   1.640   3.594   0.237
 2400SOL    HW2 8100   1.668   3.677   0.099
 2401SOL     OW 8101   3.735   0.122   4.784
 2401SOL    HW1 8102   3.777   0.089   4.868
 2401SOL    HW2 8103   3.784   0.203   4.751
 2402SOL     OW 8104   0.965   2.134   2.371
 2402SOL    HW1 8105   1.055   2.159   2.406
 2402SOL    HW2 8106   0.895   2.188   2.417
 2403SOL     OW 8107   3.660   3.696   2.347
 2403SOL    HW1 8108   3.605   3.725   2.269
 2403SOL    HW2 8109   3.614   3.721   2.432
 2404SOL     OW 8110   6.480   1.012   1.125
 2404SOL    HW1 8111   6.401   1.049   1.173
 2404SOL    HW2 8112   6.506   1.075   1.051
 2405SOL     OW 8113   2.376   4.454   0.492
 2405SOL    HW1 8114   2.412   4.490   0.579
 2405SOL    HW2 8115   2.366   4.355   0.499
 2406SOL     OW 8116   1.965   0.185   3.701
 2406SOL    HW1 8117   1.952   0.268   3.646
 2406SOL    HW2 8118   1.881   0.131   3.699
 2407SOL     OW 8119   3.768   1.811   3.429
 2407SOL    HW1 8120   3.728   1.835   3.341
 2407SOL    HW2 8121   3.784   1.713   3.433
 2408SOL     OW 8122   2.106   6.154   3.731
 2408SOL    HW1 8123   2.064   6.181   3.645
 2408SOL    HW2 8124   2.165   6.228   3.765
 2409SOL     OW 8125   2.369   2.566   1.071
 2409SOL    HW1 8126   2.363   2.570   0.971
 2409SOL    HW2 8127   2.462   2.538   1.098
 2410SOL     OW 8128   6.313   3.288   5.823
 2410SOL    HW1 8129   6.229   3.334   5.851
 2410SOL    HW2 8130   6.371   3.273   5.903
 2411SOL     OW 8131   2.789   3.621   7.019
 2411SOL    HW1 8132   2.879   3.628   6.976
 2411SOL    HW2 8133   2.731   3.696   6.987
 2412SOL     OW 8134   2.694   2.328   6.790
 2412SOL    HW1 8135   2.637   2.400   6.751
 2412SOL    HW2 8136   2.644   2.241   6.788
 2413SOL     OW 8137   6.762   2.770   6.555
 2413SOL    HW1 8138   6.785   2.755   6.459
 2413SOL    HW2 8139   6.845   2.762   6.611
 2414SOL     OW 8140   5.852   2.713   4.081
 2414SOL    HW1 8141   5.859   2.626   4.130
 2414SOL    HW2 8142   5.940   2.761   4.084
 2415SOL     OW 8143   2.746   6.432   0.875
 2415SOL    HW1 8144   2.668   6.443   0.936
 2415SOL    HW2 8145   2.736   6.493   0.797
 2416SOL     OW 8146   0.017   3.538   2.788
 2416SOL    HW1 8147   0.011   3.592   2.872
 2416SOL    HW2 8148   0.109   3.502   2.778
 2417SOL     OW 8149   4.253   2.503   0.260
 2417SOL    HW1 8150   4.221   2.533   0.349
 2417SOL    HW2 8151   4.338   2.452   0.270
 2418SOL     OW 8152   4.524   4.204   5.621
 2418SOL    HW1 8153   4.493   4.283   5.675
 2418SOL    HW2 8154   4.573   4.141   5.681
 2419SOL     OW 8155   2.120   6.564   4.480
 2419SOL    HW1 8156   2.150   6.659   4.471
 2419SOL    HW2 8157   2.024   6.562   4.510
 2420SOL     OW 8158   3.518   5.380   2.139
 2420SOL    HW1 8159   3.501   5.382   2.238
 2420SOL    HW2 8160   3.518   5.286   2.107
 2421SOL     OW 8161   3.226   0.098   4.682
 2421SOL    HW1 8162   3.126   0.092   4.686
 2421SOL    HW2 8163   3.264   0.081   4.774
 2422SOL     OW 8164   3.948   6.640   2.097
 2422SOL    HW1 8165   3.863   6.670   2.053
 2422SOL    HW2 8166   3.964   6.543   2.075
 2423SOL     OW 8167   1.774   5.859   2.166
 2423SOL    HW1 8168   1.732   5.946   2.138
 2423SOL    HW2 8169   1.796   5.806   2.084
 2424SOL     OW 8170   5.192   0.509   6.631
 2424SOL    HW1 8171   5.238   0.446   6.569
 2424SOL    HW2 8172   5.247   0.592   6.641
 2425SOL     OW 8173   4.586   5.294   5.460
 2425SOL    HW1 8174   4.662   5.358   5.455
 2425SOL    HW2 8175   4.500   5.344   5.455
 2426SOL     OW 8176   1.080   5.304   5.617
 2426SOL    HW1 8177   1.062   5.209   5.591
 2426SOL    HW2 8178   1.024   5.327   5.697
 2427SOL     OW 8179   4.840   6.889   6.359
 2427SOL    HW1 8180   4.765   6.940   6.317
 2427SOL    HW2 8181   4.828   6.791   6.342
 2428SOL     OW 8182   0.219   1.748   3.902
 2428SOL    HW1 8183   0.163   1.779   3.826
 2428SOL    HW2 8184   0.179   1.666   3.942
 2429SOL     OW 8185   5.272   5.115   2.347
 2429SOL    HW1 8186   5.194   5.072   2.302
 2429SOL    HW2 8187   5.314   5.181   2.285
 2430SOL     OW 8188   5.654   2.354   0.335
 2430SOL    HW1 8189   5.641   2.337   0.432
 2430SOL    HW2 8190   5.694   2.445   0.322
 2431SOL     OW 8191   6.495   1.907   2.038
 2431SOL    HW1 8192   6.436   1.987   2.029
 2431SOL    HW2 8193   6.446   1.835   2.088
 2432SOL     OW 8194   3.321   5.368   1.913
 2432SOL    HW1 8195   3.257   5.419   1.855
 2432SOL    HW2 8196   3.397   5.428   1.939
 2433SOL     OW 8197   6.738   5.552   0.318
 2433SOL    HW1 8198   6.759   5.624   0.252
 2433SOL    HW2 8199   6.661   5.497   0.284
 2434SOL     OW 8200   4.029   2.017   2.923
 2434SOL    HW1 8201   3.999   2.056   2.836
 2434SOL    HW2 8202   4.129   2.014   2.925
 2435SOL     OW 8203   5.468   6.895   6.508
 2435SOL    HW1 8204   5.420   6.974   6.546
 2435SOL    HW2 8205   5.409   6.848   6.443
 2436SOL     OW 8206   1.303   1.247   1.544
 2436SOL    HW1 8207   1.234   1.203   1.601
 2436SOL    HW2 8208   1.290   1.219   1.449
 2437SOL     OW 8209   6.295   6.228   2.351
 2437SOL    HW1 8210   6.284   6.327   2.362
 2437SOL    HW2 8211   6.327   6.188   2.437
 2438SOL     OW 8212   3.175   2.034   4.450
 2438SOL    HW1 8213   3.169   2.067   4.356
 2438SOL    HW2 8214   3.271   2.031   4.478
 2439SOL     OW 8215   0.196   5.055   6.416
 2439SOL    HW1 8216   0.114   5.025   6.464
 2439SOL    HW2 8217   0.266   5.083   6.482
 2440SOL     OW 8218   4.024   1.429   4.402
 2440SOL    HW1 8219   3.961   1.366   4.356
 2440SOL    HW2 8220   4.093   1.460   4.336
 2441SOL     OW 8221   5.662   0.344   6.650
 2441SOL    HW1 8222   5.749   0.324   6.605
 2441SOL    HW2 8223   5.630   0.262   6.698
 2442SOL     OW 8224   5.141   3.740   2.014
 2442SOL    HW1 8225   5.164   3.644   2.031
 2442SOL    HW2 8226   5.048   3.758   2.049
 2443SOL     OW 8227   2.269   1.080   7.017
 2443SOL    HW1 8228   2.318   1.038   6.941
 2443SOL    HW2 8229   2.318   1.062   0.078
 2444SOL     OW 8230   4.760   5.013   0.675
 2444SOL    HW1 8231   4.664   5.008   0.647
 2444SOL    HW2 8232   4.805   5.089   0.627
 2445SOL     OW 8233   0.118   1.835   1.912
 2445SOL    HW1 8234   0.028   1.791   1.920
 2445SOL    HW2 8235   0.184   1.786   1.969
 2446SOL     OW 8236   1.249   3.064   1.879
 2446SOL    HW1 8237   1.272   2.972   1.909
 2446SOL    HW2 8238   1.173   3.099   1.934
 2447SOL     OW 8239   2.167   1.104   0.457
 2447SOL    HW1 8240   2.114   1.118   0.374
 2447SOL    HW2 8241   2.219   1.186   0.478
 2448SOL     OW 8242   6.047   1.878   4.218
 2448SOL    HW1 8243   6.029   1.929   4.302
 2448SOL    HW2 8244   6.145   1.871   4.202
 2449SOL     OW 8245   1.917   4.594   2.223
 2449SOL    HW1 8246   1.907   4.572   2.126
 2449SOL    HW2 8247   1.930   4.509   2.275
 2450SOL     OW 8248   3.006   5.297   6.733
 2450SOL    HW1 8249   3.066   5.373   6.757
 2450SOL    HW2 8250   2.911   5.321   6.753
 2451SOL     OW 8251   0.941   0.141   4.113
 2451SOL    HW1 8252   0.855   0.118   4.067
 2451SOL    HW2 8253   0.932   0.230   4.157
 2452SOL     OW 8254   2.204   2.422   2.985
 2452SOL    HW1 8255   2.239   2.493   2.924
 2452SOL    HW2 8256   2.159   2.351   2.931
 2453SOL     OW 8257   6.641   2.066   0.902
 2453SOL    HW1 8258   6.739   2.087   0.902
 2453SOL    HW2 8259   6.626   1.975   0.862
 2454SOL     OW 8260   3.085   5.800   0.851
 2454SOL    HW1 8261   3.175   5.769   0.880
 2454SOL    HW2 8262   3.039   5.846   0.927
 2455SOL     OW 8263   2.915   1.539   0.087
 2455SOL    HW1 8264   3.004   1.525   0.043
 2455SOL    HW2 8265   2.856   1.593   0.026
 2456SOL     OW 8266   0.668   3.620   6.934
 2456SOL    HW1 8267   0.578   3.587   6.905
 2456SOL    HW2 8268   0.688   3.706   6.887
 2457SOL     OW 8269   5.633   1.489   5.725
 2457SOL    HW1 8270   5.548   1.516   5.678
 2457SOL    HW2 8271   5.621   1.398   5.765
 2458SOL     OW 8272   0.779   0.748   3.277
 2458SOL    HW1 8273   0.757   0.845   3.274
 2458SOL    HW2 8274   0.767   0.713   3.370
 2459SOL     OW 8275   2.798   5.453   6.068
 2459SOL    HW1 8276   2.767   5.535   6.020
 2459SOL    HW2 8277   2.865   5.404   6.012
 2460SOL     OW 8278   0.898   0.881   6.895
 2460SOL    HW1 8279   0.901   0.933   6.980
 2460SOL    HW2 8280   0.861   0.939   6.822
 2461SOL     OW 8281   4.515   0.074   4.375
 2461SOL    HW1 8282   4.507   0.017   4.457
 2461SOL    HW2 8283   4.425   0.113   4.354
 2462SOL     OW 8284   0.803   4.893   0.451
 2462SOL    HW1 8285   0.755   4.914   0.365
 2462SOL    HW2 8286   0.736   4.882   0.525
 2463SOL     OW 8287   6.677   1.631   0.518
 2463SOL    HW1 8288   6.646   1.598   0.429
 2463SOL    HW2 8289   6.776   1.641   0.518
 2464SOL     OW 8290   0.657   2.538   3.019
 2464SOL    HW1 8291   0.637   2.580   3.108
 2464SOL    HW2 8292   0.671   2.609   2.951
 2465SOL     OW 8293   6.808   5.871   6.029
 2465SOL    HW1 8294   6.760   5.839   6.111
 2465SOL    HW2 8295   6.783   5.813   5.952
 2466SOL     OW 8296   1.953   1.755   2.073
 2466SOL    HW1 8297   1.939   1.851   2.049
 2466SOL    HW2 8298   1.886   1.727   2.141
 2467SOL     OW 8299   4.184   1.873   5.970
 2467SOL    HW1 8300   4.182   1.883   5.871
 2467SOL    HW2 8301   4.096   1.838   6.002
 2468SOL     OW 8302   3.873   0.231   6.676
 2468SOL    HW1 8303   3.932   0.243   6.596
 2468SOL    HW2 8304   3.881   0.138   6.710
 2469SOL     OW 8305   4.084   2.947   5.622
 2469SOL    HW1 8306   4.058   2.859   5.661
 2469SOL    HW2 8307   4.093   3.015   5.695
 2470SOL     OW 8308   4.355   4.481   5.983
 2470SOL    HW1 8309   4.374   4.485   6.081
 2470SOL    HW2 8310   4.280   4.543   5.961
 2471SOL     OW 8311   3.370   0.059   0.710
 2471SOL    HW1 8312   3.308   0.071   0.787
 2471SOL    HW2 8313   3.324   0.004   0.639
 2472SOL     OW 8314   4.404   2.468   3.572
 2472SOL    HW1 8315   4.403   2.560   3.611
 2472SOL    HW2 8316   4.472   2.464   3.499
 2473SOL     OW 8317   1.226   4.641   5.209
 2473SOL    HW1 8318   1.173   4.686   5.281
 2473SOL    HW2 8319   1.246   4.547   5.235
 2474SOL     OW 8320   1.263   5.487   0.554
 2474SOL    HW1 8321   1.347   5.506   0.503
 2474SOL    HW2 8322   1.204   5.428   0.499
 2475SOL     OW 8323   4.699   0.511   0.855
 2475SOL    HW1 8324   4.762   0.568   0.909
 2475SOL    HW2 8325   4.606   0.523   0.888
 2476SOL     OW 8326   5.657   0.368   2.543
 2476SOL    HW1 8327   5.620   0.378   2.451
 2476SOL    HW2 8328   5.581   0.360   2.609
 2477SOL     OW 8329   3.843   0.911   3.290
 2477SOL    HW1 8330   3.756   0.959   3.299
 2477SOL    HW2 8331   3.833   0.837   3.223
 2478SOL     OW 8332   4.845   0.575   2.022
 2478SOL    HW1 8333   4.854   0.489   2.070
 2478SOL    HW2 8334   4.750   0.606   2.025
 2479SOL     OW 8335   1.263   2.491   1.268
 2479SOL    HW1 8336   1.192   2.470   1.335
 2479SOL    HW2 8337   1.274   2.591   1.263
 2480SOL     OW 8338   3.905   2.380   1.318
 2480SOL    HW1 8339   3.893   2.470   1.360
 2480SOL    HW2 8340   3.880   2.309   1.383
 2481SOL     OW 8341   2.673   0.174   1.654
 2481SOL    HW1 8342   2.749   0.201   1.714
 2481SOL    HW2 8343   2.694   0.201   1.560
 2482SOL     OW 8344   5.254   3.582   0.199
 2482SOL    HW1 8345   5.340   3.632   0.206
 2482SOL    HW2 8346   5.201   3.617   0.121
 2483SOL     OW 8347   1.434   1.582   0.276
 2483SOL    HW1 8348   1.498   1.512   0.244
 2483SOL    HW2 8349   1.364   1.598   0.206
 2484SOL     OW 8350   3.254   0.653   0.413
 2484SOL    HW1 8351   3.237   0.576   0.351
 2484SOL    HW2 8352   3.258   0.738   0.360
 2485SOL     OW 8353   5.250   3.070   0.590
 2485SOL    HW1 8354   5.201   3.157   0.586
 2485SOL    HW2 8355   5.259   3.032   0.497
 2486SOL     OW 8356   0.868   5.422   5.795
 2486SOL    HW1 8357   0.837   5.478   5.718
 2486SOL    HW2 8358   0.836   5.463   5.880
 2487SOL     OW 8359   4.062   6.088   0.154
 2487SOL    HW1 8360   4.012   6.174   0.152
 2487SOL    HW2 8361   4.033   6.031   0.077
 2488SOL     OW 8362   0.572   3.279   1.715
 2488SOL    HW1 8363   0.624   3.236   1.641
 2488SOL    HW2 8364   0.616   3.256   1.803
 2489SOL     OW 8365   0.864   6.015   3.251
 2489SOL    HW1 8366   0.895   6.033   3.345
 2489SOL    HW2 8367   0.810   5.931   3.250
 2490SOL     OW 8368   0.413   5.852   0.868
 2490SOL    HW1 8369   0.486   5.916   0.892
 2490SOL    HW2 8370   0.333   5.871   0.925
 2491SOL     OW 8371   3.674   4.651   1.273
 2491SOL    HW1 8372   3.682   4.719   1.199
 2491SOL    HW2 8373   3.632   4.568   1.236
 2492SOL     OW 8374   4.391   3.469   1.155
 2492SOL    HW1 8375   4.336   3.502   1.232
 2492SOL    HW2 8376   4.331   3.430   1.085
 2493SOL     OW 8377   6.625   0.002   1.254
 2493SOL    HW1 8378   6.612   0.023   1.351
 2493SOL    HW2 8379   6.540   6.990   1.216
 2494SOL     OW 8380   5.901   4.080   1.832
 2494SOL    HW1 8381   5.887   4.094   1.930
 2494SOL    HW2 8382   5.821   4.112   1.782
 2495SOL     OW 8383   5.524   5.475   3.562
 2495SOL    HW1 8384   5.531   5.384   3.604
 2495SOL    HW2 8385   5.513   5.544   3.634
 2496SOL     OW 8386   0.244   3.334   6.743
 2496SOL    HW1 8387   0.217   3.328   6.647
 2496SOL    HW2 8388   0.162   3.345   6.800
 2497SOL     OW 8389   0.389   0.027   0.908
 2497SOL    HW1 8390   0.468   0.065   0.956
 2497SOL    HW2 8391   0.307   0.039   0.964
 2498SOL     OW 8392   3.334   2.489   5.478
 2498SOL    HW1 8393   3.269   2.424   5.518
 2498SOL    HW2 8394   3.335   2.479   5.378
 2499SOL     OW 8395   5.936   3.062   2.082
 2499SOL    HW1 8396   5.957   2.967   2.106
 2499SOL    HW2 8397   5.923   3.069   1.983
 2500SOL     OW 8398   3.661   4.312   6.532
 2500SOL    HW1 8399   3.678   4.257   6.614
 2500SOL    HW2 8400   3.608   4.393   6.557
 2501SOL     OW 8401   5.325   5.573   6.895
 2501SOL    HW1 8402   5.296   5.549   6.987
 2501SOL    HW2 8403   5.425   5.580   6.891
 2502SOL     OW 8404   1.376   0.384   4.711
 2502SOL    HW1 8405   1.398   0.393   4.808
 2502SOL    HW2 8406   1.277   0.378   4.699
 2503SOL     OW 8407   2.834   6.436   4.766
 2503SOL    HW1 8408   2.799   6.356   4.717
 2503SOL    HW2 8409   2.789   6.518   4.732
 2504SOL     OW 8410   3.423   5.481   3.370
 2504SOL    HW1 8411   3.387   5.457   3.460
 2504SOL    HW2 8412   3.514   5.522   3.380
 2505SOL     OW 8413   0.413   6.878   2.786
 2505SOL    HW1 8414   0.350   6.955   2.775
 2505SOL    HW2 8415   0.507   6.911   2.778
 2506SOL     OW 8416   6.744   3.033   6.590
 2506SOL    HW1 8417   6.645   3.043   6.598
 2506SOL    HW2 8418   6.767   2.937   6.577
 2507SOL     OW 8419   6.529   3.184   0.215
 2507SOL    HW1 8420   6.465   3.223   0.281
 2507SOL    HW2 8421   6.575   3.105   0.256
 2508SOL     OW 8422   2.745   1.633   3.683
 2508SOL    HW1 8423   2.770   1.620   3.778
 2508SOL    HW2 8424   2.716   1.728   3.669
 2509SOL     OW 8425   0.201   4.496   1.380
 2509SOL    HW1 8426   0.287   4.505   1.329
 2509SOL    HW2 8427   0.130   4.460   1.321
 2510SOL     OW 8428   2.815   4.413   1.107
 2510SOL    HW1 8429   2.760   4.439   1.186
 2510SOL    HW2 8430   2.824   4.314   1.103
 2511SOL     OW 8431   2.735   1.846   4.027
 2511SOL    HW1 8432   2.743   1.912   3.952
 2511SOL    HW2 8433   2.755   1.892   4.113
 2512SOL     OW 8434   4.537   3.769   5.410
 2512SOL    HW1 8435   4.541   3.731   5.318
 2512SOL    HW2 8436   4.547   3.869   5.405
 2513SOL     OW 8437   1.788   5.146   4.830
 2513SOL    HW1 8438   1.718   5.119   4.896
 2513SOL    HW2 8439   1.857   5.201   4.876
 2514SOL     OW 8440   0.617   3.670   5.136
 2514SOL    HW1 8441   0.592   3.749   5.081
 2514SOL    HW2 8442   0.540   3.645   5.195
 2515SOL     OW 8443   1.767   6.206   0.519
 2515SOL    HW1 8444   1.800   6.112   0.513
 2515SOL    HW2 8445   1.828   6.265   0.466
 2516SOL     OW 8446   4.921   1.545   2.727
 2516SOL    HW1 8447   4.843   1.558   2.788
 2516SOL    HW2 8448   4.902   1.586   2.638
 2517SOL     OW 8449   1.249   0.322   6.240
 2517SOL    HW1 8450   1.313   0.399   6.238
 2517SOL    HW2 8451   1.156   0.357   6.247
 2518SOL     OW 8452   1.662   5.427   1.147
 2518SOL    HW1 8453   1.621   5.429   1.056
 2518SOL    HW2 8454   1.730   5.354   1.151
 2519SOL     OW 8455   4.155   0.305   1.698
 2519SOL    HW1 8456   4.213   0.328   1.776
 2519SOL    HW2 8457   4.076   0.367   1.696
 2520SOL     OW 8458   3.203   1.647   1.058
 2520SOL    HW1 8459   3.151   1.631   0.974
 2520SOL    HW2 8460   3.212   1.561   1.109
 2521SOL     OW 8461   2.998   0.401   5.163
 2521SOL    HW1 8462   3.021   0.323   5.104
 2521SOL    HW2 8463   3.049   0.394   5.248
 2522SOL     OW 8464   0.939   1.681   5.419
 2522SOL    HW1 8465   0.852   1.731   5.415
 2522SOL    HW2 8466   1.009   1.732   5.370
 2523SOL     OW 8467   0.965   2.774   0.877
 2523SOL    HW1 8468   0.903   2.849   0.857
 2523SOL    HW2 8469   1.059   2.802   0.857
 2524SOL     OW 8470   0.130   6.667   4.817
 2524SOL    HW1 8471   0.196   6.730   4.777
 2524SOL    HW2 8472   0.039   6.709   4.815
 2525SOL     OW 8473   0.926   2.222   5.416
 2525SOL    HW1 8474   0.834   2.221   5.376
 2525SOL    HW2 8475   0.971   2.308   5.393
 2526SOL     OW 8476   1.837   4.690   6.889
 2526SOL    HW1 8477   1.928   4.704   6.927
 2526SOL    HW2 8478   1.815   4.592   6.891
 2527SOL     OW 8479   6.056   6.370   5.963
 2527SOL    HW1 8480   6.054   6.312   6.045
 2527SOL    HW2 8481   6.145   6.363   5.920
 2528SOL     OW 8482   5.751   5.016   6.454
 2528SOL    HW1 8483   5.775   5.090   6.517
 2528SOL    HW2 8484   5.831   4.959   6.438
 2529SOL     OW 8485   6.464   6.145   6.763
 2529SOL    HW1 8486   6.405   6.072   6.728
 2529SOL    HW2 8487   6.468   6.140   6.862
 2530SOL     OW 8488   2.333   6.284   4.820
 2530SOL    HW1 8489   2.243   6.253   4.791
 2530SOL    HW2 8490   2.353   6.372   4.777
 2531SOL     OW 8491   5.642   5.747   4.655
 2531SOL    HW1 8492   5.619   5.791   4.742
 2531SOL    HW2 8493   5.563   5.696   4.621
 2532SOL     OW 8494   0.352   5.890   0.578
 2532SOL    HW1 8495   0.415   5.877   0.654
 2532SOL    HW2 8496   0.269   5.936   0.611
 2533SOL     OW 8497   3.985   0.238   3.899
 2533SOL    HW1 8498   4.075   0.258   3.937
 2533SOL    HW2 8499   3.963   0.306   3.828
 2534SOL     OW 8500   3.619   1.532   1.967
 2534SOL    HW1 8501   3.634   1.436   1.991
 2534SOL    HW2 8502   3.683   1.589   2.019
 2535SOL     OW 8503   3.752   3.506   6.036
 2535SOL    HW1 8504   3.772   3.600   6.061
 2535SOL    HW2 8505   3.678   3.504   5.968
 2536SOL     OW 8506   1.501   1.319   5.968
 2536SOL    HW1 8507   1.504   1.238   6.028
 2536SOL    HW2 8508   1.585   1.371   5.980
 2537SOL     OW 8509   3.500   0.171   6.384
 2537SOL    HW1 8510   3.493   0.221   6.470
 2537SOL    HW2 8511   3.421   0.109   6.375
 2538SOL     OW 8512   0.506   4.250   3.655
 2538SOL    HW1 8513   0.562   4.175   3.690
 2538SOL    HW2 8514   0.470   4.225   3.565
 2539SOL     OW 8515   5.528   0.873   4.606
 2539SOL    HW1 8516   5.578   0.889   4.691
 2539SOL    HW2 8517   5.551   0.783   4.569
 2540SOL     OW 8518   4.151   2.208   2.651
 2540SOL    HW1 8519   4.203   2.254   2.723
 2540SOL    HW2 8520   4.065   2.173   2.689
 2541SOL     OW 8521   3.699   0.788   4.661
 2541SOL    HW1 8522   3.698   0.807   4.759
 2541SOL    HW2 8523   3.623   0.836   4.617
 2542SOL     OW 8524   3.697   3.274   6.183
 2542SOL    HW1 8525   3.784   3.266   6.232
 2542SOL    HW2 8526   3.699   3.354   6.123
 2543SOL     OW 8527   0.403   0.708   3.643
 2543SOL    HW1 8528   0.414   0.617   3.604
 2543SOL    HW2 8529   0.429   0.777   3.575
 2544SOL     OW 8530   0.705   6.266   0.883
 2544SOL    HW1 8531   0.707   6.296   0.788
 2544SOL    HW2 8532   0.658   6.336   0.939
 2545SOL     OW 8533   1.433   6.961   1.596
 2545SOL    HW1 8534   1.491   7.017   1.538
 2545SOL    HW2 8535   1.441   6.865   1.570
 2546SOL     OW 8536   6.572   1.228   1.887
 2546SOL    HW1 8537   6.647   1.282   1.925
 2546SOL    HW2 8538   6.492   1.235   1.948
 2547SOL     OW 8539   6.872   4.041   0.314
 2547SOL    HW1 8540   6.815   4.096   0.252
 2547SOL    HW2 8541   6.919   4.101   0.379
 2548SOL     OW 8542   0.849   6.893   4.994
 2548SOL    HW1 8543   0.764   6.929   5.030
 2548SOL    HW2 8544   0.849   6.793   5.001
 2549SOL     OW 8545   0.920   0.195   0.878
 2549SOL    HW1 8546   0.965   0.285   0.871
 2549SOL    HW2 8547   0.863   0.193   0.960
 2550SOL     OW 8548   6.944   0.432   6.804
 2550SOL    HW1 8549   6.983   0.517   6.767
 2550SOL    HW2 8550   6.916   0.372   6.729
 2551SOL     OW 8551   3.323   4.655   0.580
 2551SOL    HW1 8552   3.407   4.653   0.634
 2551SOL    HW2 8553   3.347   4.661   0.482
 2552SOL     OW 8554   1.569   5.998   4.428
 2552SOL    HW1 8555   1.568   5.908   4.384
 2552SOL    HW2 8556   1.598   5.987   4.523
 2553SOL     OW 8557   4.138   3.740   5.770
 2553SOL    HW1 8558   4.218   3.737   5.710
 2553SOL    HW2 8559   4.126   3.833   5.804
 2554SOL     OW 8560   2.872   0.495   0.379
 2554SOL    HW1 8561   2.825   0.553   0.312
 2554SOL    HW2 8562   2.809   0.424   0.411
 2555SOL     OW 8563   5.920   0.464   4.937
 2555SOL    HW1 8564   5.957   0.390   4.994
 2555SOL    HW2 8565   5.858   0.425   4.868
 2556SOL     OW 8566   3.933   6.456   0.203
 2556SOL    HW1 8567   3.930   6.396   0.283
 2556SOL    HW2 8568   3.928   6.552   0.233
 2557SOL     OW 8569   2.550   4.189   0.373
 2557SOL    HW1 8570   2.460   4.203   0.415
 2557SOL    HW2 8571   2.575   4.093   0.377
 2558SOL     OW 8572   5.028   1.563   5.273
 2558SOL    HW1 8573   5.049   1.654   5.236
 2558SOL    HW2 8574   5.112   1.510   5.278
 2559SOL     OW 8575   0.605   4.034   5.276
 2559SOL    HW1 8576   0.538   4.108   5.285
 2559SOL    HW2 8577   0.593   3.970   5.352
 2560SOL     OW 8578   5.843   2.778   5.350
 2560SOL    HW1 8579   5.906   2.833   5.405
 2560SOL    HW2 8580   5.861   2.792   5.253
 2561SOL     OW 8581   3.014   5.600   5.408
 2561SOL    HW1 8582   3.025   5.524   5.344
 2561SOL    HW2 8583   2.929   5.649   5.387
 2562SOL     OW 8584   2.193   5.311   1.254
 2562SOL    HW1 8585   2.289   5.323   1.229
 2562SOL    HW2 8586   2.153   5.239   1.197
 2563SOL     OW 8587   3.060   1.657   0.783
 2563SOL    HW1 8588   3.121   1.584   0.753
 2563SOL    HW2 8589   2.965   1.630   0.768
 2564SOL     OW 8590   2.521   5.678   6.977
 2564SOL    HW1 8591   2.463   5.699   0.031
 2564SOL    HW2 8592   2.467   5.682   6.893
 2565SOL     OW 8593   1.060   6.938   6.590
 2565SOL    HW1 8594   1.030   6.858   6.643
 2565SOL    HW2 8595   1.156   6.926   6.564
 2566SOL     OW 8596   2.174   6.988   1.013
 2566SOL    HW1 8597   2.211   0.027   1.081
 2566SOL    HW2 8598   2.078   6.969   1.034
 2567SOL     OW 8599   1.267   0.461   1.011
 2567SOL    HW1 8600   1.294   0.369   1.040
 2567SOL    HW2 8601   1.331   0.495   0.943
 2568SOL     OW 8602   4.091   1.547   6.796
 2568SOL    HW1 8603   3.993   1.557   6.777
 2568SOL    HW2 8604   4.104   1.479   6.869
 2569SOL     OW 8605   3.247   0.599   2.193
 2569SOL    HW1 8606   3.151   0.578   2.174
 2569SOL    HW2 8607   3.272   0.560   2.282
 2570SOL     OW 8608   5.583   6.985   6.111
 2570SOL    HW1 8609   5.610   6.948   6.200
 2570SOL    HW2 8610   5.615   0.055   6.103
 2571SOL     OW 8611   2.195   4.751   4.860
 2571SOL    HW1 8612   2.228   4.657   4.850
 2571SOL    HW2 8613   2.099   4.751   4.887
 2572SOL     OW 8614   2.944   6.111   1.362
 2572SOL    HW1 8615   2.947   6.013   1.383
 2572SOL    HW2 8616   2.890   6.125   1.279
 2573SOL     OW 8617   0.314   1.596   1.815
 2573SOL    HW1 8618   0.391   1.556   1.765
 2573SOL    HW2 8619   0.325   1.696   1.818
 2574SOL     OW 8620   5.741   4.083   0.629
 2574SOL    HW1 8621   5.648   4.052   0.646
 2574SOL    HW2 8622   5.769   4.055   0.537
 2575SOL     OW 8623   4.881   5.908   0.676
 2575SOL    HW1 8624   4.886   5.811   0.700
 2575SOL    HW2 8625   4.942   5.927   0.599
 2576SOL     OW 8626   4.205   6.672   4.761
 2576SOL    HW1 8627   4.179   6.704   4.670
 2576SOL    HW2 8628   4.301   6.644   4.760
 2577SOL     OW 8629   3.953   6.780   2.363
 2577SOL    HW1 8630   3.873   6.762   2.421
 2577SOL    HW2 8631   3.940   6.738   2.274
 2578SOL     OW 8632   4.600   1.956   4.264
 2578SOL    HW1 8633   4.650   2.002   4.191
 2578SOL    HW2 8634   4.516   2.006   4.284
 2579SOL     OW 8635   1.444   6.744   3.758
 2579SOL    HW1 8636   1.451   6.756   3.857
 2579SOL    HW2 8637   1.463   6.831   3.713
 2580SOL     OW 8638   2.855   4.501   6.240
 2580SOL    HW1 8639   2.893   4.448   6.165
 2580SOL    HW2 8640   2.783   4.447   6.285
 2581SOL     OW 8641   2.186   5.063   2.378
 2581SOL    HW1 8642   2.188   5.093   2.283
 2581SOL    HW2 8643   2.122   4.987   2.388
 2582SOL     OW 8644   0.267   4.139   1.142
 2582SOL    HW1 8645   0.302   4.148   1.049
 2582SOL    HW2 8646   0.342   4.116   1.204
 2583SOL     OW 8647   1.079   1.621   6.876
 2583SOL    HW1 8648   0.986   1.604   6.911
 2583SOL    HW2 8649   1.090   1.718   6.859
 2584SOL     OW 8650   5.104   5.451   6.124
 2584SOL    HW1 8651   5.204   5.447   6.124
 2584SOL    HW2 8652   5.074   5.536   6.081
 2585SOL     OW 8653   3.528   3.457   1.005
 2585SOL    HW1 8654   3.483   3.433   1.091
 2585SOL    HW2 8655   3.622   3.485   1.023
 2586SOL     OW 8656   2.919   0.669   5.144
 2586SOL    HW1 8657   2.948   0.726   5.066
 2586SOL    HW2 8658   2.948   0.575   5.129
 2587SOL     OW 8659   6.019   1.272   3.640
 2587SOL    HW1 8660   6.079   1.254   3.717
 2587SOL    HW2 8661   6.073   1.277   3.556
 2588SOL     OW 8662   4.461   1.920   5.913
 2588SOL    HW1 8663   4.398   1.844   5.900
 2588SOL    HW2 8664   4.547   1.901   5.866
 2589SOL     OW 8665   1.557   6.413   5.852
 2589SOL    HW1 8666   1.470   6.438   5.893
 2589SOL    HW2 8667   1.609   6.356   5.915
 2590SOL     OW 8668   3.963   4.722   0.471
 2590SOL    HW1 8669   4.040   4.663   0.447
 2590SOL    HW2 8670   3.945   4.787   0.398
 2591SOL     OW 8671   6.933   4.480   3.629
 2591SOL    HW1 8672   6.982   4.557   3.588
 2591SOL    HW2 8673   6.988   4.441   3.703
 2592SOL     OW 8674   3.363   4.727   6.739
 2592SOL    HW1 8675   3.294   4.785   6.695
 2592SOL    HW2 8676   3.319   4.671   6.808
 2593SOL     OW 8677   3.787   5.934   0.254
 2593SOL    HW1 8678   3.774   6.033   0.250
 2593SOL    HW2 8679   3.801   5.898   0.162
 2594SOL     OW 8680   2.326   3.618   6.054
 2594SOL    HW1 8681   2.278   3.611   5.967
 2594SOL    HW2 8682   2.420   3.648   6.038
 2595SOL     OW 8683   6.983   0.707   4.000
 2595SOL    HW1 8684   6.915   0.722   3.928
 2595SOL    HW2 8685   0.044   0.751   3.974
 2596SOL     OW 8686   2.960   2.150   1.805
 2596SOL    HW1 8687   2.995   2.234   1.847
 2596SOL    HW2 8688   2.888   2.111   1.863
 2597SOL     OW 8689   0.320   5.245   6.263
 2597SOL    HW1 8690   0.275   5.160   6.290
 2597SOL    HW2 8691   0.253   5.305   6.218
 2598SOL     OW 8692   6.588   1.563   2.534
 2598SOL    HW1 8693   6.505   1.616   2.554
 2598SOL    HW2 8694   6.562   1.468   2.518
 2599SOL     OW 8695   1.500   5.709   0.715
 2599SOL    HW1 8696   1.593   5.702   0.752
 2599SOL    HW2 8697   1.498   5.670   0.623
 2600SOL     OW 8698   5.614   2.672   4.817
 2600SOL    HW1 8699   5.603   2.594   4.755
 2600SOL    HW2 8700   5.688   2.731   4.784
 2601SOL     OW 8701   1.556   1.598   1.049
 2601SOL    HW1 8702   1.490   1.549   1.106
 2601SOL    HW2 8703   1.626   1.638   1.108
 2602SOL     OW 8704   1.477   4.869   5.013
 2602SOL    HW1 8705   1.479   4.770   5.005
 2602SOL    HW2 8706   1.386   4.902   4.986
 2603SOL     OW 8707   3.130   1.085   2.909
 2603SOL    HW1 8708   3.051   1.025   2.900
 2603SOL    HW2 8709   3.154   1.095   3.005
 2604SOL     OW 8710   4.592   2.020   2.649
 2604SOL    HW1 8711   4.510   2.059   2.688
 2604SOL    HW2 8712   4.616   2.068   2.564
 2605SOL     OW 8713   1.469   3.314   2.343
 2605SOL    HW1 8714   1.531   3.391   2.352
 2605SOL    HW2 8715   1.407   3.329   2.266
 2606SOL     OW 8716   6.120   5.195   1.977
 2606SOL    HW1 8717   6.186   5.145   1.920
 2606SOL    HW2 8718   6.043   5.136   1.998
 2607SOL     OW 8719   0.706   1.365   1.066
 2607SOL    HW1 8720   0.762   1.366   1.149
 2607SOL    HW2 8721   0.743   1.431   1.000
 2608SOL     OW 8722   3.970   5.440   0.541
 2608SOL    HW1 8723   4.034   5.367   0.518
 2608SOL    HW2 8724   3.946   5.490   0.458
 2609SOL     OW 8725   6.027   1.341   2.160
 2609SOL    HW1 8726   5.994   1.247   2.167
 2609SOL    HW2 8727   5.950   1.402   2.141
 2610SOL     OW 8728   0.667   4.637   4.210
 2610SOL    HW1 8729   0.608   4.699   4.158
 2610SOL    HW2 8730   0.762   4.651   4.183
 2611SOL     OW 8731   4.750   6.347   0.028
 2611SOL    HW1 8732   4.684   6.322   6.982
 2611SOL    HW2 8733   4.839   6.368   7.011
 2612SOL     OW 8734   5.833   6.632   4.538
 2612SOL    HW1 8735   5.798   6.676   4.456
 2612SOL    HW2 8736   5.766   6.566   4.572
 2613SOL     OW 8737   2.266   5.229   6.686
 2613SOL    HW1 8738   2.340   5.186   6.738
 2613SOL    HW2 8739   2.256   5.183   6.598
 2614SOL     OW 8740   6.213   1.349   0.032
 2614SOL    HW1 8741   6.188   1.375   6.963
 2614SOL    HW2 8742   6.157   1.399   0.097
 2615SOL     OW 8743   1.010   3.482   0.839
 2615SOL    HW1 8744   1.027   3.451   0.932
 2615SOL    HW2 8745   1.086   3.540   0.809
 2616SOL     OW 8746   1.523   1.913   5.911
 2616SOL    HW1 8747   1.557   1.819   5.911
 2616SOL    HW2 8748   1.578   1.969   5.972
 2617SOL     OW 8749   4.793   0.861   0.558
 2617SOL    HW1 8750   4.826   0.768   0.575
 2617SOL    HW2 8751   4.782   0.909   0.645
 2618SOL     OW 8752   0.794   6.409   4.012
 2618SOL    HW1 8753   0.722   6.346   4.041
 2618SOL    HW2 8754   0.883   6.371   4.037
 2619SOL     OW 8755   4.593   1.640   1.800
 2619SOL    HW1 8756   4.528   1.583   1.851
 2619SOL    HW2 8757   4.646   1.583   1.738
 2620SOL     OW 8758   6.348   0.239   2.595
 2620SOL    HW1 8759   6.328   0.322   2.543
 2620SOL    HW2 8760   6.270   0.216   2.653
 2621SOL     OW 8761   1.029   4.658   2.334
 2621SOL    HW1 8762   0.968   4.668   2.413
 2621SOL    HW2 8763   1.090   4.737   2.329
 2622SOL     OW 8764   3.100   3.361   5.959
 2622SOL    HW1 8765   3.164   3.305   6.013
 2622SOL    HW2 8766   3.006   3.334   5.979
 2623SOL     OW 8767   0.600   0.912   4.947
 2623SOL    HW1 8768   0.626   0.882   5.039
 2623SOL    HW2 8769   0.679   0.952   4.901
 2624SOL     OW 8770   6.623   2.412   4.892
 2624SOL    HW1 8771   6.568   2.341   4.936
 2624SOL    HW2 8772   6.666   2.375   4.809
 2625SOL     OW 8773   2.330   4.139   5.581
 2625SOL    HW1 8774   2.333   4.239   5.573
 2625SOL    HW2 8775   2.324   4.114   5.677
 2626SOL     OW 8776   6.526   0.205   6.210
 2626SOL    HW1 8777   6.496   0.113   6.236
 2626SOL    HW2 8778   6.477   0.234   6.127
 2627SOL     OW 8779   0.799   0.724   6.082
 2627SOL    HW1 8780   0.719   0.782   6.099
 2627SOL    HW2 8781   0.859   0.770   6.016
 2628SOL     OW 8782   2.040   3.657   4.924
 2628SOL    HW1 8783   1.945   3.639   4.898
 2628SOL    HW2 8784   2.080   3.574   4.963
 2629SOL     OW 8785   4.129   3.429   2.730
 2629SOL    HW1 8786   4.104   3.399   2.822
 2629SOL    HW2 8787   4.049   3.473   2.687
 2630SOL     OW 8788   3.585   1.694   3.832
 2630SOL    HW1 8789   3.528   1.738   3.901
 2630SOL    HW2 8790   3.624   1.763   3.772
 2631SOL     OW 8791   5.549   0.816   6.519
 2631SOL    HW1 8792   5.560   0.811   6.420
 2631SOL    HW2 8793   5.625   0.769   6.563
 2632SOL     OW 8794   6.211   3.471   1.107
 2632SOL    HW1 8795   6.143   3.417   1.057
 2632SOL    HW2 8796   6.174   3.497   1.196
 2633SOL     OW 8797   6.779   2.073   5.264
 2633SOL    HW1 8798   6.743   2.163   5.242
 2633SOL    HW2 8799   6.800   2.067   5.362
 2634SOL     OW 8800   0.593   5.751   3.564
 2634SOL    HW1 8801   0.503   5.719   3.534
 2634SOL    HW2 8802   0.582   5.833   3.620
 2635SOL     OW 8803   6.374   5.721   3.972
 2635SOL    HW1 8804   6.378   5.725   4.071
 2635SOL    HW2 8805   6.449   5.774   3.933
 2636SOL     OW 8806   3.909   0.545   0.052
 2636SOL    HW1 8807   3.882   0.490   0.131
 2636SOL    HW2 8808   3.939   0.484   7.003
 2637SOL     OW 8809   6.382   1.647   3.964
 2637SOL    HW1 8810   6.339   1.579   3.905
 2637SOL    HW2 8811   6.315   1.717   3.989
 2638SOL     OW 8812   0.313   0.076   4.524
 2638SOL    HW1 8813   0.330   0.125   4.610
 2638SOL    HW2 8814   0.377   0.109   4.454
 2639SOL     OW 8815   5.053   5.245   5.603
 2639SOL    HW1 8816   4.976   5.296   5.642
 2639SOL    HW2 8817   5.059   5.156   5.648
 2640SOL     OW 8818   0.012   0.102   5.259
 2640SOL    HW1 8819   0.038   0.197   5.273
 2640SOL    HW2 8820   6.942   0.088   5.290
 2641SOL     OW 8821   4.637   2.165   1.002
 2641SOL    HW1 8822   4.653   2.263   1.012
 2641SOL    HW2 8823   4.586   2.132   1.082
 2642SOL     OW 8824   5.774   0.815   3.702
 2642SOL    HW1 8825   5.807   0.804   3.608
 2642SOL    HW2 8826   5.843   0.864   3.756
 2643SOL     OW 8827   1.707   3.154   3.902
 2643SOL    HW1 8828   1.691   3.180   3.997
 2643SOL    HW2 8829   1.772   3.218   3.860
 2644SOL     OW 8830   4.960   5.573   5.016
 2644SOL    HW1 8831   4.982   5.491   4.964
 2644SOL    HW2 8832   4.891   5.552   5.085
 2645SOL     OW 8833   5.435   4.632   3.695
 2645SOL    HW1 8834   5.484   4.603   3.777
 2645SOL    HW2 8835   5.456   4.569   3.620
 2646SOL     OW 8836   0.464   3.527   6.767
 2646SOL    HW1 8837   0.393   3.461   6.741
 2646SOL    HW2 8838   0.450   3.612   6.716
 2647SOL     OW 8839   5.964   6.747   1.816
 2647SOL    HW1 8840   5.992   6.800   1.736
 2647SOL    HW2 8841   5.889   6.685   1.791
 2648SOL     OW 8842   0.233   6.701   4.139
 2648SOL    HW1 8843   0.275   6.786   4.107
 2648SOL    HW2 8844   0.188   6.655   4.062
 2649SOL     OW 8845   5.499   3.194   1.822
 2649SOL    HW1 8846   5.533   3.241   1.904
 2649SOL    HW2 8847   5.420   3.138   1.847
 2650SOL     OW 8848   2.354   5.810   4.801
 2650SOL    HW1 8849   2.351   5.856   4.889
 2650SOL    HW2 8850   2.382   5.715   4.813
 2651SOL     OW 8851   3.534   1.096   0.059
 2651SOL    HW1 8852   3.442   1.132   0.047
 2651SOL    HW2 8853   3.533   1.022   0.126
 2652SOL     OW 8854   4.699   3.627   5.546
 2652SOL    HW1 8855   4.655   3.584   5.626
 2652SOL    HW2 8856   4.631   3.678   5.494
 2653SOL     OW 8857   3.898   5.951   5.562
 2653SOL    HW1 8858   3.834   5.925   5.634
 2653SOL    HW2 8859   3.914   5.873   5.501
 2654SOL     OW 8860   5.221   6.732   0.828
 2654SOL    HW1 8861   5.268   6.651   0.792
 2654SOL    HW2 8862   5.287   6.791   0.875
 2655SOL     OW 8863   4.581   5.769   3.512
 2655SOL    HW1 8864   4.610   5.674   3.526
 2655SOL    HW2 8865   4.657   5.831   3.530
 2656SOL     OW 8866   3.246   5.288   3.785
 2656SOL    HW1 8867   3.257   5.243   3.873
 2656SOL    HW2 8868   3.207   5.379   3.798
 2657SOL     OW 8869   2.003   3.147   0.753
 2657SOL    HW1 8870   2.097   3.176   0.737
 2657SOL    HW2 8871   2.002   3.073   0.820
 2658SOL     OW 8872   4.598   4.690   0.519
 2658SOL    HW1 8873   4.561   4.675   0.427
 2658SOL    HW2 8874   4.523   4.682   0.586
 2659SOL     OW 8875   4.806   3.092   4.970
 2659SOL    HW1 8876   4.796   3.167   4.905
 2659SOL    HW2 8877   4.799   3.005   4.922
 2660SOL     OW 8878   0.354   1.019   1.280
 2660SOL    HW1 8879   0.407   1.087   1.230
 2660SOL    HW2 8880   0.415   0.946   1.312
 2661SOL     OW 8881   1.764   0.576   1.821
 2661SOL    HW1 8882   1.828   0.651   1.837
 2661SOL    HW2 8883   1.811   0.501   1.775
 2662SOL     OW 8884   2.440   0.447   3.442
 2662SOL    HW1 8885   2.417   0.541   3.419
 2662SOL    HW2 8886   2.423   0.389   3.362
 2663SOL     OW 8887   4.235   5.884   5.719
 2663SOL    HW1 8888   4.158   5.840   5.763
 2663SOL    HW2 8889   4.215   5.981   5.705
 2664SOL     OW 8890   3.711   3.091   5.710
 2664SOL    HW1 8891   3.722   3.136   5.621
 2664SOL    HW2 8892   3.742   2.996   5.703
 2665SOL     OW 8893   2.485   3.337   5.496
 2665SOL    HW1 8894   2.464   3.271   5.424
 2665SOL    HW2 8895   2.584   3.347   5.504
 2666SOL     OW 8896   1.520   3.464   1.989
 2666SOL    HW1 8897   1.473   3.451   1.901
 2666SOL    HW2 8898   1.583   3.542   1.982
 2667SOL     OW 8899   0.725   5.418   3.765
 2667SOL    HW1 8900   0.773   5.448   3.848
 2667SOL    HW2 8901   0.753   5.476   3.688
 2668SOL     OW 8902   5.625   2.831   4.116
 2668SOL    HW1 8903   5.628   2.865   4.210
 2668SOL    HW2 8904   5.710   2.782   4.097
 2669SOL     OW 8905   3.229   5.888   6.550
 2669SOL    HW1 8906   3.283   5.858   6.628
 2669SOL    HW2 8907   3.149   5.938   6.581
 2670SOL     OW 8908   6.213   1.952   5.391
 2670SOL    HW1 8909   6.146   1.878   5.390
 2670SOL    HW2 8910   6.298   1.919   5.432
 2671SOL     OW 8911   4.508   6.169   6.007
 2671SOL    HW1 8912   4.411   6.150   5.995
 2671SOL    HW2 8913   4.559   6.082   6.010
 2672SOL     OW 8914   3.143   0.502   1.897
 2672SOL    HW1 8915   3.091   0.469   1.975
 2672SOL    HW2 8916   3.231   0.453   1.893
 2673SOL     OW 8917   5.427   1.139   2.341
 2673SOL    HW1 8918   5.390   1.168   2.253
 2673SOL    HW2 8919   5.359   1.157   2.413
 2674SOL     OW 8920   1.636   4.780   3.806
 2674SOL    HW1 8921   1.728   4.757   3.775
 2674SOL    HW2 8922   1.629   4.879   3.820
 2675SOL     OW 8923   0.264   7.000   3.561
 2675SOL    HW1 8924   0.178   6.991   3.510
 2675SOL    HW2 8925   0.245   0.008   3.653
 2676SOL     OW 8926   3.278   3.807   2.505
 2676SOL    HW1 8927   3.233   3.744   2.441
 2676SOL    HW2 8928   3.375   3.784   2.511
 2677SOL     OW 8929   3.039   4.567   1.092
 2677SOL    HW1 8930   2.958   4.514   1.068
 2677SOL    HW2 8931   3.044   4.648   1.034
 2678SOL     OW 8932   0.030   2.989   2.083
 2678SOL    HW1 8933   0.061   3.064   2.025
 2678SOL    HW2 8934   6.957   3.000   2.102
 2679SOL     OW 8935   1.768   5.226   2.692
 2679SOL    HW1 8936   1.734   5.222   2.786
 2679SOL    HW2 8937   1.830   5.303   2.682
 2680SOL     OW 8938   1.144   2.507   0.074
 2680SOL    HW1 8939   1.242   2.513   0.094
 2680SOL    HW2 8940   1.132   2.479   7.004
 2681SOL     OW 8941   1.605   2.933   5.515
 2681SOL    HW1 8942   1.658   2.899   5.437
 2681SOL    HW2 8943   1.576   3.027   5.497
 2682SOL     OW 8944   5.252   4.304   2.829
 2682SOL    HW1 8945   5.209   4.216   2.810
 2682SOL    HW2 8946   5.218   4.372   2.764
 2683SOL     OW 8947   2.073   4.358   2.521
 2683SOL    HW1 8948   2.154   4.346   2.580
 2683SOL    HW2 8949   2.011   4.423   2.563
 2684SOL     OW 8950   5.269   6.581   1.535
 2684SOL    HW1 8951   5.317   6.665   1.511
 2684SOL    HW2 8952   5.254   6.579   1.634
 2685SOL     OW 8953   6.806   5.044   4.619
 2685SOL    HW1 8954   6.896   5.051   4.662
 2685SOL    HW2 8955   6.817   5.005   4.527
 2686SOL     OW 8956   0.909   1.183   5.323
 2686SOL    HW1 8957   0.897   1.280   5.299
 2686SOL    HW2 8958   0.924   1.175   5.421
 2687SOL     OW 8959   3.828   6.451   1.490
 2687SOL    HW1 8960   3.919   6.482   1.464
 2687SOL    HW2 8961   3.797   6.380   1.427
 2688SOL     OW 8962   3.123   2.050   0.924
 2688SOL    HW1 8963   3.171   2.106   0.857
 2688SOL    HW2 8964   3.189   2.004   0.983
 2689SOL     OW 8965   0.493   3.814   2.432
 2689SOL    HW1 8966   0.580   3.839   2.473
 2689SOL    HW2 8967   0.471   3.719   2.454
 2690SOL     OW 8968   2.900   3.219   0.042
 2690SOL    HW1 8969   2.923   3.278   0.119
 2690SOL    HW2 8970   2.818   3.167   0.063
 2691SOL     OW 8971   0.405   4.753   4.067
 2691SOL    HW1 8972   0.320   4.709   4.036
 2691SOL    HW2 8973   0.408   4.847   4.032
 2692SOL     OW 8974   2.160   6.044   3.344
 2692SOL    HW1 8975   2.222   5.993   3.404
 2692SOL    HW2 8976   2.069   6.047   3.386
 2693SOL     OW 8977   1.728   4.987   4.103
 2693SOL    HW1 8978   1.808   5.011   4.048
 2693SOL    HW2 8979   1.729   4.889   4.123
 2694SOL     OW 8980   3.835   6.488   3.134
 2694SOL    HW1 8981   3.934   6.500   3.127
 2694SOL    HW2 8982   3.790   6.527   3.053
 2695SOL     OW 8983   5.875   0.449   3.082
 2695SOL    HW1 8984   5.813   0.462   3.159
 2695SOL    HW2 8985   5.920   0.535   3.060
 2696SOL     OW 8986   4.711   4.045   6.511
 2696SOL    HW1 8987   4.652   4.096   6.449
 2696SOL    HW2 8988   4.753   4.107   6.577
 2697SOL     OW 8989   4.596   1.080   2.013
 2697SOL    HW1 8990   4.558   1.031   2.091
 2697SOL    HW2 8991   4.694   1.062   2.007
 2698SOL     OW 8992   2.041   4.955   6.692
 2698SOL    HW1 8993   2.069   4.974   6.786
 2698SOL    HW2 8994   1.946   4.984   6.680
 2699SOL     OW 8995   2.975   5.837   1.432
 2699SOL    HW1 8996   3.008   5.813   1.340
 2699SOL    HW2 8997   2.912   5.766   1.464
 2700SOL     OW 8998   2.612   1.855   0.844
 2700SOL    HW1 8999   2.642   1.877   0.752
 2700SOL    HW2 9000   2.538   1.787   0.840
 2701SOL     OW 9001   5.306   2.655   5.711
 2701SOL    HW1 9002   5.367   2.600   5.654
 2701SOL    HW2 9003   5.215   2.658   5.669
 2702SOL     OW 9004   1.145   2.139   3.816
 2702SOL    HW1 9005   1.173   2.065   3.877
 2702SOL    HW2 9006   1.201   2.220   3.835
 2703SOL     OW 9007   1.539   5.681   1.282
 2703SOL    HW1 9008   1.605   5.755   1.296
 2703SOL    HW2 9009   1.585   5.604   1.237
 2704SOL     OW 9010   6.847   5.688   2.611
 2704SOL    HW1 9011   6.895   5.627   2.548
 2704SOL    HW2 9012   6.871   5.783   2.592
 2705SOL     OW 9013   6.495   1.201   5.688
 2705SOL    HW1 9014   6.463   1.121   5.637
 2705SOL    HW2 9015   6.487   1.182   5.786
 2706SOL     OW 9016   6.193   4.451   4.662
 2706SOL    HW1 9017   6.106   4.491   4.688
 2706SOL    HW2 9018   6.179   4.356   4.633
 2707SOL     OW 9019   3.933   6.217   3.826
 2707SOL    HW1 9020   3.987   6.136   3.804
 2707SOL    HW2 9021   3.844   6.189   3.863
 2708SOL     OW 9022   6.583   2.637   0.426
 2708SOL    HW1 9023   6.612   2.585   0.506
 2708SOL    HW2 9024   6.661   2.647   0.363
 2709SOL     OW 9025   4.688   6.856   5.950
 2709SOL    HW1 9026   4.692   6.913   5.867
 2709SOL    HW2 9027   4.598   6.866   5.993
 2710SOL     OW 9028   1.869   2.757   3.553
 2710SOL    HW1 9029   1.859   2.849   3.592
 2710SOL    HW2 9030   1.862   2.762   3.453
 2711SOL     OW 9031   3.051   1.678   3.657
 2711SOL    HW1 9032   2.982   1.708   3.590
 2711SOL    HW2 9033   3.056   1.578   3.656
 2712SOL     OW 9034   3.136   5.503   1.756
 2712SOL    HW1 9035   3.201   5.570   1.720
 2712SOL    HW2 9036   3.075   5.474   1.682
 2713SOL     OW 9037   4.147   4.330   6.339
 2713SOL    HW1 9038   4.081   4.329   6.264
 2713SOL    HW2 9039   4.138   4.247   6.394
 2714SOL     OW 9040   4.216   3.814   6.808
 2714SOL    HW1 9041   4.273   3.772   6.737
 2714SOL    HW2 9042   4.259   3.802   6.897
 2715SOL     OW 9043   5.042   1.969   1.050
 2715SOL    HW1 9044   4.982   2.036   1.093
 2715SOL    HW2 9045   5.033   1.976   0.950
 2716SOL     OW 9046   4.696   2.593   3.221
 2716SOL    HW1 9047   4.647   2.613   3.305
 2716SOL    HW2 9048   4.794   2.594   3.239
 2717SOL     OW 9049   0.478   7.009   2.431
 2717SOL    HW1 9050   0.514   0.012   2.520
 2717SOL    HW2 9051   0.448   6.914   2.435
 2718SOL     OW 9052   6.880   0.919   5.303
 2718SOL    HW1 9053   6.972   0.941   5.335
 2718SOL    HW2 9054   6.829   0.875   5.376
 2719SOL     OW 9055   1.473   4.323   2.138
 2719SOL    HW1 9056   1.408   4.249   2.151
 2719SOL    HW2 9057   1.501   4.359   2.227
 2720SOL     OW 9058   1.250   7.006   4.499
 2720SOL    HW1 9059   1.312   0.049   4.538
 2720SOL    HW2 9060   1.303   6.934   4.454
 2721SOL     OW 9061   3.351   6.490   2.216
 2721SOL    HW1 9062   3.439   6.502   2.169
 2721SOL    HW2 9063   3.311   6.402   2.191
 2722SOL     OW 9064   5.074   5.531   6.472
 2722SOL    HW1 9065   4.989   5.501   6.430
 2722SOL    HW2 9066   5.072   5.510   6.570
 2723SOL     OW 9067   2.895   6.497   6.900
 2723SOL    HW1 9068   2.982   6.532   6.936
 2723SOL    HW2 9069   2.907   6.402   6.871
 2724SOL     OW 9070   1.470   5.624   6.678
 2724SOL    HW1 9071   1.500   5.720   6.670
 2724SOL    HW2 9072   1.541   5.571   6.723
 2725SOL     OW 9073   5.485   3.973   4.600
 2725SOL    HW1 9074   5.550   3.964   4.525
 2725SOL    HW2 9075   5.506   3.906   4.671
 2726SOL     OW 9076   0.835   2.260   1.798
 2726SOL    HW1 9077   0.792   2.178   1.838
 2726SOL    HW2 9078   0.801   2.273   1.705
 2727SOL     OW 9079   1.990   3.958   4.052
 2727SOL    HW1 9080   2.020   4.054   4.048
 2727SOL    HW2 9081   1.933   3.938   3.973
 2728SOL     OW 9082   5.018   5.786   6.659
 2728SOL    HW1 9083   5.084   5.821   6.726
 2728SOL    HW2 9084   5.067   5.748   6.581
 2729SOL     OW 9085   6.529   6.407   6.983
 2729SOL    HW1 9086   6.468   6.448   6.916
 2729SOL    HW2 9087   6.507   6.309   6.991
 2730SOL     OW 9088   0.728   5.615   1.017
 2730SOL    HW1 9089   0.719   5.704   1.061
 2730SOL    HW2 9090   0.793   5.621   0.941
 2731SOL     OW 9091   2.902   3.460   3.282
 2731SOL    HW1 9092   2.891   3.435   3.185
 2731SOL    HW2 9093   2.888   3.558   3.293
 2732SOL     OW 9094   5.280   2.255   1.573
 2732SOL    HW1 9095   5.270   2.325   1.503
 2732SOL    HW2 9096   5.196   2.251   1.627
 2733SOL     OW 9097   6.721   1.067   5.142
 2733SOL    HW1 9098   6.627   1.034   5.131
 2733SOL    HW2 9099   6.770   1.009   5.207
 2734SOL     OW 9100   3.374   6.241   1.543
 2734SOL    HW1 9101   3.426   6.160   1.514
 2734SOL    HW2 9102   3.435   6.305   1.590
 2735SOL     OW 9103   1.726   2.576   0.493
 2735SOL    HW1 9104   1.645   2.557   0.549
 2735SOL    HW2 9105   1.719   2.667   0.453
 2736SOL     OW 9106   5.580   6.289   4.261
 2736SOL    HW1 9107   5.620   6.234   4.334
 2736SOL    HW2 9108   5.510   6.235   4.213
 2737SOL     OW 9109   3.089   2.713   5.786
 2737SOL    HW1 9110   3.000   2.732   5.829
 2737SOL    HW2 9111   3.135   2.640   5.835
 2738SOL     OW 9112   6.492   6.917   2.180
 2738SOL    HW1 9113   6.417   6.930   2.115
 2738SOL    HW2 9114   6.498   6.998   2.239
 2739SOL     OW 9115   0.884   5.227   1.084
 2739SOL    HW1 9116   0.858   5.133   1.059
 2739SOL    HW2 9117   0.942   5.266   1.012
 2740SOL     OW 9118   0.479   5.183   2.245
 2740SOL    HW1 9119   0.429   5.227   2.171
 2740SOL    HW2 9120   0.559   5.239   2.268
 2741SOL     OW 9121   0.334   1.804   4.928
 2741SOL    HW1 9122   0.303   1.720   4.972
 2741SOL    HW2 9123   0.396   1.781   4.853
 2742SOL     OW 9124   2.566   5.383   1.861
 2742SOL    HW1 9125   2.642   5.321   1.840
 2742SOL    HW2 9126   2.482   5.330   1.870
 2743SOL     OW 9127   6.872   4.711   2.431
 2743SOL    HW1 9128   6.791   4.735   2.485
 2743SOL    HW2 9129   6.953   4.716   2.489
 2744SOL     OW 9130   3.558   3.343   2.093
 2744SOL    HW1 9131   3.582   3.254   2.131
 2744SOL    HW2 9132   3.460   3.358   2.103
 2745SOL     OW 9133   6.443   1.227   5.068
 2745SOL    HW1 9134   6.486   1.312   5.096
 2745SOL    HW2 9135   6.429   1.227   4.969
 2746SOL     OW 9136   0.743   1.452   4.439
 2746SOL    HW1 9137   0.697   1.505   4.510
 2746SOL    HW2 9138   0.823   1.502   4.406
 2747SOL     OW 9139   4.744   5.437   6.875
 2747SOL    HW1 9140   4.646   5.428   6.857
 2747SOL    HW2 9141   4.783   5.346   6.894
 2748SOL     OW 9142   4.590   0.641   1.447
 2748SOL    HW1 9143   4.628   0.691   1.370
 2748SOL    HW2 9144   4.624   0.680   1.532
 2749SOL     OW 9145   1.011   4.570   0.468
 2749SOL    HW1 9146   1.025   4.510   0.547
 2749SOL    HW2 9147   1.075   4.646   0.473
 2750SOL     OW 9148   2.545   4.861   1.727
 2750SOL    HW1 9149   2.603   4.823   1.798
 2750SOL    HW2 9150   2.480   4.792   1.696
 2751SOL     OW 9151   1.652   2.141   1.004
 2751SOL    HW1 9152   1.595   2.217   1.036
 2751SOL    HW2 9153   1.690   2.093   1.083
 2752SOL     OW 9154   4.071   4.773   6.512
 2752SOL    HW1 9155   4.019   4.798   6.594
 2752SOL    HW2 9156   4.131   4.695   6.533
 2753SOL     OW 9157   6.459   6.053   5.174
 2753SOL    HW1 9158   6.405   6.067   5.091
 2753SOL    HW2 9159   6.556   6.062   5.153
 2754SOL     OW 9160   0.558   0.044   0.092
 2754SOL    HW1 9161   0.594   0.017   0.003
 2754SOL    HW2 9162   0.520   6.988   0.138
 2755SOL     OW 9163   3.449   0.011   3.032
 2755SOL    HW1 9164   3.446   6.947   2.986
 2755SOL    HW2 9165   3.512   0.005   3.110
 2756SOL     OW 9166   4.512   6.387   0.207
 2756SOL    HW1 9167   4.530   6.320   0.135
 2756SOL    HW2 9168   4.429   6.438   0.186
 2757SOL     OW 9169   2.020   5.652   0.484
 2757SOL    HW1 9170   1.944   5.643   0.420
 2757SOL    HW2 9171   2.085   5.577   0.469
 2758SOL     OW 9172   5.086   0.092   4.583
 2758SOL    HW1 9173   5.132   0.181   4.582
 2758SOL    HW2 9174   5.031   0.083   4.500
 2759SOL     OW 9175   4.933   6.447   4.335
 2759SOL    HW1 9176   4.855   6.475   4.391
 2759SOL    HW2 9177   4.921   6.352   4.306
 2760SOL     OW 9178   1.119   5.587   1.421
 2760SOL    HW1 9179   1.033   5.612   1.377
 2760SOL    HW2 9180   1.104   5.508   1.481
 2761SOL     OW 9181   1.722   4.705   4.206
 2761SOL    HW1 9182   1.629   4.737   4.227
 2761SOL    HW2 9183   1.720   4.608   4.182
 2762SOL     OW 9184   0.989   0.902   5.123
 2762SOL    HW1 9185   0.957   0.821   5.074
 2762SOL    HW2 9186   0.911   0.959   5.149
 2763SOL     OW 9187   5.640   1.957   4.063
 2763SOL    HW1 9188   5.621   1.860   4.055
 2763SOL    HW2 9189   5.729   1.977   4.021
 2764SOL     OW 9190   6.177   0.485   1.262
 2764SOL    HW1 9191   6.252   0.425   1.290
 2764SOL    HW2 9192   6.167   0.559   1.329
 2765SOL     OW 9193   5.482   0.710   0.646
 2765SOL    HW1 9194   5.402   0.699   0.588
 2765SOL    HW2 9195   5.564   0.688   0.593
 2766SOL     OW 9196   5.026   1.543   0.361
 2766SOL    HW1 9197   5.012   1.540   0.460
 2766SOL    HW2 9198   5.064   1.633   0.336
 2767SOL     OW 9199   6.918   5.194   6.432
 2767SOL    HW1 9200   6.919   5.232   6.340
 2767SOL    HW2 9201   7.002   5.220   6.480
 2768SOL     OW 9202   5.025   0.748   0.081
 2768SOL    HW1 9203   5.086   0.735   0.003
 2768SOL    HW2 9204   5.006   0.659   0.124
 2769SOL     OW 9205   6.990   4.431   3.933
 2769SOL    HW1 9206   6.926   4.367   3.975
 2769SOL    HW2 9207   0.038   4.380   3.887
 2770SOL     OW 9208   2.296   5.505   6.232
 2770SOL    HW1 9209   2.313   5.421   6.180
 2770SOL    HW2 9210   2.381   5.534   6.276
 2771SOL     OW 9211   5.535   1.375   2.111
 2771SOL    HW1 9212   5.567   1.368   2.205
 2771SOL    HW2 9213   5.442   1.412   2.109
 2772SOL     OW 9214   4.338   2.053   0.976
 2772SOL    HW1 9215   4.395   2.036   1.056
 2772SOL    HW2 9216   4.245   2.077   1.006
 2773SOL     OW 9217   5.170   3.327   5.762
 2773SOL    HW1 9218   5.207   3.392   5.828
 2773SOL    HW2 9219   5.180   3.363   5.670
 2774SOL     OW 9220   0.021   3.304   3.021
 2774SOL    HW1 9221   6.974   3.282   2.956
 2774SOL    HW2 9222   7.010   3.369   3.089
 2775SOL     OW 9223   6.990   5.439   0.253
 2775SOL    HW1 9224   6.903   5.472   0.289
 2775SOL    HW2 9225   0.013   5.386   0.323
 2776SOL     OW 9226   5.090   5.673   5.448
 2776SOL    HW1 9227   5.110   5.755   5.394
 2776SOL    HW2 9228   5.053   5.699   5.537
 2777SOL     OW 9229   3.048   1.514   2.105
 2777SOL    HW1 9230   3.126   1.483   2.050
 2777SOL    HW2 9231   3.080   1.550   2.192
 2778SOL     OW 9232   1.411   1.316   5.267
 2778SOL    HW1 9233   1.392   1.387   5.334
 2778SOL    HW2 9234   1.350   1.328   5.188
 2779SOL     OW 9235   4.570   0.037   0.758
 2779SOL    HW1 9236   4.479   0.078   0.750
 2779SOL    HW2 9237   4.574   6.979   0.702
 2780SOL     OW 9238   6.714   5.259   5.801
 2780SOL    HW1 9239   6.779   5.318   5.850
 2780SOL    HW2 9240   6.762   5.180   5.764
 2781SOL     OW 9241   5.998   5.655   2.145
 2781SOL    HW1 9242   5.961   5.707   2.222
 2781SOL    HW2 9243   6.036   5.719   2.077
 2782SOL     OW 9244   2.789   2.662   5.823
 2782SOL    HW1 9245   2.753   2.678   5.732
 2782SOL    HW2 9246   2.831   2.571   5.827
 2783SOL     OW 9247   5.874   3.095   4.672
 2783SOL    HW1 9248   5.879   3.018   4.735
 2783SOL    HW2 9249   5.783   3.097   4.630
 2784SOL     OW 9250   2.807   1.690   1.368
 2784SOL    HW1 9251   2.826   1.696   1.270
 2784SOL    HW2 9252   2.764   1.776   1.398
 2785SOL     OW 9253   5.821   1.806   0.152
 2785SOL    HW1 9254   5.900   1.748   0.170
 2785SOL    HW2 9255   5.789   1.847   0.238
 2786SOL     OW 9256   4.378   6.460   1.275
 2786SOL    HW1 9257   4.404   6.552   1.247
 2786SOL    HW2 9258   4.451   6.395   1.251
 2787SOL     OW 9259   2.085   2.829   6.575
 2787SOL    HW1 9260   2.151   2.904   6.588
 2787SOL    HW2 9261   2.047   2.802   6.663
 2788SOL     OW 9262   2.039   4.222   0.044
 2788SOL    HW1 9263   2.088   4.217   0.131
 2788SOL    HW2 9264   1.975   4.146   0.037
 2789SOL     OW 9265   1.811   2.815   3.282
 2789SOL    HW1 9266   1.739   2.867   3.236
 2789SOL    HW2 9267   1.900   2.853   3.258
 2790SOL     OW 9268   2.835   5.598   2.629
 2790SOL    HW1 9269   2.744   5.617   2.593
 2790SOL    HW2 9270   2.836   5.612   2.728
 2791SOL     OW 9271   0.998   4.414   4.507
 2791SOL    HW1 9272   1.027   4.322   4.481
 2791SOL    HW2 9273   1.062   4.482   4.471
 2792SOL     OW 9274   0.985   0.003   5.202
 2792SOL    HW1 9275   0.951   6.945   5.156
 2792SOL    HW2 9276   0.982   0.080   5.137
 2793SOL     OW 9277   4.850   2.877   2.996
 2793SOL    HW1 9278   4.763   2.852   3.039
 2793SOL    HW2 9279   4.925   2.836   3.047
 2794SOL     OW 9280   6.921   2.552   0.543
 2794SOL    HW1 9281   6.994   2.596   0.596
 2794SOL    HW2 9282   6.955   2.464   0.507
 2795SOL     OW 9283   2.530   3.559   0.829
 2795SOL    HW1 9284   2.599   3.486   0.826
 2795SOL    HW2 9285   2.482   3.556   0.917
 2796SOL     OW 9286   6.703   4.675   2.867
 2796SOL    HW1 9287   6.735   4.601   2.926
 2796SOL    HW2 9288   6.649   4.637   2.791
 2797SOL     OW 9289   4.846   5.557   4.765
 2797SOL    HW1 9290   4.877   5.578   4.858
 2797SOL    HW2 9291   4.866   5.462   4.744
 2798SOL     OW 9292   1.161   4.488   1.856
 2798SOL    HW1 9293   1.061   4.496   1.861
 2798SOL    HW2 9294   1.202   4.539   1.932
 2799SOL     OW 9295   0.335   5.486   0.014
 2799SOL    HW1 9296   0.287   5.499   0.100
 2799SOL    HW2 9297   0.433   5.498   0.029
 2800SOL     OW 9298   4.221   4.559   6.619
 2800SOL    HW1 9299   4.264   4.538   6.706
 2800SOL    HW2 9300   4.257   4.498   6.548
 2801SOL     OW 9301   4.586   5.580   4.635
 2801SOL    HW1 9302   4.606   5.649   4.704
 2801SOL    HW2 9303   4.645   5.501   4.649
 2802SOL     OW 9304   4.819   3.294   6.664
 2802SOL    HW1 9305   4.829   3.393   6.658
 2802SOL    HW2 9306   4.722   3.272   6.677
 2803SOL     OW 9307   2.955   6.117   6.473
 2803SOL    HW1 9308   2.988   6.079   6.386
 2803SOL    HW2 9309   2.981   6.214   6.479
 2804SOL     OW 9310   0.079   4.495   4.552
 2804SOL    HW1 9311   0.115   4.528   4.465
 2804SOL    HW2 9312   7.003   4.502   4.550
 2805SOL     OW 9313   4.580   3.206   1.255
 2805SOL    HW1 9314   4.654   3.267   1.227
 2805SOL    HW2 9315   4.511   3.258   1.304
 2806SOL     OW 9316   6.038   5.107   3.802
 2806SOL    HW1 9317   5.993   5.194   3.784
 2806SOL    HW2 9318   6.032   5.086   3.900
 2807SOL     OW 9319   5.541   5.156   4.020
 2807SOL    HW1 9320   5.459   5.214   4.020
 2807SOL    HW2 9321   5.520   5.069   3.975
 2808SOL     OW 9322   4.868   2.627   2.344
 2808SOL    HW1 9323   4.960   2.600   2.372
 2808SOL    HW2 9324   4.835   2.701   2.403
 2809SOL     OW 9325   6.805   2.743   1.581
 2809SOL    HW1 9326   6.884   2.683   1.589
 2809SOL    HW2 9327   6.805   2.808   1.657
 2810SOL     OW 9328   2.867   6.071   4.467
 2810SOL    HW1 9329   2.903   5.978   4.476
 2810SOL    HW2 9330   2.941   6.133   4.441
 2811SOL     OW 9331   0.760   0.520   3.483
 2811SOL    HW1 9332   0.838   0.569   3.523
 2811SOL    HW2 9333   0.727   0.451   3.548
 2812SOL     OW 9334   6.210   3.610   0.833
 2812SOL    HW1 9335   6.263   3.693   0.850
 2812SOL    HW2 9336   6.213   3.551   0.913
 2813SOL     OW 9337   6.302   7.008   5.686
 2813SOL    HW1 9338   6.228   0.016   5.745
 2813SOL    HW2 9339   6.390   0.017   5.720
 2814SOL     OW 9340   4.585   3.114   0.098
 2814SOL    HW1 9341   4.611   3.085   0.006
 2814SOL    HW2 9342   4.535   3.040   0.143
 2815SOL     OW 9343   7.010   1.766   5.023
 2815SOL    HW1 9344   0.038   1.681   5.020
 2815SOL    HW2 9345   0.046   1.843   5.042
 2816SOL     OW 9346   6.765   6.203   4.002
 2816SOL    HW1 9347   6.751   6.300   3.982
 2816SOL    HW2 9348   6.689   6.170   4.058
 2817SOL     OW 9349   2.243   0.149   1.216
 2817SOL    HW1 9350   2.241   0.183   1.310
 2817SOL    HW2 9351   2.241   0.226   1.152
 2818SOL     OW 9352   6.878   5.772   6.448
 2818SOL    HW1 9353   6.882   5.780   6.547
 2818SOL    HW2 9354   6.933   5.844   6.406
 2819SOL     OW 9355   0.063   1.638   1.266
 2819SOL    HW1 9356   0.117   1.610   1.345
 2819SOL    HW2 9357   0.064   1.566   1.197
 2820SOL     OW 9358   0.951   1.710   2.813
 2820SOL    HW1 9359   0.935   1.693   2.910
 2820SOL    HW2 9360   0.929   1.805   2.792
 2821SOL     OW 9361   3.913   3.885   0.066
 2821SOL    HW1 9362   4.012   3.875   0.063
 2821SOL    HW2 9363   3.879   3.856   0.155
 2822SOL     OW 9364   4.285   2.681   0.054
 2822SOL    HW1 9365   4.251   2.619   0.125
 2822SOL    HW2 9366   4.296   2.630   6.993
 2823SOL     OW 9367   2.930   6.802   0.993
 2823SOL    HW1 9368   2.863   6.768   1.059
 2823SOL    HW2 9369   2.996   6.730   0.973
 2824SOL     OW 9370   2.267   1.468   4.389
 2824SOL    HW1 9371   2.218   1.555   4.395
 2824SOL    HW2 9372   2.215   1.405   4.331
 2825SOL     OW 9373   6.916   0.096   6.810
 2825SOL    HW1 9374   6.903   0.171   6.875
 2825SOL    HW2 9375   6.909   0.009   6.859
 2826SOL     OW 9376   5.055   2.132   6.669
 2826SOL    HW1 9377   4.983   2.186   6.626
 2826SOL    HW2 9378   5.015   2.052   6.713
 2827SOL     OW 9379   5.891   1.217   5.211
 2827SOL    HW1 9380   5.978   1.203   5.258
 2827SOL    HW2 9381   5.871   1.138   5.153
 2828SOL     OW 9382   3.251   0.799   6.738
 2828SOL    HW1 9383   3.253   0.784   6.837
 2828SOL    HW2 9384   3.344   0.789   6.701
 2829SOL     OW 9385   3.153   4.244   5.936
 2829SOL    HW1 9386   3.113   4.260   5.846
 2829SOL    HW2 9387   3.223   4.173   5.928
 2830SOL     OW 9388   0.627   3.353   6.598
 2830SOL    HW1 9389   0.707   3.397   6.639
 2830SOL    HW2 9390   0.544   3.400   6.627
 2831SOL     OW 9391   0.014   6.381   3.784
 2831SOL    HW1 9392   0.059   6.325   3.714
 2831SOL    HW2 9393   0.040   6.347   3.874
 2832SOL     OW 9394   6.991   1.158   1.714
 2832SOL    HW1 9395   6.972   1.081   1.654
 2832SOL    HW2 9396   6.921   1.162   1.786
 2833SOL     OW 9397   5.283   2.308   2.044
 2833SOL    HW1 9398   5.190   2.330   2.016
 2833SOL    HW2 9399   5.348   2.347   1.979
 2834SOL     OW 9400   2.739   7.011   5.914
 2834SOL    HW1 9401   2.818   0.004   5.855
 2834SOL    HW2 9402   2.721   6.913   5.917
 2835SOL     OW 9403   6.828   0.521   2.192
 2835SOL    HW1 9404   6.838   0.453   2.265
 2835SOL    HW2 9405   6.861   0.483   2.106
 2836SOL     OW 9406   6.870   0.007   1.656
 2836SOL    HW1 9407   6.798   0.058   1.703
 2836SOL    HW2 9408   6.938   7.003   1.723
 2837SOL     OW 9409   5.775   3.431   2.915
 2837SOL    HW1 9410   5.853   3.385   2.872
 2837SOL    HW2 9411   5.702   3.364   2.930
 2838SOL     OW 9412   1.700   4.077   1.764
 2838SOL    HW1 9413   1.641   4.035   1.696
 2838SOL    HW2 9414   1.647   4.097   1.847
 2839SOL     OW 9415   5.645   0.983   1.958
 2839SOL    HW1 9416   5.585   0.936   2.024
 2839SOL    HW2 9417   5.655   0.927   1.876
 2840SOL     OW 9418   0.656   0.911   4.040
 2840SOL    HW1 9419   0.713   0.972   3.984
 2840SOL    HW2 9420   0.582   0.874   3.983
 2841SOL     OW 9421   6.728   0.821   5.517
 2841SOL    HW1 9422   6.783   0.780   5.589
 2841SOL    HW2 9423   6.649   0.868   5.558
 2842SOL     OW 9424   6.999   2.491   4.334
 2842SOL    HW1 9425   0.015   2.461   4.420
 2842SOL    HW2 9426   6.933   2.564   4.353
 2843SOL     OW 9427   2.921   1.758   3.446
 2843SOL    HW1 9428   2.834   1.802   3.426
 2843SOL    HW2 9429   2.961   1.722   3.361
 2844SOL     OW 9430   1.506   4.890   0.417
 2844SOL    HW1 9431   1.537   4.858   0.506
 2844SOL    HW2 9432   1.519   4.818   0.349
 2845SOL     OW 9433   0.849   3.026   0.780
 2845SOL    HW1 9434   0.781   3.087   0.739
 2845SOL    HW2 9435   0.881   3.065   0.866
 2846SOL     OW 9436   4.487   1.542   6.665
 2846SOL    HW1 9437   4.477   1.599   6.585
 2846SOL    HW2 9438   4.410   1.478   6.672
 2847SOL     OW 9439   5.241   3.645   2.861
 2847SOL    HW1 9440   5.213   3.737   2.891
 2847SOL    HW2 9441   5.289   3.652   2.774
 2848SOL     OW 9442   0.740   4.564   6.449
 2848SOL    HW1 9443   0.748   4.662   6.467
 2848SOL    HW2 9444   0.650   4.545   6.410
 2849SOL     OW 9445   3.754   6.711   1.582
 2849SOL    HW1 9446   3.835   6.769   1.580
 2849SOL    HW2 9447   3.778   6.619   1.550
 2850SOL     OW 9448   3.671   0.083   2.392
 2850SOL    HW1 9449   3.652   0.038   2.304
 2850SOL    HW2 9450   3.767   0.072   2.415
 2851SOL     OW 9451   6.887   3.660   5.919
 2851SOL    HW1 9452   6.824   3.638   5.994
 2851SOL    HW2 9453   6.834   3.674   5.835
 2852SOL     OW 9454   5.431   4.591   0.008
 2852SOL    HW1 9455   5.343   4.551   0.032
 2852SOL    HW2 9456   5.418   4.685   7.001
 2853SOL     OW 9457   2.383   2.085   0.601
 2853SOL    HW1 9458   2.310   2.040   0.653
 2853SOL    HW2 9459   2.391   2.043   0.510
 2854SOL     OW 9460   3.507   1.823   4.505
 2854SOL    HW1 9461   3.468   1.739   4.542
 2854SOL    HW2 9462   3.568   1.864   4.573
 2855SOL     OW 9463   2.379   1.166   6.248
 2855SOL    HW1 9464   2.372   1.264   6.264
 2855SOL    HW2 9465   2.449   1.127   6.308
 2856SOL     OW 9466   2.225   3.004   6.177
 2856SOL    HW1 9467   2.255   2.909   6.188
 2856SOL    HW2 9468   2.137   3.005   6.131
 2857SOL     OW 9469   3.363   1.655   2.286
 2857SOL    HW1 9470   3.354   1.651   2.186
 2857SOL    HW2 9471   3.277   1.627   2.328
 2858SOL     OW 9472   6.421   3.420   1.745
 2858SOL    HW1 9473   6.349   3.414   1.814
 2858SOL    HW2 9474   6.424   3.335   1.692
 2859SOL     OW 9475   4.994   2.362   0.772
 2859SOL    HW1 9476   4.920   2.411   0.726
 2859SOL    HW2 9477   5.044   2.425   0.831
 2860SOL     OW 9478   3.676   1.769   1.242
 2860SOL    HW1 9479   3.603   1.725   1.190
 2860SOL    HW2 9480   3.716   1.704   1.306
 2861SOL     OW 9481   4.846   5.120   5.818
 2861SOL    HW1 9482   4.761   5.169   5.838
 2861SOL    HW2 9483   4.915   5.142   5.888
 2862SOL     OW 9484   5.302   2.124   3.036
 2862SOL    HW1 9485   5.380   2.133   2.975
 2862SOL    HW2 9486   5.286   2.027   3.056
 2863SOL     OW 9487   5.606   1.335   6.614
 2863SOL    HW1 9488   5.649   1.387   6.688
 2863SOL    HW2 9489   5.656   1.350   6.529
 2864SOL     OW 9490   3.953   0.824   1.607
 2864SOL    HW1 9491   4.041   0.796   1.644
 2864SOL    HW2 9492   3.881   0.802   1.673
 2865SOL     OW 9493   5.143   4.036   5.817
 2865SOL    HW1 9494   5.142   4.013   5.720
 2865SOL    HW2 9495   5.176   4.130   5.828
 2866SOL     OW 9496   6.440   6.135   0.009
 2866SOL    HW1 9497   6.359   6.152   0.066
 2866SOL    HW2 9498   6.480   6.047   0.034
 2867SOL     OW 9499   5.929   3.912   2.317
 2867SOL    HW1 9500   5.929   3.967   2.400
 2867SOL    HW2 9501   5.923   3.972   2.237
 2868SOL     OW 9502   0.396   3.197   5.560
 2868SOL    HW1 9503   0.318   3.194   5.623
 2868SOL    HW2 9504   0.395   3.284   5.510
 2869SOL     OW 9505   6.166   1.227   3.410
 2869SOL    HW1 9506   6.121   1.234   3.321
 2869SOL    HW2 9507   6.246   1.287   3.411
 2870SOL     OW 9508   0.127   1.268   4.640
 2870SOL    HW1 9509   0.160   1.360   4.664
 2870SOL    HW2 9510   0.158   1.202   4.708
 2871SOL     OW 9511   1.648   1.400   0.273
 2871SOL    HW1 9512   1.702   1.342   0.212
 2871SOL    HW2 9513   1.707   1.437   0.344
 2872SOL     OW 9514   2.223   2.060   3.408
 2872SOL    HW1 9515   2.241   2.158   3.406
 2872SOL    HW2 9516   2.285   2.013   3.345
 2873SOL     OW 9517   0.968   5.004   2.916
 2873SOL    HW1 9518   0.972   5.093   2.870
 2873SOL    HW2 9519   0.884   4.997   2.969
 2874SOL     OW 9520   4.073   5.564   2.886
 2874SOL    HW1 9521   4.063   5.479   2.833
 2874SOL    HW2 9522   4.167   5.597   2.879
 2875SOL     OW 9523   4.956   6.234   6.852
 2875SOL    HW1 9524   4.858   6.220   6.840
 2875SOL    HW2 9525   5.006   6.189   6.777
 2876SOL     OW 9526   1.075   0.024   1.835
 2876SOL    HW1 9527   1.170   7.016   1.835
 2876SOL    HW2 9528   1.072   0.117   1.874
 2877SOL     OW 9529   3.711   2.961   5.253
 2877SOL    HW1 9530   3.620   2.920   5.257
 2877SOL    HW2 9531   3.721   3.028   5.327
 2878SOL     OW 9532   3.541   4.951   4.504
 2878SOL    HW1 9533   3.570   5.043   4.531
 2878SOL    HW2 9534   3.622   4.893   4.491
 2879SOL     OW 9535   5.265   5.244   0.150
 2879SOL    HW1 9536   5.221   5.197   0.226
 2879SOL    HW2 9537   5.304   5.177   0.087
 2880SOL     OW 9538   5.723   6.931   0.715
 2880SOL    HW1 9539   5.789   6.952   0.787
 2880SOL    HW2 9540   5.649   7.000   0.717
 2881SOL     OW 9541   5.954   6.258   1.441
 2881SOL    HW1 9542   5.989   6.274   1.533
 2881SOL    HW2 9543   6.020   6.292   1.374
 2882SOL     OW 9544   0.647   3.481   2.122
 2882SOL    HW1 9545   0.699   3.566   2.132
 2882SOL    HW2 9546   0.549   3.502   2.126
 2883SOL     OW 9547   5.379   6.357   3.863
 2883SOL    HW1 9548   5.375   6.309   3.951
 2883SOL    HW2 9549   5.291   6.400   3.844
 2884SOL     OW 9550   0.800   5.825   2.724
 2884SOL    HW1 9551   0.863   5.759   2.765
 2884SOL    HW2 9552   0.838   5.857   2.638
 2885SOL     OW 9553   0.318   3.114   2.015
 2885SOL    HW1 9554   0.255   3.143   1.944
 2885SOL    HW2 9555   0.383   3.047   1.978
 2886SOL     OW 9556   2.140   4.072   6.687
 2886SOL    HW1 9557   2.113   4.094   6.593
 2886SOL    HW2 9558   2.156   4.158   6.737
 2887SOL     OW 9559   1.629   0.148   4.848
 2887SOL    HW1 9560   1.714   0.115   4.807
 2887SOL    HW2 9561   1.591   0.079   4.909
 2888SOL     OW 9562   0.581   5.091   6.718
 2888SOL    HW1 9563   0.672   5.127   6.699
 2888SOL    HW2 9564   0.550   5.123   6.807
 2889SOL     OW 9565   1.869   0.268   2.297
 2889SOL    HW1 9566   1.951   0.232   2.341
 2889SOL    HW2 9567   1.895   0.337   2.229
 2890SOL     OW 9568   2.598   0.426   0.852
 2890SOL    HW1 9569   2.685   0.386   0.881
 2890SOL    HW2 9570   2.563   0.484   0.926
 2891SOL     OW 9571   2.305   4.494   3.904
 2891SOL    HW1 9572   2.343   4.574   3.858
 2891SOL    HW2 9573   2.289   4.421   3.838
 2892SOL     OW 9574   5.799   3.442   0.527
 2892SOL    HW1 9575   5.747   3.488   0.600
 2892SOL    HW2 9576   5.888   3.414   0.562
 2893SOL     OW 9577   0.626   6.642   4.483
 2893SOL    HW1 9578   0.578   6.697   4.550
 2893SOL    HW2 9579   0.630   6.547   4.513
 2894SOL     OW 9580   3.174   2.687   0.105
 2894SOL    HW1 9581   3.166   2.758   0.034
 2894SOL    HW2 9582   3.198   2.730   0.192
 2895SOL     OW 9583   4.249   3.211   6.700
 2895SOL    HW1 9584   4.198   3.269   6.636
 2895SOL    HW2 9585   4.185   3.170   6.765
 2896SOL     OW 9586   3.074   5.199   6.444
 2896SOL    HW1 9587   3.149   5.208   6.378
 2896SOL    HW2 9588   3.088   5.263   6.520
 2897SOL     OW 9589   2.964   5.796   3.382
 2897SOL    HW1 9590   2.932   5.723   3.321
 2897SOL    HW2 9591   3.020   5.860   3.330
 2898SOL     OW 9592   4.437   5.175   3.843
 2898SOL    HW1 9593   4.461   5.254   3.899
 2898SOL    HW2 9594   4.385   5.205   3.763
 2899SOL     OW 9595   0.344   2.000   0.501
 2899SOL    HW1 9596   0.330   2.038   0.593
 2899SOL    HW2 9597   0.352   2.075   0.436
 2900SOL     OW 9598   1.737   4.941   5.481
 2900SOL    HW1 9599   1.677   4.898   5.413
 2900SOL    HW2 9600   1.708   4.915   5.573
 2901SOL     OW 9601   1.523   0.355   2.601
 2901SOL    HW1 9602   1.621   0.372   2.607
 2901SOL    HW2 9603   1.492   0.308   2.683
 2902SOL     OW 9604   5.530   5.608   1.115
 2902SOL    HW1 9605   5.470   5.595   1.036
 2902SOL    HW2 9606   5.513   5.535   1.181
 2903SOL     OW 9607   3.161   0.097   1.521
 2903SOL    HW1 9608   3.227   0.144   1.463
 2903SOL    HW2 9609   3.180   0.118   1.617
 2904SOL     OW 9610   2.078   3.305   5.407
 2904SOL    HW1 9611   2.149   3.237   5.387
 2904SOL    HW2 9612   2.115   3.375   5.468
 2905SOL     OW 9613   1.192   2.433   3.601
 2905SOL    HW1 9614   1.246   2.509   3.566
 2905SOL    HW2 9615   1.227   2.405   3.690
 2906SOL     OW 9616   5.030   5.549   2.894
 2906SOL    HW1 9617   5.049   5.647   2.900
 2906SOL    HW2 9618   4.987   5.518   2.979
 2907SOL     OW 9619   0.463   1.168   4.490
 2907SOL    HW1 9620   0.445   1.226   4.570
 2907SOL    HW2 9621   0.427   1.213   4.408
 2908SOL     OW 9622   4.222   6.763   4.054
 2908SOL    HW1 9623   4.251   6.798   4.143
 2908SOL    HW2 9624   4.257   6.822   3.981
 2909SOL     OW 9625   0.394   6.365   3.191
 2909SOL    HW1 9626   0.401   6.268   3.168
 2909SOL    HW2 9627   0.344   6.375   3.278
 2910SOL     OW 9628   4.653   6.253   4.526
 2910SOL    HW1 9629   4.631   6.349   4.545
 2910SOL    HW2 9630   4.579   6.213   4.471
 2911SOL     OW 9631   1.816   5.160   3.362
 2911SOL    HW1 9632   1.801   5.069   3.324
 2911SOL    HW2 9633   1.804   5.228   3.290
 2912SOL     OW 9634   3.880   6.010   6.878
 2912SOL    HW1 9635   3.842   6.098   6.905
 2912SOL    HW2 9636   3.834   5.977   6.796
 2913SOL     OW 9637   1.724   5.168   2.426
 2913SOL    HW1 9638   1.747   5.173   2.523
 2913SOL    HW2 9639   1.762   5.247   2.379
 2914SOL     OW 9640   5.986   5.750   5.725
 2914SOL    HW1 9641   5.980   5.849   5.711
 2914SOL    HW2 9642   6.045   5.732   5.804
 2915SOL     OW 9643   4.785   1.848   5.024
 2915SOL    HW1 9644   4.780   1.906   4.942
 2915SOL    HW2 9645   4.779   1.752   4.998
 2916SOL     OW 9646   6.457   5.201   5.939
 2916SOL    HW1 9647   6.438   5.266   6.013
 2916SOL    HW2 9648   6.556   5.197   5.923
 2917SOL     OW 9649   4.234   0.450   1.952
 2917SOL    HW1 9650   4.299   0.508   2.003
 2917SOL    HW2 9651   4.212   0.369   2.006
 2918SOL     OW 9652   0.351   3.510   2.994
 2918SOL    HW1 9653   0.266   3.560   3.013
 2918SOL    HW2 9654   0.337   3.450   2.916
 2919SOL     OW 9655   6.215   1.083   0.001
 2919SOL    HW1 9656   6.240   1.072   6.929
 2919SOL    HW2 9657   6.246   1.172   0.034
 2920SOL     OW 9658   3.353   1.857   2.514
 2920SOL    HW1 9659   3.378   1.840   2.419
 2920SOL    HW2 9660   3.368   1.775   2.568
 2921SOL     OW 9661   0.655   0.466   3.242
 2921SOL    HW1 9662   0.700   0.518   3.169
 2921SOL    HW2 9663   0.701   0.484   3.329
 2922SOL     OW 9664   5.822   6.789   6.882
 2922SOL    HW1 9665   5.869   6.756   6.965
 2922SOL    HW2 9666   5.725   6.800   6.901
 2923SOL     OW 9667   0.020   4.713   2.037
 2923SOL    HW1 9668   6.992   4.693   2.120
 2923SOL    HW2 9669   0.029   4.630   1.982
 2924SOL     OW 9670   6.908   2.235   6.775
 2924SOL    HW1 9671   6.812   2.215   6.757
 2924SOL    HW2 9672   6.939   2.310   6.717
 2925SOL     OW 9673   5.118   0.736   3.315
 2925SOL    HW1 9674   5.155   0.764   3.226
 2925SOL    HW2 9675   5.162   0.789   3.387
 2926SOL     OW 9676   6.839   1.284   5.080
 2926SOL    HW1 9677   6.792   1.197   5.095
 2926SOL    HW2 9678   6.776   1.360   5.096
 2927SOL     OW 9679   2.480   1.733   2.159
 2927SOL    HW1 9680   2.405   1.707   2.098
 2927SOL    HW2 9681   2.449   1.805   2.221
 2928SOL     OW 9682   6.690   2.288   6.112
 2928SOL    HW1 9683   6.660   2.212   6.055
 2928SOL    HW2 9684   6.632   2.368   6.094
 2929SOL     OW 9685   0.515   0.778   5.850
 2929SOL    HW1 9686   0.530   0.844   5.776
 2929SOL    HW2 9687   0.435   0.722   5.830
 2930SOL     OW 9688   4.660   6.621   5.054
 2930SOL    HW1 9689   4.574   6.668   5.075
 2930SOL    HW2 9690   4.725   6.636   5.128
 2931SOL     OW 9691   5.531   6.440   6.958
 2931SOL    HW1 9692   5.588   6.358   6.944
 2931SOL    HW2 9693   5.589   6.521   6.950
 2932SOL     OW 9694   1.689   5.010   1.995
 2932SOL    HW1 9695   1.693   5.042   1.900
 2932SOL    HW2 9696   1.609   4.952   2.008
 2933SOL     OW 9697   5.631   2.784   2.793
 2933SOL    HW1 9698   5.716   2.734   2.774
 2933SOL    HW2 9699   5.654   2.876   2.826
 2934SOL     OW 9700   3.923   0.921   0.174
 2934SOL    HW1 9701   3.843   0.884   0.221
 2934SOL    HW2 9702   3.894   0.969   0.091
 2935SOL     OW 9703   6.417   3.239   1.543
 2935SOL    HW1 9704   6.373   3.170   1.600
 2935SOL    HW2 9705   6.349   3.283   1.484
 2936SOL     OW 9706   5.074   5.439   2.000
 2936SOL    HW1 9707   5.045   5.457   2.094
 2936SOL    HW2 9708   5.078   5.340   1.985
 2937SOL     OW 9709   3.860   4.564   0.732
 2937SOL    HW1 9710   3.789   4.540   0.799
 2937SOL    HW2 9711   3.817   4.596   0.648
 2938SOL     OW 9712   4.953   4.441   5.961
 2938SOL    HW1 9713   4.864   4.484   5.971
 2938SOL    HW2 9714   5.022   4.495   6.009
 2939SOL     OW 9715   0.754   0.125   4.432
 2939SOL    HW1 9716   0.724   0.137   4.337
 2939SOL    HW2 9717   0.853   0.138   4.438
 2940SOL     OW 9718   6.017   0.030   6.218
 2940SOL    HW1 9719   6.060   0.090   6.285
 2940SOL    HW2 9720   5.918   0.047   6.218
 2941SOL     OW 9721   2.246   2.347   5.162
 2941SOL    HW1 9722   2.257   2.395   5.075
 2941SOL    HW2 9723   2.214   2.412   5.231
 2942SOL     OW 9724   2.214   1.222   1.987
 2942SOL    HW1 9725   2.304   1.241   2.026
 2942SOL    HW2 9726   2.165   1.308   1.974
 2943SOL     OW 9727   5.787   3.993   2.898
 2943SOL    HW1 9728   5.790   3.901   2.858
 2943SOL    HW2 9729   5.699   4.036   2.877
 2944SOL     OW 9730   2.621   5.513   5.434
 2944SOL    HW1 9731   2.533   5.485   5.473
 2944SOL    HW2 9732   2.661   5.436   5.384
 2945SOL     OW 9733   3.992   3.188   3.551
 2945SOL    HW1 9734   4.031   3.228   3.468
 2945SOL    HW2 9735   4.025   3.238   3.631
 2946SOL     OW 9736   0.120   5.348   6.547
 2946SOL    HW1 9737   0.207   5.302   6.564
 2946SOL    HW2 9738   0.137   5.442   6.516
 2947SOL     OW 9739   1.286   4.655   0.468
 2947SOL    HW1 9740   1.294   4.693   0.376
 2947SOL    HW2 9741   1.291   4.729   0.535
 2948SOL     OW 9742   6.853   3.789   5.592
 2948SOL    HW1 9743   6.949   3.812   5.577
 2948SOL    HW2 9744   6.812   3.758   5.506
 2949SOL     OW 9745   1.897   6.168   0.941
 2949SOL    HW1 9746   1.952   6.123   1.011
 2949SOL    HW2 9747   1.886   6.264   0.965
 2950SOL     OW 9748   5.038   3.743   4.607
 2950SOL    HW1 9749   4.973   3.750   4.531
 2950SOL    HW2 9750   4.995   3.696   4.684
 2951SOL     OW 9751   6.631   2.415   0.601
 2951SOL    HW1 9752   6.705   2.363   0.645
 2951SOL    HW2 9753   6.572   2.353   0.550
 2952SOL     OW 9754   1.139   5.807   4.831
 2952SOL    HW1 9755   1.041   5.805   4.811
 2952SOL    HW2 9756   1.188   5.855   4.759
 2953SOL     OW 9757   4.750   2.836   2.548
 2953SOL    HW1 9758   4.749   2.886   2.461
 2953SOL    HW2 9759   4.834   2.857   2.598
 2954SOL     OW 9760   0.846   5.556   1.805
 2954SOL    HW1 9761   0.831   5.470   1.756
 2954SOL    HW2 9762   0.885   5.536   1.895
 2955SOL     OW 9763   0.799   3.888   0.636
 2955SOL    HW1 9764   0.828   3.827   0.709
 2955SOL    HW2 9765   0.755   3.835   0.563
 2956SOL     OW 9766   5.942   6.295   3.144
 2956SOL    HW1 9767   5.965   6.341   3.058
 2956SOL    HW2 9768   5.880   6.219   3.125
 2957SOL     OW 9769   6.670   3.357   1.601
 2957SOL    HW1 9770   6.581   3.331   1.562
 2957SOL    HW2 9771   6.696   3.448   1.567
 2958SOL     OW 9772   2.667   4.766   4.857
 2958SOL    HW1 9773   2.637   4.851   4.900
 2958SOL    HW2 9774   2.727   4.716   4.919
 2959SOL     OW 9775   4.415   4.313   0.286
 2959SOL    HW1 9776   4.412   4.348   0.379
 2959SOL    HW2 9777   4.506   4.326   0.248
 2960SOL     OW 9778   3.219   0.524   6.665
 2960SOL    HW1 9779   3.129   0.519   6.708
 2960SOL    HW2 9780   3.261   0.612   6.686
 2961SOL     OW 9781   5.296   2.762   4.135
 2961SOL    HW1 9782   5.326   2.824   4.063
 2961SOL    HW2 9783   5.370   2.751   4.203
 2962SOL     OW 9784   4.227   1.065   4.053
 2962SOL    HW1 9785   4.286   1.135   4.092
 2962SOL    HW2 9786   4.264   1.034   3.965
 2963SOL     OW 9787   1.698   1.725   5.986
 2963SOL    HW1 9788   1.659   1.730   6.078
 2963SOL    HW2 9789   1.786   1.772   5.985
 2964SOL     OW 9790   0.965   6.768   1.917
 2964SOL    HW1 9791   1.015   6.683   1.899
 2964SOL    HW2 9792   1.010   6.844   1.870
 2965SOL     OW 9793   0.004   0.812   5.074
 2965SOL    HW1 9794   6.996   0.872   5.147
 2965SOL    HW2 9795   7.013   0.716   5.100
 2966SOL     OW 9796   6.260   4.696   4.094
 2966SOL    HW1 9797   6.269   4.751   4.011
 2966SOL    HW2 9798   6.248   4.600   4.069
 2967SOL     OW 9799   5.768   2.268   4.382
 2967SOL    HW1 9800   5.690   2.219   4.342
 2967SOL    HW2 9801   5.850   2.247   4.330
 2968SOL     OW 9802   1.347   4.272   5.433
 2968SOL    HW1 9803   1.354   4.307   5.340
 2968SOL    HW2 9804   1.273   4.205   5.438
 2969SOL     OW 9805   6.253   1.342   4.133
 2969SOL    HW1 9806   6.286   1.270   4.073
 2969SOL    HW2 9807   6.162   1.370   4.105
 2970SOL     OW 9808   0.736   4.112   6.686
 2970SOL    HW1 9809   0.789   4.153   6.612
 2970SOL    HW2 9810   0.799   4.083   6.759
 2971SOL     OW 9811   4.974   2.740   5.378
 2971SOL    HW1 9812   4.919   2.808   5.426
 2971SOL    HW2 9813   4.914   2.668   5.341
 2972SOL     OW 9814   6.489   4.941   6.092
 2972SOL    HW1 9815   6.492   5.033   6.055
 2972SOL    HW2 9816   6.563   4.886   6.054
 2973SOL     OW 9817   5.424   1.215   4.267
 2973SOL    HW1 9818   5.439   1.256   4.177
 2973SOL    HW2 9819   5.474   1.267   4.336
 2974SOL     OW 9820   0.543   3.755   2.875
 2974SOL    HW1 9821   0.539   3.673   2.819
 2974SOL    HW2 9822   0.571   3.731   2.968
 2975SOL     OW 9823   0.735   2.209   5.249
 2975SOL    HW1 9824   0.674   2.129   5.257
 2975SOL    HW2 9825   0.810   2.188   5.186
 2976SOL     OW 9826   4.118   1.204   2.355
 2976SOL    HW1 9827   4.212   1.197   2.389
 2976SOL    HW2 9828   4.096   1.123   2.300
 2977SOL     OW 9829   1.796   0.093   4.125
 2977SOL    HW1 9830   1.726   0.108   4.195
 2977SOL    HW2 9831   1.860   0.023   4.156
 2978SOL     OW 9832   3.909   4.396   6.707
 2978SOL    HW1 9833   3.860   4.395   6.620
 2978SOL    HW2 9834   4.007   4.405   6.690
 2979SOL     OW 9835   4.491   6.890   4.136
 2979SOL    HW1 9836   4.462   6.847   4.222
 2979SOL    HW2 9837   4.544   6.824   4.082
 2980SOL     OW 9838   1.678   5.759   3.817
 2980SOL    HW1 9839   1.602   5.697   3.795
 2980SOL    HW2 9840   1.712   5.739   3.909
 2981SOL     OW 9841   0.802   0.267   5.653
 2981SOL    HW1 9842   0.870   0.310   5.711
 2981SOL    HW2 9843   0.842   0.249   5.563
 2982SOL     OW 9844   4.849   6.241   3.432
 2982SOL    HW1 9845   4.881   6.221   3.339
 2982SOL    HW2 9846   4.861   6.160   3.489
 2983SOL     OW 9847   0.819   1.186   4.233
 2983SOL    HW1 9848   0.836   1.107   4.291
 2983SOL    HW2 9849   0.731   1.228   4.258
 2984SOL     OW 9850   4.753   5.660   1.838
 2984SOL    HW1 9851   4.841   5.632   1.801
 2984SOL    HW2 9852   4.728   5.749   1.799
 2985SOL     OW 9853   0.722   2.479   5.193
 2985SOL    HW1 9854   0.697   2.385   5.217
 2985SOL    HW2 9855   0.762   2.480   5.102
 2986SOL     OW 9856   1.974   4.089   6.448
 2986SOL    HW1 9857   1.983   4.011   6.386
 2986SOL    HW2 9858   1.877   4.112   6.459
 2987SOL     OW 9859   4.911   0.619   3.495
 2987SOL    HW1 9860   4.835   0.684   3.505
 2987SOL    HW2 9861   4.969   0.647   3.418
 2988SOL     OW 9862   0.157   0.314   3.067
 2988SOL    HW1 9863   0.179   0.398   3.117
 2988SOL    HW2 9864   0.059   0.295   3.075
 2989SOL     OW 9865   6.646   5.964   0.559
 2989SOL    HW1 9866   6.572   5.915   0.605
 2989SOL    HW2 9867   6.722   5.901   0.540
 2990SOL     OW 9868   4.354   1.289   3.457
 2990SOL    HW1 9869   4.344   1.192   3.435
 2990SOL    HW2 9870   4.269   1.323   3.496
 2991SOL     OW 9871   6.588   3.926   0.283
 2991SOL    HW1 9872   6.674   3.903   0.331
 2991SOL    HW2 9873   6.582   4.025   0.272
 2992SOL     OW 9874   2.503   5.470   5.965
 2992SOL    HW1 9875   2.438   5.419   5.908
 2992SOL    HW2 9876   2.596   5.447   5.936
 2993SOL     OW 9877   1.129   4.867   1.971
 2993SOL    HW1 9878   1.114   4.883   1.873
 2993SOL    HW2 9879   1.145   4.954   2.018
 2994SOL     OW 9880   4.433   0.540   0.931
 2994SOL    HW1 9881   4.341   0.569   0.958
 2994SOL    HW2 9882   4.441   0.544   0.832
 2995SOL     OW 9883   0.751   3.174   6.834
 2995SOL    HW1 9884   0.827   3.155   6.896
 2995SOL    HW2 9885   0.783   3.167   6.740
 2996SOL     OW 9886   2.471   6.017   3.700
 2996SOL    HW1 9887   2.567   6.008   3.728
 2996SOL    HW2 9888   2.414   6.037   3.780
 2997SOL     OW 9889   4.921   6.716   2.259
 2997SOL    HW1 9890   5.001   6.704   2.318
 2997SOL    HW2 9891   4.937   6.671   2.172
 2998SOL     OW 9892   5.274   6.336   4.899
 2998SOL    HW1 9893   5.316   6.421   4.868
 2998SOL    HW2 9894   5.306   6.314   4.992
 2999SOL     OW 9895   3.448   5.538   3.884
 2999SOL    HW1 9896   3.398   5.535   3.970
 2999SOL    HW2 9897   3.430   5.625   3.838
 3000SOL     OW 9898   1.192   3.829   6.990
 3000SOL    HW1 9899   1.252   3.755   7.020
 3000SOL    HW2 9900   1.240   3.917   7.002
 3001SOL     OW 9901   5.330   0.069   6.607
 3001SOL    HW1 9902   5.245   0.076   6.555
 3001SOL    HW2 9903   5.312   0.090   6.703
 3002SOL     OW 9904   4.497   0.207   5.569
 3002SOL    HW1 9905   4.476   0.259   5.652
 3002SOL    HW2 9906   4.594   0.218   5.546
 3003SOL     OW 9907   2.352   6.673   6.673
 3003SOL    HW1 9908   2.432   6.666   6.613
 3003SOL    HW2 9909   2.379   6.649   6.766
 3004SOL     OW 9910   0.693   5.348   3.405
 3004SOL    HW1 9911   0.631   5.280   3.365
 3004SOL    HW2 9912   0.779   5.304   3.428
 3005SOL     OW 9913   3.570   2.391   0.538
 3005SOL    HW1 9914   3.669   2.385   0.549
 3005SOL    HW2 9915   3.549   2.429   0.448
 3006SOL     OW 9916   6.019   1.936   6.989
 3006SOL    HW1 9917   5.921   1.943   7.008
 3006SOL    HW2 9918   6.034   1.932   6.891
 3007SOL     OW 9919   6.342   5.050   2.139
 3007SOL    HW1 9920   6.399   4.972   2.113
 3007SOL    HW2 9921   6.261   5.017   2.187
 3008SOL     OW 9922   3.480   0.404   6.261
 3008SOL    HW1 9923   3.483   0.316   6.309
 3008SOL    HW2 9924   3.411   0.462   6.302
 3009SOL     OW 9925   0.414   6.608   2.817
 3009SOL    HW1 9926   0.423   6.706   2.801
 3009SOL    HW2 9927   0.344   6.592   2.887
 3010SOL     OW 9928   3.402   5.923   3.094
 3010SOL    HW1 9929   3.362   5.949   3.006
 3010SOL    HW2 9930   3.500   5.946   3.094
 3011SOL     OW 9931   5.963   1.185   0.237
 3011SOL    HW1 9932   5.957   1.249   0.313
 3011SOL    HW2 9933   6.049   1.198   0.188
 3012SOL     OW 9934   1.486   3.418   5.146
 3012SOL    HW1 9935   1.423   3.495   5.137
 3012SOL    HW2 9936   1.540   3.409   5.062
 3013SOL     OW 9937   5.660   5.525   4.165
 3013SOL    HW1 9938   5.612   5.555   4.083
 3013SOL    HW2 9939   5.758   5.542   4.154
 3014SOL     OW 9940   5.129   2.947   3.898
 3014SOL    HW1 9941   5.113   3.019   3.966
 3014SOL    HW2 9942   5.044   2.896   3.883
 3015SOL     OW 9943   3.353   1.887   0.529
 3015SOL    HW1 9944   3.332   1.985   0.526
 3015SOL    HW2 9945   3.335   1.852   0.621
 3016SOL     OW 9946   2.714   6.332   3.767
 3016SOL    HW1 9947   2.714   6.233   3.762
 3016SOL    HW2 9948   2.662   6.369   3.689
 3017SOL     OW 9949   0.538   5.224   1.835
 3017SOL    HW1 9950   0.508   5.290   1.904
 3017SOL    HW2 9951   0.472   5.223   1.760
 3018SOL     OW 9952   3.032   6.930   5.146
 3018SOL    HW1 9953   3.095   6.977   5.084
 3018SOL    HW2 9954   3.067   6.839   5.167
 3019SOL     OW 9955   2.005   6.816   0.613
 3019SOL    HW1 9956   1.941   6.885   0.582
 3019SOL    HW2 9957   2.086   6.860   0.653
 3020SOL     OW 9958   3.560   4.203   1.657
 3020SOL    HW1 9959   3.651   4.178   1.624
 3020SOL    HW2 9960   3.495   4.203   1.580
 3021SOL     OW 9961   2.754   1.362   6.838
 3021SOL    HW1 9962   2.803   1.405   6.762
 3021SOL    HW2 9963   2.709   1.433   6.893
 3022SOL     OW 9964   3.731   5.936   3.095
 3022SOL    HW1 9965   3.795   5.955   3.020
 3022SOL    HW2 9966   3.684   6.021   3.121
 3023SOL     OW 9967   4.206   6.737   2.662
 3023SOL    HW1 9968   4.243   6.792   2.737
 3023SOL    HW2 9969   4.236   6.775   2.575
 3024SOL     OW 9970   4.149   6.997   6.039
 3024SOL    HW1 9971   4.111   0.023   5.962
 3024SOL    HW2 9972   4.154   0.031   6.119
 3025SOL     OW 9973   3.498   2.509   0.287
 3025SOL    HW1 9974   3.445   2.499   0.203
 3025SOL    HW2 9975   3.480   2.599   0.328
 3026SOL     OW 9976   1.970   1.916   0.383
 3026SOL    HW1 9977   1.880   1.883   0.411
 3026SOL    HW2 9978   1.976   2.015   0.401
 3027SOL     OW 9979   4.427   0.780   1.845
 3027SOL    HW1 9980   4.467   0.788   1.936
 3027SOL    HW2 9981   4.481   0.834   1.780
 3028SOL     OW 9982   1.291   4.102   6.363
 3028SOL    HW1 9983   1.308   4.072   6.269
 3028SOL    HW2 9984   1.368   4.157   6.395
 3029SOL     OW 9985   0.417   4.889   5.208
 3029SOL    HW1 9986   0.478   4.965   5.184
 3029SOL    HW2 9987   0.327   4.905   5.168
 3030SOL     OW 9988   0.515   2.569   6.053
 3030SOL    HW1 9989   0.416   2.584   6.052
 3030SOL    HW2 9990   0.542   2.518   5.972
 3031SOL     OW 9991   0.163   3.557   0.772
 3031SOL    HW1 9992   0.153   3.531   0.676
 3031SOL    HW2 9993   0.074   3.586   0.808
 3032SOL     OW 9994   4.540   6.834   0.623
 3032SOL    HW1 9995   4.487   6.788   0.552
 3032SOL    HW2 9996   4.636   6.809   0.615
 3033SOL     OW 9997   0.889   2.507   1.251
 3033SOL    HW1 9998   0.867   2.428   1.194
 3033SOL    HW2 9999   0.931   2.477   1.336
 3034SOL     OW10000   2.029   5.826   3.803
 3034SOL    HW110001   2.003   5.812   3.707
 3034SOL    HW210002   2.017   5.922   3.827
 3035SOL     OW10003   6.710   2.941   0.317
 3035SOL    HW110004   6.791   2.981   0.360
 3035SOL    HW210005   6.629   2.961   0.372
 3036SOL     OW10006   1.314   3.253   6.593
 3036SOL    HW110007   1.278   3.281   6.505
 3036SOL    HW210008   1.413   3.268   6.596
 3037SOL     OW10009   6.528   5.994   4.200
 3037SOL    HW110010   6.461   5.928   4.235
 3037SOL    HW210011   6.482   6.063   4.145
 3038SOL     OW10012   5.909   6.751   6.451
 3038SOL    HW110013   5.831   6.735   6.512
 3038SOL    HW210014   5.886   6.720   6.359
 3039SOL     OW10015   6.794   3.838   2.519
 3039SOL    HW110016   6.830   3.746   2.537
 3039SOL    HW210017   6.724   3.832   2.447
 3040SOL     OW10018   4.996   3.718   6.083
 3040SOL    HW110019   5.045   3.767   6.156
 3040SOL    HW210020   4.965   3.629   6.118
 3041SOL     OW10021   2.360   2.591   5.527
 3041SOL    HW110022   2.402   2.662   5.471
 3041SOL    HW210023   2.343   2.626   5.619
 3042SOL     OW10024   5.608   7.024   1.777
 3042SOL    HW110025   5.616   6.941   1.722
 3042SOL    HW210026   5.521   7.023   1.826
 3043SOL     OW10027   0.593   5.119   1.230
 3043SOL    HW110028   0.620   5.213   1.251
 3043SOL    HW210029   0.648   5.085   1.154
 3044SOL     OW10030   2.850   4.942   6.035
 3044SOL    HW110031   2.890   4.980   5.952
 3044SOL    HW210032   2.922   4.898   6.089
 3045SOL     OW10033   4.720   0.590   2.896
 3045SOL    HW110034   4.721   0.563   2.799
 3045SOL    HW210035   4.655   0.664   2.909
 3046SOL     OW10036   2.638   2.214   5.959
 3046SOL    HW110037   2.553   2.186   5.915
 3046SOL    HW210038   2.644   2.174   6.050
 3047SOL     OW10039   5.175   6.094   2.519
 3047SOL    HW110040   5.219   6.072   2.607
 3047SOL    HW210041   5.140   6.187   2.522
 3048SOL     OW10042   3.874   2.772   1.531
 3048SOL    HW110043   3.829   2.728   1.454
 3048SOL    HW210044   3.841   2.866   1.540
 3049SOL     OW10045   1.454   6.050   1.365
 3049SOL    HW110046   1.479   5.977   1.430
 3049SOL    HW210047   1.535   6.081   1.316
 3050SOL     OW10048   3.245   1.116   3.449
 3050SOL    HW110049   3.275   1.211   3.441
 3050SOL    HW210050   3.226   1.096   3.545
 3051SOL     OW10051   2.570   3.428   6.973
 3051SOL    HW110052   2.666   3.455   6.971
 3051SOL    HW210053   2.518   3.494   0.003
 3052SOL     OW10054   4.188   0.448   2.280
 3052SOL    HW110055   4.237   0.398   2.352
 3052SOL    HW210056   4.236   0.532   2.258
 3053SOL     OW10057   6.746   0.717   6.683
 3053SOL    HW110058   6.841   0.689   6.691
 3053SOL    HW210059   6.688   0.650   6.730
 3054SOL     OW10060   0.583   2.806   0.718
 3054SOL    HW110061   0.627   2.874   0.659
 3054SOL    HW210062   0.484   2.818   0.716
 3055SOL     OW10063   4.319   6.846   3.815
 3055SOL    HW110064   4.414   6.814   3.815
 3055SOL    HW210065   4.288   6.858   3.721
 3056SOL     OW10066   6.975   0.896   6.121
 3056SOL    HW110067   6.949   0.918   6.027
 3056SOL    HW210068   6.940   0.806   6.145
 3057SOL     OW10069   4.336   5.602   2.853
 3057SOL    HW110070   4.419   5.550   2.872
 3057SOL    HW210071   4.359   5.687   2.806
 3058SOL     OW10072   6.942   5.357   1.299
 3058SOL    HW110073   0.015   5.377   1.308
 3058SOL    HW210074   6.891   5.443   1.295
 3059SOL     OW10075   2.138   2.154   5.465
 3059SOL    HW110076   2.214   2.164   5.401
 3059SOL    HW210077   2.132   2.059   5.496
 3060SOL     OW10078   0.624   6.131   0.620
 3060SOL    HW110079   0.632   6.033   0.604
 3060SOL    HW210080   0.679   6.180   0.552
 3061SOL     OW10081   6.435   0.932   5.065
 3061SOL    HW110082   6.484   0.933   4.977
 3061SOL    HW210083   6.406   1.025   5.088
 3062SOL     OW10084   1.382   0.006   0.059
 3062SOL    HW110085   1.386   0.106   0.056
 3062SOL    HW210086   1.386   6.993   6.991
 3063SOL     OW10087   2.965   5.362   1.524
 3063SOL    HW110088   2.993   5.274   1.564
 3063SOL    HW210089   2.866   5.363   1.512
 3064SOL     OW10090   5.837   3.668   3.719
 3064SOL    HW110091   5.907   3.637   3.655
 3064SOL    HW210092   5.879   3.725   3.790
 3065SOL     OW10093   1.816   1.184   6.531
 3065SOL    HW110094   1.823   1.085   6.542
 3065SOL    HW210095   1.903   1.220   6.497
 3066SOL     OW10096   5.491   4.784   0.743
 3066SOL    HW110097   5.394   4.759   0.748
 3066SOL    HW210098   5.535   4.762   0.831
 3067SOL     OW10099   3.480   2.099   4.311
 3067SOL    HW110100   3.535   2.019   4.286
 3067SOL    HW210101   3.482   2.111   4.411
 3068SOL     OW10102   5.412   5.873   0.518
 3068SOL    HW110103   5.483   5.940   0.494
 3068SOL    HW210104   5.361   5.906   0.597
 3069SOL     OW10105   6.761   6.020   2.241
 3069SOL    HW110106   6.703   6.100   2.230
 3069SOL    HW210107   6.854   6.042   2.210
 3070SOL     OW10108   1.670   1.218   2.585
 3070SOL    HW110109   1.695   1.199   2.680
 3070SOL    HW210110   1.740   1.183   2.524
 3071SOL     OW10111   5.478   6.441   3.412
 3071SOL    HW110112   5.493   6.538   3.394
 3071SOL    HW210113   5.511   6.419   3.504
 3072SOL     OW10114   0.898   6.301   0.576
 3072SOL    HW110115   0.935   6.391   0.556
 3072SOL    HW210116   0.957   6.255   0.643
 3073SOL     OW10117   0.966   3.417   5.275
 3073SOL    HW110118   0.924   3.339   5.322
 3073SOL    HW210119   0.933   3.421   5.181
 3074SOL     OW10120   5.860   2.715   1.027
 3074SOL    HW110121   5.780   2.665   0.993
 3074SOL    HW210122   5.869   2.801   0.977
 3075SOL     OW10123   1.831   6.527   1.268
 3075SOL    HW110124   1.811   6.463   1.194
 3075SOL    HW210125   1.927   6.555   1.264
 3076SOL     OW10126   6.764   1.505   4.569
 3076SOL    HW110127   6.787   1.440   4.641
 3076SOL    HW210128   6.822   1.586   4.576
 3077SOL     OW10129   5.066   5.119   2.582
 3077SOL    HW110130   5.074   5.020   2.592
 3077SOL    HW210131   5.133   5.152   2.516
 3078SOL     OW10132   1.929   3.503   1.074
 3078SOL    HW110133   1.904   3.424   1.130
 3078SOL    HW210134   1.848   3.539   1.028
 3079SOL     OW10135   2.193   2.560   4.521
 3079SOL    HW110136   2.279   2.611   4.522
 3079SOL    HW210137   2.201   2.480   4.581
 3080SOL     OW10138   5.348   4.612   3.136
 3080SOL    HW110139   5.274   4.550   3.109
 3080SOL    HW210140   5.329   4.649   3.228
 3081SOL     OW10141   0.446   3.881   6.150
 3081SOL    HW110142   0.353   3.850   6.130
 3081SOL    HW210143   0.504   3.866   6.070
 3082SOL     OW10144   3.559   6.287   3.439
 3082SOL    HW110145   3.540   6.372   3.390
 3082SOL    HW210146   3.589   6.307   3.532
 3083SOL     OW10147   3.773   6.562   3.566
 3083SOL    HW110148   3.841   6.501   3.527
 3083SOL    HW210149   3.716   6.512   3.631
 3084SOL     OW10150   4.720   4.753   4.315
 3084SOL    HW110151   4.669   4.712   4.391
 3084SOL    HW210152   4.689   4.847   4.302
 3085SOL     OW10153   0.684   4.826   2.521
 3085SOL    HW110154   0.696   4.898   2.452
 3085SOL    HW210155   0.743   4.844   2.599
 3086SOL     OW10156   4.319   1.545   1.891
 3086SOL    HW110157   4.311   1.578   1.985
 3086SOL    HW210158   4.264   1.462   1.880
 3087SOL     OW10159   0.711   5.122   3.830
 3087SOL    HW110160   0.776   5.165   3.893
 3087SOL    HW210161   0.701   5.179   3.749
 3088SOL     OW10162   2.494   5.133   5.687
 3088SOL    HW110163   2.549   5.193   5.745
 3088SOL    HW210164   2.449   5.064   5.744
 3089SOL     OW10165   0.865   2.717   0.571
 3089SOL    HW110166   0.777   2.750   0.536
 3089SOL    HW210167   0.852   2.682   0.664
 3090SOL     OW10168   2.017   1.954   1.736
 3090SOL    HW110169   2.023   2.032   1.673
 3090SOL    HW210170   1.953   1.975   1.810
 3091SOL     OW10171   2.247   6.314   0.166
 3091SOL    HW110172   2.175   6.379   0.187
 3091SOL    HW210173   2.258   6.250   0.242
 3092SOL     OW10174   4.740   0.098   6.908
 3092SOL    HW110175   4.815   0.031   6.913
 3092SOL    HW210176   4.659   0.054   6.871
 3093SOL     OW10177   5.183   4.865   5.947
 3093SOL    HW110178   5.137   4.859   5.858
 3093SOL    HW210179   5.267   4.811   5.945
 3094SOL     OW10180   3.667   6.644   4.662
 3094SOL    HW110181   3.581   6.641   4.610
 3094SOL    HW210182   3.691   6.551   4.691
 3095SOL     OW10183   2.735   4.962   4.109
 3095SOL    HW110184   2.824   4.956   4.064
 3095SOL    HW210185   2.737   4.907   4.193
 3096SOL     OW10186   0.679   0.246   4.671
 3096SOL    HW110187   0.682   0.254   4.571
 3096SOL    HW210188   0.718   0.158   4.698
 3097SOL     OW10189   0.510   2.414   0.941
 3097SOL    HW110190   0.508   2.333   0.999
 3097SOL    HW210191   0.584   2.405   0.874
 3098SOL     OW10192   2.408   3.564   1.056
 3098SOL    HW110193   2.318   3.543   1.093
 3098SOL    HW210194   2.466   3.603   1.128
 3099SOL     OW10195   0.108   5.558   4.955
 3099SOL    HW110196   0.173   5.623   4.916
 3099SOL    HW210197   0.085   5.489   4.887
 3100SOL     OW10198   6.550   0.313   4.503
 3100SOL    HW110199   6.595   0.224   4.497
 3100SOL    HW210200   6.604   0.381   4.454
 3101SOL     OW10201   5.137   6.023   5.532
 3101SOL    HW110202   5.107   6.039   5.438
 3101SOL    HW210203   5.067   6.056   5.595
 3102SOL     OW10204   0.663   4.897   2.839
 3102SOL    HW110205   0.566   4.916   2.824
 3102SOL    HW210206   0.672   4.811   2.890
 3103SOL     OW10207   3.202   1.475   1.400
 3103SOL    HW110208   3.177   1.398   1.341
 3103SOL    HW210209   3.120   1.507   1.448
 3104SOL     OW10210   6.152   6.862   4.702
 3104SOL    HW110211   6.151   6.874   4.802
 3104SOL    HW210212   6.176   6.949   4.659
 3105SOL     OW10213   6.864   4.926   2.757
 3105SOL    HW110214   6.812   4.857   2.808
 3105SOL    HW210215   6.888   4.890   2.667
 3106SOL     OW10216   6.892   1.352   3.077
 3106SOL    HW110217   6.975   1.356   3.021
 3106SOL    HW210218   6.880   1.259   3.111
 3107SOL     OW10219   3.512   0.767   4.033
 3107SOL    HW110220   3.476   0.794   4.122
 3107SOL    HW210221   3.581   0.695   4.045
 3108SOL     OW10222   1.536   0.620   4.084
 3108SOL    HW110223   1.634   0.602   4.081
 3108SOL    HW210224   1.520   0.716   4.110
 3109SOL     OW10225   5.457   5.644   3.046
 3109SOL    HW110226   5.383   5.692   3.093
 3109SOL    HW210227   5.532   5.627   3.110
 3110SOL     OW10228   0.762   2.052   3.792
 3110SOL    HW110229   0.840   2.092   3.743
 3110SOL    HW210230   0.692   2.026   3.726
 3111SOL     OW10231   6.405   6.148   4.034
 3111SOL    HW110232   6.439   6.158   3.941
 3111SOL    HW210233   6.313   6.108   4.032
 3112SOL     OW10234   5.012   3.027   6.062
 3112SOL    HW110235   5.105   3.014   6.096
 3112SOL    HW210236   4.993   2.961   5.989
 3113SOL     OW10237   2.074   0.036   4.385
 3113SOL    HW110238   2.071   7.021   4.476
 3113SOL    HW210239   2.014   0.115   4.381
 3114SOL     OW10240   4.892   3.015   6.978
 3114SOL    HW110241   4.905   2.987   0.049
 3114SOL    HW210242   4.795   3.030   6.960
 3115SOL     OW10243   4.825   3.512   0.203
 3115SOL    HW110244   4.742   3.483   0.250
 3115SOL    HW210245   4.904   3.467   0.244
 3116SOL     OW10246   6.920   3.790   0.175
 3116SOL    HW110247   6.851   3.728   0.212
 3116SOL    HW210248   6.898   3.884   0.202
 3117SOL     OW10249   4.446   3.428   5.331
 3117SOL    HW110250   4.501   3.368   5.389
 3117SOL    HW210251   4.506   3.487   5.278
 3118SOL     OW10252   0.497   4.749   6.960
 3118SOL    HW110253   0.467   4.775   6.868
 3118SOL    HW210254   0.419   4.714   7.012
 3119SOL     OW10255   1.795   3.817   5.982
 3119SOL    HW110256   1.835   3.909   5.979
 3119SOL    HW210257   1.724   3.814   6.053
 3120SOL     OW10258   2.298   6.713   4.125
 3120SOL    HW110259   2.290   6.784   4.195
 3120SOL    HW210260   2.226   6.645   4.137
 3121SOL     OW10261   0.673   1.817   2.448
 3121SOL    HW110262   0.714   1.840   2.536
 3121SOL    HW210263   0.726   1.743   2.405
 3122SOL     OW10264   3.076   5.858   5.876
 3122SOL    HW110265   3.036   5.944   5.844
 3122SOL    HW210266   3.174   5.870   5.889
 3123SOL     OW10267   3.333   6.682   3.565
 3123SOL    HW110268   3.344   6.737   3.648
 3123SOL    HW210269   3.244   6.637   3.567
 3124SOL     OW10270   4.108   0.152   4.791
 3124SOL    HW110271   4.010   0.133   4.797
 3124SOL    HW210272   4.122   0.243   4.751
 3125SOL     OW10273   6.095   1.919   6.290
 3125SOL    HW110274   6.100   1.943   6.387
 3125SOL    HW210275   6.095   2.003   6.234
 3126SOL     OW10276   4.852   4.476   6.881
 3126SOL    HW110277   4.933   4.507   6.931
 3126SOL    HW210278   4.867   4.382   6.849
 3127SOL     OW10279   1.002   2.349   3.025
 3127SOL    HW110280   0.970   2.418   2.961
 3127SOL    HW210281   0.924   2.297   3.060
 3128SOL     OW10282   2.217   6.935   6.698
 3128SOL    HW110283   2.287   6.994   6.657
 3128SOL    HW210284   2.239   6.840   6.678
 3129SOL     OW10285   1.601   4.455   6.564
 3129SOL    HW110286   1.626   4.411   6.650
 3129SOL    HW210287   1.668   4.432   6.494
 3130SOL     OW10288   2.336   4.229   2.450
 3130SOL    HW110289   2.341   4.206   2.353
 3130SOL    HW210290   2.367   4.151   2.505
 3131SOL     OW10291   0.854   2.589   1.553
 3131SOL    HW110292   0.819   2.638   1.474
 3131SOL    HW210293   0.833   2.492   1.544
 3132SOL     OW10294   5.018   5.727   5.777
 3132SOL    HW110295   4.956   5.707   5.853
 3132SOL    HW210296   5.094   5.662   5.779
 3133SOL     OW10297   2.608   2.337   3.822
 3133SOL    HW110298   2.560   2.269   3.878
 3133SOL    HW210299   2.704   2.310   3.812
 3134SOL     OW10300   5.305   4.249   1.792
 3134SOL    HW110301   5.251   4.316   1.742
 3134SOL    HW210302   5.251   4.211   1.867
 3135SOL     OW10303   4.494   1.728   4.935
 3135SOL    HW110304   4.459   1.758   4.846
 3135SOL    HW210305   4.581   1.681   4.923
 3136SOL     OW10306   6.190   6.842   6.178
 3136SOL    HW110307   6.164   6.810   6.087
 3136SOL    HW210308   6.132   6.919   6.204
 3137SOL     OW10309   5.237   0.499   3.610
 3137SOL    HW110310   5.151   0.550   3.611
 3137SOL    HW210311   5.258   0.466   3.702
 3138SOL     OW10312   6.611   1.981   4.111
 3138SOL    HW110313   6.676   2.048   4.076
 3138SOL    HW210314   6.660   1.901   4.144
 3139SOL     OW10315   4.633   0.039   6.206
 3139SOL    HW110316   4.615   7.001   6.131
 3139SOL    HW210317   4.548   0.062   6.252
 3140SOL     OW10318   6.177   6.509   6.381
 3140SOL    HW110319   6.198   6.604   6.405
 3140SOL    HW210320   6.247   6.473   6.320
 3141SOL     OW10321   0.474   6.977   6.195
 3141SOL    HW110322   0.546   0.018   6.171
 3141SOL    HW210323   0.442   6.930   6.113
 3142SOL     OW10324   4.950   5.921   1.101
 3142SOL    HW110325   4.905   5.832   1.111
 3142SOL    HW210326   4.909   5.970   1.024
 3143SOL     OW10327   6.923   2.348   7.015
 3143SOL    HW110328   6.901   2.308   6.926
 3143SOL    HW210329   6.840   2.351   0.047
 3144SOL     OW10330   2.633   3.819   0.862
 3144SOL    HW110331   2.616   3.727   0.826
 3144SOL    HW210332   2.637   3.815   0.961
 3145SOL     OW10333   2.372   5.306   2.796
 3145SOL    HW110334   2.373   5.249   2.879
 3145SOL    HW210335   2.432   5.385   2.809
 3146SOL     OW10336   1.428   6.996   3.131
 3146SOL    HW110337   1.354   0.038   3.124
 3146SOL    HW210338   1.398   6.918   3.186
 3147SOL     OW10339   4.331   5.448   6.332
 3147SOL    HW110340   4.311   5.440   6.235
 3147SOL    HW210341   4.401   5.518   6.346
 3148SOL     OW10342   4.403   5.422   4.486
 3148SOL    HW110343   4.388   5.331   4.525
 3148SOL    HW210344   4.476   5.467   4.537
 3149SOL     OW10345   3.332   0.293   5.223
 3149SOL    HW110346   3.303   0.294   5.128
 3149SOL    HW210347   3.252   0.305   5.283
 3150SOL     OW10348   5.269   5.212   4.038
 3150SOL    HW110349   5.187   5.234   4.091
 3150SOL    HW210350   5.242   5.175   3.949
 3151SOL     OW10351   4.469   1.049   6.816
 3151SOL    HW110352   4.387   0.996   6.840
 3151SOL    HW210353   4.464   1.139   6.860
 3152SOL     OW10354   1.246   5.260   1.800
 3152SOL    HW110355   1.296   5.332   1.848
 3152SOL    HW210356   1.291   5.172   1.815
 3153SOL     OW10357   6.536   4.129   2.032
 3153SOL    HW110358   6.612   4.111   1.969
 3153SOL    HW210359   6.568   4.120   2.126
 3154SOL     OW10360   6.045   1.709   0.400
 3154SOL    HW110361   6.095   1.641   0.453
 3154SOL    HW210362   5.998   1.771   0.461
 3155SOL     OW10363   0.015   5.322   1.606
 3155SOL    HW110364   0.022   5.291   1.511
 3155SOL    HW210365   6.980   5.403   1.610
 3156SOL     OW10366   3.654   3.329   3.683
 3156SOL    HW110367   3.583   3.265   3.711
 3156SOL    HW210368   3.741   3.302   3.722
 3157SOL     OW10369   1.964   3.023   4.838
 3157SOL    HW110370   1.992   2.927   4.848
 3157SOL    HW210371   2.020   3.080   4.897
 3158SOL     OW10372   4.475   0.392   1.180
 3158SOL    HW110373   4.485   0.340   1.096
 3158SOL    HW210374   4.523   0.479   1.171
 3159SOL     OW10375   5.134   0.152   6.800
 3159SOL    HW110376   5.094   0.061   6.799
 3159SOL    HW210377   5.064   0.219   6.773
 3160SOL     OW10378   6.444   5.666   5.757
 3160SOL    HW110379   6.498   5.604   5.699
 3160SOL    HW210380   6.369   5.616   5.798
 3161SOL     OW10381   1.215   1.341   2.070
 3161SOL    HW110382   1.268   1.390   2.140
 3161SOL    HW210383   1.274   1.274   2.024
 3162SOL     OW10384   0.303   5.078   7.021
 3162SOL    HW110385   0.277   4.983   0.016
 3162SOL    HW210386   0.388   5.099   0.044
 3163SOL     OW10387   3.663   2.599   6.372
 3163SOL    HW110388   3.582   2.624   6.425
 3163SOL    HW210389   3.722   2.541   6.428
 3164SOL     OW10390   4.372   3.764   1.624
 3164SOL    HW110391   4.394   3.792   1.531
 3164SOL    HW210392   4.336   3.842   1.675
 3165SOL     OW10393   1.594   6.301   1.703
 3165SOL    HW110394   1.680   6.302   1.753
 3165SOL    HW210395   1.597   6.367   1.629
 3166SOL     OW10396   4.547   2.507   6.424
 3166SOL    HW110397   4.625   2.558   6.461
 3166SOL    HW210398   4.495   2.566   6.362
 3167SOL     OW10399   6.777   4.985   2.028
 3167SOL    HW110400   6.727   4.899   2.014
 3167SOL    HW210401   6.836   4.976   2.108
 3168SOL     OW10402   4.960   2.710   0.320
 3168SOL    HW110403   4.872   2.695   0.275
 3168SOL    HW210404   4.957   2.673   0.413
 3169SOL     OW10405   0.550   3.418   5.993
 3169SOL    HW110406   0.633   3.426   5.937
 3169SOL    HW210407   0.548   3.493   6.060
 3170SOL     OW10408   4.051   0.033   0.156
 3170SOL    HW110409   3.958   0.014   0.127
 3170SOL    HW210410   4.054   0.049   0.254
 3171SOL     OW10411   6.960   6.581   1.277
 3171SOL    HW110412   6.959   6.578   1.377
 3171SOL    HW210413   0.029   6.572   1.244
 3172SOL     OW10414   0.176   6.022   4.597
 3172SOL    HW110415   0.169   5.923   4.594
 3172SOL    HW210416   0.268   6.050   4.571
 3173SOL     OW10417   2.948   1.101   1.558
 3173SOL    HW110418   2.961   1.002   1.566
 3173SOL    HW210419   2.983   1.146   1.641
 3174SOL     OW10420   2.447   2.816   6.618
 3174SOL    HW110421   2.374   2.879   6.592
 3174SOL    HW210422   2.526   2.868   6.649
 3175SOL     OW10423   0.405   6.575   6.543
 3175SOL    HW110424   0.379   6.554   6.448
 3175SOL    HW210425   0.501   6.602   6.546
 3176SOL     OW10426   1.866   4.799   5.233
 3176SOL    HW110427   1.913   4.886   5.250
 3176SOL    HW210428   1.769   4.810   5.250
 3177SOL     OW10429   5.678   5.531   5.257
 3177SOL    HW110430   5.685   5.467   5.333
 3177SOL    HW210431   5.720   5.618   5.283
 3178SOL     OW10432   6.741   3.654   1.494
 3178SOL    HW110433   6.687   3.642   1.411
 3178SOL    HW210434   6.818   3.715   1.475
 3179SOL     OW10435   2.212   2.219   1.949
 3179SOL    HW110436   2.284   2.220   1.880
 3179SOL    HW210437   2.233   2.149   2.018
 3180SOL     OW10438   4.001   0.542   6.306
 3180SOL    HW110439   3.939   0.563   6.231
 3180SOL    HW210440   4.086   0.594   6.295
 3181SOL     OW10441   0.459   0.444   3.632
 3181SOL    HW110442   0.436   0.454   3.535
 3181SOL    HW210443   0.529   0.373   3.642
 3182SOL     OW10444   0.814   0.640   5.546
 3182SOL    HW110445   0.727   0.589   5.550
 3182SOL    HW210446   0.850   0.636   5.453
 3183SOL     OW10447   4.077   4.328   1.552
 3183SOL    HW110448   4.053   4.335   1.455
 3183SOL    HW210449   4.174   4.305   1.560
 3184SOL     OW10450   2.852   1.904   2.273
 3184SOL    HW110451   2.933   1.894   2.331
 3184SOL    HW210452   2.779   1.948   2.324
 3185SOL     OW10453   6.354   0.554   6.024
 3185SOL    HW110454   6.367   0.457   6.004
 3185SOL    HW210455   6.348   0.606   5.939
 3186SOL     OW10456   2.964   1.411   3.369
 3186SOL    HW110457   2.934   1.462   3.450
 3186SOL    HW210458   2.964   1.313   3.389
 3187SOL     OW10459   3.751   4.326   6.951
 3187SOL    HW110460   3.664   4.290   6.917
 3187SOL    HW210461   3.803   4.363   6.874
 3188SOL     OW10462   3.642   6.192   3.187
 3188SOL    HW110463   3.635   6.260   3.114
 3188SOL    HW210464   3.607   6.231   3.272
 3189SOL     OW10465   2.524   1.210   3.311
 3189SOL    HW110466   2.615   1.237   3.340
 3189SOL    HW210467   2.479   1.161   3.385
 3190SOL     OW10468   0.984   6.421   1.314
 3190SOL    HW110469   1.004   6.369   1.397
 3190SOL    HW210470   0.981   6.359   1.235
 3191SOL     OW10471   3.496   0.522   1.338
 3191SOL    HW110472   3.545   0.585   1.277
 3191SOL    HW210473   3.410   0.564   1.367
 3192SOL     OW10474   0.630   1.940   1.285
 3192SOL    HW110475   0.708   1.889   1.249
 3192SOL    HW210476   0.610   2.017   1.224
 3193SOL     OW10477   4.507   2.767   5.945
 3193SOL    HW110478   4.428   2.715   5.914
 3193SOL    HW210479   4.589   2.710   5.938
 3194SOL     OW10480   1.069   2.856   6.731
 3194SOL    HW110481   1.035   2.852   6.638
 3194SOL    HW210482   1.110   2.945   6.748
 3195SOL     OW10483   1.656   2.581   3.324
 3195SOL    HW110484   1.732   2.643   3.305
 3195SOL    HW210485   1.569   2.630   3.313
 3196SOL     OW10486   6.589   0.380   5.292
 3196SOL    HW110487   6.628   0.293   5.322
 3196SOL    HW210488   6.572   0.376   5.193
 3197SOL     OW10489   1.398   5.688   3.051
 3197SOL    HW110490   1.483   5.694   3.103
 3197SOL    HW210491   1.327   5.742   3.097
 3198SOL     OW10492   6.620   1.898   6.799
 3198SOL    HW110493   6.578   1.988   6.810
 3198SOL    HW210494   6.705   1.907   6.747
 3199SOL     OW10495   4.782   2.348   1.585
 3199SOL    HW110496   4.738   2.362   1.673
 3199SOL    HW210497   4.762   2.425   1.524
 3200SOL     OW10498   0.186   2.764   1.054
 3200SOL    HW110499   0.217   2.843   1.001
 3200SOL    HW210500   0.257   2.739   1.119
 3201SOL     OW10501   5.102   3.480   4.015
 3201SOL    HW110502   5.091   3.478   3.916
 3201SOL    HW210503   5.051   3.557   4.053
 3202SOL     OW10504   1.914   4.337   2.298
 3202SOL    HW110505   1.985   4.321   2.367
 3202SOL    HW210506   1.838   4.275   2.315
 3203SOL     OW10507   5.924   0.792   0.705
 3203SOL    HW110508   5.906   0.891   0.706
 3203SOL    HW210509   5.994   0.770   0.772
 3204SOL     OW10510   5.637   5.711   1.513
 3204SOL    HW110511   5.545   5.703   1.474
 3204SOL    HW210512   5.700   5.744   1.443
 3205SOL     OW10513   6.949   4.528   6.925
 3205SOL    HW110514   7.013   4.579   6.983
 3205SOL    HW210515   6.993   4.445   6.892
 3206SOL     OW10516   0.122   0.266   5.620
 3206SOL    HW110517   0.141   0.304   5.711
 3206SOL    HW210518   0.201   0.280   5.561
 3207SOL     OW10519   0.431   1.140   5.486
 3207SOL    HW110520   0.382   1.054   5.499
 3207SOL    HW210521   0.369   1.209   5.449
 3208SOL     OW10522   4.380   6.066   4.934
 3208SOL    HW110523   4.393   6.045   5.031
 3208SOL    HW210524   4.466   6.053   4.885
 3209SOL     OW10525   3.344   6.848   3.789
 3209SOL    HW110526   3.302   6.840   3.879
 3209SOL    HW210527   3.440   6.821   3.794
 3210SOL     OW10528   0.439   3.482   2.538
 3210SOL    HW110529   0.409   3.389   2.561
 3210SOL    HW210530   0.510   3.510   2.603
 3211SOL     OW10531   2.086   4.221   0.674
 3211SOL    HW110532   2.078   4.138   0.729
 3211SOL    HW210533   2.100   4.300   0.734
 3212SOL     OW10534   4.127   1.782   6.627
 3212SOL    HW110535   4.046   1.817   6.579
 3212SOL    HW210536   4.110   1.688   6.658
 3213SOL     OW10537   6.249   4.921   2.827
 3213SOL    HW110538   6.334   4.950   2.871
 3213SOL    HW210539   6.267   4.896   2.732
 3214SOL     OW10540   4.716   6.130   0.179
 3214SOL    HW110541   4.737   6.216   0.131
 3214SOL    HW210542   4.690   6.151   0.273
 3215SOL     OW10543   6.512   2.824   0.694
 3215SOL    HW110544   6.603   2.785   0.692
 3215SOL    HW210545   6.474   2.818   0.786
 3216SOL     OW10546   5.689   6.003   3.107
 3216SOL    HW110547   5.707   6.000   3.009
 3216SOL    HW210548   5.693   5.910   3.145
 3217SOL     OW10549   1.370   4.504   3.608
 3217SOL    HW110550   1.444   4.437   3.607
 3217SOL    HW210551   1.291   4.468   3.558
 3218SOL     OW10552   4.057   6.972   3.162
 3218SOL    HW110553   4.131   0.012   3.184
 3218SOL    HW210554   3.993   7.016   3.099
 3219SOL     OW10555   0.088   0.659   3.469
 3219SOL    HW110556   0.004   0.637   3.420
 3219SOL    HW210557   0.127   0.743   3.433
 3220SOL     OW10558   7.005   4.630   5.083
 3220SOL    HW110559   6.955   4.716   5.089
 3220SOL    HW210560   6.965   4.563   5.145
 3221SOL     OW10561   2.514   5.995   2.446
 3221SOL    HW110562   2.433   6.047   2.474
 3221SOL    HW210563   2.577   6.056   2.396
 3222SOL     OW10564   4.891   1.828   2.898
 3222SOL    HW110565   4.874   1.776   2.982
 3222SOL    HW210566   4.883   1.925   2.917
 3223SOL     OW10567   3.189   5.123   6.840
 3223SOL    HW110568   3.150   5.195   6.783
 3223SOL    HW210569   3.209   5.042   6.784
 3224SOL     OW10570   4.707   5.287   6.235
 3224SOL    HW110571   4.656   5.294   6.321
 3224SOL    HW210572   4.678   5.205   6.185
 3225SOL     OW10573   4.610   3.101   6.422
 3225SOL    HW110574   4.648   3.111   6.330
 3225SOL    HW210575   4.528   3.044   6.418
 3226SOL     OW10576   2.248   0.948   4.264
 3226SOL    HW110577   2.242   0.858   4.219
 3226SOL    HW210578   2.313   0.943   4.340
 3227SOL     OW10579   3.093   2.201   6.759
 3227SOL    HW110580   3.188   2.231   6.768
 3227SOL    HW210581   3.063   2.214   6.664
 3228SOL     OW10582   5.729   3.176   3.883
 3228SOL    HW110583   5.745   3.087   3.840
 3228SOL    HW210584   5.749   3.249   3.817
 3229SOL     OW10585   3.509   1.893   5.610
 3229SOL    HW110586   3.591   1.856   5.566
 3229SOL    HW210587   3.496   1.988   5.580
 3230SOL     OW10588   0.506   1.632   3.348
 3230SOL    HW110589   0.447   1.687   3.288
 3230SOL    HW210590   0.488   1.656   3.443
 3231SOL     OW10591   4.928   5.816   1.533
 3231SOL    HW110592   4.907   5.718   1.534
 3231SOL    HW210593   4.861   5.865   1.588
 3232SOL     OW10594   4.208   5.053   5.133
 3232SOL    HW110595   4.207   5.019   5.227
 3232SOL    HW210596   4.119   5.093   5.111
 3233SOL     OW10597   0.799   3.982   1.223
 3233SOL    HW110598   0.897   3.979   1.238
 3233SOL    HW210599   0.770   4.077   1.208
 3234SOL     OW10600   7.009   2.173   0.221
 3234SOL    HW110601   6.987   2.250   0.161
 3234SOL    HW210602   6.929   2.112   0.229
 3235SOL     OW10603   5.826   6.511   2.781
 3235SOL    HW110604   5.792   6.581   2.719
 3235SOL    HW210605   5.752   6.478   2.839
 3236SOL     OW10606   1.847   3.016   1.953
 3236SOL    HW110607   1.897   3.100   1.977
 3236SOL    HW210608   1.750   3.029   1.974
 3237SOL     OW10609   4.771   6.862   4.657
 3237SOL    HW110610   4.832   6.796   4.614
 3237SOL    HW210611   4.824   6.939   4.693
 3238SOL     OW10612   0.565   5.896   6.822
 3238SOL    HW110613   0.498   5.829   6.854
 3238SOL    HW210614   0.655   5.852   6.816
 3239SOL     OW10615   6.038   0.850   6.695
 3239SOL    HW110616   6.074   0.852   6.602
 3239SOL    HW210617   5.972   0.924   6.707
 3240SOL     OW10618   0.291   6.814   4.555
 3240SOL    HW110619   0.217   6.752   4.527
 3240SOL    HW210620   0.265   6.908   4.532
 3241SOL     OW10621   4.700   1.161   4.351
 3241SOL    HW110622   4.746   1.248   4.331
 3241SOL    HW210623   4.768   1.088   4.350
 3242SOL     OW10624   3.795   5.292   0.210
 3242SOL    HW110625   3.767   5.332   0.123
 3242SOL    HW210626   3.894   5.280   0.211
 3243SOL     OW10627   5.003   4.874   6.857
 3243SOL    HW110628   4.926   4.933   6.834
 3243SOL    HW210629   5.048   4.843   6.773
 3244SOL     OW10630   4.978   6.005   5.974
 3244SOL    HW110631   4.979   5.905   5.970
 3244SOL    HW210632   5.004   6.035   6.066
 3245SOL     OW10633   4.229   3.087   6.137
 3245SOL    HW110634   4.129   3.090   6.136
 3245SOL    HW210635   4.261   3.055   6.227
 3246SOL     OW10636   5.335   0.201   2.545
 3246SOL    HW110637   5.390   0.152   2.478
 3246SOL    HW210638   5.395   0.250   2.609
 3247SOL     OW10639   0.203   3.904   3.332
 3247SOL    HW110640   0.279   3.844   3.305
 3247SOL    HW210641   0.182   3.889   3.428
 3248SOL     OW10642   6.200   3.879   2.233
 3248SOL    HW110643   6.200   3.780   2.219
 3248SOL    HW210644   6.106   3.911   2.245
 3249SOL     OW10645   3.696   4.693   5.369
 3249SOL    HW110646   3.754   4.612   5.365
 3249SOL    HW210647   3.745   4.771   5.330
 3250SOL     OW10648   5.330   6.758   2.613
 3250SOL    HW110649   5.288   6.839   2.652
 3250SOL    HW210650   5.369   6.702   2.687
 3251SOL     OW10651   3.793   1.640   3.121
 3251SOL    HW110652   3.766   1.597   3.206
 3251SOL    HW210653   3.877   1.693   3.136
 3252SOL     OW10654   3.577   1.105   2.927
 3252SOL    HW110655   3.588   1.197   2.890
 3252SOL    HW210656   3.510   1.054   2.872
 3253SOL     OW10657   4.654   2.977   1.399
 3253SOL    HW110658   4.659   3.077   1.396
 3253SOL    HW210659   4.583   2.945   1.337
 3254SOL     OW10660   3.707   4.917   3.902
 3254SOL    HW110661   3.680   5.013   3.895
 3254SOL    HW210662   3.713   4.877   3.811
 3255SOL     OW10663   4.696   5.344   0.451
 3255SOL    HW110664   4.790   5.311   0.439
 3255SOL    HW210665   4.689   5.393   0.538
 3256SOL     OW10666   5.568   6.526   5.934
 3256SOL    HW110667   5.608   6.616   5.952
 3256SOL    HW210668   5.642   6.461   5.914
 3257SOL     OW10669   1.549   1.926   0.522
 3257SOL    HW110670   1.556   1.918   0.622
 3257SOL    HW210671   1.610   1.860   0.479
 3258SOL     OW10672   4.990   6.742   1.680
 3258SOL    HW110673   5.056   6.754   1.754
 3258SOL    HW210674   4.998   6.817   1.615
 3259SOL     OW10675   4.475   6.069   4.404
 3259SOL    HW110676   4.434   6.086   4.315
 3259SOL    HW210677   4.462   5.974   4.430
 3260SOL     OW10678   1.715   1.271   0.522
 3260SOL    HW110679   1.787   1.202   0.532
 3260SOL    HW210680   1.633   1.228   0.483
 3261SOL     OW10681   4.005   0.052   0.903
 3261SOL    HW110682   3.945   0.034   0.825
 3261SOL    HW210683   4.047   6.991   0.933
 3262SOL     OW10684   3.417   1.796   3.515
 3262SOL    HW110685   3.453   1.876   3.563
 3262SOL    HW210686   3.470   1.781   3.431
 3263SOL     OW10687   4.527   6.621   3.271
 3263SOL    HW110688   4.560   6.715   3.287
 3263SOL    HW210689   4.431   6.624   3.244
 3264SOL     OW10690   6.997   5.467   6.998
 3264SOL    HW110691   7.006   5.460   0.073
 3264SOL    HW210692   0.045   5.415   6.954
 3265SOL     OW10693   3.864   2.444   6.551
 3265SOL    HW110694   3.879   2.377   6.478
 3265SOL    HW210695   3.836   2.397   6.635
 3266SOL     OW10696   6.783   2.648   7.004
 3266SOL    HW110697   6.824   2.600   0.057
 3266SOL    HW210698   6.721   2.719   0.013
 3267SOL     OW10699   3.427   2.135   1.401
 3267SOL    HW110700   3.374   2.183   1.331
 3267SOL    HW210701   3.367   2.073   1.451
 3268SOL     OW10702   1.254   4.233   0.252
 3268SOL    HW110703   1.191   4.311   0.252
 3268SOL    HW210704   1.330   4.252   0.314
 3269SOL     OW10705   4.908   4.846   1.402
 3269SOL    HW110706   4.892   4.757   1.443
 3269SOL    HW210707   4.945   4.834   1.310
 3270SOL     OW10708   0.501   5.271   3.616
 3270SOL    HW110709   0.580   5.317   3.575
 3270SOL    HW210710   0.454   5.335   3.678
 3271SOL     OW10711   5.515   2.349   2.324
 3271SOL    HW110712   5.417   2.327   2.317
 3271SOL    HW210713   5.535   2.382   2.416
 3272SOL     OW10714   3.737   7.018   0.090
 3272SOL    HW110715   3.677   6.938   0.095
 3272SOL    HW210716   3.691   0.073   0.131
 3273SOL     OW10717   1.311   6.265   2.102
 3273SOL    HW110718   1.341   6.295   2.192
 3273SOL    HW210719   1.313   6.165   2.098
 3274SOL     OW10720   3.184   2.061   5.732
 3274SOL    HW110721   3.246   2.068   5.810
 3274SOL    HW210722   3.216   1.989   5.670
 3275SOL     OW10723   2.174   0.362   6.846
 3275SOL    HW110724   2.112   0.393   6.775
 3275SOL    HW210725   2.122   0.323   6.922
 3276SOL     OW10726   3.387   5.456   6.751
 3276SOL    HW110727   3.460   5.392   6.727
 3276SOL    HW210728   3.347   5.430   6.839
 3277SOL     OW10729   6.661   6.560   6.090
 3277SOL    HW110730   6.652   6.499   6.012
 3277SOL    HW210731   6.651   6.655   6.060
 3278SOL     OW10732   0.748   1.006   5.183
 3278SOL    HW110733   0.652   1.034   5.179
 3278SOL    HW210734   0.796   1.061   5.251
 3279SOL     OW10735   0.183   0.115   1.056
 3279SOL    HW110736   0.124   0.037   1.034
 3279SOL    HW210737   0.126   0.195   1.076
 3280SOL     OW10738   2.726   5.041   6.609
 3280SOL    HW110739   2.777   4.955   6.606
 3280SOL    HW210740   2.759   5.101   6.535
 3281SOL     OW10741   1.936   5.229   0.728
 3281SOL    HW110742   2.007   5.256   0.794
 3281SOL    HW210743   1.884   5.153   0.766
 3282SOL     OW10744   2.725   6.154   4.714
 3282SOL    HW110745   2.789   6.128   4.641
 3282SOL    HW210746   2.649   6.206   4.676
 3283SOL     OW10747   3.216   1.906   3.369
 3283SOL    HW110748   3.270   1.858   3.438
 3283SOL    HW210749   3.126   1.927   3.408
 3284SOL     OW10750   0.279   6.253   6.493
 3284SOL    HW110751   0.289   6.253   6.593
 3284SOL    HW210752   0.191   6.292   6.468
 3285SOL     OW10753   0.217   3.013   2.751
 3285SOL    HW110754   0.132   3.049   2.790
 3285SOL    HW210755   0.266   2.961   2.820
 3286SOL     OW10756   3.904   3.494   4.060
 3286SOL    HW110757   3.998   3.524   4.042
 3286SOL    HW210758   3.882   3.512   4.156
 3287SOL     OW10759   1.644   5.819   7.015
 3287SOL    HW110760   1.602   5.744   6.963
 3287SOL    HW210761   1.587   5.840   0.070
 3288SOL     OW10762   0.791   6.322   6.508
 3288SOL    HW110763   0.787   6.338   6.606
 3288SOL    HW210764   0.767   6.406   6.459
 3289SOL     OW10765   1.093   5.814   5.471
 3289SOL    HW110766   1.158   5.775   5.536
 3289SOL    HW210767   1.042   5.888   5.516
 3290SOL     OW10768   0.151   6.229   1.779
 3290SOL    HW110769   0.138   6.136   1.813
 3290SOL    HW210770   0.073   6.255   1.723
 3291SOL     OW10771   1.921   6.217   6.454
 3291SOL    HW110772   1.978   6.299   6.442
 3291SOL    HW210773   1.977   6.135   6.438
 3292SOL     OW10774   0.540   0.703   6.754
 3292SOL    HW110775   0.616   0.725   6.692
 3292SOL    HW210776   0.521   0.604   6.750
 3293SOL     OW10777   0.403   1.370   3.287
 3293SOL    HW110778   0.333   1.403   3.224
 3293SOL    HW210779   0.461   1.446   3.316
 3294SOL     OW10780   6.641   0.752   6.410
 3294SOL    HW110781   6.620   0.776   6.505
 3294SOL    HW210782   6.715   0.684   6.409
 3295SOL     OW10783   2.557   2.121   0.931
 3295SOL    HW110784   2.646   2.123   0.885
 3295SOL    HW210785   2.524   2.027   0.935
 3296SOL     OW10786   2.220   0.191   2.145
 3296SOL    HW110787   2.197   0.241   2.062
 3296SOL    HW210788   2.306   0.226   2.183
 3297SOL     OW10789   3.243   2.178   5.317
 3297SOL    HW110790   3.224   2.260   5.264
 3297SOL    HW210791   3.209   2.097   5.269
 3298SOL     OW10792   6.437   3.176   3.040
 3298SOL    HW110793   6.500   3.168   3.117
 3298SOL    HW210794   6.428   3.087   2.995
 3299SOL     OW10795   1.598   0.164   4.314
 3299SOL    HW110796   1.534   0.207   4.250
 3299SOL    HW210797   1.567   0.179   4.408
 3300SOL     OW10798   6.587   6.808   5.166
 3300SOL    HW110799   6.636   6.835   5.082
 3300SOL    HW210800   6.499   6.769   5.141
 3301SOL     OW10801   0.880   4.002   3.935
 3301SOL    HW110802   0.818   4.039   4.003
 3301SOL    HW210803   0.971   3.990   3.974
 3302SOL     OW10804   1.271   5.212   4.175
 3302SOL    HW110805   1.333   5.153   4.123
 3302SOL    HW210806   1.290   5.202   4.273
 3303SOL     OW10807   3.316   2.878   2.883
 3303SOL    HW110808   3.250   2.904   2.954
 3303SOL    HW210809   3.273   2.888   2.793
 3304SOL     OW10810   1.051   5.730   3.548
 3304SOL    HW110811   0.963   5.688   3.573
 3304SOL    HW210812   1.097   5.673   3.480
 3305SOL     OW10813   1.486   0.994   1.947
 3305SOL    HW110814   1.456   0.940   2.026
 3305SOL    HW210815   1.430   0.971   1.868
 3306SOL     OW10816   2.206   4.109   3.256
 3306SOL    HW110817   2.169   4.074   3.170
 3306SOL    HW210818   2.193   4.042   3.329
 3307SOL     OW10819   0.027   5.935   0.312
 3307SOL    HW110820   0.092   5.944   0.236
 3307SOL    HW210821   0.072   5.890   0.389
 3308SOL     OW10822   4.380   6.231   0.393
 3308SOL    HW110823   4.415   6.301   0.330
 3308SOL    HW210824   4.456   6.190   0.443
 3309SOL     OW10825   1.383   4.885   3.300
 3309SOL    HW110826   1.400   4.947   3.223
 3309SOL    HW210827   1.437   4.915   3.379
 3310SOL     OW10828   0.552   4.075   3.237
 3310SOL    HW110829   0.605   4.035   3.162
 3310SOL    HW210830   0.506   4.002   3.287
 3311SOL     OW10831   3.682   6.292   1.352
 3311SOL    HW110832   3.609   6.357   1.372
 3311SOL    HW210833   3.652   6.227   1.282
 3312SOL     OW10834   2.891   4.326   6.013
 3312SOL    HW110835   2.822   4.279   5.958
 3312SOL    HW210836   2.978   4.325   5.964
 3313SOL     OW10837   1.260   5.401   3.658
 3313SOL    HW110838   1.280   5.305   3.638
 3313SOL    HW210839   1.233   5.448   3.574
 3314SOL     OW10840   1.728   3.209   5.127
 3314SOL    HW110841   1.804   3.186   5.188
 3314SOL    HW210842   1.648   3.231   5.182
 3315SOL     OW10843   6.858   2.840   3.985
 3315SOL    HW110844   6.767   2.854   3.946
 3315SOL    HW210845   6.921   2.907   3.947
 3316SOL     OW10846   4.100   2.443   6.156
 3316SOL    HW110847   4.150   2.366   6.118
 3316SOL    HW210848   4.081   2.426   6.253
 3317SOL     OW10849   4.529   2.772   1.781
 3317SOL    HW110850   4.567   2.861   1.805
 3317SOL    HW210851   4.437   2.783   1.743
 3318SOL     OW10852   2.709   6.073   6.199
 3318SOL    HW110853   2.713   5.984   6.154
 3318SOL    HW210854   2.657   6.137   6.142
 3319SOL     OW10855   0.568   6.305   4.285
 3319SOL    HW110856   0.492   6.351   4.331
 3319SOL    HW210857   0.535   6.256   4.205
 3320SOL     OW10858   5.713   1.451   5.453
 3320SOL    HW110859   5.667   1.478   5.537
 3320SOL    HW210860   5.788   1.388   5.474
 3321SOL     OW10861   3.382   3.151   2.406
 3321SOL    HW110862   3.321   3.075   2.429
 3321SOL    HW210863   3.368   3.226   2.471
 3322SOL     OW10864   4.112   1.900   0.542
 3322SOL    HW110865   4.184   1.858   0.486
 3322SOL    HW210866   4.153   1.933   0.627
 3323SOL     OW10867   2.119   4.288   6.352
 3323SOL    HW110868   2.070   4.364   6.310
 3323SOL    HW210869   2.054   4.226   6.395
 3324SOL     OW10870   1.020   4.071   0.586
 3324SOL    HW110871   0.960   3.999   0.554
 3324SOL    HW210872   1.107   4.031   0.616
 3325SOL     OW10873   1.765   2.997   0.010
 3325SOL    HW110874   1.729   3.070   0.069
 3325SOL    HW210875   1.862   2.984   0.029
 3326SOL     OW10876   6.041   1.811   1.603
 3326SOL    HW110877   6.069   1.752   1.679
 3326SOL    HW210878   6.121   1.855   1.563
 3327SOL     OW10879   2.572   6.757   2.075
 3327SOL    HW110880   2.599   6.853   2.074
 3327SOL    HW210881   2.489   6.746   2.129
 3328SOL     OW10882   4.679   0.665   1.748
 3328SOL    HW110883   4.756   0.602   1.764
 3328SOL    HW210884   4.593   0.618   1.769
 3329SOL     OW10885   3.914   0.868   5.192
 3329SOL    HW110886   3.866   0.896   5.274
 3329SOL    HW210887   4.013   0.870   5.209
 3330SOL     OW10888   5.760   6.874   2.391
 3330SOL    HW110889   5.661   6.886   2.380
 3330SOL    HW210890   5.808   6.952   2.350
 3331SOL     OW10891   1.757   3.416   2.854
 3331SOL    HW110892   1.849   3.387   2.826
 3331SOL    HW210893   1.754   3.516   2.859
 3332SOL     OW10894   5.098   5.023   0.034
 3332SOL    HW110895   5.075   4.969   6.978
 3332SOL    HW210896   5.161   4.970   0.092
 3333SOL     OW10897   3.164   3.214   1.276
 3333SOL    HW110898   3.262   3.200   1.288
 3333SOL    HW210899   3.138   3.189   1.182
 3334SOL     OW10900   1.926   2.660   2.552
 3334SOL    HW110901   1.997   2.642   2.484
 3334SOL    HW210902   1.858   2.723   2.515
 3335SOL     OW10903   3.524   4.382   5.671
 3335SOL    HW110904   3.509   4.353   5.765
 3335SOL    HW210905   3.436   4.390   5.624
 3336SOL     OW10906   2.970   6.917   3.953
 3336SOL    HW110907   3.059   6.871   3.960
 3336SOL    HW210908   2.980   7.000   3.898
 3337SOL     OW10909   3.571   3.788   2.599
 3337SOL    HW110910   3.629   3.747   2.670
 3337SOL    HW210911   3.558   3.885   2.618
 3338SOL     OW10912   1.288   1.684   1.537
 3338SOL    HW110913   1.318   1.697   1.443
 3338SOL    HW210914   1.224   1.757   1.562
 3339SOL     OW10915   2.046   0.202   5.350
 3339SOL    HW110916   2.108   0.152   5.411
 3339SOL    HW210917   1.988   0.263   5.405
 3340SOL     OW10918   4.696   1.006   3.890
 3340SOL    HW110919   4.744   1.068   3.830
 3340SOL    HW210920   4.730   1.016   3.984
 3341SOL     OW10921   2.519   4.673   2.334
 3341SOL    HW110922   2.611   4.670   2.295
 3341SOL    HW210923   2.501   4.765   2.370
 3342SOL     OW10924   5.634   0.474   3.281
 3342SOL    HW110925   5.683   0.557   3.307
 3342SOL    HW210926   5.555   0.461   3.341
 3343SOL     OW10927   5.512   5.310   6.703
 3343SOL    HW110928   5.459   5.377   6.652
 3343SOL    HW210929   5.454   5.232   6.725
 3344SOL     OW10930   6.735   2.295   1.846
 3344SOL    HW110931   6.735   2.213   1.789
 3344SOL    HW210932   6.678   2.365   1.802
 3345SOL     OW10933   0.715   4.284   0.857
 3345SOL    HW110934   0.811   4.294   0.833
 3345SOL    HW210935   0.680   4.198   0.819
 3346SOL     OW10936   2.805   0.645   6.817
 3346SOL    HW110937   2.776   0.699   6.896
 3346SOL    HW210938   2.842   0.705   6.746
 3347SOL     OW10939   0.947   3.189   6.166
 3347SOL    HW110940   0.948   3.284   6.197
 3347SOL    HW210941   0.892   3.134   6.229
 3348SOL     OW10942   3.703   3.943   6.400
 3348SOL    HW110943   3.769   3.979   6.334
 3348SOL    HW210944   3.716   3.988   6.489
 3349SOL     OW10945   2.376   4.777   4.219
 3349SOL    HW110946   2.398   4.688   4.260
 3349SOL    HW210947   2.436   4.847   4.257
 3350SOL     OW10948   0.363   4.088   5.440
 3350SOL    HW110949   0.352   4.130   5.350
 3350SOL    HW210950   0.281   4.105   5.495
 3351SOL     OW10951   5.488   0.616   0.964
 3351SOL    HW110952   5.537   0.649   0.883
 3351SOL    HW210953   5.552   0.609   1.041
 3352SOL     OW10954   5.185   2.284   0.188
 3352SOL    HW110955   5.234   2.197   0.188
 3352SOL    HW210956   5.248   2.358   0.210
 3353SOL     OW10957   2.217   0.772   1.444
 3353SOL    HW110958   2.244   0.868   1.445
 3353SOL    HW210959   2.261   0.726   1.367
 3354SOL     OW10960   4.064   3.204   5.766
 3354SOL    HW110961   4.103   3.292   5.737
 3354SOL    HW210962   3.998   3.220   5.840
 3355SOL     OW10963   2.273   1.237   5.383
 3355SOL    HW110964   2.258   1.312   5.447
 3355SOL    HW210965   2.258   1.150   5.429
 3356SOL     OW10966   1.324   6.460   6.023
 3356SOL    HW110967   1.358   6.529   6.088
 3356SOL    HW210968   1.225   6.456   6.029
 3357SOL     OW10969   2.841   3.504   2.111
 3357SOL    HW110970   2.826   3.484   2.015
 3357SOL    HW210971   2.772   3.569   2.143
 3358SOL     OW10972   5.716   1.295   2.817
 3358SOL    HW110973   5.806   1.273   2.855
 3358SOL    HW210974   5.702   1.394   2.820
 3359SOL     OW10975   7.005   5.862   4.089
 3359SOL    HW110976   0.030   5.899   4.010
 3359SOL    HW210977   6.908   5.852   4.066
 3360SOL     OW10978   0.230   2.822   5.507
 3360SOL    HW110979   0.315   2.852   5.464
 3360SOL    HW210980   0.234   2.839   5.605
 3361SOL     OW10981   0.649   0.500   4.312
 3361SOL    HW110982   0.674   0.581   4.366
 3361SOL    HW210983   0.728   0.469   4.260
 3362SOL     OW10984   3.976   1.893   4.064
 3362SOL    HW110985   3.890   1.941   4.081
 3362SOL    HW210986   4.036   1.904   4.143
 3363SOL     OW10987   6.380   2.890   0.923
 3363SOL    HW110988   6.322   2.971   0.932
 3363SOL    HW210989   6.338   2.814   0.973
 3364SOL     OW10990   1.925   4.340   2.996
 3364SOL    HW110991   1.988   4.336   3.073
 3364SOL    HW210992   1.926   4.431   2.955
 3365SOL     OW10993   2.127   3.170   5.004
 3365SOL    HW110994   2.149   3.259   5.043
 3365SOL    HW210995   2.206   3.110   5.012
 3366SOL     OW10996   0.085   3.426   4.690
 3366SOL    HW110997   0.122   3.498   4.749
 3366SOL    HW210998   0.152   3.351   4.683
 3367SOL     OW10999   3.515   3.391   4.317
 3367SOL    HW111000   3.612   3.365   4.318
 3367SOL    HW211001   3.493   3.439   4.402
 3368SOL     OW11002   1.718   6.171   6.654
 3368SOL    HW111003   1.745   6.103   6.721
 3368SOL    HW211004   1.795   6.189   6.593
 3369SOL     OW11005   4.301   1.616   1.623
 3369SOL    HW111006   4.310   1.601   1.721
 3369SOL    HW211007   4.330   1.533   1.574
 3370SOL     OW11008   6.893   5.544   1.563
 3370SOL    HW111009   6.852   5.566   1.474
 3370SOL    HW211010   6.935   5.626   1.601
 3371SOL     OW11011   2.021   3.341   2.788
 3371SOL    HW111012   2.014   3.268   2.720
 3371SOL    HW211013   2.058   3.423   2.745
 3372SOL     OW11014   6.697   3.024   1.190
 3372SOL    HW111015   6.731   3.057   1.278
 3372SOL    HW211016   6.695   2.924   1.191
 3373SOL     OW11017   6.855   1.304   1.484
 3373SOL    HW111018   6.869   1.402   1.500
 3373SOL    HW211019   6.923   1.252   1.535
 3374SOL     OW11020   0.857   6.639   3.377
 3374SOL    HW111021   0.857   6.607   3.282
 3374SOL    HW211022   0.857   6.739   3.379
 3375SOL     OW11023   6.786   5.215   6.757
 3375SOL    HW111024   6.823   5.241   6.668
 3375SOL    HW211025   6.786   5.295   6.818
 3376SOL     OW11026   2.283   3.495   5.579
 3376SOL    HW111027   2.287   3.574   5.518
 3376SOL    HW211028   2.356   3.431   5.556
 3377SOL     OW11029   6.397   5.064   3.963
 3377SOL    HW111030   6.384   5.123   3.884
 3377SOL    HW211031   6.490   5.073   3.997
 3378SOL     OW11032   1.450   6.959   6.826
 3378SOL    HW111033   1.546   6.951   6.800
 3378SOL    HW211034   1.397   6.886   6.783
 3379SOL     OW11035   0.985   3.419   4.482
 3379SOL    HW111036   0.977   3.405   4.384
 3379SOL    HW211037   1.068   3.470   4.502
 3380SOL     OW11038   3.915   4.616   5.681
 3380SOL    HW111039   3.903   4.518   5.693
 3380SOL    HW211040   3.896   4.663   5.767
 3381SOL     OW11041   1.087   3.003   1.296
 3381SOL    HW111042   1.045   2.995   1.387
 3381SOL    HW211043   1.118   2.913   1.266
 3382SOL     OW11044   6.977   2.302   1.053
 3382SOL    HW111045   6.996   2.214   1.009
 3382SOL    HW211046   6.956   2.287   1.150
 3383SOL     OW11047   3.573   4.998   0.396
 3383SOL    HW111048   3.598   5.090   0.427
 3383SOL    HW211049   3.474   4.985   0.408
 3384SOL     OW11050   2.979   4.270   0.646
 3384SOL    HW111051   3.040   4.211   0.593
 3384SOL    HW211052   2.906   4.304   0.586
 3385SOL     OW11053   7.010   2.386   3.927
 3385SOL    HW111054   6.987   2.483   3.918
 3385SOL    HW211055   0.032   2.371   4.015
 3386SOL     OW11056   6.654   4.761   6.643
 3386SOL    HW111057   6.562   4.729   6.664
 3386SOL    HW211058   6.683   4.723   6.555
 3387SOL     OW11059   5.576   0.897   3.026
 3387SOL    HW111060   5.634   0.943   2.959
 3387SOL    HW211061   5.613   0.912   3.118
 3388SOL     OW11062   5.122   3.923   1.408
 3388SOL    HW111063   5.189   3.891   1.342
 3388SOL    HW211064   5.095   4.017   1.385
 3389SOL     OW11065   5.943   6.375   0.627
 3389SOL    HW111066   5.854   6.334   0.607
 3389SOL    HW211067   5.971   6.432   0.550
 3390SOL     OW11068   3.915   6.636   5.845
 3390SOL    HW111069   3.907   6.537   5.835
 3390SOL    HW211070   3.832   6.672   5.887
 3391SOL     OW11071   5.638   2.960   3.386
 3391SOL    HW111072   5.714   3.005   3.431
 3391SOL    HW211073   5.664   2.867   3.360
 3392SOL     OW11074   4.270   0.029   4.974
 3392SOL    HW111075   4.355   0.015   4.923
 3392SOL    HW211076   4.203   0.071   4.914
 3393SOL     OW11077   5.083   6.995   0.541
 3393SOL    HW111078   5.152   0.031   0.581
 3393SOL    HW211079   5.085   7.003   0.442
 3394SOL     OW11080   3.512   5.420   0.929
 3394SOL    HW111081   3.465   5.354   0.871
 3394SOL    HW211082   3.456   5.442   1.009
 3395SOL     OW11083   4.043   0.466   3.423
 3395SOL    HW111084   4.012   0.560   3.427
 3395SOL    HW211085   3.968   0.407   3.394
 3396SOL     OW11086   5.780   1.438   3.653
 3396SOL    HW111087   5.855   1.372   3.640
 3396SOL    HW211088   5.743   1.429   3.745
 3397SOL     OW11089   2.667   5.595   6.393
 3397SOL    HW111090   2.601   5.668   6.408
 3397SOL    HW211091   2.655   5.558   6.301
 3398SOL     OW11092   0.423   1.798   5.501
 3398SOL    HW111093   0.391   1.852   5.579
 3398SOL    HW211094   0.349   1.739   5.469
 3399SOL     OW11095   0.599   4.714   3.038
 3399SOL    HW111096   0.582   4.620   3.067
 3399SOL    HW211097   0.545   4.777   3.093
 3400SOL     OW11098   5.592   2.744   5.503
 3400SOL    HW111099   5.673   2.739   5.444
 3400SOL    HW211100   5.509   2.736   5.447
 3401SOL     OW11101   6.445   3.799   6.178
 3401SOL    HW111102   6.398   3.802   6.265
 3401SOL    HW211103   6.467   3.704   6.154
 3402SOL     OW11104   6.396   5.040   1.170
 3402SOL    HW111105   6.420   5.117   1.229
 3402SOL    HW211106   6.408   5.067   1.074
 3403SOL     OW11107   4.681   6.586   5.902
 3403SOL    HW111108   4.689   6.686   5.912
 3403SOL    HW211109   4.641   6.565   5.813
 3404SOL     OW11110   4.926   3.202   5.747
 3404SOL    HW111111   5.001   3.266   5.766
 3404SOL    HW211112   4.948   3.113   5.785
 3405SOL     OW11113   4.899   6.387   5.819
 3405SOL    HW111114   4.839   6.464   5.842
 3405SOL    HW211115   4.992   6.420   5.803
 3406SOL     OW11116   2.093   3.923   2.212
 3406SOL    HW111117   2.087   4.019   2.183
 3406SOL    HW211118   2.113   3.866   2.133
 3407SOL     OW11119   2.149   3.753   0.736
 3407SOL    HW111120   2.122   3.803   0.818
 3407SOL    HW211121   2.234   3.791   0.700
 3408SOL     OW11122   4.680   2.519   3.835
 3408SOL    HW111123   4.657   2.421   3.836
 3408SOL    HW211124   4.617   2.568   3.895
 3409SOL     OW11125   4.382   0.229   0.648
 3409SOL    HW111126   4.347   0.273   0.731
 3409SOL    HW211127   4.422   0.298   0.588
 3410SOL     OW11128   5.721   6.689   2.599
 3410SOL    HW111129   5.754   6.747   2.525
 3410SOL    HW211130   5.669   6.745   2.664
 3411SOL     OW11131   6.700   1.519   1.032
 3411SOL    HW111132   6.791   1.560   1.035
 3411SOL    HW211133   6.682   1.482   0.941
 3412SOL     OW11134   5.156   3.688   1.743
 3412SOL    HW111135   5.076   3.649   1.697
 3412SOL    HW211136   5.126   3.745   1.819
 3413SOL     OW11137   6.859   1.954   6.686
 3413SOL    HW111138   6.934   1.894   6.659
 3413SOL    HW211139   6.894   2.026   6.746
 3414SOL     OW11140   4.224   2.958   0.391
 3414SOL    HW111141   4.274   2.961   0.304
 3414SOL    HW211142   4.259   2.883   0.447
 3415SOL     OW11143   2.360   2.527   4.161
 3415SOL    HW111144   2.317   2.587   4.230
 3415SOL    HW211145   2.435   2.476   4.203
 3416SOL     OW11146   6.182   0.298   0.241
 3416SOL    HW111147   6.093   0.308   0.284
 3416SOL    HW211148   6.242   0.372   0.271
 3417SOL     OW11149   0.411   0.446   3.366
 3417SOL    HW111150   0.490   0.478   3.315
 3417SOL    HW211151   0.329   0.453   3.309
 3418SOL     OW11152   4.396   4.998   2.636
 3418SOL    HW111153   4.436   4.989   2.545
 3418SOL    HW211154   4.317   5.059   2.632
 3419SOL     OW11155   3.592   5.430   6.143
 3419SOL    HW111156   3.599   5.359   6.213
 3419SOL    HW211157   3.684   5.453   6.110
 3420SOL     OW11158   4.800   2.928   3.809
 3420SOL    HW111159   4.813   2.901   3.713
 3420SOL    HW211160   4.814   3.027   3.817
 3421SOL     OW11161   5.653   1.659   3.313
 3421SOL    HW111162   5.617   1.721   3.243
 3421SOL    HW211163   5.752   1.664   3.315
 3422SOL     OW11164   2.123   0.125   0.624
 3422SOL    HW111165   2.143   0.051   0.688
 3422SOL    HW211166   2.207   0.154   0.579
 3423SOL     OW11167   0.998   4.237   5.493
 3423SOL    HW111168   0.952   4.302   5.433
 3423SOL    HW211169   1.014   4.152   5.443
 3424SOL     OW11170   4.612   6.713   1.348
 3424SOL    HW111171   4.583   6.760   1.264
 3424SOL    HW211172   4.673   6.637   1.324
 3425SOL     OW11173   5.448   3.987   1.302
 3425SOL    HW111174   5.525   3.930   1.329
 3425SOL    HW211175   5.431   4.056   1.373
 3426SOL     OW11176   5.714   3.578   0.761
 3426SOL    HW111177   5.740   3.489   0.799
 3426SOL    HW211178   5.782   3.646   0.788
 3427SOL     OW11179   1.332   2.085   1.115
 3427SOL    HW111180   1.346   2.178   1.081
 3427SOL    HW211181   1.369   2.019   1.050
 3428SOL     OW11182   4.812   5.837   5.654
 3428SOL    HW111183   4.886   5.786   5.697
 3428SOL    HW211184   4.817   5.933   5.682
 3429SOL     OW11185   0.361   0.783   0.949
 3429SOL    HW111186   0.376   0.746   0.857
 3429SOL    HW211187   0.304   0.864   0.944
 3430SOL     OW11188   2.592   4.844   5.680
 3430SOL    HW111189   2.598   4.790   5.596
 3430SOL    HW211190   2.616   4.939   5.661
 3431SOL     OW11191   2.450   6.168   2.813
 3431SOL    HW111192   2.485   6.165   2.906
 3431SOL    HW211193   2.500   6.238   2.761
 3432SOL     OW11194   2.280   4.697   0.390
 3432SOL    HW111195   2.324   4.720   0.303
 3432SOL    HW211196   2.320   4.613   0.426
 3433SOL     OW11197   2.524   0.915   6.579
 3433SOL    HW111198   2.539   0.974   6.500
 3433SOL    HW211199   2.562   0.824   6.560
 3434SOL     OW11200   3.125   1.846   1.846
 3434SOL    HW111201   3.219   1.860   1.875
 3434SOL    HW211202   3.089   1.931   1.807
 3435SOL     OW11203   2.055   0.484   0.155
 3435SOL    HW111204   1.970   0.480   0.207
 3435SOL    HW211205   2.041   0.536   0.071
 3436SOL     OW11206   4.338   5.284   0.231
 3436SOL    HW111207   4.383   5.197   0.252
 3436SOL    HW211208   4.322   5.334   0.315
 3437SOL     OW11209   1.370   6.137   6.076
 3437SOL    HW111210   1.351   6.194   6.156
 3437SOL    HW211211   1.437   6.184   6.017
 3438SOL     OW11212   1.204   3.920   1.104
 3438SOL    HW111213   1.229   4.007   1.146
 3438SOL    HW211214   1.160   3.936   1.016
 3439SOL     OW11215   2.308   5.790   2.425
 3439SOL    HW111216   2.382   5.856   2.430
 3439SOL    HW211217   2.317   5.724   2.499
 3440SOL     OW11218   3.763   2.982   4.655
 3440SOL    HW111219   3.750   3.078   4.633
 3440SOL    HW211220   3.805   2.973   4.745
 3441SOL     OW11221   5.359   5.275   5.843
 3441SOL    HW111222   5.337   5.280   5.941
 3441SOL    HW211223   5.374   5.180   5.817
 3442SOL     OW11224   2.882   3.417   1.564
 3442SOL    HW111225   2.849   3.472   1.488
 3442SOL    HW211226   2.844   3.453   1.650
 3443SOL     OW11227   2.935   5.927   2.634
 3443SOL    HW111228   3.021   5.974   2.614
 3443SOL    HW211229   2.928   5.845   2.578
 3444SOL     OW11230   5.364   4.481   1.481
 3444SOL    HW111231   5.395   4.481   1.385
 3444SOL    HW211232   5.302   4.558   1.496
 3445SOL     OW11233   6.623   4.793   3.843
 3445SOL    HW111234   6.626   4.885   3.880
 3445SOL    HW211235   6.528   4.762   3.837
 3446SOL     OW11236   5.577   0.070   1.422
 3446SOL    HW111237   5.587   0.147   1.485
 3446SOL    HW211238   5.666   0.047   1.383
 3447SOL     OW11239   5.104   0.364   0.217
 3447SOL    HW111240   5.121   0.361   0.315
 3447SOL    HW211241   5.021   0.418   0.200
 3448SOL     OW11242   1.220   6.346   5.583
 3448SOL    HW111243   1.147   6.388   5.638
 3448SOL    HW211244   1.272   6.418   5.536
 3449SOL     OW11245   6.354   5.113   5.064
 3449SOL    HW111246   6.382   5.209   5.064
 3449SOL    HW211247   6.256   5.107   5.084
 3450SOL     OW11248   1.304   0.228   6.649
 3450SOL    HW111249   1.331   0.134   6.630
 3450SOL    HW211250   1.384   0.288   6.640
 3451SOL     OW11251   1.698   5.933   0.638
 3451SOL    HW111252   1.773   5.866   0.638
 3451SOL    HW211253   1.710   5.996   0.715
 3452SOL     OW11254   5.474   0.805   5.374
 3452SOL    HW111255   5.406   0.751   5.324
 3452SOL    HW211256   5.438   0.897   5.392
 3453SOL     OW11257   5.265   6.137   5.834
 3453SOL    HW111258   5.184   6.080   5.821
 3453SOL    HW211259   5.322   6.133   5.752
 3454SOL     OW11260   1.606   2.471   2.964
 3454SOL    HW111261   1.602   2.462   3.064
 3454SOL    HW211262   1.690   2.431   2.930
 3455SOL     OW11263   1.890   3.141   5.323
 3455SOL    HW111264   1.960   3.202   5.360
 3455SOL    HW211265   1.816   3.131   5.389
 3456SOL     OW11266   4.515   4.549   2.265
 3456SOL    HW111267   4.604   4.588   2.241
 3456SOL    HW211268   4.501   4.463   2.215
 3457SOL     OW11269   3.762   5.400   4.776
 3457SOL    HW111270   3.817   5.335   4.724
 3457SOL    HW211271   3.715   5.462   4.713
 3458SOL     OW11272   4.445   1.648   2.340
 3458SOL    HW111273   4.543   1.664   2.326
 3458SOL    HW211274   4.415   1.692   2.424
 3459SOL     OW11275   4.081   1.196   2.657
 3459SOL    HW111276   4.169   1.229   2.691
 3459SOL    HW211277   4.072   1.217   2.560
 3460SOL     OW11278   3.680   1.685   5.944
 3460SOL    HW111279   3.701   1.597   5.900
 3460SOL    HW211280   3.672   1.756   5.874
 3461SOL     OW11281   5.548   4.853   6.999
 3461SOL    HW111282   5.566   4.901   6.913
 3461SOL    HW211283   5.634   4.840   0.024
 3462SOL     OW11284   2.367   3.189   6.797
 3462SOL    HW111285   2.327   3.274   6.762
 3462SOL    HW211286   2.466   3.194   6.792
 3463SOL     OW11287   0.043   3.780   1.575
 3463SOL    HW111288   0.080   3.706   1.631
 3463SOL    HW211289   0.096   3.787   1.490
 3464SOL     OW11290   0.369   4.694   6.285
 3464SOL    HW111291   0.315   4.682   6.202
 3464SOL    HW211292   0.390   4.605   6.325
 3465SOL     OW11293   1.930   0.797   1.823
 3465SOL    HW111294   1.850   0.856   1.822
 3465SOL    HW211295   1.965   0.785   1.730
 3466SOL     OW11296   0.047   4.397   5.586
 3466SOL    HW111297   0.080   4.420   5.677
 3466SOL    HW211298   6.979   4.433   5.573
 3467SOL     OW11299   2.439   2.213   6.385
 3467SOL    HW111300   2.399   2.249   6.301
 3467SOL    HW211301   2.366   2.183   6.447
 3468SOL     OW11302   2.762   6.004   3.462
 3468SOL    HW111303   2.780   6.038   3.554
 3468SOL    HW211304   2.811   5.918   3.447
 3469SOL     OW11305   6.647   2.485   3.646
 3469SOL    HW111306   6.738   2.462   3.611
 3469SOL    HW211307   6.584   2.410   3.629
 3470SOL     OW11308   0.351   5.572   1.494
 3470SOL    HW111309   0.414   5.525   1.432
 3470SOL    HW211310   0.350   5.525   1.582
 3471SOL     OW11311   4.246   5.664   4.983
 3471SOL    HW111312   4.223   5.757   4.953
 3471SOL    HW211313   4.186   5.598   4.938
 3472SOL     OW11314   2.311   0.677   4.468
 3472SOL    HW111315   2.350   0.768   4.482
 3472SOL    HW211316   2.372   0.624   4.408
 3473SOL     OW11317   6.147   1.249   5.787
 3473SOL    HW111318   6.150   1.150   5.798
 3473SOL    HW211319   6.168   1.273   5.692
 3474SOL     OW11320   3.768   5.160   1.988
 3474SOL    HW111321   3.770   5.252   1.948
 3474SOL    HW211322   3.721   5.098   1.925
 3475SOL     OW11323   1.234   6.217   3.957
 3475SOL    HW111324   1.229   6.230   3.858
 3475SOL    HW211325   1.160   6.268   4.001
 3476SOL     OW11326   4.829   0.772   4.624
 3476SOL    HW111327   4.928   0.778   4.622
 3476SOL    HW211328   4.801   0.678   4.602
 3477SOL     OW11329   4.263   5.966   1.133
 3477SOL    HW111330   4.220   5.962   1.223
 3477SOL    HW211331   4.203   5.922   1.066
 3478SOL     OW11332   3.165   5.725   6.122
 3478SOL    HW111333   3.110   5.666   6.181
 3478SOL    HW211334   3.112   5.749   6.041
 3479SOL     OW11335   0.560   0.465   1.940
 3479SOL    HW111336   0.602   0.428   2.023
 3479SOL    HW211337   0.466   0.493   1.959
 3480SOL     OW11338   6.947   1.364   3.447
 3480SOL    HW111339   6.935   1.459   3.477
 3480SOL    HW211340   7.017   1.320   3.502
 3481SOL     OW11341   2.929   6.798   6.407
 3481SOL    HW111342   2.947   6.878   6.464
 3481SOL    HW211343   2.953   6.818   6.312
 3482SOL     OW11344   6.215   2.143   1.422
 3482SOL    HW111345   6.230   2.155   1.323
 3482SOL    HW211346   6.252   2.055   1.451
 3483SOL     OW11347   2.392   0.688   1.227
 3483SOL    HW111348   2.444   0.774   1.232
 3483SOL    HW211349   2.371   0.668   1.131
 3484SOL     OW11350   3.072   3.067   3.606
 3484SOL    HW111351   3.033   3.159   3.605
 3484SOL    HW211352   3.110   3.047   3.696
 3485SOL     OW11353   1.896   2.651   5.345
 3485SOL    HW111354   1.804   2.629   5.378
 3485SOL    HW211355   1.924   2.740   5.382
 3486SOL     OW11356   4.731   1.516   1.589
 3486SOL    HW111357   4.691   1.584   1.528
 3486SOL    HW211358   4.710   1.424   1.555
 3487SOL     OW11359   6.132   1.821   6.027
 3487SOL    HW111360   6.135   1.813   6.126
 3487SOL    HW211361   6.039   1.808   5.994
 3488SOL     OW11362   6.305   3.466   4.122
 3488SOL    HW111363   6.208   3.490   4.128
 3488SOL    HW211364   6.334   3.424   4.208
 3489SOL     OW11365   3.813   0.069   1.613
 3489SOL    HW111366   3.859   7.007   1.597
 3489SOL    HW211367   3.853   0.139   1.553
 3490SOL     OW11368   5.449   4.007   0.302
 3490SOL    HW111369   5.485   3.931   0.248
 3490SOL    HW211370   5.473   4.093   0.257
 3491SOL     OW11371   0.154   3.180   5.715
 3491SOL    HW111372   0.190   3.120   5.786
 3491SOL    HW211373   0.125   3.267   5.756
 3492SOL     OW11374   0.373   5.692   6.797
 3492SOL    HW111375   0.284   5.737   6.798
 3492SOL    HW211376   0.385   5.639   6.881
 3493SOL     OW11377   5.932   5.312   1.502
 3493SOL    HW111378   5.976   5.340   1.587
 3493SOL    HW211379   5.991   5.249   1.452
 3494SOL     OW11380   3.348   0.241   1.722
 3494SOL    HW111381   3.416   0.168   1.708
 3494SOL    HW211382   3.373   0.320   1.666
 3495SOL     OW11383   4.381   5.153   1.623
 3495SOL    HW111384   4.309   5.195   1.568
 3495SOL    HW211385   4.345   5.073   1.670
 3496SOL     OW11386   1.491   2.973   0.675
 3496SOL    HW111387   1.474   3.072   0.664
 3496SOL    HW211388   1.438   2.923   0.606
 3497SOL     OW11389   3.913   1.338   3.328
 3497SOL    HW111390   3.947   1.280   3.255
 3497SOL    HW211391   3.948   1.305   3.416
 3498SOL     OW11392   2.659   1.145   0.857
 3498SOL    HW111393   2.612   1.070   0.811
 3498SOL    HW211394   2.602   1.227   0.853
 3499SOL     OW11395   0.458   3.552   4.245
 3499SOL    HW111396   0.445   3.581   4.339
 3499SOL    HW211397   0.373   3.512   4.209
 3500SOL     OW11398   6.274   4.254   6.265
 3500SOL    HW111399   6.334   4.233   6.342
 3500SOL    HW211400   6.226   4.170   6.236
 3501SOL     OW11401   1.931   4.739   4.980
 3501SOL    HW111402   1.840   4.753   4.942
 3501SOL    HW211403   1.931   4.764   5.077
 3502SOL     OW11404   0.359   1.890   1.666
 3502SOL    HW111405   0.387   1.826   1.595
 3502SOL    HW211406   0.416   1.972   1.662
 3503SOL     OW11407   4.744   5.550   5.463
 3503SOL    HW111408   4.803   5.628   5.486
 3503SOL    HW211409   4.772   5.512   5.375
 3504SOL     OW11410   2.631   3.632   1.190
 3504SOL    HW111411   2.649   3.560   1.257
 3504SOL    HW211412   2.691   3.621   1.111
 3505SOL     OW11413   5.634   6.054   5.264
 3505SOL    HW111414   5.691   6.045   5.347
 3505SOL    HW211415   5.693   6.060   5.184
 3506SOL     OW11416   3.860   5.254   3.828
 3506SOL    HW111417   3.890   5.174   3.880
 3506SOL    HW211418   3.761   5.249   3.813
 3507SOL     OW11419   1.201   0.505   6.515
 3507SOL    HW111420   1.141   0.541   6.586
 3507SOL    HW211421   1.288   0.476   6.556
 3508SOL     OW11422   5.567   3.042   0.502
 3508SOL    HW111423   5.629   3.119   0.483
 3508SOL    HW211424   5.495   3.073   0.565
 3509SOL     OW11425   6.332   5.952   6.619
 3509SOL    HW111426   6.255   6.000   6.578
 3509SOL    HW211427   6.385   5.907   6.547
 3510SOL     OW11428   2.292   2.326   1.684
 3510SOL    HW111429   2.194   2.334   1.663
 3510SOL    HW211430   2.344   2.344   1.601
 3511SOL     OW11431   0.074   2.534   6.870
 3511SOL    HW111432   0.014   2.490   6.937
 3511SOL    HW211433   0.155   2.476   6.855
 3512SOL     OW11434   2.231   3.687   0.183
 3512SOL    HW111435   2.210   3.748   0.259
 3512SOL    HW211436   2.159   3.692   0.114
 3513SOL     OW11437   6.778   4.276   1.183
 3513SOL    HW111438   6.872   4.273   1.148
 3513SOL    HW211439   6.774   4.230   1.272
 3514SOL     OW11440   0.726   6.079   1.354
 3514SOL    HW111441   0.724   6.178   1.338
 3514SOL    HW211442   0.791   6.058   1.426
 3515SOL     OW11443   2.789   6.215   2.895
 3515SOL    HW111444   2.709   6.175   2.940
 3515SOL    HW211445   2.772   6.223   2.797
 3516SOL     OW11446   3.474   1.183   0.396
 3516SOL    HW111447   3.565   1.148   0.417
 3516SOL    HW211448   3.479   1.248   0.321
 3517SOL     OW11449   0.797   1.116   6.751
 3517SOL    HW111450   0.752   1.193   6.796
 3517SOL    HW211451   0.876   1.148   6.699
 3518SOL     OW11452   4.765   3.565   6.627
 3518SOL    HW111453   4.703   3.641   6.608
 3518SOL    HW211454   4.858   3.589   6.597
 3519SOL     OW11455   1.617   6.589   6.453
 3519SOL    HW111456   1.594   6.526   6.379
 3519SOL    HW211457   1.600   6.545   6.541
 3520SOL     OW11458   4.101   4.733   1.022
 3520SOL    HW111459   4.042   4.655   1.000
 3520SOL    HW211460   4.049   4.799   1.077
 3521SOL     OW11461   5.646   2.099   1.976
 3521SOL    HW111462   5.702   2.017   1.985
 3521SOL    HW211463   5.584   2.089   1.898
 3522SOL     OW11464   3.359   5.129   1.768
 3522SOL    HW111465   3.342   5.198   1.839
 3522SOL    HW211466   3.372   5.040   1.811
 3523SOL     OW11467   2.932   4.864   4.877
 3523SOL    HW111468   2.877   4.947   4.873
 3523SOL    HW211469   2.888   4.799   4.939
 3524SOL     OW11470   2.427   0.228   0.861
 3524SOL    HW111471   2.447   0.130   0.861
 3524SOL    HW211472   2.513   0.279   0.860
 3525SOL     OW11473   0.700   2.788   1.944
 3525SOL    HW111474   0.756   2.820   2.021
 3525SOL    HW211475   0.759   2.747   1.875
 3526SOL     OW11476   0.981   0.593   2.909
 3526SOL    HW111477   0.906   0.640   2.954
 3526SOL    HW211478   1.001   0.508   2.957
 3527SOL     OW11479   5.810   3.009   6.421
 3527SOL    HW111480   5.754   3.071   6.477
 3527SOL    HW211481   5.818   2.921   6.466
 3528SOL     OW11482   0.193   6.476   3.364
 3528SOL    HW111483   0.098   6.459   3.391
 3528SOL    HW211484   0.204   6.573   3.343
 3529SOL     OW11485   4.682   0.038   5.172
 3529SOL    HW111486   4.706   7.003   5.095
 3529SOL    HW211487   4.689   0.133   5.144
 3530SOL     OW11488   3.138   5.686   2.274
 3530SOL    HW111489   3.084   5.705   2.192
 3530SOL    HW211490   3.128   5.589   2.298
 3531SOL     OW11491   5.888   4.816   0.980
 3531SOL    HW111492   5.977   4.860   0.995
 3531SOL    HW211493   5.815   4.885   0.986
 3532SOL     OW11494   2.585   0.511   6.723
 3532SOL    HW111495   2.615   0.458   6.645
 3532SOL    HW211496   2.662   0.563   6.761
 3533SOL     OW11497   1.259   1.770   3.420
 3533SOL    HW111498   1.301   1.790   3.331
 3533SOL    HW211499   1.226   1.855   3.461
 3534SOL     OW11500   5.477   1.609   5.166
 3534SOL    HW111501   5.540   1.532   5.175
 3534SOL    HW211502   5.514   1.673   5.098
 3535SOL     OW11503   5.722   5.135   6.039
 3535SOL    HW111504   5.676   5.212   5.995
 3535SOL    HW211505   5.747   5.160   6.133
 3536SOL     OW11506   2.154   3.377   3.038
 3536SOL    HW111507   2.165   3.476   3.046
 3536SOL    HW211508   2.114   3.355   2.949
 3537SOL     OW11509   2.278   5.829   0.507
 3537SOL    HW111510   2.192   5.787   0.480
 3537SOL    HW211511   2.347   5.758   0.522
 3538SOL     OW11512   2.791   0.034   2.900
 3538SOL    HW111513   2.873   0.047   2.844
 3538SOL    HW211514   2.802   0.081   2.987
 3539SOL     OW11515   5.687   4.993   6.748
 3539SOL    HW111516   5.733   5.074   6.784
 3539SOL    HW211517   5.715   4.978   6.653
 3540SOL     OW11518   2.707   3.498   6.520
 3540SOL    HW111519   2.722   3.399   6.529
 3540SOL    HW211520   2.636   3.527   6.583
 3541SOL     OW11521   2.641   2.420   0.922
 3541SOL    HW111522   2.615   2.356   0.995
 3541SOL    HW211523   2.622   2.380   0.833
 3542SOL     OW11524   5.277   2.384   6.659
 3542SOL    HW111525   5.352   2.319   6.645
 3542SOL    HW211526   5.287   2.429   6.748
 3543SOL     OW11527   2.338   2.650   2.865
 3543SOL    HW111528   2.337   2.651   2.965
 3543SOL    HW211529   2.328   2.743   2.830
 3544SOL     OW11530   2.638   4.566   6.028
 3544SOL    HW111531   2.734   4.555   6.056
 3544SOL    HW211532   2.635   4.606   5.936
 3545SOL     OW11533   3.849   7.004   1.250
 3545SOL    HW111534   3.808   0.056   1.299
 3545SOL    HW211535   3.944   6.992   1.279
 3546SOL     OW11536   6.406   3.776   3.471
 3546SOL    HW111537   6.432   3.734   3.558
 3546SOL    HW211538   6.359   3.709   3.414
 3547SOL     OW11539   0.091   3.621   5.464
 3547SOL    HW111540   0.086   3.720   5.477
 3547SOL    HW211541   0.105   3.577   5.553
 3548SOL     OW11542   5.283   1.335   5.686
 3548SOL    HW111543   5.333   1.416   5.656
 3548SOL    HW211544   5.190   1.338   5.649
 3549SOL     OW11545   3.141   5.612   0.413
 3549SOL    HW111546   3.198   5.533   0.434
 3549SOL    HW211547   3.107   5.606   0.319
 3550SOL     OW11548   5.056   1.864   5.375
 3550SOL    HW111549   5.110   1.825   5.300
 3550SOL    HW211550   5.096   1.951   5.403
 3551SOL     OW11551   3.925   2.285   5.515
 3551SOL    HW111552   3.946   2.287   5.417
 3551SOL    HW211553   3.829   2.309   5.529
 3552SOL     OW11554   6.780   6.149   2.498
 3552SOL    HW111555   6.681   6.137   2.504
 3552SOL    HW211556   6.811   6.124   2.406
 3553SOL     OW11557   3.850   5.491   6.152
 3553SOL    HW111558   3.929   5.451   6.200
 3553SOL    HW211559   3.867   5.588   6.135
 3554SOL     OW11560   3.971   3.553   1.727
 3554SOL    HW111561   3.924   3.512   1.805
 3554SOL    HW211562   3.940   3.509   1.643
 3555SOL     OW11563   1.782   2.524   3.871
 3555SOL    HW111564   1.861   2.532   3.809
 3555SOL    HW211565   1.814   2.519   3.965
 3556SOL     OW11566   4.163   0.870   5.249
 3556SOL    HW111567   4.201   0.779   5.270
 3556SOL    HW211568   4.238   0.937   5.245
 3557SOL     OW11569   6.896   1.244   2.219
 3557SOL    HW111570   6.986   1.284   2.237
 3557SOL    HW211571   6.906   1.166   2.157
 3558SOL     OW11572   3.491   6.680   0.964
 3558SOL    HW111573   3.496   6.701   0.866
 3558SOL    HW211574   3.568   6.725   1.011
 3559SOL     OW11575   3.749   6.381   4.738
 3559SOL    HW111576   3.820   6.315   4.713
 3559SOL    HW211577   3.699   6.347   4.817
 3560SOL     OW11578   1.089   5.521   5.196
 3560SOL    HW111579   1.104   5.619   5.185
 3560SOL    HW211580   1.112   5.495   5.290
 3561SOL     OW11581   4.998   4.752   5.280
 3561SOL    HW111582   4.905   4.767   5.312
 3561SOL    HW211583   5.013   4.654   5.266
 3562SOL     OW11584   2.581   0.965   5.304
 3562SOL    HW111585   2.617   0.872   5.295
 3562SOL    HW211586   2.642   1.030   5.259
 3563SOL     OW11587   5.815   1.876   5.450
 3563SOL    HW111588   5.854   1.838   5.366
 3563SOL    HW211589   5.718   1.852   5.455
 3564SOL     OW11590   0.221   4.451   3.121
 3564SOL    HW111591   0.206   4.356   3.093
 3564SOL    HW211592   0.301   4.456   3.181
 3565SOL     OW11593   3.136   5.575   3.281
 3565SOL    HW111594   3.234   5.555   3.280
 3565SOL    HW211595   3.122   5.674   3.288
 3566SOL     OW11596   6.389   1.027   5.458
 3566SOL    HW111597   6.470   0.994   5.410
 3566SOL    HW211598   6.351   0.953   5.513
 3567SOL     OW11599   0.266   4.449   6.729
 3567SOL    HW111600   0.245   4.355   6.701
 3567SOL    HW211601   0.347   4.482   6.680
 3568SOL     OW11602   6.391   3.495   6.092
 3568SOL    HW111603   6.332   3.480   6.172
 3568SOL    HW211604   6.417   3.407   6.053
 3569SOL     OW11605   2.965   2.212   5.377
 3569SOL    HW111606   2.976   2.295   5.431
 3569SOL    HW211607   3.042   2.204   5.314
 3570SOL     OW11608   5.943   1.091   4.085
 3570SOL    HW111609   5.971   1.057   3.995
 3570SOL    HW211610   5.958   1.190   4.089
 3571SOL     OW11611   6.565   5.792   6.529
 3571SOL    HW111612   6.542   5.718   6.466
 3571SOL    HW211613   6.663   5.809   6.527
 3572SOL     OW11614   5.823   3.353   3.686
 3572SOL    HW111615   5.796   3.410   3.608
 3572SOL    HW211616   5.896   3.399   3.737
 3573SOL     OW11617   1.137   4.203   3.838
 3573SOL    HW111618   1.140   4.296   3.876
 3573SOL    HW211619   1.086   4.204   3.752
 3574SOL     OW11620   0.223   5.222   0.329
 3574SOL    HW111621   0.180   5.166   0.258
 3574SOL    HW211622   0.276   5.164   0.390
 3575SOL     OW11623   6.218   5.358   3.381
 3575SOL    HW111624   6.155   5.293   3.425
 3575SOL    HW211625   6.202   5.357   3.282
 3576SOL     OW11626   0.435   1.231   6.280
 3576SOL    HW111627   0.520   1.180   6.293
 3576SOL    HW211628   0.385   1.194   6.201
 3577SOL     OW11629   0.566   2.178   6.650
 3577SOL    HW111630   0.578   2.167   6.749
 3577SOL    HW211631   0.628   2.115   6.602
 3578SOL     OW11632   3.235   4.145   6.632
 3578SOL    HW111633   3.323   4.101   6.650
 3578SOL    HW211634   3.216   4.144   6.534
 3579SOL     OW11635   6.861   3.335   5.254
 3579SOL    HW111636   6.928   3.396   5.211
 3579SOL    HW211637   6.881   3.326   5.351
 3580SOL     OW11638   5.780   1.884   1.580
 3580SOL    HW111639   5.878   1.864   1.586
 3580SOL    HW211640   5.730   1.816   1.633
 3581SOL     OW11641   6.705   0.204   2.608
 3581SOL    HW111642   6.749   0.244   2.528
 3581SOL    HW211643   6.770   0.142   2.653
 3582SOL     OW11644   1.004   0.923   5.950
 3582SOL    HW111645   0.939   0.917   5.874
 3582SOL    HW211646   0.981   1.002   6.008
 3583SOL     OW11647   1.064   4.477   6.988
 3583SOL    HW111648   0.986   4.442   6.935
 3583SOL    HW211649   1.053   4.450   0.059
 3584SOL     OW11650   6.013   6.188   6.196
 3584SOL    HW111651   6.099   6.138   6.209
 3584SOL    HW211652   6.004   6.257   6.268
 3585SOL     OW11653   3.300   5.075   4.679
 3585SOL    HW111654   3.324   5.151   4.739
 3585SOL    HW211655   3.346   5.087   4.591
 3586SOL     OW11656   6.427   2.935   5.334
 3586SOL    HW111657   6.391   2.930   5.427
 3586SOL    HW211658   6.441   2.843   5.297
 3587SOL     OW11659   2.751   6.906   0.800
 3587SOL    HW111660   2.713   6.837   0.738
 3587SOL    HW211661   2.824   6.865   0.854
 3588SOL     OW11662   1.769   2.155   5.678
 3588SOL    HW111663   1.801   2.242   5.640
 3588SOL    HW211664   1.752   2.166   5.776
 3589SOL     OW11665   3.522   0.892   4.455
 3589SOL    HW111666   3.465   0.938   4.387
 3589SOL    HW211667   3.500   0.795   4.458
 3590SOL     OW11668   1.392   4.597   6.141
 3590SOL    HW111669   1.400   4.689   6.178
 3590SOL    HW211670   1.304   4.558   6.169
 3591SOL     OW11671   5.532   3.140   5.949
 3591SOL    HW111672   5.575   3.053   5.972
 3591SOL    HW211673   5.475   3.129   5.868
 3592SOL     OW11674   5.177   3.307   2.540
 3592SOL    HW111675   5.092   3.260   2.515
 3592SOL    HW211676   5.191   3.300   2.639
 3593SOL     OW11677   2.056   6.598   4.204
 3593SOL    HW111678   2.011   6.520   4.161
 3593SOL    HW211679   2.087   6.573   4.296
 3594SOL     OW11680   2.385   1.079   3.529
 3594SOL    HW111681   2.318   1.015   3.491
 3594SOL    HW211682   2.338   1.162   3.558
 3595SOL     OW11683   2.288   6.679   4.987
 3595SOL    HW111684   2.277   6.739   5.067
 3595SOL    HW211685   2.300   6.585   5.019
 3596SOL     OW11686   6.389   0.996   2.901
 3596SOL    HW111687   6.446   1.061   2.851
 3596SOL    HW211688   6.390   0.907   2.854
 3597SOL     OW11689   3.574   6.133   4.312
 3597SOL    HW111690   3.656   6.109   4.260
 3597SOL    HW211691   3.505   6.062   4.300
 3598SOL     OW11692   0.971   0.231   5.459
 3598SOL    HW111693   1.047   0.287   5.425
 3598SOL    HW211694   1.001   0.136   5.469
 3599SOL     OW11695   0.351   1.985   5.714
 3599SOL    HW111696   0.353   2.064   5.653
 3599SOL    HW211697   0.386   2.011   5.804
 3600SOL     OW11698   6.422   3.119   1.198
 3600SOL    HW111699   6.440   3.217   1.200
 3600SOL    HW211700   6.505   3.071   1.169
 3601SOL     OW11701   0.164   3.937   0.892
 3601SOL    HW111702   0.192   4.033   0.886
 3601SOL    HW211703   0.235   3.879   0.852
 3602SOL     OW11704   1.783   0.853   0.448
 3602SOL    HW111705   1.730   0.918   0.395
 3602SOL    HW211706   1.838   0.796   0.387
 3603SOL     OW11707   4.045   5.297   4.371
 3603SOL    HW111708   4.022   5.202   4.350
 3603SOL    HW211709   4.064   5.346   4.286
 3604SOL     OW11710   0.139   2.734   2.998
 3604SOL    HW111711   0.074   2.776   2.935
 3604SOL    HW211712   0.090   2.675   3.062
 3605SOL     OW11713   6.186   4.615   6.180
 3605SOL    HW111714   6.102   4.595   6.129
 3605SOL    HW211715   6.247   4.669   6.123
 3606SOL     OW11716   6.850   4.605   6.181
 3606SOL    HW111717   6.854   4.678   6.249
 3606SOL    HW211718   6.757   4.570   6.176
 3607SOL     OW11719   5.251   0.658   0.459
 3607SOL    HW111720   5.228   0.568   0.498
 3607SOL    HW211721   5.282   0.647   0.365
 3608SOL     OW11722   6.983   1.411   1.844
 3608SOL    HW111723   6.986   1.324   1.794
 3608SOL    HW211724   0.002   1.482   1.789
 3609SOL     OW11725   0.067   1.168   4.073
 3609SOL    HW111726   0.066   1.207   4.165
 3609SOL    HW211727   7.011   1.110   4.060
 3610SOL     OW11728   0.892   6.706   4.456
 3610SOL    HW111729   0.924   6.743   4.369
 3610SOL    HW211730   0.793   6.692   4.451
 3611SOL     OW11731   3.783   5.161   5.249
 3611SOL    HW111732   3.799   5.064   5.266
 3611SOL    HW211733   3.765   5.175   5.152
 3612SOL     OW11734   0.933   6.440   6.274
 3612SOL    HW111735   0.844   6.437   6.229
 3612SOL    HW211736   1.004   6.456   6.206
 3613SOL     OW11737   5.110   5.091   0.756
 3613SOL    HW111738   5.187   5.039   0.795
 3613SOL    HW211739   5.090   5.170   0.815
 3614SOL     OW11740   3.774   3.356   3.000
 3614SOL    HW111741   3.697   3.332   3.058
 3614SOL    HW211742   3.782   3.291   2.925
 3615SOL     OW11743   5.947   5.419   6.117
 3615SOL    HW111744   5.864   5.468   6.089
 3615SOL    HW211745   5.930   5.372   6.204
 3616SOL     OW11746   6.486   2.259   7.009
 3616SOL    HW111747   6.460   2.169   0.021
 3616SOL    HW211748   6.525   2.249   6.918
 3617SOL     OW11749   5.295   1.898   6.228
 3617SOL    HW111750   5.238   1.939   6.299
 3617SOL    HW211751   5.268   1.803   6.215
 3618SOL     OW11752   1.329   1.952   5.676
 3618SOL    HW111753   1.234   1.980   5.673
 3618SOL    HW211754   1.363   1.959   5.770
 3619SOL     OW11755   5.938   2.444   4.079
 3619SOL    HW111756   5.937   2.482   3.986
 3619SOL    HW211757   6.031   2.415   4.101
 3620SOL     OW11758   5.388   6.697   5.603
 3620SOL    HW111759   5.395   6.601   5.577
 3620SOL    HW211760   5.305   6.736   5.563
 3621SOL     OW11761   3.082   3.057   5.910
 3621SOL    HW111762   3.035   2.978   5.949
 3621SOL    HW211763   3.180   3.051   5.931
 3622SOL     OW11764   0.872   1.673   3.068
 3622SOL    HW111765   0.797   1.610   3.045
 3622SOL    HW211766   0.933   1.629   3.134
 3623SOL     OW11767   6.395   5.695   4.261
 3623SOL    HW111768   6.490   5.662   4.263
 3623SOL    HW211769   6.341   5.646   4.330
 3624SOL     OW11770   1.963   6.149   2.765
 3624SOL    HW111771   1.888   6.201   2.723
 3624SOL    HW211772   2.014   6.101   2.694
 3625SOL     OW11773   6.298   3.045   6.171
 3625SOL    HW111774   6.280   2.947   6.175
 3625SOL    HW211775   6.211   3.095   6.173
 3626SOL     OW11776   2.411   3.686   5.401
 3626SOL    HW111777   2.391   3.778   5.434
 3626SOL    HW211778   2.510   3.675   5.390
 3627SOL     OW11779   4.061   3.629   3.470
 3627SOL    HW111780   3.990   3.685   3.511
 3627SOL    HW211781   4.075   3.657   3.375
 3628SOL     OW11782   2.198   6.618   1.851
 3628SOL    HW111783   2.137   6.540   1.860
 3628SOL    HW211784   2.174   6.688   1.918
 3629SOL     OW11785   6.801   1.801   5.230
 3629SOL    HW111786   6.802   1.898   5.257
 3629SOL    HW211787   6.870   1.786   5.159
 3630SOL     OW11788   5.762   2.535   4.343
 3630SOL    HW111789   5.851   2.573   4.365
 3630SOL    HW211790   5.764   2.436   4.352
 3631SOL     OW11791   2.495   0.245   4.629
 3631SOL    HW111792   2.442   0.296   4.696
 3631SOL    HW211793   2.590   0.240   4.659
 3632SOL     OW11794   5.141   1.017   0.782
 3632SOL    HW111795   5.150   1.115   0.802
 3632SOL    HW211796   5.148   1.002   0.684
 3633SOL     OW11797   3.213   2.478   5.867
 3633SOL    HW111798   3.259   2.410   5.925
 3633SOL    HW211799   3.174   2.432   5.787
 3634SOL     OW11800   0.651   5.982   4.039
 3634SOL    HW111801   0.746   6.006   4.016
 3634SOL    HW211802   0.602   6.064   4.068
 3635SOL     OW11803   3.581   0.756   5.382
 3635SOL    HW111804   3.651   0.696   5.422
 3635SOL    HW211805   3.621   0.846   5.365
 3636SOL     OW11806   0.093   5.974   5.803
 3636SOL    HW111807   0.151   5.907   5.757
 3636SOL    HW211808   0.085   6.056   5.747
 3637SOL     OW11809   6.006   1.936   0.995
 3637SOL    HW111810   5.937   1.865   1.011
 3637SOL    HW211811   6.030   1.978   1.082
 3638SOL     OW11812   6.443   4.762   4.304
 3638SOL    HW111813   6.422   4.732   4.397
 3638SOL    HW211814   6.372   4.730   4.242
 3639SOL     OW11815   3.761   3.774   0.832
 3639SOL    HW111816   3.740   3.869   0.855
 3639SOL    HW211817   3.683   3.733   0.785
 3640SOL     OW11818   3.188   6.147   6.692
 3640SOL    HW111819   3.255   6.183   6.756
 3640SOL    HW211820   3.228   6.142   6.601
 3641SOL     OW11821   4.060   2.197   4.713
 3641SOL    HW111822   4.013   2.260   4.775
 3641SOL    HW211823   4.107   2.127   4.767
 3642SOL     OW11824   4.871   1.422   5.638
 3642SOL    HW111825   4.892   1.508   5.591
 3642SOL    HW211826   4.888   1.345   5.576
 3643SOL     OW11827   2.726   5.604   4.693
 3643SOL    HW111828   2.704   5.687   4.642
 3643SOL    HW211829   2.731   5.626   4.791
 3644SOL     OW11830   6.622   0.924   1.448
 3644SOL    HW111831   6.567   0.993   1.496
 3644SOL    HW211832   6.653   0.962   1.360
 3645SOL     OW11833   5.601   1.541   4.187
 3645SOL    HW111834   5.585   1.493   4.274
 3645SOL    HW211835   5.697   1.568   4.182
 3646SOL     OW11836   0.089   4.865   6.017
 3646SOL    HW111837   0.161   4.926   5.984
 3646SOL    HW211838   0.041   4.907   6.093
 3647SOL     OW11839   1.335   3.476   0.536
 3647SOL    HW111840   1.291   3.490   0.447
 3647SOL    HW211841   1.432   3.496   0.529
 3648SOL     OW11842   3.594   5.102   2.952
 3648SOL    HW111843   3.509   5.122   2.999
 3648SOL    HW211844   3.575   5.051   2.868
 3649SOL     OW11845   4.176   2.905   1.461
 3649SOL    HW111846   4.173   2.807   1.444
 3649SOL    HW211847   4.203   2.923   1.555
 3650SOL     OW11848   6.757   5.449   0.613
 3650SOL    HW111849   6.777   5.498   0.698
 3650SOL    HW211850   6.793   5.500   0.536
 3651SOL     OW11851   1.246   5.886   2.803
 3651SOL    HW111852   1.249   5.977   2.760
 3651SOL    HW211853   1.178   5.886   2.876
 3652SOL     OW11854   4.788   6.432   3.745
 3652SOL    HW111855   4.734   6.376   3.808
 3652SOL    HW211856   4.780   6.395   3.652
 3653SOL     OW11857   6.565   0.749   3.250
 3653SOL    HW111858   6.635   0.769   3.182
 3653SOL    HW211859   6.528   0.658   3.234
 3654SOL     OW11860   2.116   6.246   6.873
 3654SOL    HW111861   2.134   6.300   6.791
 3654SOL    HW211862   2.191   6.258   6.939
 3655SOL     OW11863   1.172   0.015   3.993
 3655SOL    HW111864   1.143   7.012   3.901
 3655SOL    HW211865   1.094   0.052   4.043
 3656SOL     OW11866   1.393   2.737   1.427
 3656SOL    HW111867   1.394   2.782   1.337
 3656SOL    HW211868   1.300   2.742   1.465
 3657SOL     OW11869   4.600   5.893   6.011
 3657SOL    HW111870   4.518   5.869   5.959
 3657SOL    HW211871   4.671   5.825   5.993
 3658SOL     OW11872   1.488   5.653   4.526
 3658SOL    HW111873   1.565   5.686   4.471
 3658SOL    HW211874   1.432   5.591   4.471
 3659SOL     OW11875   2.876   4.022   6.059
 3659SOL    HW111876   2.961   3.982   6.023
 3659SOL    HW211877   2.843   4.093   5.996
 3660SOL     OW11878   5.321   6.059   2.061
 3660SOL    HW111879   5.265   5.985   2.024
 3660SOL    HW211880   5.262   6.136   2.086
 3661SOL     OW11881   4.521   2.243   6.523
 3661SOL    HW111882   4.527   2.338   6.492
 3661SOL    HW211883   4.613   2.206   6.535
 3662SOL     OW11884   3.391   0.439   4.165
 3662SOL    HW111885   3.467   0.466   4.224
 3662SOL    HW211886   3.319   0.399   4.221
 3663SOL     OW11887   1.407   1.252   0.753
 3663SOL    HW111888   1.435   1.329   0.695
 3663SOL    HW211889   1.400   1.169   0.697
 3664SOL     OW11890   5.019   1.694   1.143
 3664SOL    HW111891   5.091   1.680   1.211
 3664SOL    HW211892   5.027   1.786   1.105
 3665SOL     OW11893   0.705   6.156   5.713
 3665SOL    HW111894   0.727   6.243   5.669
 3665SOL    HW211895   0.616   6.162   5.757
 3666SOL     OW11896   2.093   4.228   3.589
 3666SOL    HW111897   2.055   4.204   3.679
 3666SOL    HW211898   2.124   4.144   3.544
 3667SOL     OW11899   6.000   6.844   0.684
 3667SOL    HW111900   5.910   6.883   0.701
 3667SOL    HW211901   6.068   6.889   0.743
 3668SOL     OW11902   1.787   0.245   1.527
 3668SOL    HW111903   1.834   0.328   1.557
 3668SOL    HW211904   1.807   0.229   1.430
 3669SOL     OW11905   5.969   1.415   4.317
 3669SOL    HW111906   5.908   1.413   4.396
 3669SOL    HW211907   6.060   1.445   4.345
 3670SOL     OW11908   2.474   5.209   0.512
 3670SOL    HW111909   2.398   5.206   0.447
 3670SOL    HW211910   2.503   5.116   0.533
 3671SOL     OW11911   5.843   0.645   3.320
 3671SOL    HW111912   5.933   0.639   3.364
 3671SOL    HW211913   5.805   0.736   3.336
 3672SOL     OW11914   5.855   1.738   1.070
 3672SOL    HW111915   5.777   1.796   1.047
 3672SOL    HW211916   5.828   1.673   1.141
 3673SOL     OW11917   3.645   0.647   5.967
 3673SOL    HW111918   3.580   0.700   5.912
 3673SOL    HW211919   3.710   0.601   5.907
 3674SOL     OW11920   0.607   0.445   5.532
 3674SOL    HW111921   0.530   0.480   5.585
 3674SOL    HW211922   0.682   0.419   5.593
 3675SOL     OW11923   2.027   2.883   5.329
 3675SOL    HW111924   1.984   2.965   5.291
 3675SOL    HW211925   2.100   2.853   5.269
 3676SOL     OW11926   4.246   5.086   4.593
 3676SOL    HW111927   4.253   5.080   4.493
 3676SOL    HW211928   4.338   5.094   4.632
 3677SOL     OW11929   0.996   6.152   2.757
 3677SOL    HW111930   0.936   6.232   2.747
 3677SOL    HW211931   0.965   6.097   2.834
 3678SOL     OW11932   0.718   3.234   4.152
 3678SOL    HW111933   0.702   3.332   4.166
 3678SOL    HW211934   0.806   3.221   4.106
 3679SOL     OW11935   1.069   1.117   2.712
 3679SOL    HW111936   1.056   1.020   2.732
 3679SOL    HW211937   0.980   1.163   2.708
 3680SOL     OW11938   6.418   3.071   4.246
 3680SOL    HW111939   6.376   3.028   4.326
 3680SOL    HW211940   6.349   3.082   4.174
 3681SOL     OW11941   0.393   0.501   5.976
 3681SOL    HW111942   0.431   0.542   6.059
 3681SOL    HW211943   0.437   0.413   5.960
 3682SOL     OW11944   6.198   2.449   6.158
 3682SOL    HW111945   6.255   2.488   6.230
 3682SOL    HW211946   6.160   2.523   6.102
 3683SOL     OW11947   6.907   0.449   4.964
 3683SOL    HW111948   6.959   0.488   4.887
 3683SOL    HW211949   6.952   0.473   5.050
 3684SOL     OW11950   1.129   3.258   0.567
 3684SOL    HW111951   1.037   3.295   0.573
 3684SOL    HW211952   1.196   3.329   0.587
 3685SOL     OW11953   6.082   6.404   5.649
 3685SOL    HW111954   6.052   6.492   5.613
 3685SOL    HW211955   6.002   6.347   5.668
 3686SOL     OW11956   6.460   5.096   3.520
 3686SOL    HW111957   6.465   5.139   3.430
 3686SOL    HW211958   6.438   5.165   3.589
 3687SOL     OW11959   2.947   6.097   5.791
 3687SOL    HW111960   2.896   6.035   5.731
 3687SOL    HW211961   3.005   6.156   5.735
 3688SOL     OW11962   0.965   3.966   0.030
 3688SOL    HW111963   0.939   3.922   0.117
 3688SOL    HW211964   1.047   3.923   7.019
 3689SOL     OW11965   1.120   0.738   5.538
 3689SOL    HW111966   1.136   0.763   5.443
 3689SOL    HW211967   1.022   0.718   5.551
 3690SOL     OW11968   3.851   0.247   6.230
 3690SOL    HW111969   3.945   0.271   6.208
 3690SOL    HW211970   3.806   0.324   6.276
 3691SOL     OW11971   2.142   3.034   6.838
 3691SOL    HW111972   2.238   3.061   6.830
 3691SOL    HW211973   2.090   3.075   6.764
 3692SOL     OW11974   1.309   5.876   4.601
 3692SOL    HW111975   1.370   5.802   4.574
 3692SOL    HW211976   1.354   5.933   4.670
 3693SOL     OW11977   1.558   3.303   2.722
 3693SOL    HW111978   1.572   3.237   2.648
 3693SOL    HW211979   1.645   3.346   2.746
 3694SOL     OW11980   1.010   4.757   2.792
 3694SOL    HW111981   0.982   4.828   2.856
 3694SOL    HW211982   1.021   4.797   2.701
 3695SOL     OW11983   0.389   2.452   2.516
 3695SOL    HW111984   0.472   2.433   2.568
 3695SOL    HW211985   0.339   2.367   2.499
 3696SOL     OW11986   4.121   5.731   5.203
 3696SOL    HW111987   4.185   5.773   5.268
 3696SOL    HW211988   4.172   5.670   5.142
 3697SOL     OW11989   0.000   6.025   3.480
 3697SOL    HW111990   0.033   6.070   3.563
 3697SOL    HW211991   0.003   5.926   3.492
 3698SOL     OW11992   3.533   6.286   4.897
 3698SOL    HW111993   3.462   6.357   4.903
 3698SOL    HW211994   3.489   6.198   4.881
 3699SOL     OW11995   6.635   3.461   3.367
 3699SOL    HW111996   6.728   3.464   3.403
 3699SOL    HW211997   6.637   3.481   3.269
 3700SOL     OW11998   5.488   0.811   3.619
 3700SOL    HW111999   5.579   0.821   3.661
 3700SOL    HW212000   5.421   0.790   3.689
 3701SOL     OW12001   0.568   1.156   3.358
 3701SOL    HW112002   0.493   1.217   3.335
 3701SOL    HW212003   0.632   1.202   3.419
 3702SOL     OW12004   4.417   0.045   2.197
 3702SOL    HW112005   4.350   0.109   2.161
 3702SOL    HW212006   4.445   7.006   2.125
 3703SOL     OW12007   4.094   3.599   6.269
 3703SOL    HW112008   4.066   3.663   6.197
 3703SOL    HW212009   4.182   3.627   6.307
 3704SOL     OW12010   2.771   1.054   1.837
 3704SOL    HW112011   2.859   1.087   1.872
 3704SOL    HW212012   2.703   1.127   1.843
 3705SOL     OW12013   5.007   6.507   4.033
 3705SOL    HW112014   4.908   6.502   4.019
 3705SOL    HW212015   5.028   6.588   4.088
 3706SOL     OW12016   1.037   2.631   4.840
 3706SOL    HW112017   1.097   2.567   4.793
 3706SOL    HW212018   1.030   2.715   4.786
 3707SOL     OW12019   5.409   3.467   5.059
 3707SOL    HW112020   5.331   3.421   5.100
 3707SOL    HW212021   5.448   3.532   5.125
 3708SOL     OW12022   5.999   0.654   6.338
 3708SOL    HW112023   6.070   0.663   6.269
 3708SOL    HW212024   5.932   0.727   6.327
 3709SOL     OW12025   3.790   0.880   6.901
 3709SOL    HW112026   3.707   0.910   6.949
 3709SOL    HW212027   3.829   0.802   6.949
 3710SOL     OW12028   6.832   5.821   0.224
 3710SOL    HW112029   6.916   5.856   0.266
 3710SOL    HW212030   6.756   5.882   0.246
 3711SOL     OW12031   0.061   5.868   1.953
 3711SOL    HW112032   6.996   5.898   1.921
 3711SOL    HW212033   0.052   5.788   2.011
 3712SOL     OW12034   6.946   5.741   6.721
 3712SOL    HW112035   6.967   5.643   6.726
 3712SOL    HW212036   6.921   5.774   6.812
 3713SOL     OW12037   1.672   6.352   4.945
 3713SOL    HW112038   1.601   6.326   5.010
 3713SOL    HW212039   1.652   6.443   4.908
 3714SOL     OW12040   5.136   6.184   4.735
 3714SOL    HW112041   5.196   6.227   4.802
 3714SOL    HW212042   5.180   6.102   4.699
 3715SOL     OW12043   5.618   3.770   4.777
 3715SOL    HW112044   5.703   3.719   4.762
 3715SOL    HW212045   5.626   3.825   4.860
 3716SOL     OW12046   0.164   6.551   4.365
 3716SOL    HW112047   0.186   6.611   4.288
 3716SOL    HW212048   0.122   6.605   4.438
 3717SOL     OW12049   6.373   5.653   0.140
 3717SOL    HW112050   6.426   5.575   0.172
 3717SOL    HW212051   6.376   5.726   0.208
 3718SOL     OW12052   2.433   6.555   6.091
 3718SOL    HW112053   2.495   6.518   6.160
 3718SOL    HW212054   2.347   6.503   6.092
 3719SOL     OW12055   4.987   4.306   0.925
 3719SOL    HW112056   4.893   4.274   0.907
 3719SOL    HW212057   4.987   4.405   0.936
 3720SOL     OW12058   5.801   1.968   6.585
 3720SOL    HW112059   5.758   1.897   6.528
 3720SOL    HW212060   5.749   2.053   6.577
 3721SOL     OW12061   5.279   4.694   0.303
 3721SOL    HW112062   5.181   4.695   0.325
 3721SOL    HW212063   5.312   4.600   0.306
 3722SOL     OW12064   0.362   6.751   2.488
 3722SOL    HW112065   0.274   6.779   2.526
 3722SOL    HW212066   0.391   6.665   2.530
 3723SOL     OW12067   6.300   6.406   1.984
 3723SOL    HW112068   6.306   6.308   2.005
 3723SOL    HW212069   6.270   6.456   2.066
 3724SOL     OW12070   2.516   5.112   6.798
 3724SOL    HW112071   2.557   5.144   6.883
 3724SOL    HW212072   2.588   5.093   6.731
 3725SOL     OW12073   5.293   6.055   6.495
 3725SOL    HW112074   5.349   6.027   6.574
 3725SOL    HW212075   5.337   6.024   6.411
 3726SOL     OW12076   6.572   4.460   1.540
 3726SOL    HW112077   6.506   4.410   1.596
 3726SOL    HW212078   6.526   4.499   1.460
 3727SOL     OW12079   0.142   2.877   6.403
 3727SOL    HW112080   0.210   2.869   6.331
 3727SOL    HW212081   0.054   2.904   6.364
 3728SOL     OW12082   1.213   3.480   0.270
 3728SOL    HW112083   1.120   3.517   0.260
 3728SOL    HW212084   1.241   3.439   0.183
 3729SOL     OW12085   0.827   2.468   4.053
 3729SOL    HW112086   0.899   2.400   4.041
 3729SOL    HW212087   0.844   2.520   4.137
 3730SOL     OW12088   2.984   6.118   0.087
 3730SOL    HW112089   2.942   6.099   0.175
 3730SOL    HW212090   2.962   6.044   0.023
 3731SOL     OW12091   4.924   0.399   0.443
 3731SOL    HW112092   4.873   0.458   0.506
 3731SOL    HW212093   4.907   0.429   0.349
 3732SOL     OW12094   1.591   3.063   6.187
 3732SOL    HW112095   1.521   3.059   6.258
 3732SOL    HW212096   1.593   2.976   6.137
 3733SOL     OW12097   2.007   3.958   1.341
 3733SOL    HW112098   2.104   3.933   1.348
 3733SOL    HW212099   1.982   4.016   1.419
 3734SOL     OW12100   4.096   1.361   1.947
 3734SOL    HW112101   4.065   1.388   2.038
 3734SOL    HW212102   4.018   1.336   1.890
 3735SOL     OW12103   1.387   1.819   3.155
 3735SOL    HW112104   1.324   1.844   3.082
 3735SOL    HW212105   1.458   1.890   3.164
 3736SOL     OW12106   0.467   3.280   1.006
 3736SOL    HW112107   0.370   3.262   1.017
 3736SOL    HW212108   0.483   3.324   0.918
 3737SOL     OW12109   4.896   0.064   3.275
 3737SOL    HW112110   4.899   0.076   3.374
 3737SOL    HW212111   4.981   0.023   3.244
 3738SOL     OW12112   6.526   6.397   3.412
 3738SOL    HW112113   6.488   6.439   3.330
 3738SOL    HW212114   6.598   6.456   3.449
 3739SOL     OW12115   1.558   4.379   2.390
 3739SOL    HW112116   1.611   4.444   2.444
 3739SOL    HW212117   1.616   4.301   2.366
 3740SOL     OW12118   4.689   0.769   6.560
 3740SOL    HW112119   4.709   0.852   6.611
 3740SOL    HW212120   4.765   0.705   6.567
 3741SOL     OW12121   4.719   3.208   1.673
 3741SOL    HW112122   4.695   3.128   1.729
 3741SOL    HW212123   4.644   3.275   1.676
 3742SOL     OW12124   2.937   2.252   5.697
 3742SOL    HW112125   3.021   2.281   5.651
 3742SOL    HW212126   2.928   2.152   5.690
 3743SOL     OW12127   5.613   4.659   0.943
 3743SOL    HW112128   5.709   4.638   0.965
 3743SOL    HW212129   5.567   4.576   0.915
 3744SOL     OW12130   0.678   5.810   3.324
 3744SOL    HW112131   0.678   5.779   3.419
 3744SOL    HW212132   0.630   5.744   3.266
 3745SOL     OW12133   2.859   5.589   2.901
 3745SOL    HW112134   2.846   5.551   2.992
 3745SOL    HW212135   2.955   5.618   2.891
 3746SOL     OW12136   4.319   1.201   2.038
 3746SOL    HW112137   4.375   1.260   2.096
 3746SOL    HW212138   4.230   1.245   2.021
 3747SOL     OW12139   3.178   6.819   5.888
 3747SOL    HW112140   3.170   6.859   5.797
 3747SOL    HW212141   3.204   6.723   5.880
 3748SOL     OW12142   5.533   0.389   1.817
 3748SOL    HW112143   5.565   0.469   1.867
 3748SOL    HW212144   5.447   0.411   1.770
 3749SOL     OW12145   1.561   6.546   4.108
 3749SOL    HW112146   1.625   6.533   4.032
 3749SOL    HW212147   1.532   6.642   4.111
 3750SOL     OW12148   1.571   4.023   0.313
 3750SOL    HW112149   1.585   4.000   0.216
 3750SOL    HW212150   1.660   4.035   0.357
 3751SOL     OW12151   0.169   3.685   3.060
 3751SOL    HW112152   0.231   3.721   2.991
 3751SOL    HW212153   0.081   3.731   3.052
 3752SOL     OW12154   5.062   1.094   5.464
 3752SOL    HW112155   5.085   1.063   5.556
 3752SOL    HW212156   4.968   1.130   5.464
 3753SOL     OW12157   6.239   0.225   4.791
 3753SOL    HW112158   6.193   0.305   4.828
 3753SOL    HW212159   6.324   0.209   4.840
 3754SOL     OW12160   2.130   0.769   2.034
 3754SOL    HW112161   2.171   0.828   2.102
 3754SOL    HW212162   2.056   0.818   1.987
 3755SOL     OW12163   3.276   5.317   4.871
 3755SOL    HW112164   3.343   5.364   4.813
 3755SOL    HW212165   3.186   5.358   4.859
 3756SOL     OW12166   3.217   5.802   0.024
 3756SOL    HW112167   3.316   5.797   0.017
 3756SOL    HW212168   3.183   5.878   6.993
 3757SOL     OW12169   7.002   4.923   1.879
 3757SOL    HW112170   0.006   4.846   1.937
 3757SOL    HW212171   6.933   4.976   1.927
 3758SOL     OW12172   2.078   1.157   4.623
 3758SOL    HW112173   2.083   1.057   4.621
 3758SOL    HW212174   2.032   1.189   4.540
 3759SOL     OW12175   4.734   0.796   4.896
 3759SOL    HW112176   4.775   0.777   4.806
 3759SOL    HW212177   4.678   0.718   4.923
 3760SOL     OW12178   0.296   0.383   3.826
 3760SOL    HW112179   0.205   0.421   3.813
 3760SOL    HW212180   0.351   0.399   3.744
 3761SOL     OW12181   6.303   1.185   4.678
 3761SOL    HW112182   6.293   1.221   4.585
 3761SOL    HW212183   6.390   1.216   4.716
 3762SOL     OW12184   1.507   3.994   2.302
 3762SOL    HW112185   1.524   3.943   2.387
 3762SOL    HW212186   1.483   3.931   2.229
 3763SOL     OW12187   6.439   3.901   0.532
 3763SOL    HW112188   6.481   3.980   0.577
 3763SOL    HW212189   6.498   3.870   0.457
 3764SOL     OW12190   2.131   0.473   2.677
 3764SOL    HW112191   2.069   0.395   2.673
 3764SOL    HW212192   2.087   0.553   2.636
 3765SOL     OW12193   6.074   2.259   1.660
 3765SOL    HW112194   6.133   2.199   1.714
 3765SOL    HW212195   6.084   2.238   1.563
 3766SOL     OW12196   1.978   2.474   4.387
 3766SOL    HW112197   1.897   2.512   4.432
 3766SOL    HW212198   2.060   2.519   4.423
 3767SOL     OW12199   3.451   4.169   6.186
 3767SOL    HW112200   3.453   4.083   6.134
 3767SOL    HW212201   3.544   4.198   6.207
 3768SOL     OW12202   1.668   0.447   4.683
 3768SOL    HW112203   1.697   0.542   4.672
 3768SOL    HW212204   1.569   0.441   4.676
 3769SOL     OW12205   5.325   5.208   4.830
 3769SOL    HW112206   5.368   5.167   4.750
 3769SOL    HW212207   5.249   5.150   4.861
 3770SOL     OW12208   1.169   1.018   0.174
 3770SOL    HW112209   1.244   1.066   0.129
 3770SOL    HW212210   1.205   0.948   0.235
 3771SOL     OW12211   6.380   4.517   0.660
 3771SOL    HW112212   6.421   4.433   0.697
 3771SOL    HW212213   6.305   4.546   0.720
 3772SOL     OW12214   1.487   6.329   0.442
 3772SOL    HW112215   1.542   6.246   0.432
 3772SOL    HW212216   1.515   6.377   0.525
 3773SOL     OW12217   5.253   4.333   5.806
 3773SOL    HW112218   5.319   4.270   5.765
 3773SOL    HW212219   5.270   4.426   5.773
 3774SOL     OW12220   5.904   4.961   2.051
 3774SOL    HW112221   5.831   4.936   1.988
 3774SOL    HW212222   5.961   4.881   2.070
 3775SOL     OW12223   3.762   4.923   3.633
 3775SOL    HW112224   3.848   4.939   3.680
 3775SOL    HW212225   3.775   4.932   3.534
 3776SOL     OW12226   3.715   2.767   6.783
 3776SOL    HW112227   3.691   2.707   6.860
 3776SOL    HW212228   3.667   2.737   6.701
 3777SOL     OW12229   2.510   5.706   3.282
 3777SOL    HW112230   2.589   5.733   3.226
 3777SOL    HW212231   2.433   5.685   3.222
 3778SOL     OW12232   1.846   6.669   4.499
 3778SOL    HW112233   1.790   6.750   4.521
 3778SOL    HW212234   1.808   6.623   4.419
 3779SOL     OW12235   0.474   5.307   0.276
 3779SOL    HW112236   0.529   5.261   0.345
 3779SOL    HW212237   0.378   5.282   0.288
 3780SOL     OW12238   6.972   2.652   2.730
 3780SOL    HW112239   6.904   2.725   2.720
 3780SOL    HW212240   6.953   2.601   2.814
 3781SOL     OW12241   0.887   6.615   5.025
 3781SOL    HW112242   0.829   6.537   5.001
 3781SOL    HW212243   0.881   6.632   5.123
 3782SOL     OW12244   4.211   6.233   2.285
 3782SOL    HW112245   4.183   6.289   2.207
 3782SOL    HW212246   4.133   6.219   2.346
 3783SOL     OW12247   5.602   4.713   4.945
 3783SOL    HW112248   5.506   4.693   4.925
 3783SOL    HW212249   5.646   4.751   4.863
 3784SOL     OW12250   5.456   2.616   2.110
 3784SOL    HW112251   5.497   2.526   2.094
 3784SOL    HW212252   5.428   2.656   2.023
 3785SOL     OW12253   0.505   3.394   5.346
 3785SOL    HW112254   0.460   3.483   5.340
 3785SOL    HW212255   0.472   3.335   5.272
 3786SOL     OW12256   1.853   2.384   2.888
 3786SOL    HW112257   1.927   2.321   2.865
 3786SOL    HW212258   1.890   2.461   2.941
 3787SOL     OW12259   4.239   0.311   3.238
 3787SOL    HW112260   4.210   0.397   3.280
 3787SOL    HW212261   4.270   0.329   3.145
 3788SOL     OW12262   6.917   4.044   4.645
 3788SOL    HW112263   6.914   4.004   4.553
 3788SOL    HW212264   6.849   3.999   4.703
 3789SOL     OW12265   0.600   3.512   2.769
 3789SOL    HW112266   0.695   3.542   2.773
 3789SOL    HW212267   0.584   3.441   2.838
 3790SOL     OW12268   1.052   5.945   6.758
 3790SOL    HW112269   0.973   5.890   6.730
 3790SOL    HW212270   1.082   6.002   6.682
 3791SOL     OW12271   5.193   1.637   6.269
 3791SOL    HW112272   5.144   1.658   6.184
 3791SOL    HW212273   5.130   1.645   6.346
 3792SOL     OW12274   1.120   1.157   4.321
 3792SOL    HW112275   1.021   1.150   4.323
 3792SOL    HW212276   1.160   1.067   4.339
 3793SOL     OW12277   5.530   6.372   1.258
 3793SOL    HW112278   5.518   6.283   1.214
 3793SOL    HW212279   5.510   6.444   1.193
 3794SOL     OW12280   2.056   3.141   1.223
 3794SOL    HW112281   2.059   3.095   1.311
 3794SOL    HW212282   2.060   3.074   1.150
 3795SOL     OW12283   2.913   5.829   1.058
 3795SOL    HW112284   2.857   5.746   1.058
 3795SOL    HW212285   2.993   5.814   1.116
 3796SOL     OW12286   4.073   1.874   1.438
 3796SOL    HW112287   4.084   1.778   1.464
 3796SOL    HW212288   4.006   1.881   1.365
 3797SOL     OW12289   1.304   4.011   2.553
 3797SOL    HW112290   1.366   4.067   2.498
 3797SOL    HW212291   1.289   4.056   2.641
 3798SOL     OW12292   2.854   6.830   2.469
 3798SOL    HW112293   2.803   6.809   2.553
 3798SOL    HW212294   2.923   6.760   2.453
 3799SOL     OW12295   6.763   2.489   3.339
 3799SOL    HW112296   6.817   2.422   3.287
 3799SOL    HW212297   6.816   2.523   3.416
 3800SOL     OW12298   4.561   1.770   2.840
 3800SOL    HW112299   4.609   1.854   2.867
 3800SOL    HW212300   4.515   1.786   2.752
 3801SOL     OW12301   5.198   6.981   2.217
 3801SOL    HW112302   5.099   6.977   2.207
 3801SOL    HW212303   5.233   0.033   2.163
 3802SOL     OW12304   0.450   2.040   2.624
 3802SOL    HW112305   0.484   2.081   2.540
 3802SOL    HW212306   0.451   1.940   2.616
 3803SOL     OW12307   3.596   3.783   3.756
 3803SOL    HW112308   3.663   3.755   3.825
 3803SOL    HW212309   3.571   3.703   3.700
 3804SOL     OW12310   3.045   1.307   4.212
 3804SOL    HW112311   3.142   1.286   4.205
 3804SOL    HW212312   3.033   1.397   4.254
 3805SOL     OW12313   2.168   2.556   1.264
 3805SOL    HW112314   2.104   2.481   1.249
 3805SOL    HW212315   2.241   2.552   1.195
 3806SOL     OW12316   3.844   4.013   6.186
 3806SOL    HW112317   3.937   4.038   6.158
 3806SOL    HW212318   3.793   4.096   6.209
 3807SOL     OW12319   1.331   4.523   4.560
 3807SOL    HW112320   1.292   4.469   4.634
 3807SOL    HW212321   1.430   4.511   4.559
 3808SOL     OW12322   4.804   0.213   5.520
 3808SOL    HW112323   4.775   0.280   5.451
 3808SOL    HW212324   4.897   0.184   5.500
 3809SOL     OW12325   6.222   2.103   1.799
 3809SOL    HW112326   6.239   2.105   1.897
 3809SOL    HW212327   6.297   2.055   1.753
 3810SOL     OW12328   6.895   2.816   3.119
 3810SOL    HW112329   6.867   2.723   3.142
 3810SOL    HW212330   6.929   2.862   3.201
 3811SOL     OW12331   6.811   6.346   4.403
 3811SOL    HW112332   6.814   6.258   4.357
 3811SOL    HW212333   6.716   6.373   4.417
 3812SOL     OW12334   3.336   5.274   6.358
 3812SOL    HW112335   3.330   5.360   6.307
 3812SOL    HW212336   3.430   5.241   6.357
 3813SOL     OW12337   6.193   4.034   1.082
 3813SOL    HW112338   6.267   3.967   1.078
 3813SOL    HW212339   6.105   3.987   1.089
 3814SOL     OW12340   0.199   0.065   3.821
 3814SOL    HW112341   0.216   0.163   3.832
 3814SOL    HW212342   0.108   0.042   3.857
 3815SOL     OW12343   5.268   2.882   0.777
 3815SOL    HW112344   5.356   2.901   0.820
 3815SOL    HW212345   5.238   2.961   0.724
 3816SOL     OW12346   0.983   5.885   5.217
 3816SOL    HW112347   1.033   5.858   5.299
 3816SOL    HW212348   1.015   5.975   5.187
 3817SOL     OW12349   5.015   3.591   2.388
 3817SOL    HW112350   4.976   3.650   2.459
 3817SOL    HW212351   5.113   3.578   2.405
 3818SOL     OW12352   0.315   0.586   1.193
 3818SOL    HW112353   0.327   0.614   1.098
 3818SOL    HW212354   0.322   0.486   1.200
 3819SOL     OW12355   6.320   4.352   2.801
 3819SOL    HW112356   6.238   4.407   2.814
 3819SOL    HW212357   6.365   4.377   2.716
 3820SOL     OW12358   5.423   6.699   3.703
 3820SOL    HW112359   5.392   6.605   3.690
 3820SOL    HW212360   5.508   6.713   3.654
 3821SOL     OW12361   0.780   0.593   0.966
 3821SOL    HW112362   0.742   0.550   0.884
 3821SOL    HW212363   0.709   0.647   1.012
 3822SOL     OW12364   2.611   6.854   6.751
 3822SOL    HW112365   2.621   6.755   6.754
 3822SOL    HW212366   2.615   6.891   6.844
 3823SOL     OW12367   4.551   4.558   6.461
 3823SOL    HW112368   4.544   4.634   6.526
 3823SOL    HW212369   4.615   4.490   6.497
 3824SOL     OW12370   1.136   2.196   0.898
 3824SOL    HW112371   1.196   2.269   0.864
 3824SOL    HW212372   1.178   2.156   0.979
 3825SOL     OW12373   1.187   4.212   0.998
 3825SOL    HW112374   1.140   4.140   0.946
 3825SOL    HW212375   1.281   4.220   0.966
 3826SOL     OW12376   0.030   3.669   1.936
 3826SOL    HW112377   0.063   3.585   1.979
 3826SOL    HW212378   0.091   3.744   1.958
 3827SOL     OW12379   0.556   0.699   1.811
 3827SOL    HW112380   0.572   0.624   1.875
 3827SOL    HW212381   0.545   0.662   1.719
 3828SOL     OW12382   3.627   3.999   4.684
 3828SOL    HW112383   3.592   4.089   4.657
 3828SOL    HW212384   3.653   4.000   4.780
 3829SOL     OW12385   0.416   4.930   1.957
 3829SOL    HW112386   0.395   5.028   1.947
 3829SOL    HW212387   0.515   4.918   1.963
 3830SOL     OW12388   0.306   0.897   5.545
 3830SOL    HW112389   0.311   0.812   5.494
 3830SOL    HW212390   0.295   0.878   5.642
 3831SOL     OW12391   4.292   2.015   2.920
 3831SOL    HW112392   4.336   2.020   3.010
 3831SOL    HW212393   4.334   2.081   2.858
 3832SOL     OW12394   6.561   0.728   2.459
 3832SOL    HW112395   6.535   0.821   2.482
 3832SOL    HW212396   6.507   0.696   2.381
 3833SOL     OW12397   1.951   6.938   6.500
 3833SOL    HW112398   2.041   6.914   6.536
 3833SOL    HW212399   1.916   6.864   6.442
 3834SOL     OW12400   4.097   4.211   1.037
 3834SOL    HW112401   4.080   4.156   0.955
 3834SOL    HW212402   4.068   4.160   1.118
 3835SOL     OW12403   4.131   5.920   4.897
 3835SOL    HW112404   4.204   5.981   4.929
 3835SOL    HW212405   4.042   5.960   4.920
 3836SOL     OW12406   0.689   4.694   5.669
 3836SOL    HW112407   0.705   4.636   5.749
 3836SOL    HW212408   0.761   4.764   5.664
 3837SOL     OW12409   4.397   5.410   5.289
 3837SOL    HW112410   4.396   5.365   5.200
 3837SOL    HW212411   4.425   5.506   5.277
 3838SOL     OW12412   1.510   2.066   3.240
 3838SOL    HW112413   1.448   2.136   3.274
 3838SOL    HW212414   1.519   2.075   3.141
 3839SOL     OW12415   3.958   0.684   2.873
 3839SOL    HW112416   3.884   0.749   2.890
 3839SOL    HW212417   3.919   0.598   2.838
 3840SOL     OW12418   2.934   1.876   5.846
 3840SOL    HW112419   2.953   1.969   5.816
 3840SOL    HW212420   2.897   1.823   5.770
 3841SOL     OW12421   1.383   3.909   4.608
 3841SOL    HW112422   1.403   4.007   4.611
 3841SOL    HW212423   1.466   3.860   4.581
 3842SOL     OW12424   2.334   2.809   4.040
 3842SOL    HW112425   2.296   2.762   4.119
 3842SOL    HW212426   2.418   2.763   4.011
 3843SOL     OW12427   5.474   3.723   0.754
 3843SOL    HW112428   5.548   3.656   0.748
 3843SOL    HW212429   5.504   3.810   0.715
 3844SOL     OW12430   1.380   4.220   6.785
 3844SOL    HW112431   1.316   4.281   6.738
 3844SOL    HW212432   1.353   4.125   6.769
 3845SOL     OW12433   2.652   5.835   6.703
 3845SOL    HW112434   2.617   5.816   6.612
 3845SOL    HW212435   2.577   5.838   6.769
 3846SOL     OW12436   0.753   3.822   4.382
 3846SOL    HW112437   0.844   3.842   4.344
 3846SOL    HW212438   0.709   3.907   4.409
 3847SOL     OW12439   5.026   2.618   4.654
 3847SOL    HW112440   5.080   2.656   4.728
 3847SOL    HW212441   4.971   2.690   4.612
 3848SOL     OW12442   4.813   3.983   2.675
 3848SOL    HW112443   4.792   4.044   2.751
 3848SOL    HW212444   4.817   3.889   2.708
 3849SOL     OW12445   0.639   0.379   6.317
 3849SOL    HW112446   0.726   0.381   6.366
 3849SOL    HW212447   0.571   0.433   6.366
 3850SOL     OW12448   3.530   2.954   1.570
 3850SOL    HW112449   3.500   2.859   1.564
 3850SOL    HW212450   3.479   3.000   1.643
 3851SOL     OW12451   7.003   4.741   3.430
 3851SOL    HW112452   7.010   4.836   3.462
 3851SOL    HW212453   6.907   4.718   3.415
 3852SOL     OW12454   3.280   6.216   4.286
 3852SOL    HW112455   3.312   6.122   4.274
 3852SOL    HW212456   3.355   6.273   4.319
 3853SOL     OW12457   1.178   2.920   3.096
 3853SOL    HW112458   1.130   3.005   3.074
 3853SOL    HW212459   1.276   2.932   3.084
 3854SOL     OW12460   1.073   2.442   2.700
 3854SOL    HW112461   1.124   2.505   2.642
 3854SOL    HW212462   1.045   2.489   2.784
 3855SOL     OW12463   4.139   6.125   6.716
 3855SOL    HW112464   4.222   6.091   6.760
 3855SOL    HW212465   4.059   6.080   6.755
 3856SOL     OW12466   0.355   1.344   5.880
 3856SOL    HW112467   0.265   1.338   5.924
 3856SOL    HW212468   0.404   1.424   5.915
 3857SOL     OW12469   1.549   6.434   6.252
 3857SOL    HW112470   1.610   6.354   6.253
 3857SOL    HW212471   1.456   6.405   6.273
 3858SOL     OW12472   3.460   1.102   6.094
 3858SOL    HW112473   3.456   1.124   5.996
 3858SOL    HW212474   3.403   1.022   6.113
 3859SOL     OW12475   6.071   0.627   2.008
 3859SOL    HW112476   6.142   0.698   2.007
 3859SOL    HW212477   6.073   0.579   2.096
 3860SOL     OW12478   1.551   1.280   4.688
 3860SOL    HW112479   1.496   1.355   4.653
 3860SOL    HW212480   1.530   1.265   4.785
 3861SOL     OW12481   4.655   6.023   2.934
 3861SOL    HW112482   4.643   6.030   3.033
 3861SOL    HW212483   4.690   6.109   2.899
 3862SOL     OW12484   0.408   0.280   4.713
 3862SOL    HW112485   0.386   0.376   4.696
 3862SOL    HW212486   0.507   0.267   4.708
 3863SOL     OW12487   6.125   1.478   6.819
 3863SOL    HW112488   6.110   1.501   6.723
 3863SOL    HW212489   6.110   1.560   6.875
 3864SOL     OW12490   2.284   0.560   5.146
 3864SOL    HW112491   2.276   0.534   5.242
 3864SOL    HW212492   2.242   0.490   5.088
 3865SOL     OW12493   4.347   1.248   1.207
 3865SOL    HW112494   4.286   1.300   1.147
 3865SOL    HW212495   4.297   1.173   1.249
 3866SOL     OW12496   4.152   0.752   0.130
 3866SOL    HW112497   4.097   0.669   0.128
 3866SOL    HW212498   4.101   0.825   0.175
 3867SOL     OW12499   0.769   4.256   3.465
 3867SOL    HW112500   0.671   4.279   3.465
 3867SOL    HW212501   0.822   4.340   3.469
 3868SOL     OW12502   3.472   6.904   0.048
 3868SOL    HW112503   3.386   6.888   7.023
 3868SOL    HW212504   3.537   6.831   0.027
 3869SOL     OW12505   6.669   3.147   4.175
 3869SOL    HW112506   6.696   3.138   4.079
 3869SOL    HW212507   6.592   3.086   4.193
 3870SOL     OW12508   0.069   6.395   0.778
 3870SOL    HW112509   0.152   6.431   0.736
 3870SOL    HW212510   0.005   6.366   0.707
 3871SOL     OW12511   3.556   0.732   3.199
 3871SOL    HW112512   3.462   0.733   3.233
 3871SOL    HW212513   3.610   0.667   3.252
 3872SOL     OW12514   3.277   3.540   3.847
 3872SOL    HW112515   3.189   3.526   3.891
 3872SOL    HW212516   3.313   3.630   3.872
 3873SOL     OW12517   5.602   4.180   1.019
 3873SOL    HW112518   5.690   4.143   0.991
 3873SOL    HW212519   5.614   4.237   1.101
 3874SOL     OW12520   4.293   0.117   7.003
 3874SOL    HW112521   4.363   0.058   6.964
 3874SOL    HW212522   4.223   0.061   0.024
 3875SOL     OW12523   2.067   3.162   3.192
 3875SOL    HW112524   2.112   3.250   3.183
 3875SOL    HW212525   2.112   3.094   3.134
 3876SOL     OW12526   3.730   5.555   1.039
 3876SOL    HW112527   3.652   5.507   0.999
 3876SOL    HW212528   3.815   5.509   1.012
 3877SOL     OW12529   5.937   2.334   1.249
 3877SOL    HW112530   5.997   2.256   1.265
 3877SOL    HW212531   5.848   2.301   1.216
 3878SOL     OW12532   4.527   6.766   4.730
 3878SOL    HW112533   4.615   6.811   4.714
 3878SOL    HW212534   4.536   6.668   4.714
 3879SOL     OW12535   6.133   5.549   0.786
 3879SOL    HW112536   6.187   5.594   0.857
 3879SOL    HW212537   6.173   5.568   0.696
 3880SOL     OW12538   5.190   3.962   4.632
 3880SOL    HW112539   5.160   3.867   4.625
 3880SOL    HW212540   5.288   3.968   4.618
 3881SOL     OW12541   1.461   3.527   1.191
 3881SOL    HW112542   1.426   3.569   1.275
 3881SOL    HW212543   1.530   3.458   1.214
 3882SOL     OW12544   0.881   1.305   6.025
 3882SOL    HW112545   0.877   1.384   5.964
 3882SOL    HW212546   0.802   1.246   6.008
 3883SOL     OW12547   3.763   1.477   2.242
 3883SOL    HW112548   3.709   1.491   2.325
 3883SOL    HW212549   3.759   1.560   2.186
 3884SOL     OW12550   0.684   6.044   2.233
 3884SOL    HW112551   0.585   6.053   2.243
 3884SOL    HW212552   0.715   5.961   2.279
 3885SOL     OW12553   6.556   5.435   2.778
 3885SOL    HW112554   6.578   5.530   2.800
 3885SOL    HW212555   6.531   5.386   2.862
 3886SOL     OW12556   4.912   5.973   5.074
 3886SOL    HW112557   4.822   5.931   5.087
 3886SOL    HW212558   4.929   5.986   4.977
 3887SOL     OW12559   1.080   0.121   6.764
 3887SOL    HW112560   1.152   0.176   6.723
 3887SOL    HW212561   1.052   0.049   6.701
 3888SOL     OW12562   6.625   0.058   5.319
 3888SOL    HW112563   6.590   7.012   5.257
 3888SOL    HW212564   6.711   0.027   5.360
 3889SOL     OW12565   6.757   3.784   0.438
 3889SOL    HW112566   6.712   3.742   0.518
 3889SOL    HW212567   6.829   3.845   0.469
 3890SOL     OW12568   6.427   4.335   3.330
 3890SOL    HW112569   6.468   4.426   3.335
 3890SOL    HW212570   6.418   4.297   3.422
 3891SOL     OW12571   5.582   3.886   4.321
 3891SOL    HW112572   5.521   3.821   4.275
 3891SOL    HW212573   5.650   3.919   4.256
 3892SOL     OW12574   0.112   1.958   1.545
 3892SOL    HW112575   0.097   2.056   1.559
 3892SOL    HW212576   0.182   1.925   1.608
 3893SOL     OW12577   4.231   3.551   6.648
 3893SOL    HW112578   4.308   3.514   6.700
 3893SOL    HW212579   4.173   3.475   6.616
 3894SOL     OW12580   4.560   0.761   0.456
 3894SOL    HW112581   4.630   0.805   0.512
 3894SOL    HW212582   4.474   0.757   0.507
 3895SOL     OW12583   1.067   0.562   5.788
 3895SOL    HW112584   1.003   0.626   5.830
 3895SOL    HW212585   1.091   0.594   5.697
 3896SOL     OW12586   0.090   1.182   5.517
 3896SOL    HW112587   0.106   1.267   5.468
 3896SOL    HW212588   0.113   1.104   5.459
 3897SOL     OW12589   3.653   5.668   2.384
 3897SOL    HW112590   3.689   5.594   2.441
 3897SOL    HW212591   3.555   5.679   2.401
 3898SOL     OW12592   2.563   3.141   6.016
 3898SOL    HW112593   2.473   3.147   5.972
 3898SOL    HW212594   2.558   3.080   6.095
 3899SOL     OW12595   4.398   6.773   5.363
 3899SOL    HW112596   4.497   6.781   5.361
 3899SOL    HW212597   4.359   6.843   5.422
 3900SOL     OW12598   4.871   3.417   3.578
 3900SOL    HW112599   4.775   3.440   3.558
 3900SOL    HW212600   4.922   3.410   3.492
 3901SOL     OW12601   2.944   0.402   5.678
 3901SOL    HW112602   2.909   0.333   5.614
 3901SOL    HW212603   3.044   0.399   5.678
 3902SOL     OW12604   6.060   2.786   1.987
 3902SOL    HW112605   6.063   2.843   1.906
 3902SOL    HW212606   6.086   2.692   1.963
 3903SOL     OW12607   3.801   5.582   6.830
 3903SOL    HW112608   3.776   5.578   6.733
 3903SOL    HW212609   3.882   5.526   6.846
 3904SOL     OW12610   2.739   1.201   5.920
 3904SOL    HW112611   2.677   1.240   5.988
 3904SOL    HW212612   2.694   1.200   5.831
 3905SOL     OW12613   0.237   0.309   6.904
 3905SOL    HW112614   0.278   0.255   6.978
 3905SOL    HW212615   0.140   0.321   6.922
 3906SOL     OW12616   5.832   6.007   5.507
 3906SOL    HW112617   5.806   6.016   5.603
 3906SOL    HW212618   5.930   6.024   5.497
 3907SOL     OW12619   5.819   1.103   3.491
 3907SOL    HW112620   5.882   1.026   3.477
 3907SOL    HW212621   5.853   1.160   3.565
 3908SOL     OW12622   0.965   2.320   0.191
 3908SOL    HW112623   1.038   2.383   0.162
 3908SOL    HW212624   0.965   2.314   0.291
 3909SOL     OW12625   6.834   6.013   5.584
 3909SOL    HW112626   6.747   5.992   5.540
 3909SOL    HW212627   6.909   5.968   5.535
 3910SOL     OW12628   3.894   3.509   2.582
 3910SOL    HW112629   3.850   3.419   2.581
 3910SOL    HW212630   3.847   3.568   2.647
 3911SOL     OW12631   4.552   1.553   5.861
 3911SOL    HW112632   4.632   1.539   5.919
 3911SOL    HW212633   4.550   1.647   5.828
 3912SOL     OW12634   4.743   1.037   5.253
 3912SOL    HW112635   4.757   1.080   5.342
 3912SOL    HW212636   4.785   1.093   5.182
 3913SOL     OW12637   2.616   6.763   6.367
 3913SOL    HW112638   2.713   6.786   6.361
 3913SOL    HW212639   2.600   6.674   6.323
 3914SOL     OW12640   3.234   0.819   0.851
 3914SOL    HW112641   3.222   0.918   0.853
 3914SOL    HW212642   3.148   0.774   0.877
 3915SOL     OW12643   4.799   4.978   1.798
 3915SOL    HW112644   4.819   5.074   1.815
 3915SOL    HW212645   4.760   4.968   1.706
 3916SOL     OW12646   1.347   0.309   4.246
 3916SOL    HW112647   1.290   0.246   4.194
 3916SOL    HW212648   1.380   0.382   4.186
 3917SOL     OW12649   5.778   5.932   0.212
 3917SOL    HW112650   5.876   5.951   0.212
 3917SOL    HW212651   5.742   5.943   0.119
 3918SOL     OW12652   5.176   5.960   1.490
 3918SOL    HW112653   5.154   5.980   1.395
 3918SOL    HW212654   5.102   5.906   1.531
 3919SOL     OW12655   3.024   6.684   6.687
 3919SOL    HW112656   3.070   6.651   6.769
 3919SOL    HW212657   2.926   6.667   6.694
 3920SOL     OW12658   3.529   3.241   0.827
 3920SOL    HW112659   3.492   3.156   0.863
 3920SOL    HW212660   3.492   3.318   0.879
 3921SOL     OW12661   0.503   3.557   1.534
 3921SOL    HW112662   0.517   3.458   1.534
 3921SOL    HW212663   0.554   3.598   1.609
 3922SOL     OW12664   6.731   3.452   1.931
 3922SOL    HW112665   6.713   3.400   1.847
 3922SOL    HW212666   6.774   3.539   1.908
 3923SOL     OW12667   6.423   1.121   6.804
 3923SOL    HW112668   6.485   1.112   6.726
 3923SOL    HW212669   6.451   1.056   6.875
 3924SOL     OW12670   0.541   4.969   3.507
 3924SOL    HW112671   0.632   4.931   3.522
 3924SOL    HW212672   0.520   5.036   3.579
 3925SOL     OW12673   3.191   5.079   1.197
 3925SOL    HW112674   3.198   5.044   1.290
 3925SOL    HW212675   3.099   5.113   1.180
 3926SOL     OW12676   0.085   6.176   3.015
 3926SOL    HW112677   0.099   6.102   3.080
 3926SOL    HW212678   0.114   6.145   2.924
 3927SOL     OW12679   6.556   2.748   3.522
 3927SOL    HW112680   6.458   2.769   3.516
 3927SOL    HW212681   6.568   2.648   3.525
 3928SOL     OW12682   3.507   6.239   5.694
 3928SOL    HW112683   3.481   6.330   5.664
 3928SOL    HW212684   3.597   6.215   5.656
 3929SOL     OW12685   0.288   0.708   5.361
 3929SOL    HW112686   0.280   0.703   5.262
 3929SOL    HW212687   0.245   0.628   5.403
 3930SOL     OW12688   2.324   1.676   3.929
 3930SOL    HW112689   2.348   1.729   4.010
 3930SOL    HW212690   2.311   1.580   3.955
 3931SOL     OW12691   1.711   0.944   1.808
 3931SOL    HW112692   1.635   0.957   1.872
 3931SOL    HW212693   1.771   1.024   1.809
 3932SOL     OW12694   1.884   4.640   3.298
 3932SOL    HW112695   1.890   4.583   3.380
 3932SOL    HW212696   1.976   4.659   3.264
 3933SOL     OW12697   2.463   6.005   6.820
 3933SOL    HW112698   2.450   6.043   6.912
 3933SOL    HW212699   2.543   6.046   6.778
 3934SOL     OW12700   6.707   1.210   0.491
 3934SOL    HW112701   6.777   1.281   0.498
 3934SOL    HW212702   6.634   1.240   0.429
 3935SOL     OW12703   2.541   6.570   0.119
 3935SOL    HW112704   2.560   6.500   0.188
 3935SOL    HW212705   2.626   6.619   0.098
 3936SOL     OW12706   0.507   4.965   5.648
 3936SOL    HW112707   0.425   4.939   5.597
 3936SOL    HW212708   0.561   4.884   5.669
 3937SOL     OW12709   6.934   1.642   3.489
 3937SOL    HW112710   6.964   1.727   3.446
 3937SOL    HW212711   6.886   1.663   3.575
 3938SOL     OW12712   0.161   2.339   4.148
 3938SOL    HW112713   0.260   2.328   4.150
 3938SOL    HW212714   0.137   2.429   4.184
 3939SOL     OW12715   2.286   1.995   2.851
 3939SOL    HW112716   2.281   1.970   2.754
 3939SOL    HW212717   2.222   1.938   2.903
 3940SOL     OW12718   4.762   5.436   1.229
 3940SOL    HW112719   4.742   5.345   1.192
 3940SOL    HW212720   4.760   5.433   1.328
 3941SOL     OW12721   4.500   2.756   6.255
 3941SOL    HW112722   4.501   2.770   6.156
 3941SOL    HW212723   4.594   2.753   6.289
 3942SOL     OW12724   0.147   0.127   6.690
 3942SOL    HW112725   0.212   0.169   6.753
 3942SOL    HW212726   0.065   0.098   6.740
 3943SOL     OW12727   6.868   3.599   3.199
 3943SOL    HW112728   6.903   3.545   3.275
 3943SOL    HW212729   6.794   3.550   3.154
 3944SOL     OW12730   4.784   2.801   4.964
 3944SOL    HW112731   4.718   2.773   5.035
 3944SOL    HW212732   4.876   2.773   4.992
 3945SOL     OW12733   6.934   1.541   0.861
 3945SOL    HW112734   6.959   1.464   0.918
 3945SOL    HW212735   6.954   1.627   0.909
 3946SOL     OW12736   5.441   5.574   5.566
 3946SOL    HW112737   5.468   5.651   5.508
 3946SOL    HW212738   5.364   5.526   5.524
 3947SOL     OW12739   5.567   5.721   0.686
 3947SOL    HW112740   5.509   5.747   0.609
 3947SOL    HW212741   5.634   5.793   0.702
 3948SOL     OW12742   1.235   6.051   1.701
 3948SOL    HW112743   1.331   6.027   1.720
 3948SOL    HW212744   1.190   5.974   1.655
 3949SOL     OW12745   4.739   0.316   3.381
 3949SOL    HW112746   4.834   0.326   3.411
 3949SOL    HW212747   4.714   0.393   3.323
 3950SOL     OW12748   1.954   4.184   1.555
 3950SOL    HW112749   1.882   4.243   1.592
 3950SOL    HW212750   2.009   4.236   1.489
 3951SOL     OW12751   5.637   6.533   0.756
 3951SOL    HW112752   5.734   6.513   0.760
 3951SOL    HW212753   5.612   6.558   0.662
 3952SOL     OW12754   6.479   3.196   2.715
 3952SOL    HW112755   6.391   3.154   2.735
 3952SOL    HW212756   6.511   3.248   2.795
 3953SOL     OW12757   3.939   4.634   1.697
 3953SOL    HW112758   3.938   4.585   1.609
 3953SOL    HW212759   4.019   4.607   1.749
 3954SOL     OW12760   4.718   4.755   4.871
 3954SOL    HW112761   4.707   4.680   4.936
 3954SOL    HW212762   4.632   4.771   4.823
 3955SOL     OW12763   3.083   5.962   6.858
 3955SOL    HW112764   3.026   5.909   6.796
 3955SOL    HW212765   3.117   6.043   6.811
 3956SOL     OW12766   7.016   0.964   3.688
 3956SOL    HW112767   6.949   1.035   3.710
 3956SOL    HW212768   0.059   1.000   3.624
 3957SOL     OW12769   4.685   6.464   4.092
 3957SOL    HW112770   4.727   6.390   4.145
 3957SOL    HW212771   4.597   6.432   4.055
 3958SOL     OW12772   5.900   1.126   4.604
 3958SOL    HW112773   5.895   1.059   4.678
 3958SOL    HW212774   5.979   1.106   4.546
 3959SOL     OW12775   4.400   6.686   0.444
 3959SOL    HW112776   4.480   6.680   0.384
 3959SOL    HW212777   4.382   6.597   0.485
 3960SOL     OW12778   4.724   1.724   6.767
 3960SOL    HW112779   4.676   1.796   6.817
 3960SOL    HW212780   4.661   1.680   6.703
 3961SOL     OW12781   5.226   1.984   2.358
 3961SOL    HW112782   5.184   2.062   2.405
 3961SOL    HW212783   5.271   2.015   2.275
 3962SOL     OW12784   2.587   3.911   0.209
 3962SOL    HW112785   2.573   3.848   0.285
 3962SOL    HW212786   2.500   3.924   0.160
 3963SOL     OW12787   4.707   4.621   4.039
 3963SOL    HW112788   4.718   4.665   4.128
 3963SOL    HW212789   4.630   4.557   4.043
 3964SOL     OW12790   4.495   4.828   4.046
 3964SOL    HW112791   4.493   4.902   3.978
 3964SOL    HW212792   4.526   4.744   4.002
 3965SOL     OW12793   4.850   2.972   5.513
 3965SOL    HW112794   4.849   3.069   5.490
 3965SOL    HW212795   4.765   2.929   5.484
 3966SOL     OW12796   5.175   6.284   7.022
 3966SOL    HW112797   5.083   6.291   6.982
 3966SOL    HW212798   5.242   6.273   6.949
 3967SOL     OW12799   2.069   3.156   2.286
 3967SOL    HW112800   1.972   3.132   2.294
 3967SOL    HW212801   2.082   3.217   2.207
 3968SOL     OW12802   5.235   0.609   1.582
 3968SOL    HW112803   5.167   0.604   1.509
 3968SOL    HW212804   5.215   0.689   1.640
 3969SOL     OW12805   1.718   4.156   2.331
 3969SOL    HW112806   1.768   4.113   2.255
 3969SOL    HW212807   1.631   4.109   2.345
 3970SOL     OW12808   6.102   6.437   3.964
 3970SOL    HW112809   6.106   6.341   3.937
 3970SOL    HW212810   6.174   6.456   4.031
 3971SOL     OW12811   3.161   5.411   2.349
 3971SOL    HW112812   3.101   5.397   2.427
 3971SOL    HW212813   3.144   5.341   2.280
 3972SOL     OW12814   1.465   4.340   1.016
 3972SOL    HW112815   1.515   4.262   1.055
 3972SOL    HW212816   1.501   4.361   0.925
 3973SOL     OW12817   1.724   5.277   0.025
 3973SOL    HW112818   1.780   5.263   0.107
 3973SOL    HW212819   1.702   5.189   7.008
 3974SOL     OW12820   1.859   0.555   4.382
 3974SOL    HW112821   1.800   0.635   4.388
 3974SOL    HW212822   1.926   0.558   4.456
 3975SOL     OW12823   5.640   1.336   5.072
 3975SOL    HW112824   5.562   1.275   5.088
 3975SOL    HW212825   5.713   1.314   5.137
 3976SOL     OW12826   1.951   6.049   1.641
 3976SOL    HW112827   2.050   6.039   1.633
 3976SOL    HW212828   1.918   6.118   1.577
 3977SOL     OW12829   2.572   3.958   5.601
 3977SOL    HW112830   2.497   4.024   5.594
 3977SOL    HW212831   2.550   3.889   5.669
 3978SOL     OW12832   6.024   5.069   4.381
 3978SOL    HW112833   5.965   5.149   4.369
 3978SOL    HW212834   5.977   4.999   4.434
 3979SOL     OW12835   3.111   6.869   0.771
 3979SOL    HW112836   3.040   6.804   0.799
 3979SOL    HW212837   3.163   6.831   0.694
 3980SOL     OW12838   5.601   6.071   0.428
 3980SOL    HW112839   5.660   6.005   0.381
 3980SOL    HW212840   5.558   6.131   0.361
 3981SOL     OW12841   2.482   0.875   0.472
 3981SOL    HW112842   2.543   0.907   0.400
 3981SOL    HW212843   2.455   0.781   0.453
 3982SOL     OW12844   2.329   6.879   3.584
 3982SOL    HW112845   2.405   6.882   3.648
 3982SOL    HW212846   2.285   6.969   3.580
 3983SOL     OW12847   5.238   4.598   4.120
 3983SOL    HW112848   5.163   4.585   4.055
 3983SOL    HW212849   5.268   4.694   4.117
 3984SOL     OW12850   6.673   1.418   3.319
 3984SOL    HW112851   6.757   1.392   3.367
 3984SOL    HW212852   6.655   1.352   3.246
 3985SOL     OW12853   3.075   4.395   6.700
 3985SOL    HW112854   3.111   4.302   6.706
 3985SOL    HW212855   2.981   4.398   6.732
 3986SOL     OW12856   5.175   2.388   3.084
 3986SOL    HW112857   5.106   2.354   3.148
 3986SOL    HW212858   5.229   2.311   3.050
 3987SOL     OW12859   3.464   5.342   3.617
 3987SOL    HW112860   3.398   5.282   3.662
 3987SOL    HW212861   3.545   5.352   3.676
 3988SOL     OW12862   3.547   4.234   6.789
 3988SOL    HW112863   3.455   4.272   6.803
 3988SOL    HW212864   3.541   4.135   6.777
 3989SOL     OW12865   6.439   2.632   6.923
 3989SOL    HW112866   6.507   2.688   6.970
 3989SOL    HW212867   6.387   2.579   6.991
 3990SOL     OW12868   4.642   2.150   2.410
 3990SOL    HW112869   4.705   2.100   2.350
 3990SOL    HW212870   4.549   2.139   2.376
 3991SOL     OW12871   5.721   0.995   2.813
 3991SOL    HW112872   5.782   1.074   2.810
 3991SOL    HW212873   5.771   0.913   2.783
 3992SOL     OW12874   3.437   1.857   6.888
 3992SOL    HW112875   3.337   1.855   6.877
 3992SOL    HW212876   3.473   1.943   6.850
 3993SOL     OW12877   1.228   1.869   2.945
 3993SOL    HW112878   1.242   1.805   2.869
 3993SOL    HW212879   1.130   1.885   2.958
 3994SOL     OW12880   1.955   0.379   5.564
 3994SOL    HW112881   1.885   0.337   5.622
 3994SOL    HW212882   2.045   0.360   5.602
 3995SOL     OW12883   2.809   3.438   6.259
 3995SOL    HW112884   2.776   3.469   6.348
 3995SOL    HW212885   2.905   3.465   6.249
 3996SOL     OW12886   1.083   0.202   4.424
 3996SOL    HW112887   1.126   0.112   4.419
 3996SOL    HW212888   1.144   0.270   4.384
 3997SOL     OW12889   5.241   1.746   3.847
 3997SOL    HW112890   5.237   1.685   3.768
 3997SOL    HW212891   5.299   1.824   3.826
 3998SOL     OW12892   4.401   1.625   3.968
 3998SOL    HW112893   4.363   1.589   3.883
 3998SOL    HW212894   4.338   1.693   4.007
 3999SOL     OW12895   5.805   3.911   4.163
 3999SOL    HW112896   5.831   3.903   4.066
 3999SOL    HW212897   5.878   3.958   4.213
 4000SOL     OW12898   3.013   6.345   3.467
 4000SOL    HW112899   3.062   6.422   3.507
 4000SOL    HW212900   2.918   6.346   3.500
 4001SOL     OW12901   2.230   2.068   3.680
 4001SOL    HW112902   2.265   2.052   3.587
 4001SOL    HW212903   2.179   2.154   3.681
 4002SOL     OW12904   3.159   4.070   0.494
 4002SOL    HW112905   3.135   4.110   0.406
 4002SOL    HW212906   3.166   3.971   0.484
 4003SOL     OW12907   3.466   6.605   4.501
 4003SOL    HW112908   3.511   6.600   4.413
 4003SOL    HW212909   3.433   6.698   4.517
 4004SOL     OW12910   5.304   2.066   4.332
 4004SOL    HW112911   5.268   2.114   4.252
 4004SOL    HW212912   5.272   2.111   4.415
 4005SOL     OW12913   5.343   4.637   6.664
 4005SOL    HW112914   5.332   4.555   6.720
 4005SOL    HW212915   5.257   4.687   6.661
 4006SOL     OW12916   4.679   5.275   2.735
 4006SOL    HW112917   4.761   5.219   2.731
 4006SOL    HW212918   4.643   5.288   2.642
 4007SOL     OW12919   0.166   2.276   0.774
 4007SOL    HW112920   0.151   2.374   0.789
 4007SOL    HW212921   0.088   2.225   0.812
 4008SOL     OW12922   3.057   1.896   4.093
 4008SOL    HW112923   3.010   1.958   4.030
 4008SOL    HW212924   3.114   1.950   4.155
 4009SOL     OW12925   3.931   3.471   1.469
 4009SOL    HW112926   4.008   3.407   1.476
 4009SOL    HW212927   3.888   3.461   1.379
 4010SOL     OW12928   2.420   3.168   1.233
 4010SOL    HW112929   2.515   3.180   1.261
 4010SOL    HW212930   2.403   3.220   1.149
 4011SOL     OW12931   0.483   1.198   1.871
 4011SOL    HW112932   0.474   1.106   1.834
 4011SOL    HW212933   0.564   1.204   1.929
 4012SOL     OW12934   5.391   4.856   1.960
 4012SOL    HW112935   5.309   4.908   1.986
 4012SOL    HW212936   5.454   4.916   1.910
 4013SOL     OW12937   3.066   1.613   5.547
 4013SOL    HW112938   3.138   1.605   5.478
 4013SOL    HW212939   3.061   1.528   5.600
 4014SOL     OW12940   5.143   6.691   2.411
 4014SOL    HW112941   5.203   6.655   2.340
 4014SOL    HW212942   5.192   6.692   2.498
 4015SOL     OW12943   5.152   4.569   6.115
 4015SOL    HW112944   5.179   4.622   6.196
 4015SOL    HW212945   5.191   4.610   6.033
 4016SOL     OW12946   2.839   5.699   5.888
 4016SOL    HW112947   2.800   5.656   5.807
 4016SOL    HW212948   2.929   5.737   5.866
 4017SOL     OW12949   0.440   5.772   0.315
 4017SOL    HW112950   0.418   5.822   0.399
 4017SOL    HW212951   0.361   5.719   0.285
 4018SOL     OW12952   4.393   6.257   2.661
 4018SOL    HW112953   4.349   6.346   2.650
 4018SOL    HW212954   4.405   6.238   2.759
 4019SOL     OW12955   5.557   3.669   2.724
 4019SOL    HW112956   5.493   3.700   2.654
 4019SOL    HW212957   5.576   3.572   2.711
 4020SOL     OW12958   4.586   1.528   5.433
 4020SOL    HW112959   4.575   1.491   5.526
 4020SOL    HW212960   4.578   1.627   5.436
 4021SOL     OW12961   4.033   5.116   6.171
 4021SOL    HW112962   3.937   5.096   6.150
 4021SOL    HW212963   4.069   5.044   6.230
 4022SOL     OW12964   4.555   0.695   6.351
 4022SOL    HW112965   4.579   0.598   6.344
 4022SOL    HW212966   4.601   0.734   6.431
 4023SOL     OW12967   6.343   1.565   4.310
 4023SOL    HW112968   6.269   1.547   4.375
 4023SOL    HW212969   6.355   1.485   4.251
 4024SOL     OW12970   3.471   6.732   3.341
 4024SOL    HW112971   3.540   6.661   3.333
 4024SOL    HW212972   3.400   6.703   3.405
 4025SOL     OW12973   0.570   5.114   3.272
 4025SOL    HW112974   0.602   5.056   3.197
 4025SOL    HW212975   0.559   5.060   3.355
 4026SOL     OW12976   5.195   5.792   4.204
 4026SOL    HW112977   5.120   5.770   4.142
 4026SOL    HW212978   5.280   5.802   4.152
 4027SOL     OW12979   3.677   4.467   1.493
 4027SOL    HW112980   3.643   4.547   1.543
 4027SOL    HW212981   3.653   4.476   1.396
 4028SOL     OW12982   1.636   2.637   4.280
 4028SOL    HW112983   1.593   2.721   4.314
 4028SOL    HW212984   1.634   2.567   4.351
 4029SOL     OW12985   2.740   4.170   5.863
 4029SOL    HW112986   2.737   4.238   5.789
 4029SOL    HW212987   2.668   4.102   5.848
 4030SOL     OW12988   0.735   1.950   5.761
 4030SOL    HW112989   0.689   2.016   5.702
 4030SOL    HW212990   0.819   1.918   5.717
 4031SOL     OW12991   4.875   5.599   3.668
 4031SOL    HW112992   4.883   5.618   3.570
 4031SOL    HW212993   4.807   5.528   3.683
 4032SOL     OW12994   6.360   6.526   3.768
 4032SOL    HW112995   6.373   6.606   3.826
 4032SOL    HW212996   6.302   6.550   3.690
 4033SOL     OW12997   3.388   2.966   4.087
 4033SOL    HW112998   3.452   2.896   4.056
 4033SOL    HW212999   3.436   3.054   4.095
 4034SOL     OW13000   5.789   1.376   4.566
 4034SOL    HW113001   5.807   1.423   4.652
 4034SOL    HW213002   5.821   1.282   4.572
 4035SOL     OW13003   0.286   4.219   0.388
 4035SOL    HW113004   0.258   4.219   0.292
 4035SOL    HW213005   0.348   4.142   0.404
 4036SOL     OW13006   5.936   6.347   2.585
 4036SOL    HW113007   5.899   6.394   2.665
 4036SOL    HW213008   5.875   6.272   2.560
 4037SOL     OW13009   1.269   3.294   6.301
 4037SOL    HW113010   1.199   3.308   6.232
 4037SOL    HW213011   1.291   3.196   6.307
 4038SOL     OW13012   4.941   4.812   2.568
 4038SOL    HW113013   5.008   4.813   2.642
 4038SOL    HW213014   4.988   4.823   2.480
 4039SOL     OW13015   4.948   5.434   0.143
 4039SOL    HW113016   5.025   5.469   0.090
 4039SOL    HW213017   4.981   5.362   0.204
 4040SOL     OW13018   3.175   0.063   0.899
 4040SOL    HW113019   3.150   6.995   0.872
 4040SOL    HW213020   3.095   0.111   0.935
 4041SOL     OW13021   0.868   6.004   2.525
 4041SOL    HW113022   0.927   6.063   2.580
 4041SOL    HW213023   0.774   6.038   2.529
 4042SOL     OW13024   6.290   5.447   2.502
 4042SOL    HW113025   6.363   5.427   2.437
 4042SOL    HW213026   6.294   5.384   2.579
 4043SOL     OW13027   5.518   2.035   2.900
 4043SOL    HW113028   5.489   1.991   2.985
 4043SOL    HW213029   5.543   1.964   2.833
 4044SOL     OW13030   5.396   0.234   3.681
 4044SOL    HW113031   5.395   0.240   3.581
 4044SOL    HW213032   5.399   0.138   3.708
 4045SOL     OW13033   2.818   3.947   6.620
 4045SOL    HW113034   2.842   4.009   6.545
 4045SOL    HW213035   2.724   3.914   6.606
 4046SOL     OW13036   0.959   1.873   1.928
 4046SOL    HW113037   0.933   1.813   2.003
 4046SOL    HW213038   0.937   1.967   1.951
 4047SOL     OW13039   2.799   3.715   1.423
 4047SOL    HW113040   2.730   3.690   1.490
 4047SOL    HW213041   2.755   3.737   1.336
 4048SOL     OW13042   5.618   0.655   1.243
 4048SOL    HW113043   5.715   0.629   1.245
 4048SOL    HW213044   5.610   0.753   1.225
 4049SOL     OW13045   6.263   6.087   6.303
 4049SOL    HW113046   6.246   6.152   6.376
 4049SOL    HW213047   6.342   6.117   6.249
 4050SOL     OW13048   1.543   6.439   0.074
 4050SOL    HW113049   1.491   6.475   7.021
 4050SOL    HW213050   1.622   6.388   0.040
 4051SOL     OW13051   2.837   4.129   1.049
 4051SOL    HW113052   2.801   4.165   0.963
 4051SOL    HW213053   2.782   4.051   1.078
 4052SOL     OW13054   0.647   0.521   0.735
 4052SOL    HW113055   0.628   0.595   0.671
 4052SOL    HW213056   0.616   0.434   0.697
 4053SOL     OW13057   2.852   4.774   3.849
 4053SOL    HW113058   2.811   4.735   3.932
 4053SOL    HW213059   2.946   4.802   3.869
 4054SOL     OW13060   2.692   2.522   0.310
 4054SOL    HW113061   2.701   2.496   0.406
 4054SOL    HW213062   2.717   2.445   0.252
 4055SOL     OW13063   2.616   2.436   6.318
 4055SOL    HW113064   2.558   2.515   6.299
 4055SOL    HW213065   2.561   2.362   6.356
 4056SOL     OW13066   3.887   3.410   6.815
 4056SOL    HW113067   3.954   3.356   6.865
 4056SOL    HW213068   3.921   3.503   6.803
 4057SOL     OW13069   5.240   2.976   0.340
 4057SOL    HW113070   5.263   2.880   0.355
 4057SOL    HW213071   5.294   3.012   0.263
 4058SOL     OW13072   2.327   1.393   4.904
 4058SOL    HW113073   2.315   1.413   4.807
 4058SOL    HW213074   2.419   1.421   4.933
 4059SOL     OW13075   1.864   2.418   4.153
 4059SOL    HW113076   1.771   2.425   4.191
 4059SOL    HW213077   1.930   2.438   4.225
 4060SOL     OW13078   4.255   5.111   4.016
 4060SOL    HW113079   4.342   5.118   3.968
 4060SOL    HW213080   4.203   5.196   4.003
 4061SOL     OW13081   3.477   4.444   1.701
 4061SOL    HW113082   3.536   4.368   1.673
 4061SOL    HW213083   3.532   4.514   1.745
 4062SOL     OW13084   3.574   1.239   2.502
 4062SOL    HW113085   3.667   1.214   2.472
 4062SOL    HW213086   3.535   1.164   2.555
 4063SOL     OW13087   3.337   6.377   5.523
 4063SOL    HW113088   3.290   6.293   5.494
 4063SOL    HW213089   3.387   6.416   5.445
 4064SOL     OW13090   1.166   0.773   2.682
 4064SOL    HW113091   1.069   0.787   2.661
 4064SOL    HW213092   1.222   0.801   2.604
 4065SOL     OW13093   0.521   6.427   1.146
 4065SOL    HW113094   0.553   6.491   1.075
 4065SOL    HW213095   0.567   6.447   1.232
 4066SOL     OW13096   5.589   4.397   1.791
 4066SOL    HW113097   5.496   4.393   1.827
 4066SOL    HW213098   5.591   4.452   1.708
 4067SOL     OW13099   5.559   1.815   3.119
 4067SOL    HW113100   5.571   1.897   3.174
 4067SOL    HW213101   5.640   1.801   3.061
 4068SOL     OW13102   4.941   1.125   5.070
 4068SOL    HW113103   5.025   1.180   5.075
 4068SOL    HW213104   4.910   1.121   4.975
 4069SOL     OW13105   5.232   4.756   1.008
 4069SOL    HW113106   5.296   4.789   1.077
 4069SOL    HW213107   5.228   4.656   1.011
 4070SOL     OW13108   1.980   3.816   2.764
 4070SOL    HW113109   1.953   3.902   2.721
 4070SOL    HW213110   2.003   3.749   2.693
 4071SOL     OW13111   1.229   0.638   4.883
 4071SOL    HW113112   1.328   0.641   4.900
 4071SOL    HW213113   1.196   0.730   4.861
 4072SOL     OW13114   1.955   6.912   4.185
 4072SOL    HW113115   1.973   6.816   4.207
 4072SOL    HW213116   2.023   6.970   4.229
 4073SOL     OW13117   2.678   5.796   6.107
 4073SOL    HW113118   2.587   5.789   6.067
 4073SOL    HW213119   2.746   5.768   6.039
 4074SOL     OW13120   0.528   2.124   1.680
 4074SOL    HW113121   0.596   2.081   1.621
 4074SOL    HW213122   0.544   2.222   1.683
 4075SOL     OW13123   3.919   1.775   2.791
 4075SOL    HW113124   3.923   1.850   2.857
 4075SOL    HW213125   3.929   1.811   2.698
 4076SOL     OW13126   2.175   3.678   5.227
 4076SOL    HW113127   2.205   3.685   5.322
 4076SOL    HW213128   2.218   3.751   5.173
 4077SOL     OW13129   3.399   0.292   0.568
 4077SOL    HW113130   3.375   0.213   0.624
 4077SOL    HW213131   3.488   0.328   0.596
 4078SOL     OW13132   6.444   4.169   1.688
 4078SOL    HW113133   6.359   4.118   1.686
 4078SOL    HW213134   6.521   4.106   1.700
 4079SOL     OW13135   1.219   1.229   3.437
 4079SOL    HW113136   1.264   1.316   3.419
 4079SOL    HW213137   1.138   1.220   3.378
 4080SOL     OW13138   3.215   3.548   1.067
 4080SOL    HW113139   3.303   3.556   1.112
 4080SOL    HW213140   3.149   3.504   1.129
 4081SOL     OW13141   2.288   1.492   5.468
 4081SOL    HW113142   2.242   1.558   5.528
 4081SOL    HW213143   2.288   1.527   5.374
 4082SOL     OW13144   0.692   2.790   5.490
 4082SOL    HW113145   0.645   2.728   5.551
 4082SOL    HW213146   0.771   2.830   5.537
 4083SOL     OW13147   6.100   4.467   3.590
 4083SOL    HW113148   6.052   4.485   3.505
 4083SOL    HW213149   6.151   4.381   3.582
 4084SOL     OW13150   4.620   2.153   3.072
 4084SOL    HW113151   4.630   2.249   3.096
 4084SOL    HW213152   4.542   2.142   3.010
 4085SOL     OW13153   3.288   5.697   1.633
 4085SOL    HW113154   3.383   5.673   1.652
 4085SOL    HW213155   3.280   5.796   1.618
 4086SOL     OW13156   6.695   5.460   6.075
 4086SOL    HW113157   6.601   5.428   6.089
 4086SOL    HW213158   6.714   5.466   5.977
 4087SOL     OW13159   2.547   0.050   2.347
 4087SOL    HW113160   2.520   0.044   2.251
 4087SOL    HW213161   2.506   6.999   2.398
 4088SOL     OW13162   6.780   1.219   5.581
 4088SOL    HW113163   6.684   1.212   5.606
 4088SOL    HW213164   6.812   1.132   5.545
 4089SOL     OW13165   0.040   6.374   4.106
 4089SOL    HW113166   0.034   6.302   4.175
 4089SOL    HW213167   7.020   6.457   4.141
 4090SOL     OW13168   1.812   6.516   4.759
 4090SOL    HW113169   1.872   6.544   4.684
 4090SOL    HW213170   1.755   6.593   4.787
 4091SOL     OW13171   1.669   5.143   1.380
 4091SOL    HW113172   1.723   5.214   1.426
 4091SOL    HW213173   1.596   5.112   1.441
 4092SOL     OW13174   5.110   3.248   4.837
 4092SOL    HW113175   5.088   3.296   4.922
 4092SOL    HW213176   5.116   3.314   4.762
 4093SOL     OW13177   5.850   5.279   3.033
 4093SOL    HW113178   5.854   5.194   3.086
 4093SOL    HW213179   5.773   5.275   2.970
 4094SOL     OW13180   0.239   5.047   6.717
 4094SOL    HW113181   0.305   5.118   6.693
 4094SOL    HW213182   0.190   5.074   6.800
 4095SOL     OW13183   0.096   4.530   0.151
 4095SOL    HW113184   0.010   4.559   0.193
 4095SOL    HW213185   0.121   4.439   0.186
 4096SOL     OW13186   1.748   1.652   6.537
 4096SOL    HW113187   1.657   1.663   6.577
 4096SOL    HW213188   1.774   1.556   6.538
 4097SOL     OW13189   0.143   3.982   5.173
 4097SOL    HW113190   0.238   3.953   5.180
 4097SOL    HW213191   0.110   3.966   5.079
 4098SOL     OW13192   2.115   4.868   2.924
 4098SOL    HW113193   2.084   4.943   2.866
 4098SOL    HW213194   2.124   4.901   3.018
 4099SOL     OW13195   4.401   4.023   6.231
 4099SOL    HW113196   4.470   3.957   6.201
 4099SOL    HW213197   4.436   4.074   6.309
 4100SOL     OW13198   1.254   0.978   3.647
 4100SOL    HW113199   1.293   0.926   3.571
 4100SOL    HW213200   1.285   0.939   3.733
 4101SOL     OW13201   6.100   0.495   6.984
 4101SOL    HW113202   6.191   0.537   6.980
 4101SOL    HW213203   6.072   0.485   0.055
 4102SOL     OW13204   1.684   0.400   0.032
 4102SOL    HW113205   1.718   0.491   0.057
 4102SOL    HW213206   1.725   0.332   0.092
 4103SOL     OW13207   1.168   6.971   2.156
 4103SOL    HW113208   1.262   6.953   2.129
 4103SOL    HW213209   1.106   6.944   2.082
 4104SOL     OW13210   0.043   6.215   2.608
 4104SOL    HW113211   6.973   6.248   2.603
 4104SOL    HW213212   0.103   6.279   2.560
 4105SOL     OW13213   4.740   1.290   1.262
 4105SOL    HW113214   4.779   1.219   1.203
 4105SOL    HW213215   4.745   1.260   1.357
 4106SOL     OW13216   0.225   1.599   3.452
 4106SOL    HW113217   0.240   1.696   3.472
 4106SOL    HW213218   0.148   1.566   3.506
 4107SOL     OW13219   0.302   5.904   6.170
 4107SOL    HW113220   0.366   5.975   6.141
 4107SOL    HW213221   0.210   5.926   6.138
 4108SOL     OW13222   0.243   5.305   3.959
 4108SOL    HW113223   0.315   5.366   3.924
 4108SOL    HW213224   0.241   5.311   4.059
 4109SOL     OW13225   6.238   5.695   3.154
 4109SOL    HW113226   6.157   5.664   3.205
 4109SOL    HW213227   6.208   5.740   3.070
 4110SOL     OW13228   4.626   3.400   0.368
 4110SOL    HW113229   4.529   3.380   0.353
 4110SOL    HW213230   4.675   3.315   0.390
 4111SOL     OW13231   6.511   4.225   5.380
 4111SOL    HW113232   6.520   4.275   5.293
 4111SOL    HW213233   6.556   4.277   5.453
 4112SOL     OW13234   4.852   6.862   5.005
 4112SOL    HW113235   4.925   6.869   4.937
 4112SOL    HW213236   4.804   6.775   4.994
 4113SOL     OW13237   4.565   4.470   4.744
 4113SOL    HW113238   4.506   4.478   4.825
 4113SOL    HW213239   4.578   4.373   4.722
 4114SOL     OW13240   6.583   1.660   3.604
 4114SOL    HW113241   6.566   1.727   3.677
 4114SOL    HW213242   6.570   1.567   3.641
 4115SOL     OW13243   2.783   5.369   3.385
 4115SOL    HW113244   2.851   5.309   3.427
 4115SOL    HW213245   2.703   5.376   3.445
 4116SOL     OW13246   5.488   2.808   3.126
 4116SOL    HW113247   5.455   2.714   3.121
 4116SOL    HW213248   5.426   2.869   3.077
 4117SOL     OW13249   1.670   2.579   2.384
 4117SOL    HW113250   1.648   2.644   2.457
 4117SOL    HW213251   1.599   2.509   2.379
 4118SOL     OW13252   6.740   6.108   6.635
 4118SOL    HW113253   6.650   6.113   6.678
 4118SOL    HW213254   6.807   6.154   6.693
 4119SOL     OW13255   2.432   0.755   3.453
 4119SOL    HW113256   2.349   0.809   3.439
 4119SOL    HW213257   2.512   0.813   3.437
 4120SOL     OW13258   2.389   1.294   6.739
 4120SOL    HW113259   2.315   1.359   6.758
 4120SOL    HW213260   2.464   1.310   6.802
 4121SOL     OW13261   0.155   6.895   2.605
 4121SOL    HW113262   0.225   6.964   2.623
 4121SOL    HW213263   0.152   6.831   2.682
 4122SOL     OW13264   6.983   5.989   4.747
 4122SOL    HW113265   6.909   5.952   4.691
 4122SOL    HW213266   0.038   6.007   4.689
 4123SOL     OW13267   4.225   5.089   3.305
 4123SOL    HW113268   4.279   5.134   3.234
 4123SOL    HW213269   4.141   5.141   3.322
 4124SOL     OW13270   6.753   6.135   0.724
 4124SOL    HW113271   6.835   6.181   0.689
 4124SOL    HW213272   6.721   6.068   0.657
 4125SOL     OW13273   5.223   2.335   2.339
 4125SOL    HW113274   5.190   2.421   2.379
 4125SOL    HW213275   5.240   2.348   2.241
 4126SOL     OW13276   1.003   2.749   2.062
 4126SOL    HW113277   1.014   2.653   2.090
 4126SOL    HW213278   1.093   2.792   2.056
 4127SOL     OW13279   3.810   2.101   4.129
 4127SOL    HW113280   3.816   2.197   4.157
 4127SOL    HW213281   3.793   2.044   4.209
 4128SOL     OW13282   0.740   2.912   1.532
 4128SOL    HW113283   0.753   2.836   1.469
 4128SOL    HW213284   0.686   2.984   1.488
 4129SOL     OW13285   3.606   2.891   0.551
 4129SOL    HW113286   3.558   2.964   0.600
 4129SOL    HW213287   3.543   2.847   0.486
 4130SOL     OW13288   6.044   2.938   1.557
 4130SOL    HW113289   5.987   2.893   1.488
 4130SOL    HW213290   6.006   2.920   1.648
 4131SOL     OW13291   5.266   0.575   2.121
 4131SOL    HW113292   5.298   0.557   2.214
 4131SOL    HW213293   5.333   0.631   2.073
 4132SOL     OW13294   6.852   4.302   4.371
 4132SOL    HW113295   6.881   4.207   4.366
 4132SOL    HW213296   6.917   4.359   4.320
 4133SOL     OW13297   5.680   6.801   1.661
 4133SOL    HW113298   5.727   6.714   1.667
 4133SOL    HW213299   5.676   6.831   1.566
 4134SOL     OW13300   2.380   2.995   1.461
 4134SOL    HW113301   2.395   2.911   1.410
 4134SOL    HW213302   2.377   3.073   1.398
 4135SOL     OW13303   0.187   2.062   3.011
 4135SOL    HW113304   0.201   2.078   2.914
 4135SOL    HW213305   0.185   1.964   3.029
 4136SOL     OW13306   0.713   4.296   1.662
 4136SOL    HW113307   0.771   4.313   1.741
 4136SOL    HW213308   0.624   4.260   1.693
 4137SOL     OW13309   1.624   2.804   0.844
 4137SOL    HW113310   1.551   2.737   0.831
 4137SOL    HW213311   1.608   2.883   0.785
 4138SOL     OW13312   4.760   5.995   0.893
 4138SOL    HW113313   4.813   5.950   0.821
 4138SOL    HW213314   4.758   6.094   0.875
 4139SOL     OW13315   1.503   1.806   2.878
 4139SOL    HW113316   1.421   1.854   2.845
 4139SOL    HW213317   1.476   1.735   2.942
 4140SOL     OW13318   2.578   2.356   4.262
 4140SOL    HW113319   2.670   2.359   4.224
 4140SOL    HW213320   2.548   2.261   4.269
 4141SOL     OW13321   3.773   6.335   6.529
 4141SOL    HW113322   3.727   6.329   6.618
 4141SOL    HW213323   3.867   6.302   6.538
 4142SOL     OW13324   6.985   4.178   2.727
 4142SOL    HW113325   6.885   4.188   2.720
 4142SOL    HW213326   7.024   4.264   2.760
 4143SOL     OW13327   5.589   3.636   1.032
 4143SOL    HW113328   5.559   3.684   0.949
 4143SOL    HW213329   5.630   3.701   1.095
 4144SOL     OW13330   5.531   1.723   0.419
 4144SOL    HW113331   5.480   1.638   0.422
 4144SOL    HW213332   5.577   1.739   0.506
 4145SOL     OW13333   0.803   6.284   0.300
 4145SOL    HW113334   0.870   6.246   0.364
 4145SOL    HW213335   0.849   6.314   0.217
 4146SOL     OW13336   5.489   6.677   3.279
 4146SOL    HW113337   5.481   6.773   3.306
 4146SOL    HW213338   5.576   6.663   3.230
 4147SOL     OW13339   5.268   4.570   5.686
 4147SOL    HW113340   5.177   4.608   5.702
 4147SOL    HW213341   5.334   4.613   5.748
 4148SOL     OW13342   2.859   0.457   4.708
 4148SOL    HW113343   2.864   0.391   4.783
 4148SOL    HW213344   2.822   0.412   4.626
 4149SOL     OW13345   1.780   3.236   1.053
 4149SOL    HW113346   1.830   3.175   1.115
 4149SOL    HW213347   1.842   3.271   0.984
 4150SOL     OW13348   6.377   3.070   6.457
 4150SOL    HW113349   6.373   3.101   6.363
 4150SOL    HW213350   6.430   2.985   6.462
 4151SOL     OW13351   2.058   6.921   4.635
 4151SOL    HW113352   1.986   6.983   4.664
 4151SOL    HW213353   2.057   6.840   4.693
 4152SOL     OW13354   3.500   5.522   1.499
 4152SOL    HW113355   3.539   5.581   1.570
 4152SOL    HW213356   3.573   5.467   1.458
 4153SOL     OW13357   6.552   4.845   1.650
 4153SOL    HW113358   6.599   4.769   1.695
 4153SOL    HW213359   6.605   4.874   1.570
 4154SOL     OW13360   6.896   6.055   3.826
 4154SOL    HW113361   6.852   6.107   3.900
 4154SOL    HW213362   6.838   6.059   3.745
 4155SOL     OW13363   0.510   2.355   1.505
 4155SOL    HW113364   0.457   2.415   1.565
 4155SOL    HW213365   0.447   2.294   1.455
 4156SOL     OW13366   6.879   4.895   5.034
 4156SOL    HW113367   6.797   4.855   4.992
 4156SOL    HW213368   6.919   4.962   4.972
 4157SOL     OW13369   6.922   6.768   2.228
 4157SOL    HW113370   6.855   6.786   2.157
 4157SOL    HW213371   6.961   6.854   2.261
 4158SOL     OW13372   2.003   2.338   1.636
 4158SOL    HW113373   1.973   2.384   1.719
 4158SOL    HW213374   1.923   2.304   1.586
 4159SOL     OW13375   2.976   1.917   3.009
 4159SOL    HW113376   2.889   1.897   3.053
 4159SOL    HW213377   3.001   2.012   3.028
 4160SOL     OW13378   6.578   6.795   6.804
 4160SOL    HW113379   6.598   6.866   6.737
 4160SOL    HW213380   6.660   6.740   6.820
 4161SOL     OW13381   2.067   1.876   1.084
 4161SOL    HW113382   2.063   1.842   1.178
 4161SOL    HW213383   2.032   1.806   1.022
 4162SOL     OW13384   6.362   6.056   0.846
 4162SOL    HW113385   6.429   6.000   0.797
 4162SOL    HW213386   6.341   6.137   0.792
 4163SOL     OW13387   4.517   6.822   1.783
 4163SOL    HW113388   4.595   6.808   1.722
 4163SOL    HW213389   4.472   6.734   1.801
 4164SOL     OW13390   6.965   6.375   5.514
 4164SOL    HW113391   6.937   6.318   5.437
 4164SOL    HW213392   0.020   6.430   5.488
 4165SOL     OW13393   3.964   0.993   5.802
 4165SOL    HW113394   3.962   0.922   5.732
 4165SOL    HW213395   4.022   1.069   5.772
 4166SOL     OW13396   5.648   0.679   2.775
 4166SOL    HW113397   5.622   0.708   2.867
 4166SOL    HW213398   5.569   0.688   2.714
 4167SOL     OW13399   2.822   5.009   5.572
 4167SOL    HW113400   2.844   4.919   5.536
 4167SOL    HW213401   2.880   5.027   5.652
 4168SOL     OW13402   6.918   4.706   0.265
 4168SOL    HW113403   6.947   4.750   0.350
 4168SOL    HW213404   6.911   4.775   0.192
 4169SOL     OW13405   5.421   4.365   5.235
 4169SOL    HW113406   5.402   4.269   5.257
 4169SOL    HW213407   5.422   4.377   5.136
 4170SOL     OW13408   4.959   3.110   4.676
 4170SOL    HW113409   4.953   3.156   4.587
 4170SOL    HW213410   5.017   3.164   4.736
 4171SOL     OW13411   1.514   4.444   1.498
 4171SOL    HW113412   1.526   4.345   1.501
 4171SOL    HW213413   1.513   4.474   1.403
 4172SOL     OW13414   3.796   3.337   1.001
 4172SOL    HW113415   3.800   3.239   1.021
 4172SOL    HW213416   3.772   3.350   0.905
 4173SOL     OW13417   4.086   2.695   5.736
 4173SOL    HW113418   4.177   2.677   5.774
 4173SOL    HW213419   4.064   2.626   5.668
 4174SOL     OW13420   4.287   0.436   3.867
 4174SOL    HW113421   4.366   0.380   3.894
 4174SOL    HW213422   4.313   0.532   3.867
 4175SOL     OW13423   1.989   4.406   6.050
 4175SOL    HW113424   2.006   4.476   6.119
 4175SOL    HW213425   2.072   4.392   5.996
 4176SOL     OW13426   5.090   6.549   0.013
 4176SOL    HW113427   5.130   6.481   0.074
 4176SOL    HW213428   5.155   6.573   6.966
 4177SOL     OW13429   5.346   4.687   4.895
 4177SOL    HW113430   5.267   4.648   4.942
 4177SOL    HW213431   5.314   4.745   4.820
 4178SOL     OW13432   4.404   6.523   2.893
 4178SOL    HW113433   4.338   6.518   2.818
 4178SOL    HW213434   4.476   6.588   2.870
 4179SOL     OW13435   5.572   3.688   3.671
 4179SOL    HW113436   5.670   3.682   3.657
 4179SOL    HW213437   5.533   3.757   3.609
 4180SOL     OW13438   5.766   3.290   0.843
 4180SOL    HW113439   5.833   3.216   0.854
 4180SOL    HW213440   5.759   3.341   0.929
 4181SOL     OW13441   5.265   0.185   5.878
 4181SOL    HW113442   5.318   0.246   5.819
 4181SOL    HW213443   5.282   0.210   5.974
 4182SOL     OW13444   0.131   5.757   3.640
 4182SOL    HW113445   0.078   5.679   3.673
 4182SOL    HW213446   0.137   5.826   3.712
 4183SOL     OW13447   1.963   1.409   1.077
 4183SOL    HW113448   1.935   1.425   1.172
 4183SOL    HW213449   1.889   1.437   1.016
 4184SOL     OW13450   3.960   0.622   2.208
 4184SOL    HW113451   4.034   0.564   2.243
 4184SOL    HW213452   3.883   0.565   2.179
 4185SOL     OW13453   0.511   4.321   3.341
 4185SOL    HW113454   0.414   4.338   3.353
 4185SOL    HW213455   0.526   4.230   3.304
 4186SOL     OW13456   2.584   5.477   6.644
 4186SOL    HW113457   2.551   5.571   6.651
 4186SOL    HW213458   2.649   5.470   6.567
 4187SOL     OW13459   1.967   3.686   6.698
 4187SOL    HW113460   2.061   3.711   6.722
 4187SOL    HW213461   1.944   3.725   6.609
 4188SOL     OW13462   5.627   0.622   4.985
 4188SOL    HW113463   5.701   0.558   4.964
 4188SOL    HW213464   5.553   0.611   4.919
 4189SOL     OW13465   4.309   5.156   3.611
 4189SOL    HW113466   4.306   5.066   3.654
 4189SOL    HW213467   4.316   5.146   3.512
 4190SOL     OW13468   0.624   6.549   0.950
 4190SOL    HW113469   0.605   6.569   0.854
 4190SOL    HW213470   0.708   6.596   0.978
 4191SOL     OW13471   5.189   3.972   6.490
 4191SOL    HW113472   5.288   3.962   6.482
 4191SOL    HW213473   5.167   4.062   6.527
 4192SOL     OW13474   0.795   1.626   1.996
 4192SOL    HW113475   0.728   1.576   2.050
 4192SOL    HW213476   0.754   1.650   1.907
 4193SOL     OW13477   5.602   0.361   0.164
 4193SOL    HW113478   5.502   0.362   0.165
 4193SOL    HW213479   5.635   0.439   0.110
 4194SOL     OW13480   4.621   0.526   4.967
 4194SOL    HW113481   4.552   0.553   5.034
 4194SOL    HW213482   4.584   0.454   4.908
 4195SOL     OW13483   4.595   6.496   1.085
 4195SOL    HW113484   4.638   6.419   1.039
 4195SOL    HW213485   4.599   6.577   1.026
 4196SOL     OW13486   0.201   2.690   3.885
 4196SOL    HW113487   0.224   2.691   3.787
 4196SOL    HW213488   0.271   2.639   3.935
 4197SOL     OW13489   4.290   5.883   5.399
 4197SOL    HW113490   4.340   5.962   5.364
 4197SOL    HW213491   4.241   5.908   5.482
 4198SOL     OW13492   6.458   0.983   2.553
 4198SOL    HW113493   6.468   1.023   2.462
 4198SOL    HW213494   6.424   1.053   2.617
 4199SOL     OW13495   1.064   3.485   5.866
 4199SOL    HW113496   1.091   3.491   5.962
 4199SOL    HW213497   1.123   3.419   5.819
 4200SOL     OW13498   3.273   0.447   5.650
 4200SOL    HW113499   3.284   0.544   5.628
 4200SOL    HW213500   3.305   0.430   5.743
 4201SOL     OW13501   6.213   6.829   3.489
 4201SOL    HW113502   6.281   6.847   3.418
 4201SOL    HW213503   6.200   6.912   3.545
 4202SOL     OW13504   3.728   5.564   6.560
 4202SOL    HW113505   3.659   5.607   6.502
 4202SOL    HW213506   3.750   5.473   6.524
 4203SOL     OW13507   5.030   5.020   0.503
 4203SOL    HW113508   5.066   5.045   0.593
 4203SOL    HW213509   5.037   4.921   0.490
 4204SOL     OW13510   3.851   3.434   5.439
 4204SOL    HW113511   3.820   3.521   5.398
 4204SOL    HW213512   3.852   3.443   5.538
 4205SOL     OW13513   3.668   5.214   5.000
 4205SOL    HW113514   3.697   5.289   4.940
 4205SOL    HW213515   3.573   5.229   5.027
 4206SOL     OW13516   0.214   1.549   5.046
 4206SOL    HW113517   0.144   1.522   5.112
 4206SOL    HW213518   0.298   1.498   5.065
 4207SOL     OW13519   2.602   2.553   1.221
 4207SOL    HW113520   2.607   2.459   1.187
 4207SOL    HW213521   2.690   2.579   1.261
 4208SOL     OW13522   0.848   3.814   5.537
 4208SOL    HW113523   0.823   3.754   5.461
 4208SOL    HW213524   0.771   3.819   5.602
 4209SOL     OW13525   6.608   5.919   3.097
 4209SOL    HW113526   6.685   5.980   3.111
 4209SOL    HW213527   6.528   5.955   3.145
 4210SOL     OW13528   3.827   2.969   3.464
 4210SOL    HW113529   3.849   2.952   3.368
 4210SOL    HW213530   3.895   3.030   3.504
 4211SOL     OW13531   3.706   2.065   5.292
 4211SOL    HW113532   3.747   2.153   5.269
 4211SOL    HW213533   3.611   2.063   5.261
 4212SOL     OW13534   6.785   1.753   3.833
 4212SOL    HW113535   6.703   1.810   3.833
 4212SOL    HW213536   6.815   1.738   3.927
 4213SOL     OW13537   2.449   0.344   3.176
 4213SOL    HW113538   2.410   0.422   3.127
 4213SOL    HW213539   2.548   0.356   3.186
 4214SOL     OW13540   0.282   5.782   4.866
 4214SOL    HW113541   0.267   5.881   4.869
 4214SOL    HW213542   0.377   5.762   4.888
 4215SOL     OW13543   5.240   0.024   5.348
 4215SOL    HW113544   5.314   0.089   5.327
 4215SOL    HW213545   5.207   7.007   5.263
 4216SOL     OW13546   1.580   0.696   2.293
 4216SOL    HW113547   1.509   0.707   2.224
 4216SOL    HW213548   1.539   0.665   2.379
 4217SOL     OW13549   1.314   0.536   1.814
 4217SOL    HW113550   1.371   0.609   1.775
 4217SOL    HW213551   1.252   0.502   1.744
 4218SOL     OW13552   3.320   0.665   1.122
 4218SOL    HW113553   3.297   0.716   1.040
 4218SOL    HW213554   3.410   0.693   1.155
 4219SOL     OW13555   4.407   6.363   4.206
 4219SOL    HW113556   4.371   6.418   4.131
 4219SOL    HW213557   4.391   6.410   4.293
 4220SOL     OW13558   6.002   2.732   2.298
 4220SOL    HW113559   5.947   2.650   2.285
 4220SOL    HW213560   6.083   2.728   2.239
 4221SOL     OW13561   6.589   4.477   6.727
 4221SOL    HW113562   6.646   4.492   6.646
 4221SOL    HW213563   6.508   4.424   6.702
 4222SOL     OW13564   6.256   1.457   3.747
 4222SOL    HW113565   6.286   1.518   3.674
 4222SOL    HW213566   6.157   1.462   3.758
 4223SOL     OW13567   3.946   3.664   1.012
 4223SOL    HW113568   3.905   3.594   1.069
 4223SOL    HW213569   3.877   3.701   0.950
 4224SOL     OW13570   5.117   4.581   4.992
 4224SOL    HW113571   5.062   4.547   4.916
 4224SOL    HW213572   5.145   4.505   5.051
 4225SOL     OW13573   1.545   2.079   5.541
 4225SOL    HW113574   1.491   2.015   5.596
 4225SOL    HW213575   1.624   2.109   5.593
 4226SOL     OW13576   0.977   6.199   3.817
 4226SOL    HW113577   0.879   6.215   3.816
 4226SOL    HW213578   1.010   6.188   3.723
 4227SOL     OW13579   5.473   5.745   1.738
 4227SOL    HW113580   5.511   5.654   1.720
 4227SOL    HW213581   5.514   5.811   1.675
 4228SOL     OW13582   0.600   6.103   5.188
 4228SOL    HW113583   0.690   6.107   5.232
 4228SOL    HW213584   0.612   6.101   5.089
 4229SOL     OW13585   4.479   5.588   5.625
 4229SOL    HW113586   4.532   5.556   5.546
 4229SOL    HW213587   4.508   5.680   5.649
 4230SOL     OW13588   0.835   6.641   3.111
 4230SOL    HW113589   0.739   6.621   3.130
 4230SOL    HW213590   0.842   6.698   3.030
 4231SOL     OW13591   4.952   0.429   5.338
 4231SOL    HW113592   4.898   0.471   5.264
 4231SOL    HW213593   4.973   0.334   5.314
 4232SOL     OW13594   2.255   5.502   3.577
 4232SOL    HW113595   2.206   5.492   3.663
 4232SOL    HW213596   2.214   5.441   3.509
 4233SOL     OW13597   0.263   6.900   5.122
 4233SOL    HW113598   0.215   6.952   5.052
 4233SOL    HW213599   0.352   6.872   5.088
 4234SOL     OW13600   2.327   4.980   5.155
 4234SOL    HW113601   2.345   4.883   5.143
 4234SOL    HW213602   2.243   5.004   5.106
 4235SOL     OW13603   6.497   4.886   5.470
 4235SOL    HW113604   6.443   4.965   5.500
 4235SOL    HW213605   6.564   4.863   5.541
 4236SOL     OW13606   0.126   4.473   1.918
 4236SOL    HW113607   0.154   4.447   1.826
 4236SOL    HW213608   0.191   4.437   1.984
 4237SOL     OW13609   6.565   4.113   4.252
 4237SOL    HW113610   6.630   4.044   4.285
 4237SOL    HW213611   6.472   4.077   4.258
 4238SOL     OW13612   1.157   0.735   3.366
 4238SOL    HW113613   1.155   0.718   3.267
 4238SOL    HW213614   1.079   0.689   3.409
 4239SOL     OW13615   4.220   0.860   2.500
 4239SOL    HW113616   4.188   0.771   2.533
 4239SOL    HW213617   4.160   0.891   2.427
 4240SOL     OW13618   2.627   4.946   0.154
 4240SOL    HW113619   2.587   5.026   0.109
 4240SOL    HW213620   2.717   4.969   0.190
 4241SOL     OW13621   5.235   1.246   6.962
 4241SOL    HW113622   5.209   1.306   0.013
 4241SOL    HW213623   5.179   1.163   6.964
 4242SOL     OW13624   2.359   1.961   4.446
 4242SOL    HW113625   2.306   2.041   4.475
 4242SOL    HW213626   2.394   1.913   4.526
 4243SOL     OW13627   5.174   1.615   2.883
 4243SOL    HW113628   5.178   1.714   2.899
 4243SOL    HW213629   5.103   1.595   2.815
 4244SOL     OW13630   3.409   4.229   1.379
 4244SOL    HW113631   3.500   4.199   1.352
 4244SOL    HW213632   3.351   4.240   1.298
 4245SOL     OW13633   6.300   2.060   6.916
 4245SOL    HW113634   6.221   2.121   6.911
 4245SOL    HW213635   6.325   2.030   6.824
 4246SOL     OW13636   6.397   4.057   3.397
 4246SOL    HW113637   6.399   3.959   3.421
 4246SOL    HW213638   6.429   4.069   3.303
 4247SOL     OW13639   1.398   6.464   3.518
 4247SOL    HW113640   1.385   6.515   3.433
 4247SOL    HW213641   1.472   6.397   3.505
 4248SOL     OW13642   2.351   1.707   4.887
 4248SOL    HW113643   2.337   1.806   4.890
 4248SOL    HW213644   2.263   1.661   4.881
 4249SOL     OW13645   6.415   3.228   5.105
 4249SOL    HW113646   6.334   3.243   5.048
 4249SOL    HW213647   6.477   3.306   5.096
 4250SOL     OW13648   0.429   4.867   3.170
 4250SOL    HW113649   0.367   4.816   3.229
 4250SOL    HW213650   0.376   4.913   3.098
 4251SOL     OW13651   5.954   5.176   0.297
 4251SOL    HW113652   5.885   5.229   0.346
 4251SOL    HW213653   6.041   5.181   0.347
 4252SOL     OW13654   6.544   6.664   5.681
 4252SOL    HW113655   6.452   6.677   5.717
 4252SOL    HW213656   6.541   6.656   5.581
 4253SOL     OW13657   3.013   0.597   1.673
 4253SOL    HW113658   3.059   0.569   1.757
 4253SOL    HW213659   3.041   0.536   1.598
 4254SOL     OW13660   1.151   2.731   1.533
 4254SOL    HW113661   1.164   2.676   1.615
 4254SOL    HW213662   1.097   2.812   1.555
 4255SOL     OW13663   5.744   2.889   3.097
 4255SOL    HW113664   5.655   2.852   3.123
 4255SOL    HW213665   5.730   2.970   3.039
 4256SOL     OW13666   1.286   6.487   0.521
 4256SOL    HW113667   1.298   6.514   0.617
 4256SOL    HW213668   1.354   6.417   0.498
 4257SOL     OW13669   3.846   0.474   4.952
 4257SOL    HW113670   3.760   0.466   5.002
 4257SOL    HW213671   3.879   0.568   4.958
 4258SOL     OW13672   5.807   6.552   1.708
 4258SOL    HW113673   5.884   6.502   1.750
 4258SOL    HW213674   5.760   6.492   1.643
 4259SOL     OW13675   2.990   0.679   6.317
 4259SOL    HW113676   2.959   0.771   6.293
 4259SOL    HW213677   3.082   0.665   6.279
 4260SOL     OW13678   5.292   6.337   4.525
 4260SOL    HW113679   5.255   6.345   4.618
 4260SOL    HW213680   5.276   6.245   4.491
 4261SOL     OW13681   1.961   0.762   1.574
 4261SOL    HW113682   1.882   0.759   1.513
 4261SOL    HW213683   2.044   0.773   1.520
 4262SOL     OW13684   1.032   4.632   5.478
 4262SOL    HW113685   0.946   4.590   5.448
 4262SOL    HW213686   1.080   4.570   5.540
 4263SOL     OW13687   2.450   6.463   3.573
 4263SOL    HW113688   2.462   6.364   3.563
 4263SOL    HW213689   2.406   6.499   3.491
 4264SOL     OW13690   6.800   1.524   2.385
 4264SOL    HW113691   6.722   1.543   2.443
 4264SOL    HW213692   6.805   1.426   2.366
 4265SOL     OW13693   5.287   1.543   6.737
 4265SOL    HW113694   5.339   1.514   6.818
 4265SOL    HW213695   5.268   1.464   6.679
 4266SOL     OW13696   2.104   5.325   0.937
 4266SOL    HW113697   2.080   5.413   0.978
 4266SOL    HW213698   2.195   5.332   0.896
 4267SOL     OW13699   2.147   3.902   4.836
 4267SOL    HW113700   2.093   3.822   4.863
 4267SOL    HW213701   2.217   3.920   4.906
 4268SOL     OW13702   1.726   7.023   6.637
 4268SOL    HW113703   1.734   0.046   6.724
 4268SOL    HW213704   1.817   7.017   6.594
 4269SOL     OW13705   2.079   1.390   0.338
 4269SOL    HW113706   2.141   1.331   0.390
 4269SOL    HW213707   2.032   1.337   0.269
 4270SOL     OW13708   3.017   3.882   4.122
 4270SOL    HW113709   3.049   3.947   4.053
 4270SOL    HW213710   2.997   3.794   4.077
 4271SOL     OW13711   0.176   0.962   6.287
 4271SOL    HW113712   0.087   0.925   6.260
 4271SOL    HW213713   0.165   1.017   6.370
 4272SOL     OW13714   0.511   4.558   4.892
 4272SOL    HW113715   0.524   4.473   4.943
 4272SOL    HW213716   0.464   4.539   4.806
 4273SOL     OW13717   4.713   6.646   4.375
 4273SOL    HW113718   4.764   6.730   4.362
 4273SOL    HW213719   4.689   6.606   4.286
 4274SOL     OW13720   1.192   0.462   2.763
 4274SOL    HW113721   1.256   0.515   2.707
 4274SOL    HW213722   1.117   0.522   2.792
 4275SOL     OW13723   6.630   1.415   5.430
 4275SOL    HW113724   6.598   1.448   5.519
 4275SOL    HW213725   6.703   1.349   5.443
 4276SOL     OW13726   1.533   4.706   3.506
 4276SOL    HW113727   1.575   4.665   3.425
 4276SOL    HW213728   1.475   4.639   3.551
 4277SOL     OW13729   6.586   4.414   4.356
 4277SOL    HW113730   6.626   4.502   4.335
 4277SOL    HW213731   6.651   4.341   4.335
 4278SOL     OW13732   7.002   0.582   5.214
 4278SOL    HW113733   0.054   0.518   5.221
 4278SOL    HW213734   6.947   0.576   5.297
 4279SOL     OW13735   3.241   6.141   5.431
 4279SOL    HW113736   3.228   6.051   5.473
 4279SOL    HW213737   3.267   6.130   5.336
 4280SOL     OW13738   5.210   1.350   5.292
 4280SOL    HW113739   5.199   1.251   5.288
 4280SOL    HW213740   5.301   1.372   5.327
 4281SOL     OW13741   2.361   4.744   4.569
 4281SOL    HW113742   2.331   4.696   4.651
 4281SOL    HW213743   2.297   4.725   4.494
 4282SOL     OW13744   2.939   2.675   0.373
 4282SOL    HW113745   2.937   2.632   0.464
 4282SOL    HW213746   2.845   2.688   0.340
 4283SOL     OW13747   1.459   0.892   3.871
 4283SOL    HW113748   1.500   0.829   3.804
 4283SOL    HW213749   1.516   0.973   3.881
 4284SOL     OW13750   5.246   5.839   1.888
 4284SOL    HW113751   5.252   5.773   1.963
 4284SOL    HW213752   5.320   5.821   1.823
 4285SOL     OW13753   0.234   0.142   6.127
 4285SOL    HW113754   0.277   0.116   6.213
 4285SOL    HW213755   0.305   0.170   6.062
 4286SOL     OW13756   5.359   5.412   6.483
 4286SOL    HW113757   5.342   5.314   6.490
 4286SOL    HW213758   5.272   5.461   6.488
 4287SOL     OW13759   5.575   0.764   6.262
 4287SOL    HW113760   5.630   0.780   6.180
 4287SOL    HW213761   5.553   0.667   6.269
 4288SOL     OW13762   0.626   5.950   2.975
 4288SOL    HW113763   0.712   6.000   2.987
 4288SOL    HW213764   0.638   5.880   2.905
 4289SOL     OW13765   6.215   3.079   1.030
 4289SOL    HW113766   6.134   3.047   1.079
 4289SOL    HW213767   6.280   3.119   1.095
 4290SOL     OW13768   2.491   6.500   1.304
 4290SOL    HW113769   2.410   6.554   1.329
 4290SOL    HW213770   2.550   6.490   1.384
 4291SOL     OW13771   4.251   3.531   1.673
 4291SOL    HW113772   4.298   3.619   1.669
 4291SOL    HW213773   4.155   3.545   1.695
 4292SOL     OW13774   6.613   4.624   5.792
 4292SOL    HW113775   6.698   4.580   5.820
 4292SOL    HW213776   6.535   4.573   5.829
 4293SOL     OW13777   0.071   3.146   0.210
 4293SOL    HW113778   0.020   3.184   0.133
 4293SOL    HW213779   0.169   3.160   0.194
 4294SOL     OW13780   3.956   3.059   0.564
 4294SOL    HW113781   3.881   3.117   0.531
 4294SOL    HW213782   4.028   3.055   0.495
 4295SOL     OW13783   3.397   6.023   4.888
 4295SOL    HW113784   3.438   5.937   4.858
 4295SOL    HW213785   3.318   6.044   4.830
 4296SOL     OW13786   3.306   1.238   0.081
 4296SOL    HW113787   3.366   1.316   0.099
 4296SOL    HW213788   3.222   1.248   0.134
 4297SOL     OW13789   5.397   0.349   5.730
 4297SOL    HW113790   5.371   0.383   5.640
 4297SOL    HW213791   5.435   0.424   5.784
 4298SOL     OW13792   2.769   5.392   6.817
 4298SOL    HW113793   2.736   5.422   6.906
 4298SOL    HW213794   2.708   5.427   6.746
 4299SOL     OW13795   0.805   2.781   6.609
 4299SOL    HW113796   0.859   2.809   6.688
 4299SOL    HW213797   0.730   2.845   6.595
 4300SOL     OW13798   3.270   1.289   6.496
 4300SOL    HW113799   3.333   1.266   6.422
 4300SOL    HW213800   3.305   1.368   6.548
 4301SOL     OW13801   2.479   1.441   0.438
 4301SOL    HW113802   2.487   1.377   0.362
 4301SOL    HW213803   2.465   1.534   0.402
 4302SOL     OW13804   0.675   6.428   5.874
 4302SOL    HW113805   0.758   6.476   5.902
 4302SOL    HW213806   0.668   6.427   5.774
 4303SOL     OW13807   5.884   4.787   4.115
 4303SOL    HW113808   5.937   4.762   4.197
 4303SOL    HW213809   5.854   4.882   4.122
 4304SOL     OW13810   3.383   3.832   4.421
 4304SOL    HW113811   3.452   3.784   4.367
 4304SOL    HW213812   3.323   3.884   4.361
 4305SOL     OW13813   6.564   1.414   3.729
 4305SOL    HW113814   6.543   1.438   3.824
 4305SOL    HW213815   6.515   1.331   3.704
 4306SOL     OW13816   6.279   3.749   6.378
 4306SOL    HW113817   6.290   3.758   6.478
 4306SOL    HW213818   6.249   3.657   6.356
 4307SOL     OW13819   4.726   4.354   6.523
 4307SOL    HW113820   4.777   4.305   6.593
 4307SOL    HW213821   4.738   4.309   6.435
 4308SOL     OW13822   5.275   5.657   6.016
 4308SOL    HW113823   5.285   5.598   5.936
 4308SOL    HW213824   5.337   5.735   6.008
 4309SOL     OW13825   0.847   0.426   0.447
 4309SOL    HW113826   0.827   0.341   0.495
 4309SOL    HW213827   0.761   0.474   0.427
 4310SOL     OW13828   1.912   2.623   3.009
 4310SOL    HW113829   1.937   2.642   3.104
 4310SOL    HW213830   1.882   2.707   2.965
 4311SOL     OW13831   1.058   5.680   2.720
 4311SOL    HW113832   1.011   5.640   2.798
 4311SOL    HW213833   1.139   5.729   2.752
 4312SOL     OW13834   1.547   5.505   1.488
 4312SOL    HW113835   1.494   5.435   1.440
 4312SOL    HW213836   1.533   5.593   1.445
 4313SOL     OW13837   5.176   1.688   1.879
 4313SOL    HW113838   5.215   1.712   1.790
 4313SOL    HW213839   5.095   1.743   1.896
 4314SOL     OW13840   5.532   2.238   3.780
 4314SOL    HW113841   5.462   2.306   3.800
 4314SOL    HW213842   5.617   2.262   3.827
 4315SOL     OW13843   2.212   1.004   2.255
 4315SOL    HW113844   2.211   0.980   2.352
 4315SOL    HW213845   2.137   1.067   2.235
 4316SOL     OW13846   5.241   0.448   1.148
 4316SOL    HW113847   5.254   0.547   1.148
 4316SOL    HW213848   5.148   0.427   1.179
 4317SOL     OW13849   3.484   1.220   4.789
 4317SOL    HW113850   3.413   1.159   4.753
 4317SOL    HW213851   3.544   1.249   4.714
 4318SOL     OW13852   1.123   3.465   3.094
 4318SOL    HW113853   1.214   3.500   3.117
 4318SOL    HW213854   1.071   3.536   3.047
 4319SOL     OW13855   2.228   2.581   0.574
 4319SOL    HW113856   2.286   2.565   0.494
 4319SOL    HW213857   2.157   2.511   0.579
 4320SOL     OW13858   1.182   6.264   1.855
 4320SOL    HW113859   1.200   6.182   1.801
 4320SOL    HW213860   1.253   6.273   1.926
 4321SOL     OW13861   6.762   0.459   4.374
 4321SOL    HW113862   6.748   0.502   4.284
 4321SOL    HW213863   6.853   0.485   4.408
 4322SOL     OW13864   6.080   1.521   6.539
 4322SOL    HW113865   6.134   1.462   6.480
 4322SOL    HW213866   5.984   1.519   6.510
 4323SOL     OW13867   5.643   4.125   1.756
 4323SOL    HW113868   5.566   4.088   1.808
 4323SOL    HW213869   5.635   4.224   1.751
 4324SOL     OW13870   5.618   4.704   6.642
 4324SOL    HW113871   5.638   4.793   6.684
 4324SOL    HW213872   5.522   4.682   6.658
 4325SOL     OW13873   1.053   0.608   0.092
 4325SOL    HW113874   1.060   0.566   0.183
 4325SOL    HW213875   1.143   0.610   0.049
 4326SOL     OW13876   6.177   2.702   5.086
 4326SOL    HW113877   6.124   2.625   5.122
 4326SOL    HW213878   6.153   2.785   5.137
 4327SOL     OW13879   6.147   5.189   2.307
 4327SOL    HW113880   6.146   5.103   2.358
 4327SOL    HW213881   6.053   5.224   2.300
 4328SOL     OW13882   4.972   4.088   6.161
 4328SOL    HW113883   5.055   4.032   6.165
 4328SOL    HW213884   4.911   4.052   6.091
 4329SOL     OW13885   3.697   1.980   6.081
 4329SOL    HW113886   3.662   1.887   6.074
 4329SOL    HW213887   3.658   2.025   6.161
 4330SOL     OW13888   3.222   0.750   4.785
 4330SOL    HW113889   3.130   0.721   4.811
 4330SOL    HW213890   3.290   0.698   4.837
 4331SOL     OW13891   5.193   3.085   1.241
 4331SOL    HW113892   5.251   3.155   1.198
 4331SOL    HW213893   5.136   3.042   1.171
 4332SOL     OW13894   5.487   4.310   2.637
 4332SOL    HW113895   5.551   4.319   2.713
 4332SOL    HW213896   5.533   4.337   2.552
 4333SOL     OW13897   4.316   1.448   5.325
 4333SOL    HW113898   4.312   1.475   5.229
 4333SOL    HW213899   4.388   1.500   5.371
 4334SOL     OW13900   2.460   2.236   2.472
 4334SOL    HW113901   2.436   2.281   2.386
 4334SOL    HW213902   2.547   2.188   2.461
 4335SOL     OW13903   3.312   4.112   3.611
 4335SOL    HW113904   3.374   4.183   3.576
 4335SOL    HW213905   3.353   4.068   3.690
 4336SOL     OW13906   0.853   6.604   5.980
 4336SOL    HW113907   0.890   6.680   5.928
 4336SOL    HW213908   0.777   6.636   6.037
 4337SOL     OW13909   1.621   4.677   0.233
 4337SOL    HW113910   1.616   4.577   0.229
 4337SOL    HW213911   1.696   4.705   0.294
 4338SOL     OW13912   4.750   6.238   4.254
 4338SOL    HW113913   4.697   6.159   4.224
 4338SOL    HW213914   4.747   6.245   4.354
 4339SOL     OW13915   5.778   3.750   5.181
 4339SOL    HW113916   5.800   3.686   5.107
 4339SOL    HW213917   5.861   3.798   5.210
 4340SOL     OW13918   6.061   4.442   2.818
 4340SOL    HW113919   5.988   4.478   2.875
 4340SOL    HW213920   6.033   4.355   2.778
 4341SOL     OW13921   1.120   5.339   2.132
 4341SOL    HW113922   1.211   5.298   2.127
 4341SOL    HW213923   1.110   5.408   2.060
 4342SOL     OW13924   0.170   3.406   4.150
 4342SOL    HW113925   0.162   3.308   4.165
 4342SOL    HW213926   0.079   3.448   4.156
 4343SOL     OW13927   2.174   6.762   6.398
 4343SOL    HW113928   2.110   6.796   6.328
 4343SOL    HW213929   2.157   6.665   6.414
 4344SOL     OW13930   2.138   5.441   2.904
 4344SOL    HW113931   2.204   5.391   2.847
 4344SOL    HW213932   2.147   5.539   2.886
 4345SOL     OW13933   1.853   2.590   5.904
 4345SOL    HW113934   1.903   2.598   5.818
 4345SOL    HW213935   1.758   2.566   5.885
 4346SOL     OW13936   1.970   3.303   1.579
 4346SOL    HW113937   2.027   3.323   1.658
 4346SOL    HW213938   1.994   3.213   1.543
 4347SOL     OW13939   6.173   1.058   2.323
 4347SOL    HW113940   6.087   1.062   2.273
 4347SOL    HW213941   6.171   0.979   2.385
 4348SOL     OW13942   0.500   3.080   2.294
 4348SOL    HW113943   0.452   2.999   2.260
 4348SOL    HW213944   0.433   3.150   2.320
 4349SOL     OW13945   6.913   1.611   3.178
 4349SOL    HW113946   6.916   1.511   3.180
 4349SOL    HW213947   6.891   1.645   3.269
 4350SOL     OW13948   5.203   2.126   4.587
 4350SOL    HW113949   5.236   2.200   4.645
 4350SOL    HW213950   5.110   2.146   4.556
 4351SOL     OW13951   2.173   6.230   0.619
 4351SOL    HW113952   2.107   6.156   0.631
 4351SOL    HW213953   2.134   6.315   0.656
 4352SOL     OW13954   1.342   2.517   2.190
 4352SOL    HW113955   1.381   2.434   2.148
 4352SOL    HW213956   1.250   2.532   2.155
 4353SOL     OW13957   3.073   4.719   0.646
 4353SOL    HW113958   3.055   4.640   0.705
 4353SOL    HW213959   3.165   4.714   0.610
 4354SOL     OW13960   1.889   6.344   5.804
 4354SOL    HW113961   1.826   6.282   5.758
 4354SOL    HW213962   1.977   6.299   5.817
 4355SOL     OW13963   3.580   0.052   1.777
 4355SOL    HW113964   3.661   0.060   1.720
 4355SOL    HW213965   3.600   0.088   1.869
 4356SOL     OW13966   4.690   4.327   1.824
 4356SOL    HW113967   4.734   4.330   1.914
 4356SOL    HW213968   4.591   4.318   1.835
 4357SOL     OW13969   6.167   0.213   6.846
 4357SOL    HW113970   6.107   0.273   6.900
 4357SOL    HW213971   6.149   0.118   6.871
 4358SOL     OW13972   6.806   5.738   0.524
 4358SOL    HW113973   6.753   5.705   0.446
 4358SOL    HW213974   6.902   5.714   0.512
 4359SOL     OW13975   1.303   2.058   5.389
 4359SOL    HW113976   1.295   2.143   5.337
 4359SOL    HW213977   1.388   2.060   5.443
 4360SOL     OW13978   1.347   3.399   2.578
 4360SOL    HW113979   1.350   3.356   2.488
 4360SOL    HW213980   1.422   3.364   2.635
 4361SOL     OW13981   2.749   2.636   1.543
 4361SOL    HW113982   2.670   2.696   1.555
 4361SOL    HW213983   2.800   2.630   1.628
 4362SOL     OW13984   6.278   3.865   4.397
 4362SOL    HW113985   6.326   3.944   4.433
 4362SOL    HW213986   6.328   3.782   4.419
 4363SOL     OW13987   5.295   2.672   6.352
 4363SOL    HW113988   5.264   2.577   6.347
 4363SOL    HW213989   5.351   2.685   6.433
 4364SOL     OW13990   3.167   3.744   5.302
 4364SOL    HW113991   3.188   3.792   5.217
 4364SOL    HW213992   3.194   3.648   5.294
 4365SOL     OW13993   2.708   1.596   1.742
 4365SOL    HW113994   2.784   1.633   1.795
 4365SOL    HW213995   2.622   1.627   1.782
 4366SOL     OW13996   5.571   6.786   6.948
 4366SOL    HW113997   5.562   6.834   0.011
 4366SOL    HW213998   5.481   6.776   6.907
 4367SOL     OW13999   1.788   5.278   5.382
 4367SOL    HW114000   1.766   5.181   5.388
 4367SOL    HW214001   1.745   5.326   5.459
 4368SOL     OW14002   4.101   5.199   1.245
 4368SOL    HW114003   4.070   5.222   1.337
 4368SOL    HW214004   4.197   5.223   1.235
 4369SOL     OW14005   3.968   5.299   2.692
 4369SOL    HW114006   3.899   5.273   2.625
 4369SOL    HW214007   3.940   5.269   2.783
 4370SOL     OW14008   4.859   4.388   3.047
 4370SOL    HW114009   4.873   4.486   3.061
 4370SOL    HW214010   4.779   4.358   3.099
 4371SOL     OW14011   6.315   0.773   1.708
 4371SOL    HW114012   6.393   0.721   1.675
 4371SOL    HW214013   6.276   0.727   1.788
 4372SOL     OW14014   4.257   1.051   3.195
 4372SOL    HW114015   4.347   1.088   3.171
 4372SOL    HW214016   4.260   1.016   3.289
 4373SOL     OW14017   0.041   2.847   0.241
 4373SOL    HW114018   0.045   2.941   0.207
 4373SOL    HW214019   6.982   2.834   0.293
 4374SOL     OW14020   0.758   1.787   1.706
 4374SOL    HW114021   0.744   1.877   1.665
 4374SOL    HW214022   0.848   1.785   1.749
 4375SOL     OW14023   3.054   0.244   4.106
 4375SOL    HW114024   3.131   0.200   4.060
 4375SOL    HW214025   3.007   0.305   4.041
 4376SOL     OW14026   0.008   0.570   2.796
 4376SOL    HW114027   7.000   0.487   2.842
 4376SOL    HW214028   0.090   0.549   2.743
 4377SOL     OW14029   6.061   4.038   0.354
 4377SOL    HW114030   6.073   4.133   0.323
 4377SOL    HW214031   6.109   4.026   0.441
 4378SOL     OW14032   1.818   1.616   2.810
 4378SOL    HW114033   1.736   1.565   2.836
 4378SOL    HW214034   1.799   1.670   2.728
 4379SOL     OW14035   2.705   1.364   3.834
 4379SOL    HW114036   2.770   1.397   3.903
 4379SOL    HW214037   2.673   1.441   3.779
 4380SOL     OW14038   1.108   0.263   1.256
 4380SOL    HW114039   1.097   0.351   1.302
 4380SOL    HW214040   1.201   0.257   1.218
 4381SOL     OW14041   0.938   6.123   4.526
 4381SOL    HW114042   0.980   6.187   4.591
 4381SOL    HW214043   1.010   6.078   4.472
 4382SOL     OW14044   6.686   3.265   6.233
 4382SOL    HW114045   6.659   3.341   6.292
 4382SOL    HW214046   6.774   3.287   6.190
 4383SOL     OW14047   6.641   3.976   6.274
 4383SOL    HW114048   6.693   3.942   6.352
 4383SOL    HW214049   6.554   3.927   6.268
 4384SOL     OW14050   5.613   0.685   3.878
 4384SOL    HW114051   5.694   0.729   3.839
 4384SOL    HW214052   5.592   0.602   3.827
 4385SOL     OW14053   4.491   2.575   5.545
 4385SOL    HW114054   4.576   2.531   5.517
 4385SOL    HW214055   4.492   2.671   5.514
 4386SOL     OW14056   1.518   4.063   5.331
 4386SOL    HW114057   1.420   4.056   5.351
 4386SOL    HW214058   1.568   3.995   5.385
 4387SOL     OW14059   6.680   2.744   2.037
 4387SOL    HW114060   6.747   2.771   1.968
 4387SOL    HW214061   6.724   2.741   2.127
 4388SOL     OW14062   4.116   2.709   6.137
 4388SOL    HW114063   4.113   2.609   6.127
 4388SOL    HW214064   4.185   2.734   6.205
 4389SOL     OW14065   6.629   3.690   0.657
 4389SOL    HW114066   6.677   3.637   0.727
 4389SOL    HW214067   6.538   3.653   0.643
 4390SOL     OW14068   4.744   0.059   1.343
 4390SOL    HW114069   4.718   0.070   1.439
 4390SOL    HW214070   4.839   0.028   1.337
 4391SOL     OW14071   3.126   4.859   6.711
 4391SOL    HW114072   3.039   4.868   6.663
 4391SOL    HW214073   3.109   4.832   6.806
 4392SOL     OW14074   0.640   2.004   4.943
 4392SOL    HW114075   0.633   1.936   4.870
 4392SOL    HW214076   0.646   2.095   4.903
 4393SOL     OW14077   6.429   0.582   2.191
 4393SOL    HW114078   6.498   0.633   2.140
 4393SOL    HW214079   6.434   0.485   2.166
 4394SOL     OW14080   0.674   6.443   1.522
 4394SOL    HW114081   0.621   6.507   1.578
 4394SOL    HW214082   0.661   6.350   1.556
 4395SOL     OW14083   2.151   0.192   1.486
 4395SOL    HW114084   2.220   0.248   1.531
 4395SOL    HW214085   2.118   0.122   1.550
 4396SOL     OW14086   1.612   1.630   4.239
 4396SOL    HW114087   1.544   1.620   4.166
 4396SOL    HW214088   1.572   1.681   4.315
 4397SOL     OW14089   1.903   2.832   4.590
 4397SOL    HW114090   1.864   2.915   4.549
 4397SOL    HW214091   1.980   2.857   4.649
 4398SOL     OW14092   1.704   3.339   6.446
 4398SOL    HW114093   1.651   3.351   6.363
 4398SOL    HW214094   1.799   3.368   6.430
 4399SOL     OW14095   2.487   6.770   1.809
 4399SOL    HW114096   2.432   6.700   1.764
 4399SOL    HW214097   2.518   6.737   1.898
 4400SOL     OW14098   1.955   6.534   3.614
 4400SOL    HW114099   1.990   6.453   3.568
 4400SOL    HW214100   1.856   6.529   3.622
 4401SOL     OW14101   4.006   6.436   5.123
 4401SOL    HW114102   4.047   6.454   5.034
 4401SOL    HW214103   3.916   6.394   5.110
 4402SOL     OW14104   0.606   0.182   2.940
 4402SOL    HW114105   0.568   0.274   2.935
 4402SOL    HW214106   0.676   0.171   2.870
 4403SOL     OW14107   1.448   6.316   0.825
 4403SOL    HW114108   1.525   6.354   0.774
 4403SOL    HW214109   1.460   6.217   0.836
 4404SOL     OW14110   1.281   6.090   5.257
 4404SOL    HW114111   1.313   5.999   5.231
 4404SOL    HW214112   1.208   6.082   5.325
 4405SOL     OW14113   2.027   4.885   2.640
 4405SOL    HW114114   2.092   4.960   2.653
 4405SOL    HW214115   2.032   4.851   2.546
 4406SOL     OW14116   6.776   3.572   0.870
 4406SOL    HW114117   6.866   3.602   0.902
 4406SOL    HW214118   6.766   3.474   0.886
 4407SOL     OW14119   0.195   5.221   1.072
 4407SOL    HW114120   0.173   5.281   1.149
 4407SOL    HW214121   0.151   5.132   1.086
 4408SOL     OW14122   2.410   6.293   6.783
 4408SOL    HW114123   2.485   6.358   6.772
 4408SOL    HW214124   2.426   6.235   6.863
 4409SOL     OW14125   4.633   1.265   1.509
 4409SOL    HW114126   4.540   1.267   1.547
 4409SOL    HW214127   4.695   1.227   1.578
 4410SOL     OW14128   6.412   5.882   0.298
 4410SOL    HW114129   6.466   5.966   0.289
 4410SOL    HW214130   6.433   5.837   0.385
 4411SOL     OW14131   3.321   4.422   5.300
 4411SOL    HW114132   3.375   4.344   5.268
 4411SOL    HW214133   3.381   4.500   5.314
 4412SOL     OW14134   5.472   6.737   3.975
 4412SOL    HW114135   5.490   6.646   4.012
 4412SOL    HW214136   5.445   6.729   3.879
 4413SOL     OW14137   5.223   5.965   3.841
 4413SOL    HW114138   5.185   6.054   3.815
 4413SOL    HW214139   5.150   5.896   3.838
 4414SOL     OW14140   4.415   5.650   1.233
 4414SOL    HW114141   4.455   5.717   1.170
 4414SOL    HW214142   4.470   5.646   1.317
 4415SOL     OW14143   3.975   3.776   0.631
 4415SOL    HW114144   4.065   3.744   0.662
 4415SOL    HW214145   3.911   3.774   0.708
 4416SOL     OW14146   3.823   1.243   4.217
 4416SOL    HW114147   3.770   1.188   4.282
 4416SOL    HW214148   3.892   1.185   4.174
 4417SOL     OW14149   6.089   2.846   4.105
 4417SOL    HW114150   6.069   2.932   4.151
 4417SOL    HW214151   6.152   2.862   4.029
 4418SOL     OW14152   6.108   1.797   2.139
 4418SOL    HW114153   6.054   1.738   2.079
 4418SOL    HW214154   6.051   1.872   2.173
 4419SOL     OW14155   6.830   0.245   6.218
 4419SOL    HW114156   6.733   0.223   6.230
 4419SOL    HW214157   6.886   0.168   6.246
 4420SOL     OW14158   3.472   1.580   1.133
 4420SOL    HW114159   3.410   1.641   1.084
 4420SOL    HW214160   3.419   1.511   1.183
 4421SOL     OW14161   1.671   2.128   5.294
 4421SOL    HW114162   1.756   2.181   5.296
 4421SOL    HW214163   1.650   2.095   5.386
 4422SOL     OW14164   0.914   4.783   0.016
 4422SOL    HW114165   0.885   4.698   6.997
 4422SOL    HW214166   0.944   4.848   6.970
 4423SOL     OW14167   6.596   4.487   6.137
 4423SOL    HW114168   6.542   4.518   6.215
 4423SOL    HW214169   6.540   4.489   6.054
 4424SOL     OW14170   5.662   6.208   4.737
 4424SOL    HW114171   5.609   6.142   4.790
 4424SOL    HW214172   5.740   6.241   4.791
 4425SOL     OW14173   1.807   5.378   1.468
 4425SOL    HW114174   1.826   5.421   1.380
 4425SOL    HW214175   1.721   5.413   1.505
 4426SOL     OW14176   0.809   1.089   3.873
 4426SOL    HW114177   0.896   1.115   3.915
 4426SOL    HW214178   0.778   1.163   3.814
 4427SOL     OW14179   4.089   6.207   2.542
 4427SOL    HW114180   4.145   6.288   2.563
 4427SOL    HW214181   4.105   6.136   2.611
 4428SOL     OW14182   5.088   0.796   4.556
 4428SOL    HW114183   5.142   0.713   4.573
 4428SOL    HW214184   5.149   0.874   4.545
 4429SOL     OW14185   2.913   6.487   2.694
 4429SOL    HW114186   2.905   6.502   2.595
 4429SOL    HW214187   2.989   6.424   2.711
 4430SOL     OW14188   5.547   4.666   4.395
 4430SOL    HW114189   5.540   4.706   4.486
 4430SOL    HW214190   5.486   4.587   4.389
 4431SOL     OW14191   2.690   0.821   3.432
 4431SOL    HW114192   2.697   0.847   3.336
 4431SOL    HW214193   2.745   0.884   3.488
 4432SOL     OW14194   2.049   3.279   6.642
 4432SOL    HW114195   2.023   3.193   6.598
 4432SOL    HW214196   2.102   3.335   6.577
 4433SOL     OW14197   0.428   2.697   4.601
 4433SOL    HW114198   0.402   2.793   4.608
 4433SOL    HW214199   0.527   2.689   4.603
 4434SOL     OW14200   5.566   1.783   2.682
 4434SOL    HW114201   5.477   1.829   2.676
 4434SOL    HW214202   5.563   1.697   2.633
 4435SOL     OW14203   3.664   3.658   1.507
 4435SOL    HW114204   3.695   3.569   1.540
 4435SOL    HW214205   3.730   3.693   1.441
 4436SOL     OW14206   3.622   1.177   1.524
 4436SOL    HW114207   3.591   1.138   1.610
 4436SOL    HW214208   3.719   1.154   1.510
 4437SOL     OW14209   0.972   3.774   2.592
 4437SOL    HW114210   1.051   3.716   2.573
 4437SOL    HW214211   1.000   3.850   2.650
 4438SOL     OW14212   4.934   6.655   5.665
 4438SOL    HW114213   5.017   6.602   5.647
 4438SOL    HW214214   4.940   6.699   5.754
 4439SOL     OW14215   0.632   4.592   2.774
 4439SOL    HW114216   0.532   4.591   2.769
 4439SOL    HW214217   0.660   4.633   2.861
 4440SOL     OW14218   2.159   4.447   0.805
 4440SOL    HW114219   2.170   4.504   0.724
 4440SOL    HW214220   2.227   4.474   0.874
 4441SOL     OW14221   6.917   1.143   0.805
 4441SOL    HW114222   6.889   1.171   0.897
 4441SOL    HW214223   6.962   1.053   0.809
 4442SOL     OW14224   1.218   5.423   5.409
 4442SOL    HW114225   1.244   5.348   5.348
 4442SOL    HW214226   1.171   5.386   5.490
 4443SOL     OW14227   1.050   4.089   6.100
 4443SOL    HW114228   1.060   4.041   6.187
 4443SOL    HW214229   1.111   4.168   6.097
 4444SOL     OW14230   4.560   4.008   0.241
 4444SOL    HW114231   4.622   3.964   0.305
 4444SOL    HW214232   4.583   4.104   0.231
 4445SOL     OW14233   1.306   6.008   0.121
 4445SOL    HW114234   1.276   5.913   0.106
 4445SOL    HW214235   1.405   6.012   0.118
 4446SOL     OW14236   5.423   1.654   6.988
 4446SOL    HW114237   5.405   1.604   0.049
 4446SOL    HW214238   5.517   1.689   6.990
 4447SOL     OW14239   5.994   3.949   4.914
 4447SOL    HW114240   6.029   3.862   4.879
 4447SOL    HW214241   5.914   3.977   4.861
 4448SOL     OW14242   2.876   0.058   1.039
 4448SOL    HW114243   2.887   0.073   1.137
 4448SOL    HW214244   2.912   6.992   1.016
 4449SOL     OW14245   4.254   0.783   6.629
 4449SOL    HW114246   4.304   0.803   6.544
 4449SOL    HW214247   4.250   0.866   6.685
 4450SOL     OW14248   3.365   1.554   6.686
 4450SOL    HW114249   3.399   1.577   6.595
 4450SOL    HW214250   3.429   1.492   6.731
 4451SOL     OW14251   4.478   5.085   4.688
 4451SOL    HW114252   4.521   5.119   4.771
 4451SOL    HW214253   4.537   5.103   4.609
 4452SOL     OW14254   6.428   5.899   4.572
 4452SOL    HW114255   6.374   5.919   4.491
 4452SOL    HW214256   6.449   5.985   4.620
 4453SOL     OW14257   1.382   2.912   1.670
 4453SOL    HW114258   1.406   2.994   1.618
 4453SOL    HW214259   1.350   2.938   1.761
 4454SOL     OW14260   0.732   1.230   0.197
 4454SOL    HW114261   0.807   1.165   0.192
 4454SOL    HW214262   0.695   1.232   0.290
 4455SOL     OW14263   5.456   5.542   5.065
 4455SOL    HW114264   5.361   5.548   5.094
 4455SOL    HW214265   5.514   5.518   5.144
 4456SOL     OW14266   2.358   5.927   3.476
 4456SOL    HW114267   2.429   5.894   3.413
 4456SOL    HW214268   2.400   5.954   3.562
 4457SOL     OW14269   1.923   1.844   4.354
 4457SOL    HW114270   1.917   1.938   4.387
 4457SOL    HW214271   1.834   1.816   4.317
 4458SOL     OW14272   2.503   3.470   1.532
 4458SOL    HW114273   2.515   3.427   1.621
 4458SOL    HW214274   2.413   3.448   1.496
 4459SOL     OW14275   2.494   1.779   4.193
 4459SOL    HW114276   2.574   1.785   4.133
 4459SOL    HW214277   2.461   1.871   4.214
 4460SOL     OW14278   0.714   2.818   5.916
 4460SOL    HW114279   0.804   2.788   5.885
 4460SOL    HW214280   0.722   2.910   5.954
 4461SOL     OW14281   1.718   0.974   0.819
 4461SOL    HW114282   1.789   0.989   0.750
 4461SOL    HW214283   1.726   0.881   0.856
 4462SOL     OW14284   6.372   4.223   2.375
 4462SOL    HW114285   6.445   4.157   2.357
 4462SOL    HW214286   6.307   4.222   2.298
 4463SOL     OW14287   5.214   1.654   1.357
 4463SOL    HW114288   5.293   1.711   1.376
 4463SOL    HW214289   5.133   1.692   1.402
 4464SOL     OW14290   0.733   5.678   0.437
 4464SOL    HW114291   0.641   5.702   0.465
 4464SOL    HW214292   0.796   5.752   0.460
 4465SOL     OW14293   2.858   5.393   0.270
 4465SOL    HW114294   2.885   5.357   0.360
 4465SOL    HW214295   2.868   5.322   0.201
 4466SOL     OW14296   1.680   1.898   2.694
 4466SOL    HW114297   1.622   1.861   2.767
 4466SOL    HW214298   1.700   1.994   2.713
 4467SOL     OW14299   2.491   5.660   3.532
 4467SOL    HW114300   2.410   5.603   3.546
 4467SOL    HW214301   2.495   5.689   3.436
 4468SOL     OW14302   1.391   4.456   1.254
 4468SOL    HW114303   1.464   4.419   1.196
 4468SOL    HW214304   1.302   4.429   1.216
 4469SOL     OW14305   2.961   0.746   1.394
 4469SOL    HW114306   2.877   0.764   1.344
 4469SOL    HW214307   2.943   0.751   1.492
 4470SOL     OW14308   0.582   1.524   2.143
 4470SOL    HW114309   0.510   1.458   2.119
 4470SOL    HW214310   0.540   1.605   2.184
 4471SOL     OW14311   2.127   2.498   6.841
 4471SOL    HW114312   2.100   2.412   6.798
 4471SOL    HW214313   2.206   2.536   6.793
 4472SOL     OW14314   1.301   1.980   0.435
 4472SOL    HW114315   1.253   1.894   0.455
 4472SOL    HW214316   1.376   1.992   0.499
 4473SOL     OW14317   5.849   3.040   3.565
 4473SOL    HW114318   5.827   3.130   3.603
 4473SOL    HW214319   5.820   2.969   3.629
 4474SOL     OW14320   2.794   0.082   2.425
 4474SOL    HW114321   2.697   0.069   2.404
 4474SOL    HW214322   2.834   7.021   2.457
 4475SOL     OW14323   1.025   3.830   1.714
 4475SOL    HW114324   1.031   3.823   1.814
 4475SOL    HW214325   0.962   3.904   1.691
 4476SOL     OW14326   6.180   0.996   4.517
 4476SOL    HW114327   6.231   1.049   4.585
 4476SOL    HW214328   6.152   0.909   4.556
 4477SOL     OW14329   1.875   0.484   5.231
 4477SOL    HW114330   1.800   0.423   5.207
 4477SOL    HW214331   1.951   0.431   5.268
 4478SOL     OW14332   1.221   0.193   1.576
 4478SOL    HW114333   1.305   0.150   1.541
 4478SOL    HW214334   1.149   0.123   1.584
 4479SOL     OW14335   1.058   1.846   0.893
 4479SOL    HW114336   1.034   1.754   0.860
 4479SOL    HW214337   0.974   1.896   0.914
 4480SOL     OW14338   0.657   4.361   5.079
 4480SOL    HW114339   0.756   4.369   5.070
 4480SOL    HW214340   0.630   4.382   5.172
 4481SOL     OW14341   2.501   5.256   5.171
 4481SOL    HW114342   2.545   5.211   5.249
 4481SOL    HW214343   2.440   5.192   5.126
 4482SOL     OW14344   2.353   3.165   5.835
 4482SOL    HW114345   2.407   3.190   5.754
 4482SOL    HW214346   2.303   3.080   5.816
 4483SOL     OW14347   0.584   2.578   2.084
 4483SOL    HW114348   0.626   2.641   2.018
 4483SOL    HW214349   0.575   2.488   2.043
 4484SOL     OW14350   2.363   2.878   0.127
 4484SOL    HW114351   2.290   2.823   0.168
 4484SOL    HW214352   2.371   2.965   0.176
 4485SOL     OW14353   4.600   2.735   5.150
 4485SOL    HW114354   4.534   2.662   5.132
 4485SOL    HW214355   4.551   2.814   5.188
 4486SOL     OW14356   6.061   5.113   5.091
 4486SOL    HW114357   5.967   5.143   5.075
 4486SOL    HW214358   6.061   5.015   5.114
 4487SOL     OW14359   2.528   2.734   6.944
 4487SOL    HW114360   2.446   2.781   6.975
 4487SOL    HW214361   2.604   2.799   6.938
 4488SOL     OW14362   1.281   3.491   4.247
 4488SOL    HW114363   1.288   3.485   4.347
 4488SOL    HW214364   1.185   3.504   4.221
 4489SOL     OW14365   5.212   5.559   5.164
 4489SOL    HW114366   5.183   5.619   5.239
 4489SOL    HW214367   5.143   5.559   5.093
 4490SOL     OW14368   5.006   2.380   1.317
 4490SOL    HW114369   5.098   2.406   1.346
 4490SOL    HW214370   4.940   2.448   1.348
 4491SOL     OW14371   0.752   3.387   3.141
 4491SOL    HW114372   0.832   3.337   3.176
 4491SOL    HW214373   0.697   3.327   3.084
 4492SOL     OW14374   6.078   2.245   2.057
 4492SOL    HW114375   6.054   2.264   1.962
 4492SOL    HW214376   6.116   2.327   2.099
 4493SOL     OW14377   6.092   6.670   4.516
 4493SOL    HW114378   5.994   6.655   4.514
 4493SOL    HW214379   6.112   6.754   4.565
 4494SOL     OW14380   0.995   0.503   6.317
 4494SOL    HW114381   1.030   0.516   6.410
 4494SOL    HW214382   0.955   0.589   6.284
 4495SOL     OW14383   4.096   0.137   2.733
 4495SOL    HW114384   4.047   0.050   2.744
 4495SOL    HW214385   4.194   0.121   2.744
 4496SOL     OW14386   5.150   6.459   0.308
 4496SOL    HW114387   5.140   6.529   0.378
 4496SOL    HW214388   5.068   6.403   0.304
 4497SOL     OW14389   3.980   2.697   6.910
 4497SOL    HW114390   3.899   2.751   6.889
 4497SOL    HW214391   3.970   2.656   7.001
 4498SOL     OW14392   6.701   5.019   6.342
 4498SOL    HW114393   6.735   5.086   6.408
 4498SOL    HW214394   6.696   5.063   6.252
 4499SOL     OW14395   5.913   2.070   3.601
 4499SOL    HW114396   5.813   2.063   3.607
 4499SOL    HW214397   5.938   2.146   3.541
 4500SOL     OW14398   3.782   4.631   6.796
 4500SOL    HW114399   3.860   4.590   6.747
 4500SOL    HW214400   3.816   4.689   6.870
 4501SOL     OW14401   5.612   2.107   2.592
 4501SOL    HW114402   5.534   2.045   2.601
 4501SOL    HW214403   5.583   2.201   2.612
 4502SOL     OW14404   0.975   4.094   6.829
 4502SOL    HW114405   0.997   4.051   6.917
 4502SOL    HW214406   0.989   4.193   6.837
 4503SOL     OW14407   3.105   0.072   2.130
 4503SOL    HW114408   3.090   7.000   2.114
 4503SOL    HW214409   3.019   0.122   2.120
 4504SOL     OW14410   6.370   2.462   4.320
 4504SOL    HW114411   6.342   2.525   4.247
 4504SOL    HW214412   6.442   2.401   4.286
 4505SOL     OW14413   6.862   4.264   2.305
 4505SOL    HW114414   6.956   4.278   2.337
 4505SOL    HW214415   6.856   4.286   2.207
 4506SOL     OW14416   5.443   2.661   3.468
 4506SOL    HW114417   5.381   2.591   3.505
 4506SOL    HW214418   5.410   2.689   3.378
 4507SOL     OW14419   0.159   3.153   4.146
 4507SOL    HW114420   0.212   3.084   4.097
 4507SOL    HW214421   0.126   3.115   4.232
 4508SOL     OW14422   1.615   4.415   0.171
 4508SOL    HW114423   1.564   4.426   0.086
 4508SOL    HW214424   1.713   4.411   0.150
 4509SOL     OW14425   4.575   2.508   2.968
 4509SOL    HW114426   4.629   2.551   3.041
 4509SOL    HW214427   4.584   2.562   2.884
 4510SOL     OW14428   4.784   1.437   4.283
 4510SOL    HW114429   4.726   1.515   4.306
 4510SOL    HW214430   4.880   1.466   4.283
 4511SOL     OW14431   6.427   3.827   0.810
 4511SOL    HW114432   6.497   3.788   0.869
 4511SOL    HW214433   6.458   3.826   0.715
 4512SOL     OW14434   3.538   1.572   5.532
 4512SOL    HW114435   3.570   1.658   5.491
 4512SOL    HW214436   3.498   1.514   5.461
 4513SOL     OW14437   0.765   6.065   6.429
 4513SOL    HW114438   0.783   6.156   6.467
 4513SOL    HW214439   0.669   6.061   6.398
 4514SOL     OW14440   3.522   3.068   0.239
 4514SOL    HW114441   3.575   3.021   0.310
 4514SOL    HW214442   3.512   3.008   0.160
 4515SOL     OW14443   5.334   1.447   4.773
 4515SOL    HW114444   5.319   1.456   4.872
 4515SOL    HW214445   5.432   1.439   4.755
 4516SOL     OW14446   2.283   0.457   5.392
 4516SOL    HW114447   2.254   0.362   5.402
 4516SOL    HW214448   2.273   0.504   5.480
 4517SOL     OW14449   4.322   6.314   6.580
 4517SOL    HW114450   4.275   6.238   6.624
 4517SOL    HW214451   4.277   6.337   6.494
 4518SOL     OW14452   1.238   6.662   1.312
 4518SOL    HW114453   1.176   6.724   1.360
 4518SOL    HW214454   1.201   6.569   1.314
 4519SOL     OW14455   4.878   6.518   6.678
 4519SOL    HW114456   4.924   6.466   6.606
 4519SOL    HW214457   4.779   6.507   6.669
 4520SOL     OW14458   4.226   5.510   5.716
 4520SOL    HW114459   4.214   5.492   5.814
 4520SOL    HW214460   4.306   5.569   5.703
 4521SOL     OW14461   5.121   2.167   5.017
 4521SOL    HW114462   5.115   2.122   5.106
 4521SOL    HW214463   5.073   2.112   4.948
 4522SOL     OW14464   6.087   4.094   3.123
 4522SOL    HW114465   6.130   4.032   3.188
 4522SOL    HW214466   5.995   4.117   3.154
 4523SOL     OW14467   1.761   3.766   6.971
 4523SOL    HW114468   1.861   3.768   6.980
 4523SOL    HW214469   1.737   3.753   6.874
 4524SOL     OW14470   6.801   3.345   2.177
 4524SOL    HW114471   6.782   3.378   2.085
 4524SOL    HW214472   6.830   3.421   2.235
 4525SOL     OW14473   3.172   2.284   5.565
 4525SOL    HW114474   3.221   2.224   5.628
 4525SOL    HW214475   3.181   2.248   5.472
 4526SOL     OW14476   0.312   0.905   6.628
 4526SOL    HW114477   0.408   0.917   6.652
 4526SOL    HW214478   0.259   0.891   6.711
 4527SOL     OW14479   6.663   0.442   2.747
 4527SOL    HW114480   6.575   0.484   2.727
 4527SOL    HW214481   6.665   0.350   2.708
 4528SOL     OW14482   4.334   0.443   6.269
 4528SOL    HW114483   4.434   0.445   6.265
 4528SOL    HW214484   4.298   0.530   6.235
 4529SOL     OW14485   3.030   1.379   5.670
 4529SOL    HW114486   3.006   1.401   5.764
 4529SOL    HW214487   3.031   1.280   5.658
 4530SOL     OW14488   2.436   5.619   4.159
 4530SOL    HW114489   2.504   5.611   4.231
 4530SOL    HW214490   2.381   5.536   4.156
 4531SOL     OW14491   0.767   3.999   6.387
 4531SOL    HW114492   0.822   3.986   6.304
 4531SOL    HW214493   0.827   3.995   6.467
 4532SOL     OW14494   4.907   0.887   3.176
 4532SOL    HW114495   4.984   0.863   3.236
 4532SOL    HW214496   4.906   0.826   3.097
 4533SOL     OW14497   1.770   1.449   3.300
 4533SOL    HW114498   1.685   1.398   3.285
 4533SOL    HW214499   1.790   1.504   3.219
 4534SOL     OW14500   4.329   2.236   5.348
 4534SOL    HW114501   4.247   2.179   5.344
 4534SOL    HW214502   4.385   2.220   5.267
 4535SOL     OW14503   3.638   1.188   1.197
 4535SOL    HW114504   3.648   1.283   1.228
 4535SOL    HW214505   3.725   1.140   1.206
 4536SOL     OW14506   2.767   1.357   5.633
 4536SOL    HW114507   2.866   1.372   5.636
 4536SOL    HW214508   2.748   1.268   5.592
 4537SOL     OW14509   4.092   3.773   2.684
 4537SOL    HW114510   4.185   3.767   2.646
 4537SOL    HW214511   4.026   3.740   2.617
 4538SOL     OW14512   2.177   2.025   2.188
 4538SOL    HW114513   2.129   1.962   2.126
 4538SOL    HW214514   2.117   2.046   2.265
 4539SOL     OW14515   2.099   5.404   4.371
 4539SOL    HW114516   2.195   5.382   4.388
 4539SOL    HW214517   2.053   5.423   4.458
 4540SOL     OW14518   1.056   1.367   1.011
 4540SOL    HW114519   1.067   1.366   0.912
 4540SOL    HW214520   1.051   1.273   1.045
 4541SOL     OW14521   4.683   1.523   6.962
 4541SOL    HW114522   4.722   1.431   6.966
 4541SOL    HW214523   4.711   1.567   6.877
 4542SOL     OW14524   0.057   1.948   1.225
 4542SOL    HW114525   0.028   1.855   1.244
 4542SOL    HW214526   7.007   2.011   1.246
 4543SOL     OW14527   4.258   2.309   0.957
 4543SOL    HW114528   4.209   2.307   1.044
 4543SOL    HW214529   4.298   2.219   0.939
 4544SOL     OW14530   4.187   4.882   0.740
 4544SOL    HW114531   4.174   4.859   0.837
 4544SOL    HW214532   4.116   4.838   0.686
 4545SOL     OW14533   0.482   3.861   5.460
 4545SOL    HW114534   0.418   3.938   5.450
 4545SOL    HW214535   0.467   3.818   5.549
 4546SOL     OW14536   3.309   0.028   5.459
 4546SOL    HW114537   3.365   0.080   5.523
 4546SOL    HW214538   3.335   0.052   5.365
 4547SOL     OW14539   6.344   0.604   0.009
 4547SOL    HW114540   6.321   0.663   6.957
 4547SOL    HW214541   6.313   0.646   0.094
 4548SOL     OW14542   2.367   2.232   3.144
 4548SOL    HW114543   2.297   2.298   3.116
 4548SOL    HW214544   2.393   2.249   3.239
 4549SOL     OW14545   5.273   4.196   2.202
 4549SOL    HW114546   5.303   4.108   2.240
 4549SOL    HW214547   5.348   4.262   2.208
 4550SOL     OW14548   0.806   4.339   3.743
 4550SOL    HW114549   0.768   4.357   3.834
 4550SOL    HW214550   0.765   4.256   3.706
 4551SOL     OW14551   0.758   3.616   5.357
 4551SOL    HW114552   0.821   3.543   5.329
 4551SOL    HW214553   0.707   3.648   5.277
 4552SOL     OW14554   5.905   2.425   1.800
 4552SOL    HW114555   5.810   2.394   1.791
 4552SOL    HW214556   5.962   2.377   1.734
 4553SOL     OW14557   5.303   4.403   6.810
 4553SOL    HW114558   5.403   4.408   6.817
 4553SOL    HW214559   5.264   4.399   6.902
 4554SOL     OW14560   0.666   6.939   1.403
 4554SOL    HW114561   0.744   6.932   1.340
 4554SOL    HW214562   0.601   6.866   1.384
 4555SOL     OW14563   1.040   1.248   6.611
 4555SOL    HW114564   1.140   1.245   6.605
 4555SOL    HW214565   1.012   1.336   6.651
 4556SOL     OW14566   6.193   3.292   5.448
 4556SOL    HW114567   6.191   3.386   5.412
 4556SOL    HW214568   6.106   3.247   5.429
 4557SOL     OW14569   5.807   5.122   4.713
 4557SOL    HW114570   5.770   5.211   4.685
 4557SOL    HW214571   5.903   5.134   4.741
 4558SOL     OW14572   6.613   3.418   5.117
 4558SOL    HW114573   6.690   3.368   5.156
 4558SOL    HW214574   6.587   3.494   5.177
 4559SOL     OW14575   0.793   3.675   2.334
 4559SOL    HW114576   0.776   3.719   2.422
 4559SOL    HW214577   0.784   3.576   2.344
 4560SOL     OW14578   6.055   4.418   2.353
 4560SOL    HW114579   5.964   4.418   2.311
 4560SOL    HW214580   6.114   4.354   2.305
 4561SOL     OW14581   3.407   1.765   4.061
 4561SOL    HW114582   3.348   1.820   4.002
 4561SOL    HW214583   3.464   1.826   4.116
 4562SOL     OW14584   2.076   6.519   0.246
 4562SOL    HW114585   2.051   6.562   0.159
 4562SOL    HW214586   2.122   6.585   0.305
 4563SOL     OW14587   6.921   3.352   1.360
 4563SOL    HW114588   6.910   3.254   1.348
 4563SOL    HW214589   7.013   3.372   1.395
 4564SOL     OW14590   0.042   4.453   2.419
 4564SOL    HW114591   0.001   4.439   2.509
 4564SOL    HW214592   0.122   4.513   2.428
 4565SOL     OW14593   1.478   1.639   4.801
 4565SOL    HW114594   1.523   1.580   4.868
 4565SOL    HW214595   1.444   1.583   4.725
 4566SOL     OW14596   0.564   3.596   1.262
 4566SOL    HW114597   0.477   3.589   1.213
 4566SOL    HW214598   0.549   3.577   1.359
 4567SOL     OW14599   6.853   0.576   0.004
 4567SOL    HW114600   6.889   0.537   6.944
 4567SOL    HW214601   6.839   0.503   0.071
 4568SOL     OW14602   0.894   4.466   5.041
 4568SOL    HW114603   0.915   4.465   4.944
 4568SOL    HW214604   0.893   4.561   5.074
 4569SOL     OW14605   3.063   0.705   2.589
 4569SOL    HW114606   2.983   0.707   2.530
 4569SOL    HW214607   3.066   0.617   2.638
 4570SOL     OW14608   6.232   6.540   2.199
 4570SOL    HW114609   6.187   6.629   2.187
 4570SOL    HW214610   6.191   6.492   2.277
 4571SOL     OW14611   4.624   3.041   6.857
 4571SOL    HW114612   4.581   3.101   6.790
 4571SOL    HW214613   4.574   2.954   6.861
 4572SOL     OW14614   2.129   1.873   6.626
 4572SOL    HW114615   2.182   1.795   6.660
 4572SOL    HW214616   2.139   1.879   6.527
 4573SOL     OW14617   0.875   0.174   0.598
 4573SOL    HW114618   0.877   0.152   0.696
 4573SOL    HW214619   0.887   0.090   0.545
 4574SOL     OW14620   6.109   4.341   6.717
 4574SOL    HW114621   6.118   4.306   6.810
 4574SOL    HW214622   6.012   4.338   6.690
 4575SOL     OW14623   6.063   0.744   4.627
 4575SOL    HW114624   5.984   0.743   4.566
 4575SOL    HW214625   6.033   0.761   4.720
 4576SOL     OW14626   2.555   4.765   5.390
 4576SOL    HW114627   2.629   4.699   5.373
 4576SOL    HW214628   2.574   4.849   5.340
 4577SOL     OW14629   1.294   2.527   2.920
 4577SOL    HW114630   1.253   2.439   2.894
 4577SOL    HW214631   1.384   2.536   2.877
 4578SOL     OW14632   0.679   0.808   3.638
 4578SOL    HW114633   0.650   0.760   3.721
 4578SOL    HW214634   0.774   0.837   3.649
 4579SOL     OW14635   5.162   1.220   1.433
 4579SOL    HW114636   5.162   1.290   1.362
 4579SOL    HW214637   5.197   1.134   1.397
 4580SOL     OW14638   5.614   4.473   0.598
 4580SOL    HW114639   5.616   4.452   0.500
 4580SOL    HW214640   5.707   4.491   0.630
 4581SOL     OW14641   2.938   6.275   2.382
 4581SOL    HW114642   2.936   6.272   2.282
 4581SOL    HW214643   3.025   6.315   2.412
 4582SOL     OW14644   4.573   0.698   3.313
 4582SOL    HW114645   4.563   0.653   3.402
 4582SOL    HW214646   4.498   0.668   3.253
 4583SOL     OW14647   2.190   1.050   6.481
 4583SOL    HW114648   2.111   1.012   6.529
 4583SOL    HW214649   2.252   0.976   6.457
 4584SOL     OW14650   1.872   6.332   6.131
 4584SOL    HW114651   1.862   6.308   6.035
 4584SOL    HW214652   1.820   6.268   6.187
 4585SOL     OW14653   1.839   4.002   3.507
 4585SOL    HW114654   1.853   4.060   3.427
 4585SOL    HW214655   1.764   3.938   3.489
 4586SOL     OW14656   5.152   4.043   0.740
 4586SOL    HW114657   5.056   4.026   0.760
 4586SOL    HW214658   5.204   3.958   0.751
 4587SOL     OW14659   3.418   3.181   4.464
 4587SOL    HW114660   3.462   3.092   4.469
 4587SOL    HW214661   3.466   3.238   4.397
 4588SOL     OW14662   3.161   3.224   5.728
 4588SOL    HW114663   3.103   3.150   5.764
 4588SOL    HW214664   3.182   3.289   5.801
 4589SOL     OW14665   5.768   6.247   1.825
 4589SOL    HW114666   5.677   6.245   1.866
 4589SOL    HW214667   5.761   6.226   1.728
 4590SOL     OW14668   3.519   6.413   1.663
 4590SOL    HW114669   3.613   6.386   1.684
 4590SOL    HW214670   3.512   6.513   1.663
 4591SOL     OW14671   1.834   0.749   4.784
 4591SOL    HW114672   1.843   0.817   4.857
 4591SOL    HW214673   1.925   0.728   4.747
 4592SOL     OW14674   2.443   1.934   3.776
 4592SOL    HW114675   2.373   2.003   3.761
 4592SOL    HW214676   2.400   1.848   3.805
 4593SOL     OW14677   6.615   5.709   2.754
 4593SOL    HW114678   6.685   5.721   2.684
 4593SOL    HW214679   6.649   5.744   2.842
 4594SOL     OW14680   3.098   0.290   2.952
 4594SOL    HW114681   3.113   0.192   2.962
 4594SOL    HW214682   3.131   0.338   3.033
 4595SOL     OW14683   4.782   2.677   5.627
 4595SOL    HW114684   4.718   2.743   5.589
 4595SOL    HW214685   4.758   2.657   5.722
 4596SOL     OW14686   6.973   0.806   2.209
 4596SOL    HW114687   0.044   0.778   2.207
 4596SOL    HW214688   6.916   0.732   2.172
 4597SOL     OW14689   2.963   5.597   6.953
 4597SOL    HW114690   2.883   5.555   6.909
 4597SOL    HW214691   3.038   5.601   6.888
 4598SOL     OW14692   2.036   5.597   1.021
 4598SOL    HW114693   2.116   5.597   0.960
 4598SOL    HW214694   1.977   5.674   0.998
 4599SOL     OW14695   1.754   3.694   2.205
 4599SOL    HW114696   1.781   3.708   2.109
 4599SOL    HW214697   1.804   3.757   2.263
 4600SOL     OW14698   0.039   7.000   6.023
 4600SOL    HW114699   0.050   7.014   5.925
 4600SOL    HW214700   0.112   0.021   6.073
 4601SOL     OW14701   0.537   1.367   5.176
 4601SOL    HW114702   0.565   1.390   5.269
 4601SOL    HW214703   0.615   1.380   5.114
 4602SOL     OW14704   3.084   0.029   6.282
 4602SOL    HW114705   3.072   6.978   6.218
 4602SOL    HW214706   3.164   0.011   6.339
 4603SOL     OW14707   3.782   5.992   0.995
 4603SOL    HW114708   3.709   5.943   1.043
 4603SOL    HW214709   3.773   5.977   0.896
 4604SOL     OW14710   4.939   6.697   5.962
 4604SOL    HW114711   5.021   6.655   5.998
 4604SOL    HW214712   4.861   6.674   6.021
 4605SOL     OW14713   2.381   0.294   1.841
 4605SOL    HW114714   2.295   0.327   1.879
 4605SOL    HW214715   2.364   0.212   1.787
 4606SOL     OW14716   6.894   0.264   2.403
 4606SOL    HW114717   6.935   0.316   2.478
 4606SOL    HW214718   6.965   0.232   2.341
 4607SOL     OW14719   2.146   3.720   2.986
 4607SOL    HW114720   2.091   3.731   2.903
 4607SOL    HW214721   2.168   3.810   3.023
 4608SOL     OW14722   0.360   3.367   3.735
 4608SOL    HW114723   0.429   3.345   3.666
 4608SOL    HW214724   0.392   3.337   3.825
 4609SOL     OW14725   5.045   5.226   6.868
 4609SOL    HW114726   5.057   5.180   6.957
 4609SOL    HW214727   4.955   5.204   6.831
 4610SOL     OW14728   4.660   1.996   6.578
 4610SOL    HW114729   4.574   1.968   6.535
 4610SOL    HW214730   4.722   2.032   6.508
 4611SOL     OW14731   0.239   0.725   5.772
 4611SOL    HW114732   0.151   0.739   5.817
 4611SOL    HW214733   0.225   0.683   5.682
 4612SOL     OW14734   2.363   6.465   1.637
 4612SOL    HW114735   2.305   6.502   1.709
 4612SOL    HW214736   2.341   6.508   1.550
 4613SOL     OW14737   1.454   5.577   2.498
 4613SOL    HW114738   1.433   5.565   2.595
 4613SOL    HW214739   1.553   5.582   2.485
 4614SOL     OW14740   6.174   3.194   3.965
 4614SOL    HW114741   6.105   3.243   4.018
 4614SOL    HW214742   6.205   3.252   3.889
 4615SOL     OW14743   1.284   0.722   1.526
 4615SOL    HW114744   1.198   0.672   1.523
 4615SOL    HW214745   1.359   0.661   1.503
 4616SOL     OW14746   6.085   2.313   4.435
 4616SOL    HW114747   6.104   2.301   4.533
 4616SOL    HW214748   6.070   2.410   4.416
 4617SOL     OW14749   1.461   2.060   2.407
 4617SOL    HW114750   1.470   2.114   2.491
 4617SOL    HW214751   1.498   1.968   2.423
 4618SOL     OW14752   2.731   3.436   5.531
 4618SOL    HW114753   2.826   3.407   5.519
 4618SOL    HW214754   2.724   3.535   5.519
 4619SOL     OW14755   3.082   6.581   3.585
 4619SOL    HW114756   3.008   6.629   3.540
 4619SOL    HW214757   3.060   6.568   3.682
 4620SOL     OW14758   0.366   5.111   1.373
 4620SOL    HW114759   0.426   5.116   1.294
 4620SOL    HW214760   0.370   5.019   1.412
 4621SOL     OW14761   5.088   0.373   2.062
 4621SOL    HW114762   5.151   0.445   2.093
 4621SOL    HW214763   5.021   0.356   2.134
 4622SOL     OW14764   4.527   4.844   1.189
 4622SOL    HW114765   4.469   4.919   1.157
 4622SOL    HW214766   4.532   4.847   1.289
 4623SOL     OW14767   4.197   5.593   0.871
 4623SOL    HW114768   4.187   5.644   0.956
 4623SOL    HW214769   4.123   5.618   0.808
 4624SOL     OW14770   3.464   1.524   3.211
 4624SOL    HW114771   3.390   1.484   3.267
 4624SOL    HW214772   3.456   1.623   3.211
 4625SOL     OW14773   2.461   6.195   1.538
 4625SOL    HW114774   2.474   6.285   1.579
 4625SOL    HW214775   2.493   6.197   1.443
 4626SOL     OW14776   3.956   3.805   1.619
 4626SOL    HW114777   3.959   3.718   1.667
 4626SOL    HW214778   3.981   3.791   1.523
 4627SOL     OW14779   0.440   6.148   4.928
 4627SOL    HW114780   0.368   6.119   4.991
 4627SOL    HW214781   0.451   6.247   4.932
 4628SOL     OW14782   4.854   4.591   3.539
 4628SOL    HW114783   4.929   4.657   3.538
 4628SOL    HW214784   4.811   4.590   3.629
 4629SOL     OW14785   2.802   5.160   6.397
 4629SOL    HW114786   2.758   5.220   6.330
 4629SOL    HW214787   2.901   5.171   6.391
 4630SOL     OW14788   1.874   5.488   2.701
 4630SOL    HW114789   1.811   5.541   2.756
 4630SOL    HW214790   1.948   5.548   2.668
 4631SOL     OW14791   1.029   6.955   3.775
 4631SOL    HW114792   1.049   6.869   3.821
 4631SOL    HW214793   0.933   6.956   3.745
 4632SOL     OW14794   2.519   5.568   2.794
 4632SOL    HW114795   2.605   5.518   2.798
 4632SOL    HW214796   2.537   5.666   2.799
 4633SOL     OW14797   5.067   1.476   4.298
 4633SOL    HW114798   5.158   1.478   4.257
 4633SOL    HW214799   5.075   1.472   4.398
 4634SOL     OW14800   2.911   3.789   4.937
 4634SOL    HW114801   2.866   3.828   5.018
 4634SOL    HW214802   2.946   3.698   4.958
 4635SOL     OW14803   4.187   4.617   1.438
 4635SOL    HW114804   4.272   4.596   1.390
 4635SOL    HW214805   4.189   4.713   1.468
 4636SOL     OW14806   1.965   4.920   1.175
 4636SOL    HW114807   1.893   4.923   1.106
 4636SOL    HW214808   2.024   4.840   1.158
 4637SOL     OW14809   1.017   6.651   0.150
 4637SOL    HW114810   1.104   6.602   0.150
 4637SOL    HW214811   0.999   6.687   0.241
 4638SOL     OW14812   3.616   5.287   6.756
 4638SOL    HW114813   3.683   5.312   6.687
 4638SOL    HW214814   3.561   5.210   6.723
 4639SOL     OW14815   2.706   2.609   6.518
 4639SOL    HW114816   2.650   2.580   6.595
 4639SOL    HW214817   2.678   2.560   6.435
 4640SOL     OW14818   6.033   2.648   4.411
 4640SOL    HW114819   6.100   2.643   4.485
 4640SOL    HW214820   5.997   2.741   4.404
 4641SOL     OW14821   2.020   6.850   3.555
 4641SOL    HW114822   1.934   6.832   3.601
 4641SOL    HW214823   2.019   6.943   3.518
 4642SOL     OW14824   1.711   0.723   3.255
 4642SOL    HW114825   1.709   0.759   3.161
 4642SOL    HW214826   1.693   0.797   3.319
 4643SOL     OW14827   6.297   2.166   0.528
 4643SOL    HW114828   6.293   2.259   0.490
 4643SOL    HW214829   6.391   2.132   0.521
 4644SOL     OW14830   6.544   0.904   5.706
 4644SOL    HW114831   6.475   0.836   5.682
 4644SOL    HW214832   6.509   0.964   5.778
 4645SOL     OW14833   1.351   0.882   4.211
 4645SOL    HW114834   1.318   0.845   4.298
 4645SOL    HW214835   1.418   0.954   4.228
 4646SOL     OW14836   2.545   4.966   4.655
 4646SOL    HW114837   2.639   4.941   4.675
 4646SOL    HW214838   2.493   4.883   4.632
 4647SOL     OW14839   1.377   0.550   3.199
 4647SOL    HW114840   1.336   0.495   3.126
 4647SOL    HW214841   1.381   0.645   3.170
 4648SOL     OW14842   2.588   0.735   4.197
 4648SOL    HW114843   2.557   0.757   4.104
 4648SOL    HW214844   2.658   0.801   4.226
 4649SOL     OW14845   5.617   0.942   1.139
 4649SOL    HW114846   5.548   0.977   1.075
 4649SOL    HW214847   5.708   0.966   1.105
 4650SOL     OW14848   4.296   5.891   1.608
 4650SOL    HW114849   4.311   5.803   1.562
 4650SOL    HW214850   4.373   5.952   1.588
 4651SOL     OW14851   6.013   3.847   6.730
 4651SOL    HW114852   5.936   3.795   6.693
 4651SOL    HW214853   6.013   3.939   6.690
 4652SOL     OW14854   6.484   6.379   4.854
 4652SOL    HW114855   6.531   6.459   4.817
 4652SOL    HW214856   6.537   6.341   4.930
 4653SOL     OW14857   4.988   5.249   0.359
 4653SOL    HW114858   5.009   5.180   0.428
 4653SOL    HW214859   4.926   5.209   0.291
 4654SOL     OW14860   6.793   6.828   5.710
 4654SOL    HW114861   6.863   6.765   5.676
 4654SOL    HW214862   6.705   6.781   5.710
 4655SOL     OW14863   4.836   3.800   2.004
 4655SOL    HW114864   4.794   3.770   1.918
 4655SOL    HW214865   4.855   3.721   2.061
 4656SOL     OW14866   1.101   0.451   1.610
 4656SOL    HW114867   1.092   0.480   1.514
 4656SOL    HW214868   1.136   0.357   1.613
 4657SOL     OW14869   5.798   5.880   1.813
 4657SOL    HW114870   5.737   5.832   1.876
 4657SOL    HW214871   5.892   5.871   1.846
 4658SOL     OW14872   2.814   2.731   5.393
 4658SOL    HW114873   2.744   2.728   5.464
 4658SOL    HW214874   2.899   2.691   5.427
 4659SOL     OW14875   3.395   4.492   1.425
 4659SOL    HW114876   3.442   4.521   1.508
 4659SOL    HW214877   3.422   4.398   1.403
 4660SOL     OW14878   1.578   0.028   3.944
 4660SOL    HW114879   1.541   0.060   3.856
 4660SOL    HW214880   1.656   0.083   3.970
 4661SOL     OW14881   2.386   4.707   5.812
 4661SOL    HW114882   2.301   4.758   5.823
 4661SOL    HW214883   2.456   4.766   5.772
 4662SOL     OW14884   2.878   0.200   4.901
 4662SOL    HW114885   2.872   0.171   4.806
 4662SOL    HW214886   2.786   0.216   4.937
 4663SOL     OW14887   0.468   6.852   0.215
 4663SOL    HW114888   0.552   6.822   0.260
 4663SOL    HW214889   0.409   6.773   0.198
 4664SOL     OW14890   6.833   0.354   0.875
 4664SOL    HW114891   6.887   0.354   0.959
 4664SOL    HW214892   6.850   0.270   0.824
 4665SOL     OW14893   2.276   0.565   6.260
 4665SOL    HW114894   2.305   0.621   6.183
 4665SOL    HW214895   2.208   0.498   6.230
 4666SOL     OW14896   2.077   2.298   6.449
 4666SOL    HW114897   2.106   2.349   6.368
 4666SOL    HW214898   2.152   2.240   6.481
 4667SOL     OW14899   6.633   4.116   2.313
 4667SOL    HW114900   6.707   4.183   2.304
 4667SOL    HW214901   6.671   4.028   2.340
 4668SOL     OW14902   4.203   1.966   4.826
 4668SOL    HW114903   4.283   1.935   4.774
 4668SOL    HW214904   4.178   1.896   4.893
 4669SOL     OW14905   5.573   0.110   6.874
 4669SOL    HW114906   5.574   0.091   6.775
 4669SOL    HW214907   5.606   0.029   6.923
 4670SOL     OW14908   1.277   3.370   0.019
 4670SOL    HW114909   1.358   3.355   6.988
 4670SOL    HW214910   1.213   3.293   0.008
 4671SOL     OW14911   0.515   3.263   0.411
 4671SOL    HW114912   0.472   3.349   0.383
 4671SOL    HW214913   0.612   3.265   0.388
 4672SOL     OW14914   4.573   4.385   5.885
 4672SOL    HW114915   4.483   4.411   5.919
 4672SOL    HW214916   4.618   4.325   5.952
 4673SOL     OW14917   5.324   0.455   0.076
 4673SOL    HW114918   5.353   0.407   7.018
 4673SOL    HW214919   5.268   0.394   0.132
 4674SOL     OW14920   6.091   1.549   0.159
 4674SOL    HW114921   6.095   1.597   0.247
 4674SOL    HW214922   6.123   1.610   0.087
 4675SOL     OW14923   3.860   6.999   6.836
 4675SOL    HW114924   3.827   6.987   6.929
 4675SOL    HW214925   3.946   6.948   6.824
 4676SOL     OW14926   0.586   6.727   4.224
 4676SOL    HW114927   0.614   6.677   4.306
 4676SOL    HW214928   0.490   6.704   4.203
 4677SOL     OW14929   3.001   0.698   0.097
 4677SOL    HW114930   2.917   0.677   0.148
 4677SOL    HW214931   3.007   0.797   0.083
 4678SOL     OW14932   1.712   5.523   2.462
 4678SOL    HW114933   1.758   5.517   2.550
 4678SOL    HW214934   1.772   5.487   2.390
 4679SOL     OW14935   3.365   1.393   6.183
 4679SOL    HW114936   3.446   1.379   6.126
 4679SOL    HW214937   3.283   1.371   6.131
 4680SOL     OW14938   2.113   6.256   1.234
 4680SOL    HW114939   2.095   6.350   1.263
 4680SOL    HW214940   2.209   6.233   1.249
 4681SOL     OW14941   6.286   6.328   4.234
 4681SOL    HW114942   6.342   6.303   4.155
 4681SOL    HW214943   6.343   6.329   4.316
 4682SOL     OW14944   4.284   5.534   6.985
 4682SOL    HW114945   4.341   5.567   0.036
 4682SOL    HW214946   4.296   5.435   6.975
 4683SOL     OW14947   5.570   4.630   2.531
 4683SOL    HW114948   5.482   4.584   2.519
 4683SOL    HW214949   5.604   4.662   2.443
 4684SOL     OW14950   0.616   2.216   4.781
 4684SOL    HW114951   0.604   2.307   4.820
 4684SOL    HW214952   0.530   2.185   4.740
 4685SOL     OW14953   6.791   5.580   4.544
 4685SOL    HW114954   6.840   5.516   4.485
 4685SOL    HW214955   6.701   5.542   4.566
 4686SOL     OW14956   5.182   5.816   0.237
 4686SOL    HW114957   5.157   5.861   0.152
 4686SOL    HW214958   5.263   5.759   0.222
 4687SOL     OW14959   6.640   4.125   5.077
 4687SOL    HW114960   6.646   4.217   5.115
 4687SOL    HW214961   6.695   4.062   5.132
 4688SOL     OW14962   0.310   3.223   6.474
 4688SOL    HW114963   0.377   3.218   6.400
 4688SOL    HW214964   0.222   3.189   6.442
 4689SOL     OW14965   6.155   0.291   6.097
 4689SOL    HW114966   6.187   0.326   6.185
 4689SOL    HW214967   6.100   0.209   6.111
 4690SOL     OW14968   1.186   0.852   6.788
 4690SOL    HW114969   1.086   0.844   6.794
 4690SOL    HW214970   1.212   0.882   6.697
 4691SOL     OW14971   2.608   3.705   1.608
 4691SOL    HW114972   2.568   3.614   1.604
 4691SOL    HW214973   2.535   3.773   1.616
 4692SOL     OW14974   6.904   5.126   2.948
 4692SOL    HW114975   6.949   5.063   3.011
 4692SOL    HW214976   6.841   5.076   2.888
 4693SOL     OW14977   0.247   1.079   4.810
 4693SOL    HW114978   0.320   1.089   4.877
 4693SOL    HW214979   0.158   1.081   4.856
 4694SOL     OW14980   3.133   0.448   0.272
 4694SOL    HW114981   3.043   0.464   0.313
 4694SOL    HW214982   3.129   0.465   0.174
 4695SOL     OW14983   3.442   3.298   1.635
 4695SOL    HW114984   3.432   3.216   1.691
 4695SOL    HW214985   3.537   3.306   1.603
 4696SOL     OW14986   1.200   4.323   6.007
 4696SOL    HW114987   1.296   4.345   6.022
 4696SOL    HW214988   1.183   4.317   5.908
 4697SOL     OW14989   1.554   3.593   0.784
 4697SOL    HW114990   1.577   3.618   0.879
 4697SOL    HW214991   1.567   3.495   0.772
 4698SOL     OW14992   4.797   4.583   2.663
 4698SOL    HW114993   4.820   4.672   2.625
 4698SOL    HW214994   4.699   4.577   2.678
 4699SOL     OW14995   0.664   6.876   2.270
 4699SOL    HW114996   0.666   6.969   2.307
 4699SOL    HW214997   0.569   6.846   2.259
 4700SOL     OW14998   5.580   1.697   1.693
 4700SOL    HW114999   5.491   1.738   1.672
 4700SOL    HW215000   5.574   1.649   1.781
 4701SOL     OW15001   1.107   1.408   0.095
 4701SOL    HW115002   1.084   1.494   0.049
 4701SOL    HW215003   1.197   1.377   0.065
 4702SOL     OW15004   4.515   4.193   6.399
 4702SOL    HW115005   4.479   4.233   6.483
 4702SOL    HW215006   4.502   4.258   6.323
 4703SOL     OW15007   0.816   1.973   2.729
 4703SOL    HW115008   0.753   2.039   2.686
 4703SOL    HW215009   0.905   1.978   2.685
 4704SOL     OW15010   0.072   5.934   0.966
 4704SOL    HW115011   0.138   5.993   1.011
 4704SOL    HW215012   0.092   5.838   0.987
 4705SOL     OW15013   3.043   3.148   3.237
 4705SOL    HW115014   2.970   3.185   3.294
 4705SOL    HW215015   3.100   3.086   3.292
 4706SOL     OW15016   3.952   5.788   6.535
 4706SOL    HW115017   3.915   5.876   6.506
 4706SOL    HW215018   3.885   5.716   6.517
 4707SOL     OW15019   2.284   5.529   0.864
 4707SOL    HW115020   2.279   5.498   0.769
 4707SOL    HW215021   2.344   5.608   0.871
 4708SOL     OW15022   2.671   2.841   0.705
 4708SOL    HW115023   2.690   2.793   0.791
 4708SOL    HW215024   2.573   2.839   0.686
 4709SOL     OW15025   3.983   5.137   4.980
 4709SOL    HW115026   3.945   5.224   5.011
 4709SOL    HW215027   3.913   5.066   4.986
 4710SOL     OW15028   4.338   0.857   6.373
 4710SOL    HW115029   4.337   0.956   6.360
 4710SOL    HW215030   4.432   0.825   6.381
 4711SOL     OW15031   4.413   0.162   2.708
 4711SOL    HW115032   4.497   0.170   2.760
 4711SOL    HW215033   4.429   0.106   2.626
 4712SOL     OW15034   2.177   4.743   1.078
 4712SOL    HW115035   2.248   4.759   1.146
 4712SOL    HW215036   2.203   4.787   0.992
 4713SOL     OW15037   3.290   4.638   1.202
 4713SOL    HW115038   3.351   4.576   1.251
 4713SOL    HW215039   3.208   4.588   1.174
 4714SOL     OW15040   1.928   2.232   0.142
 4714SOL    HW115041   1.987   2.211   0.063
 4714SOL    HW215042   1.833   2.216   0.117
 4715SOL     OW15043   6.468   3.653   2.605
 4715SOL    HW115044   6.416   3.711   2.542
 4715SOL    HW215045   6.480   3.700   2.692
 4716SOL     OW15046   3.843   5.046   6.427
 4716SOL    HW115047   3.853   4.994   6.512
 4716SOL    HW215048   3.815   4.985   6.353
 4717SOL     OW15049   1.211   6.017   2.143
 4717SOL    HW115050   1.141   5.965   2.192
 4717SOL    HW215051   1.254   5.959   2.074
 4718SOL     OW15052   5.127   2.025   6.394
 4718SOL    HW115053   5.146   2.103   6.454
 4718SOL    HW215054   5.053   1.970   6.434
 4719SOL     OW15055   4.933   3.619   2.694
 4719SOL    HW115056   4.922   3.670   2.780
 4719SOL    HW215057   4.966   3.527   2.714
 4720SOL     OW15058   2.328   6.725   5.295
 4720SOL    HW115059   2.252   6.662   5.278
 4720SOL    HW215060   2.292   6.819   5.299
 4721SOL     OW15061   0.691   2.050   1.942
 4721SOL    HW115062   0.639   1.987   1.885
 4721SOL    HW215063   0.690   2.018   2.037
 4722SOL     OW15064   1.797   5.997   6.858
 4722SOL    HW115065   1.832   5.925   6.799
 4722SOL    HW215066   1.739   5.957   6.929
 4723SOL     OW15067   2.099   6.000   5.999
 4723SOL    HW115068   2.095   5.977   5.902
 4723SOL    HW215069   2.035   5.943   6.050
 4724SOL     OW15070   4.222   6.462   2.646
 4724SOL    HW115071   4.221   6.561   2.656
 4724SOL    HW215072   4.141   6.423   2.688
 4725SOL     OW15073   4.972   6.161   3.152
 4725SOL    HW115074   4.997   6.251   3.116
 4725SOL    HW215075   4.948   6.101   3.075
 4726SOL     OW15076   0.868   3.548   6.772
 4726SOL    HW115077   0.799   3.591   6.830
 4726SOL    HW215078   0.954   3.541   6.822
 4727SOL     OW15079   0.152   5.870   6.942
 4727SOL    HW115080   0.063   5.827   6.955
 4727SOL    HW215081   0.142   5.952   6.885
 4728SOL     OW15082   5.219   1.462   0.673
 4728SOL    HW115083   5.293   1.470   0.740
 4728SOL    HW215084   5.182   1.552   0.652
 4729SOL     OW15085   2.030   1.049   2.831
 4729SOL    HW115086   2.072   1.137   2.850
 4729SOL    HW215087   1.991   1.011   2.915
 4730SOL     OW15088   2.148   6.267   5.837
 4730SOL    HW115089   2.163   6.177   5.877
 4730SOL    HW215090   2.171   6.265   5.740
 4731SOL     OW15091   5.634   0.277   5.463
 4731SOL    HW115092   5.612   0.232   5.550
 4731SOL    HW215093   5.564   0.345   5.443
 4732SOL     OW15094   0.050   3.329   6.907
 4732SOL    HW115095   0.029   3.232   6.899
 4732SOL    HW215096   7.012   3.372   6.973
 4733SOL     OW15097   1.003   3.914   3.706
 4733SOL    HW115098   0.975   3.952   3.794
 4733SOL    HW215099   1.091   3.867   3.716
 4734SOL     OW15100   5.600   2.717   6.944
 4734SOL    HW115101   5.582   2.775   7.023
 4734SOL    HW215102   5.643   2.771   6.871
 4735SOL     OW15103   1.166   4.746   3.396
 4735SOL    HW115104   1.250   4.785   3.357
 4735SOL    HW215105   1.175   4.646   3.399
 4736SOL     OW15106   0.313   1.319   6.500
 4736SOL    HW115107   0.380   1.312   6.573
 4736SOL    HW215108   0.356   1.297   6.413
 4737SOL     OW15109   2.407   4.901   2.481
 4737SOL    HW115110   2.483   4.958   2.514
 4737SOL    HW215111   2.327   4.958   2.465
 4738SOL     OW15112   0.070   6.320   2.043
 4738SOL    HW115113   0.095   6.411   2.077
 4738SOL    HW215114   0.090   6.313   1.945
 4739SOL     OW15115   4.626   0.261   2.182
 4739SOL    HW115116   4.558   0.254   2.254
 4739SOL    HW215117   4.591   0.218   2.098
 4740SOL     OW15118   0.543   1.350   2.365
 4740SOL    HW115119   0.515   1.395   2.450
 4740SOL    HW215120   0.551   1.418   2.292
 4741SOL     OW15121   3.766   2.222   1.135
 4741SOL    HW115122   3.840   2.254   1.194
 4741SOL    HW215123   3.721   2.144   1.178
 4742SOL     OW15124   2.079   6.629   7.013
 4742SOL    HW115125   2.065   6.706   6.950
 4742SOL    HW215126   2.174   6.599   7.008
 4743SOL     OW15127   2.019   3.624   2.591
 4743SOL    HW115128   1.961   3.658   2.517
 4743SOL    HW215129   2.079   3.552   2.556
 4744SOL     OW15130   2.293   5.396   0.645
 4744SOL    HW115131   2.374   5.348   0.611
 4744SOL    HW215132   2.223   5.398   0.573
 4745SOL     OW15133   2.832   3.564   0.269
 4745SOL    HW115134   2.792   3.584   0.180
 4745SOL    HW215135   2.915   3.619   0.281
 4746SOL     OW15136   4.509   5.408   3.948
 4746SOL    HW115137   4.446   5.466   3.897
 4746SOL    HW215138   4.490   5.415   4.046
 4747SOL     OW15139   1.204   3.027   0.433
 4747SOL    HW115140   1.207   3.113   0.484
 4747SOL    HW215141   1.189   2.951   0.496
 4748SOL     OW15142   1.707   6.552   2.104
 4748SOL    HW115143   1.724   6.616   2.029
 4748SOL    HW215144   1.637   6.486   2.077
 4749SOL     OW15145   2.293   0.043   0.117
 4749SOL    HW115146   2.220   0.094   0.071
 4749SOL    HW215147   2.309   6.982   0.069
 4750SOL     OW15148   6.318   4.103   5.214
 4750SOL    HW115149   6.363   4.111   5.303
 4750SOL    HW215150   6.369   4.038   5.158
 4751SOL     OW15151   5.103   1.924   2.736
 4751SOL    HW115152   5.083   2.015   2.700
 4751SOL    HW215153   5.032   1.897   2.801
 4752SOL     OW15154   4.446   1.298   0.409
 4752SOL    HW115155   4.409   1.389   0.432
 4752SOL    HW215156   4.507   1.268   0.482
 4753SOL     OW15157   1.298   6.659   4.604
 4753SOL    HW115158   1.370   6.594   4.578
 4753SOL    HW215159   1.249   6.688   4.522
 4754SOL     OW15160   4.547   3.845   5.844
 4754SOL    HW115161   4.450   3.866   5.852
 4754SOL    HW215162   4.569   3.768   5.904
 4755SOL     OW15163   1.889   0.847   1.018
 4755SOL    HW115164   1.899   0.938   1.058
 4755SOL    HW215165   1.917   0.777   1.084
 4756SOL     OW15166   6.908   4.302   6.632
 4756SOL    HW115167   6.952   4.301   6.722
 4756SOL    HW215168   6.969   4.262   6.564
 4757SOL     OW15169   1.389   2.588   1.737
 4757SOL    HW115170   1.420   2.495   1.715
 4757SOL    HW215171   1.293   2.585   1.767
 4758SOL     OW15172   1.470   0.160   3.447
 4758SOL    HW115173   1.540   0.216   3.404
 4758SOL    HW215174   1.398   0.140   3.381
 4759SOL     OW15175   0.573   5.547   0.192
 4759SOL    HW115176   0.540   5.467   0.243
 4759SOL    HW215177   0.589   5.623   0.255
 4760SOL     OW15178   1.245   6.764   0.908
 4760SOL    HW115179   1.173   6.805   0.853
 4760SOL    HW215180   1.298   6.700   0.852
 4761SOL     OW15181   0.021   0.029   0.662
 4761SOL    HW115182   7.007   0.075   0.742
 4761SOL    HW215183   0.095   6.993   0.690
 4762SOL     OW15184   1.435   5.952   2.015
 4762SOL    HW115185   1.491   5.984   2.091
 4762SOL    HW215186   1.473   5.986   1.929
 4763SOL     OW15187   4.716   5.738   2.327
 4763SOL    HW115188   4.683   5.774   2.414
 4763SOL    HW215189   4.774   5.807   2.283
 4764SOL     OW15190   4.883   3.621   5.320
 4764SOL    HW115191   4.868   3.631   5.418
 4764SOL    HW215192   4.796   3.601   5.275
 4765SOL     OW15193   3.218   1.009   5.486
 4765SOL    HW115194   3.258   0.952   5.414
 4765SOL    HW215195   3.205   1.102   5.451
 4766SOL     OW15196   5.969   6.978   4.279
 4766SOL    HW115197   5.977   6.894   4.226
 4766SOL    HW215198   5.887   0.002   4.251
 4767SOL     OW15199   2.504   5.531   5.134
 4767SOL    HW115200   2.452   5.567   5.211
 4767SOL    HW215201   2.521   5.434   5.148
 4768SOL     OW15202   4.483   3.421   6.359
 4768SOL    HW115203   4.520   3.356   6.426
 4768SOL    HW215204   4.411   3.375   6.306
 4769SOL     OW15205   2.685   6.165   0.887
 4769SOL    HW115206   2.680   6.262   0.911
 4769SOL    HW215207   2.663   6.153   0.790
 4770SOL     OW15208   6.759   2.123   5.766
 4770SOL    HW115209   6.755   2.208   5.713
 4770SOL    HW215210   6.788   2.048   5.706
 4771SOL     OW15211   2.204   0.067   4.886
 4771SOL    HW115212   2.180   7.021   4.953
 4771SOL    HW215213   2.121   0.113   4.854
 4772SOL     OW15214   2.993   4.798   0.942
 4772SOL    HW115215   2.943   4.876   0.976
 4772SOL    HW215216   3.031   4.820   0.852
 4773SOL     OW15217   1.719   5.730   4.403
 4773SOL    HW115218   1.796   5.728   4.466
 4773SOL    HW215219   1.746   5.694   4.314
 4774SOL     OW15220   1.629   4.289   0.650
 4774SOL    HW115221   1.598   4.289   0.555
 4774SOL    HW215222   1.628   4.196   0.686
 4775SOL     OW15223   5.248   6.642   4.519
 4775SOL    HW115224   5.150   6.657   4.532
 4775SOL    HW215225   5.269   6.642   4.422
 4776SOL     OW15226   1.419   0.634   5.210
 4776SOL    HW115227   1.421   0.606   5.306
 4776SOL    HW215228   1.329   0.673   5.188
 4777SOL     OW15229   1.165   5.320   0.370
 4777SOL    HW115230   1.231   5.247   0.354
 4777SOL    HW215231   1.098   5.321   0.296
 4778SOL     OW15232   0.851   2.461   4.946
 4778SOL    HW115233   0.912   2.534   4.915
 4778SOL    HW215234   0.874   2.376   4.898
 4779SOL     OW15235   6.192   0.295   4.150
 4779SOL    HW115236   6.143   0.383   4.151
 4779SOL    HW215237   6.161   0.241   4.072
 4780SOL     OW15238   5.687   2.748   5.772
 4780SOL    HW115239   5.773   2.697   5.779
 4780SOL    HW215240   5.649   2.736   5.680
 4781SOL     OW15241   2.637   5.724   2.244
 4781SOL    HW115242   2.678   5.807   2.208
 4781SOL    HW215243   2.611   5.737   2.339
 4782SOL     OW15244   5.821   5.379   5.632
 4782SOL    HW115245   5.834   5.281   5.650
 4782SOL    HW215246   5.754   5.416   5.697
 4783SOL     OW15247   5.803   3.960   0.372
 4783SOL    HW115248   5.750   3.938   0.290
 4783SOL    HW215249   5.893   3.995   0.346
 4784SOL     OW15250   6.157   2.205   6.459
 4784SOL    HW115251   6.114   2.208   6.368
 4784SOL    HW215252   6.135   2.289   6.509
 4785SOL     OW15253   0.248   6.822   3.102
 4785SOL    HW115254   0.247   6.725   3.078
 4785SOL    HW215255   0.337   6.847   3.141
 4786SOL     OW15256   2.811   0.294   0.945
 4786SOL    HW115257   2.896   0.336   0.975
 4786SOL    HW215258   2.803   0.202   0.983
 4787SOL     OW15259   4.474   2.423   4.208
 4787SOL    HW115260   4.420   2.425   4.124
 4787SOL    HW215261   4.524   2.509   4.217
 4788SOL     OW15262   6.017   5.701   6.837
 4788SOL    HW115263   5.941   5.715   6.900
 4788SOL    HW215264   5.992   5.733   6.746
 4789SOL     OW15265   4.989   2.008   2.031
 4789SOL    HW115266   4.928   2.002   2.110
 4789SOL    HW215267   4.936   1.993   1.947
 4790SOL     OW15268   5.404   1.541   5.557
 4790SOL    HW115269   5.406   1.514   5.460
 4790SOL    HW215270   5.363   1.632   5.565
 4791SOL     OW15271   0.319   2.876   0.622
 4791SOL    HW115272   0.306   2.927   0.707
 4791SOL    HW215273   0.375   2.930   0.558
 4792SOL     OW15274   1.703   4.801   4.855
 4792SOL    HW115275   1.689   4.754   4.768
 4792SOL    HW215276   1.638   4.876   4.863
 4793SOL     OW15277   1.614   4.500   6.245
 4793SOL    HW115278   1.543   4.533   6.183
 4793SOL    HW215279   1.701   4.543   6.222
 4794SOL     OW15280   4.533   0.319   3.916
 4794SOL    HW115281   4.543   0.274   3.827
 4794SOL    HW215282   4.620   0.318   3.964
 4795SOL     OW15283   0.334   1.830   4.167
 4795SOL    HW115284   0.418   1.795   4.208
 4795SOL    HW215285   0.328   1.797   4.072
 4796SOL     OW15286   3.832   1.390   5.907
 4796SOL    HW115287   3.821   1.426   5.814
 4796SOL    HW215288   3.815   1.292   5.907
 4797SOL     OW15289   0.255   5.620   4.620
 4797SOL    HW115290   0.333   5.568   4.585
 4797SOL    HW215291   0.284   5.679   4.695
 4798SOL     OW15292   5.550   4.872   6.314
 4798SOL    HW115293   5.617   4.936   6.352
 4798SOL    HW215294   5.596   4.787   6.288
 4799SOL     OW15295   3.030   2.246   7.024
 4799SOL    HW115296   2.989   2.336   0.011
 4799SOL    HW215297   3.057   2.233   6.929
 4800SOL     OW15298   1.950   4.297   0.428
 4800SOL    HW115299   1.991   4.249   0.505
 4800SOL    HW215300   1.923   4.389   0.457
 4801SOL     OW15301   4.649   2.648   0.817
 4801SOL    HW115302   4.678   2.724   0.875
 4801SOL    HW215303   4.562   2.611   0.852
 4802SOL     OW15304   6.868   6.340   2.181
 4802SOL    HW115305   6.792   6.365   2.121
 4802SOL    HW215306   6.952   6.336   2.127
 4803SOL     OW15307   5.767   4.893   0.380
 4803SOL    HW115308   5.791   4.981   0.339
 4803SOL    HW215309   5.697   4.848   0.324
 4804SOL     OW15310   5.092   1.778   0.179
 4804SOL    HW115311   5.007   1.751   0.133
 4804SOL    HW215312   5.124   1.865   0.140
 4805SOL     OW15313   6.700   1.935   1.890
 4805SOL    HW115314   6.775   1.872   1.909
 4805SOL    HW215315   6.621   1.911   1.947
 4806SOL     OW15316   1.147   3.859   2.841
 4806SOL    HW115317   1.206   3.779   2.829
 4806SOL    HW215318   1.201   3.942   2.826
 4807SOL     OW15319   1.302   3.768   6.551
 4807SOL    HW115320   1.302   3.693   6.616
 4807SOL    HW215321   1.269   3.851   6.596
 4808SOL     OW15322   4.046   5.859   0.955
 4808SOL    HW115323   4.052   5.821   0.863
 4808SOL    HW215324   3.954   5.895   0.970
 4809SOL     OW15325   3.651   4.743   1.534
 4809SOL    HW115326   3.575   4.803   1.509
 4809SOL    HW215327   3.692   4.706   1.450
 4810SOL     OW15328   0.712   4.120   4.466
 4810SOL    HW115329   0.709   4.172   4.551
 4810SOL    HW215330   0.651   4.162   4.399
 4811SOL     OW15331   3.851   3.592   4.608
 4811SOL    HW115332   3.891   3.505   4.637
 4811SOL    HW215333   3.924   3.654   4.579
 4812SOL     OW15334   0.980   0.017   1.597
 4812SOL    HW115335   0.996   0.020   1.696
 4812SOL    HW215336   0.893   0.062   1.577
 4813SOL     OW15337   5.683   1.749   6.947
 4813SOL    HW115338   5.656   1.838   6.912
 4813SOL    HW215339   5.741   1.761   0.004
 4814SOL     OW15340   0.018   3.676   2.557
 4814SOL    HW115341   0.004   3.651   2.653
 4814SOL    HW215342   0.116   3.685   2.539
 4815SOL     OW15343   5.178   5.332   3.068
 4815SOL    HW115344   5.235   5.336   2.986
 4815SOL    HW215345   5.083   5.313   3.043
 4816SOL     OW15346   2.023   6.895   1.357
 4816SOL    HW115347   1.962   6.960   1.311
 4816SOL    HW215348   1.968   6.830   1.410
 4817SOL     OW15349   3.933   0.474   1.729
 4817SOL    HW115350   3.847   0.501   1.684
 4817SOL    HW215351   3.957   0.542   1.798
 4818SOL     OW15352   2.287   0.516   3.972
 4818SOL    HW115353   2.241   0.429   3.990
 4818SOL    HW215354   2.383   0.500   3.951
 4819SOL     OW15355   3.075   2.282   1.052
 4819SOL    HW115356   3.058   2.369   1.006
 4819SOL    HW215357   3.052   2.207   0.991
 4820SOL     OW15358   0.233   3.115   1.092
 4820SOL    HW115359   0.255   3.076   1.181
 4820SOL    HW215360   0.134   3.120   1.082
 4821SOL     OW15361   6.404   5.550   1.749
 4821SOL    HW115362   6.474   5.618   1.729
 4821SOL    HW215363   6.314   5.589   1.732
 4822SOL     OW15364   1.326   3.554   3.416
 4822SOL    HW115365   1.335   3.654   3.413
 4822SOL    HW215366   1.370   3.515   3.335
 4823SOL     OW15367   0.726   0.051   3.980
 4823SOL    HW115368   0.714   6.988   4.028
 4823SOL    HW215369   0.766   0.034   3.890
 4824SOL     OW15370   5.177   1.854   3.224
 4824SOL    HW115371   5.182   1.925   3.295
 4824SOL    HW215372   5.110   1.882   3.154
 4825SOL     OW15373   1.344   2.794   4.430
 4825SOL    HW115374   1.308   2.854   4.501
 4825SOL    HW215375   1.378   2.850   4.354
 4826SOL     OW15376   0.304   6.444   0.641
 4826SOL    HW115377   0.372   6.518   0.636
 4826SOL    HW215378   0.298   6.399   0.553
 4827SOL     OW15379   5.164   0.847   1.719
 4827SOL    HW115380   5.114   0.811   1.797
 4827SOL    HW215381   5.114   0.923   1.678
 4828SOL     OW15382   5.703   3.924   1.558
 4828SOL    HW115383   5.643   3.995   1.596
 4828SOL    HW215384   5.756   3.963   1.483
 4829SOL     OW15385   3.673   6.769   5.996
 4829SOL    HW115386   3.600   6.714   6.036
 4829SOL    HW215387   3.637   6.819   5.917
 4830SOL     OW15388   4.911   6.008   3.900
 4830SOL    HW115389   4.947   5.916   3.885
 4830SOL    HW215390   4.978   6.076   3.871
 4831SOL     OW15391   6.827   4.986   5.288
 4831SOL    HW115392   6.731   5.013   5.286
 4831SOL    HW215393   6.852   4.944   5.201
 4832SOL     OW15394   3.187   2.424   6.391
 4832SOL    HW115395   3.125   2.490   6.349
 4832SOL    HW215396   3.180   2.337   6.343
 4833SOL     OW15397   4.293   1.709   2.951
 4833SOL    HW115398   4.252   1.768   2.881
 4833SOL    HW215399   4.385   1.742   2.973
 4834SOL     OW15400   3.923   0.328   0.864
 4834SOL    HW115401   3.841   0.303   0.916
 4834SOL    HW215402   3.980   0.246   0.851
 4835SOL     OW15403   1.607   6.946   6.243
 4835SOL    HW115404   1.578   6.851   6.251
 4835SOL    HW215405   1.538   7.006   6.284
 4836SOL     OW15406   4.236   1.872   3.645
 4836SOL    HW115407   4.218   1.773   3.651
 4836SOL    HW215408   4.309   1.897   3.709
 4837SOL     OW15409   3.247   2.726   1.850
 4837SOL    HW115410   3.316   2.755   1.783
 4837SOL    HW215411   3.184   2.661   1.807
 4838SOL     OW15412   3.207   4.889   2.211
 4838SOL    HW115413   3.152   4.868   2.130
 4838SOL    HW215414   3.167   4.845   2.291
 4839SOL     OW15415   0.398   4.421   5.532
 4839SOL    HW115416   0.433   4.352   5.595
 4839SOL    HW215417   0.371   4.502   5.583
 4840SOL     OW15418   6.115   6.571   6.658
 4840SOL    HW115419   6.100   6.631   6.579
 4840SOL    HW215420   6.204   6.591   6.698
 4841SOL     OW15421   3.536   5.668   1.730
 4841SOL    HW115422   3.598   5.742   1.702
 4841SOL    HW215423   3.546   5.651   1.828
 4842SOL     OW15424   3.265   5.319   1.458
 4842SOL    HW115425   3.350   5.350   1.502
 4842SOL    HW215426   3.191   5.320   1.524
 4843SOL     OW15427   6.186   3.963   0.589
 4843SOL    HW115428   6.266   3.913   0.556
 4843SOL    HW215429   6.204   3.997   0.681
 4844SOL     OW15430   6.988   4.098   7.015
 4844SOL    HW115431   6.970   4.009   6.974
 4844SOL    HW215432   6.926   4.112   0.068
 4845SOL     OW15433   0.015   5.213   4.540
 4845SOL    HW115434   6.948   5.248   4.519
 4845SOL    HW215435   0.059   5.182   4.455
 4846SOL     OW15436   0.337   3.610   0.998
 4846SOL    HW115437   0.392   3.691   0.980
 4846SOL    HW215438   0.275   3.594   0.921
 4847SOL     OW15439   3.827   1.839   5.722
 4847SOL    HW115440   3.886   1.786   5.782
 4847SOL    HW215441   3.874   1.924   5.697
 4848SOL     OW15442   1.714   1.542   4.894
 4848SOL    HW115443   1.744   1.456   4.935
 4848SOL    HW215444   1.746   1.547   4.800
 4849SOL     OW15445   1.699   6.511   0.357
 4849SOL    HW115446   1.632   6.484   0.288
 4849SOL    HW215447   1.780   6.453   0.349
 4850SOL     OW15448   3.666   0.603   1.943
 4850SOL    HW115449   3.567   0.594   1.937
 4850SOL    HW215450   3.703   0.521   1.988
 4851SOL     OW15451   3.733   6.288   5.084
 4851SOL    HW115452   3.722   6.219   5.155
 4851SOL    HW215453   3.655   6.283   5.021
 4852SOL     OW15454   1.492   0.433   6.634
 4852SOL    HW115455   1.514   0.500   6.705
 4852SOL    HW215456   1.552   0.446   6.556
 4853SOL     OW15457   3.546   1.520   2.449
 4853SOL    HW115458   3.483   1.552   2.378
 4853SOL    HW215459   3.532   1.422   2.464
 4854SOL     OW15460   4.654   6.051   2.489
 4854SOL    HW115461   4.580   5.993   2.524
 4854SOL    HW215462   4.614   6.131   2.444
 4855SOL     OW15463   5.877   1.951   1.864
 4855SOL    HW115464   5.826   1.960   1.779
 4855SOL    HW215465   5.921   2.039   1.886
 4856SOL     OW15466   2.305   4.691   2.920
 4856SOL    HW115467   2.240   4.767   2.910
 4856SOL    HW215468   2.396   4.722   2.893
 4857SOL     OW15469   1.246   1.817   6.068
 4857SOL    HW115470   1.315   1.881   6.100
 4857SOL    HW215471   1.286   1.726   6.061
 4858SOL     OW15472   1.891   1.089   4.190
 4858SOL    HW115473   1.892   1.070   4.091
 4858SOL    HW215474   1.985   1.098   4.223
 4859SOL     OW15475   1.219   6.015   4.142
 4859SOL    HW115476   1.289   5.945   4.130
 4859SOL    HW215477   1.231   6.086   4.072
 4860SOL     OW15478   3.919   5.415   2.263
 4860SOL    HW115479   4.000   5.370   2.300
 4860SOL    HW215480   3.859   5.443   2.338
 4861SOL     OW15481   5.557   5.159   0.505
 4861SOL    HW115482   5.647   5.117   0.492
 4861SOL    HW215483   5.486   5.097   0.473
 4862SOL     OW15484   2.006   5.017   4.017
 4862SOL    HW115485   2.042   4.941   4.072
 4862SOL    HW215486   2.045   5.103   4.051
 4863SOL     OW15487   5.745   4.914   0.648
 4863SOL    HW115488   5.755   4.909   0.549
 4863SOL    HW215489   5.658   4.875   0.675
 4864SOL     OW15490   3.512   1.507   4.089
 4864SOL    HW115491   3.591   1.476   4.036
 4864SOL    HW215492   3.516   1.606   4.099
 4865SOL     OW15493   2.023   0.279   4.790
 4865SOL    HW115494   2.097   0.317   4.735
 4865SOL    HW215495   1.958   0.352   4.813
 4866SOL     OW15496   6.734   3.983   1.248
 4866SOL    HW115497   6.696   4.033   1.326
 4866SOL    HW215498   6.678   4.002   1.167
 4867SOL     OW15499   4.611   5.378   2.186
 4867SOL    HW115500   4.579   5.308   2.250
 4867SOL    HW215501   4.697   5.417   2.220
 4868SOL     OW15502   6.666   4.851   2.526
 4868SOL    HW115503   6.641   4.882   2.434
 4868SOL    HW215504   6.601   4.781   2.556
 4869SOL     OW15505   1.640   1.654   0.736
 4869SOL    HW115506   1.664   1.736   0.789
 4869SOL    HW215507   1.696   1.577   0.765
 4870SOL     OW15508   0.355   6.347   1.618
 4870SOL    HW115509   0.317   6.384   1.534
 4870SOL    HW215510   0.281   6.311   1.675
 4871SOL     OW15511   0.878   0.667   4.500
 4871SOL    HW115512   0.953   0.632   4.444
 4871SOL    HW215513   0.916   0.712   4.581
 4872SOL     OW15514   6.395   6.921   3.267
 4872SOL    HW115515   6.441   6.910   3.179
 4872SOL    HW215516   6.304   6.962   3.252
 4873SOL     OW15517   6.709   6.082   4.438
 4873SOL    HW115518   6.762   6.088   4.353
 4873SOL    HW215519   6.731   5.997   4.485
 4874SOL     OW15520   5.239   3.165   2.310
 4874SOL    HW115521   5.223   3.205   2.401
 4874SOL    HW215522   5.255   3.239   2.244
 4875SOL     OW15523   5.376   0.315   6.888
 4875SOL    HW115524   5.461   0.263   6.878
 4875SOL    HW215525   5.298   0.253   6.885
 4876SOL     OW15526   6.928   1.425   3.746
 4876SOL    HW115527   6.996   1.424   3.820
 4876SOL    HW215528   6.845   1.472   3.779
 4877SOL     OW15529   0.312   2.189   5.528
 4877SOL    HW115530   0.314   2.206   5.430
 4877SOL    HW215531   0.319   2.275   5.578
 4878SOL     OW15532   6.970   1.668   2.194
 4878SOL    HW115533   6.906   1.610   2.245
 4878SOL    HW215534   0.001   1.720   2.258
 4879SOL     OW15535   4.414   2.347   1.649
 4879SOL    HW115536   4.352   2.353   1.571
 4879SOL    HW215537   4.437   2.251   1.666
 4880SOL     OW15538   6.515   3.498   0.192
 4880SOL    HW115539   6.517   3.414   0.139
 4880SOL    HW215540   6.433   3.500   0.249
 4881SOL     OW15541   1.664   1.721   0.131
 4881SOL    HW115542   1.597   1.721   0.205
 4881SOL    HW215543   1.697   1.628   0.116
 4882SOL     OW15544   3.953   2.092   5.702
 4882SOL    HW115545   3.925   2.121   5.794
 4882SOL    HW215546   3.942   2.169   5.638
 4883SOL     OW15547   5.116   4.109   1.039
 4883SOL    HW115548   5.174   4.047   0.985
 4883SOL    HW215549   5.073   4.175   0.979
 4884SOL     OW15550   3.667   5.013   0.956
 4884SOL    HW115551   3.581   4.999   1.006
 4884SOL    HW215552   3.723   5.080   1.006
 4885SOL     OW15553   2.226   4.466   1.687
 4885SOL    HW115554   2.158   4.535   1.665
 4885SOL    HW215555   2.317   4.507   1.688
 4886SOL     OW15556   3.442   6.957   1.573
 4886SOL    HW115557   3.479   7.009   1.650
 4886SOL    HW215558   3.451   7.011   1.490
 4887SOL     OW15559   0.607   6.210   1.663
 4887SOL    HW115560   0.634   6.120   1.629
 4887SOL    HW215561   0.510   6.225   1.645
 4888SOL     OW15562   2.700   0.246   2.699
 4888SOL    HW115563   2.796   0.235   2.673
 4888SOL    HW215564   2.670   0.165   2.749
 4889SOL     OW15565   6.543   1.746   5.273
 4889SOL    HW115566   6.636   1.780   5.263
 4889SOL    HW215567   6.510   1.709   5.186
 4890SOL     OW15568   0.820   1.524   5.850
 4890SOL    HW115569   0.751   1.562   5.911
 4890SOL    HW215570   0.879   1.597   5.815
 4891SOL     OW15571   3.171   5.145   0.072
 4891SOL    HW115572   3.199   5.108   7.008
 4891SOL    HW215573   3.170   5.072   0.140
 4892SOL     OW15574   5.426   5.624   2.179
 4892SOL    HW115575   5.512   5.661   2.144
 4892SOL    HW215576   5.444   5.561   2.254
 4893SOL     OW15577   6.240   3.609   2.167
 4893SOL    HW115578   6.252   3.611   2.068
 4893SOL    HW215579   6.321   3.569   2.210
 4894SOL     OW15580   3.651   0.160   2.671
 4894SOL    HW115581   3.744   0.196   2.664
 4894SOL    HW215582   3.612   0.153   2.579
 4895SOL     OW15583   0.819   4.786   3.521
 4895SOL    HW115584   0.743   4.744   3.472
 4895SOL    HW215585   0.818   4.756   3.616
 4896SOL     OW15586   2.549   4.777   2.791
 4896SOL    HW115587   2.644   4.770   2.762
 4896SOL    HW215588   2.490   4.742   2.719
 4897SOL     OW15589   1.911   5.707   5.636
 4897SOL    HW115590   1.930   5.630   5.574
 4897SOL    HW215591   1.828   5.754   5.606
 4898SOL     OW15592   4.227   0.966   4.905
 4898SOL    HW115593   4.323   0.973   4.880
 4898SOL    HW215594   4.176   0.924   4.830
 4899SOL     OW15595   6.246   5.065   3.086
 4899SOL    HW115596   6.206   5.157   3.098
 4899SOL    HW215597   6.222   5.030   2.996
 4900SOL     OW15598   4.009   5.872   5.887
 4900SOL    HW115599   3.930   5.871   5.827
 4900SOL    HW215600   3.985   5.831   5.975
 4901SOL     OW15601   2.132   1.476   5.998
 4901SOL    HW115602   2.208   1.448   5.939
 4901SOL    HW215603   2.061   1.406   5.996
 4902SOL     OW15604   1.282   0.957   5.617
 4902SOL    HW115605   1.370   0.920   5.648
 4902SOL    HW215606   1.233   0.886   5.566
 4903SOL     OW15607   4.560   5.845   1.069
 4903SOL    HW115608   4.628   5.917   1.055
 4903SOL    HW215609   4.477   5.868   1.018
 4904SOL     OW15610   2.053   0.797   5.550
 4904SOL    HW115611   2.024   0.884   5.590
 4904SOL    HW215612   1.988   0.769   5.480
 4905SOL     OW15613   1.881   0.826   3.559
 4905SOL    HW115614   1.933   0.745   3.531
 4905SOL    HW215615   1.941   0.906   3.560
 4906SOL     OW15616   4.677   3.259   5.741
 4906SOL    HW115617   4.773   3.234   5.731
 4906SOL    HW215618   4.658   3.279   5.838
 4907SOL     OW15619   4.886   1.084   1.191
 4907SOL    HW115620   4.866   1.050   1.099
 4907SOL    HW215621   4.984   1.077   1.208
 4908SOL     OW15622   5.199   6.746   0.210
 4908SOL    HW115623   5.201   6.657   0.165
 4908SOL    HW215624   5.176   6.734   0.307
 4909SOL     OW15625   6.870   4.913   3.749
 4909SOL    HW115626   6.784   4.870   3.778
 4909SOL    HW215627   6.940   4.898   3.819
 4910SOL     OW15628   5.745   0.837   4.285
 4910SOL    HW115629   5.828   0.893   4.289
 4910SOL    HW215630   5.668   0.894   4.256
 4911SOL     OW15631   1.664   3.735   3.127
 4911SOL    HW115632   1.698   3.720   3.034
 4911SOL    HW215633   1.674   3.651   3.181
 4912SOL     OW15634   5.290   1.785   5.609
 4912SOL    HW115635   5.280   1.714   5.679
 4912SOL    HW215636   5.327   1.868   5.651
 4913SOL     OW15637   5.003   3.725   5.620
 4913SOL    HW115638   5.053   3.686   5.697
 4913SOL    HW215639   4.906   3.700   5.626
 4914SOL     OW15640   4.332   6.999   5.515
 4914SOL    HW115641   4.376   0.050   5.563
 4914SOL    HW215642   4.317   7.024   5.420
 4915SOL     OW15643   2.943   6.328   5.453
 4915SOL    HW115644   3.015   6.331   5.384
 4915SOL    HW215645   2.854   6.327   5.408
 4916SOL     OW15646   0.516   0.755   3.864
 4916SOL    HW115647   0.507   0.676   3.925
 4916SOL    HW215648   0.484   0.731   3.773
 4917SOL     OW15649   4.067   5.740   0.677
 4917SOL    HW115650   4.151   5.780   0.639
 4917SOL    HW215651   3.989   5.766   0.620
 4918SOL     OW15652   5.829   6.421   2.322
 4918SOL    HW115653   5.857   6.402   2.416
 4918SOL    HW215654   5.866   6.509   2.293
 4919SOL     OW15655   3.721   2.948   2.717
 4919SOL    HW115656   3.802   2.953   2.659
 4919SOL    HW215657   3.640   2.939   2.659
 4920SOL     OW15658   5.603   0.120   5.012
 4920SOL    HW115659   5.677   0.058   5.037
 4920SOL    HW215660   5.574   0.101   4.918
 4921SOL     OW15661   1.877   5.076   0.184
 4921SOL    HW115662   1.833   5.000   0.136
 4921SOL    HW215663   1.949   5.041   0.244
 4922SOL     OW15664   3.265   2.080   4.885
 4922SOL    HW115665   3.237   2.153   4.947
 4922SOL    HW215666   3.344   2.033   4.923
 4923SOL     OW15667   2.386   1.468   2.920
 4923SOL    HW115668   2.301   1.493   2.873
 4923SOL    HW215669   2.459   1.530   2.892
 4924SOL     OW15670   2.327   1.972   4.986
 4924SOL    HW115671   2.267   1.990   5.064
 4924SOL    HW215672   2.361   2.059   4.950
 4925SOL     OW15673   4.814   0.163   3.047
 4925SOL    HW115674   4.850   0.162   3.140
 4925SOL    HW215675   4.766   0.077   3.028
 4926SOL     OW15676   5.593   2.035   1.422
 4926SOL    HW115677   5.540   1.984   1.354
 4926SOL    HW215678   5.633   1.971   1.488
 4927SOL     OW15679   2.734   3.097   5.812
 4927SOL    HW115680   2.818   3.146   5.836
 4927SOL    HW215681   2.668   3.105   5.888
 4928SOL     OW15682   1.506   0.810   0.048
 4928SOL    HW115683   1.475   0.790   0.141
 4928SOL    HW215684   1.556   0.897   0.048
 4929SOL     OW15685   6.656   0.263   3.622
 4929SOL    HW115686   6.722   0.195   3.654
 4929SOL    HW215687   6.563   0.233   3.642
 4930SOL     OW15688   5.879   0.241   2.902
 4930SOL    HW115689   5.897   0.291   2.986
 4930SOL    HW215690   5.835   0.301   2.835
 4931SOL     OW15691   6.447   6.357   1.508
 4931SOL    HW115692   6.468   6.342   1.411
 4931SOL    HW215693   6.481   6.447   1.536
 4932SOL     OW15694   3.887   3.994   3.351
 4932SOL    HW115695   3.948   4.065   3.316
 4932SOL    HW215696   3.792   4.024   3.345
 4933SOL     OW15697   2.391   6.588   2.944
 4933SOL    HW115698   2.443   6.652   2.888
 4933SOL    HW215699   2.298   6.580   2.908
 4934SOL     OW15700   3.858   6.017   2.454
 4934SOL    HW115701   3.929   6.066   2.504
 4934SOL    HW215702   3.772   6.067   2.461
 4935SOL     OW15703   1.687   1.950   6.758
 4935SOL    HW115704   1.647   1.934   6.668
 4935SOL    HW215705   1.616   1.940   6.828
 4936SOL     OW15706   2.739   4.684   1.012
 4936SOL    HW115707   2.832   4.713   0.991
 4936SOL    HW215708   2.733   4.585   1.004
 4937SOL     OW15709   5.304   3.089   5.105
 4937SOL    HW115710   5.216   3.097   5.151
 4937SOL    HW215711   5.289   3.087   5.006
 4938SOL     OW15712   3.170   5.325   6.074
 4938SOL    HW115713   3.175   5.358   6.168
 4938SOL    HW215714   3.263   5.318   6.036
 4939SOL     OW15715   5.450   2.284   4.952
 4939SOL    HW115716   5.512   2.228   5.008
 4939SOL    HW215717   5.447   2.376   4.989
 4940SOL     OW15718   1.186   0.923   4.868
 4940SOL    HW115719   1.173   1.010   4.820
 4940SOL    HW215720   1.213   0.941   4.963
 4941SOL     OW15721   3.522   1.754   6.248
 4941SOL    HW115722   3.512   1.838   6.302
 4941SOL    HW215723   3.454   1.751   6.176
 4942SOL     OW15724   4.820   3.290   5.382
 4942SOL    HW115725   4.729   3.274   5.419
 4942SOL    HW215726   4.841   3.388   5.383
 4943SOL     OW15727   3.835   2.371   0.024
 4943SOL    HW115728   3.881   2.286   0.047
 4943SOL    HW215729   3.888   2.448   0.061
 4944SOL     OW15730   2.118   3.984   3.021
 4944SOL    HW115731   2.019   3.972   3.033
 4944SOL    HW215732   2.138   4.002   2.925
 4945SOL     OW15733   0.941   0.897   3.680
 4945SOL    HW115734   0.915   0.959   3.753
 4945SOL    HW215735   0.991   0.948   3.610
 4946SOL     OW15736   0.813   2.746   1.336
 4946SOL    HW115737   0.810   2.679   1.262
 4946SOL    HW215738   0.796   2.837   1.298
 4947SOL     OW15739   1.023   6.209   0.817
 4947SOL    HW115740   1.084   6.141   0.776
 4947SOL    HW215741   0.977   6.170   0.896
 4948SOL     OW15742   2.876   0.662   2.381
 4948SOL    HW115743   2.887   0.704   2.291
 4948SOL    HW215744   2.886   0.563   2.373
 4949SOL     OW15745   4.548   0.703   5.483
 4949SOL    HW115746   4.563   0.646   5.563
 4949SOL    HW215747   4.451   0.702   5.460
 4950SOL     OW15748   2.904   5.644   3.779
 4950SOL    HW115749   2.926   5.617   3.686
 4950SOL    HW215750   2.943   5.735   3.798
 4951SOL     OW15751   4.924   1.620   4.685
 4951SOL    HW115752   4.995   1.570   4.637
 4951SOL    HW215753   4.966   1.689   4.745
 4952SOL     OW15754   0.516   6.428   4.975
 4952SOL    HW115755   0.591   6.429   4.909
 4952SOL    HW215756   0.477   6.519   4.982
 4953SOL     OW15757   2.498   5.568   2.059
 4953SOL    HW115758   2.543   5.508   1.993
 4953SOL    HW215759   2.566   5.624   2.106
 4954SOL     OW15760   4.595   4.524   7.014
 4954SOL    HW115761   4.512   4.530   6.959
 4954SOL    HW215762   4.674   4.517   6.954
 4955SOL     OW15763   1.963   5.583   6.797
 4955SOL    HW115764   1.998   5.602   6.888
 4955SOL    HW215765   2.035   5.541   6.741
 4956SOL     OW15766   4.054   0.354   5.158
 4956SOL    HW115767   4.025   0.387   5.069
 4956SOL    HW215768   4.152   0.332   5.155
 4957SOL     OW15769   0.067   1.507   4.020
 4957SOL    HW115770   7.023   1.573   4.052
 4957SOL    HW215771   0.114   1.468   4.099
 4958SOL     OW15772   0.357   6.533   6.232
 4958SOL    HW115773   0.387   6.596   6.160
 4958SOL    HW215774   0.258   6.541   6.244
 4959SOL     OW15775   0.924   0.782   6.324
 4959SOL    HW115776   0.875   0.789   6.237
 4959SOL    HW215777   0.935   0.874   6.363
 4960SOL     OW15778   3.632   6.569   4.258
 4960SOL    HW115779   3.645   6.620   4.173
 4960SOL    HW215780   3.688   6.486   4.256
 4961SOL     OW15781   5.617   1.515   4.838
 4961SOL    HW115782   5.708   1.557   4.843
 4961SOL    HW215783   5.596   1.468   4.924
 4962SOL     OW15784   5.667   2.780   1.876
 4962SOL    HW115785   5.680   2.820   1.966
 4962SOL    HW215786   5.572   2.752   1.864
 4963SOL     OW15787   6.690   5.916   1.456
 4963SOL    HW115788   6.699   5.923   1.357
 4963SOL    HW215789   6.606   5.962   1.485
 4964SOL     OW15790   3.460   5.905   2.766
 4964SOL    HW115791   3.493   5.992   2.802
 4964SOL    HW215792   3.403   5.922   2.685
 4965SOL     OW15793   0.496   6.752   4.714
 4965SOL    HW115794   0.419   6.770   4.654
 4965SOL    HW215795   0.557   6.831   4.715
 4966SOL     OW15796   2.130   5.852   4.615
 4966SOL    HW115797   2.198   5.817   4.680
 4966SOL    HW215798   2.152   5.818   4.523
 4967SOL     OW15799   4.213   2.899   6.876
 4967SOL    HW115800   4.151   2.824   6.900
 4967SOL    HW215801   4.185   2.982   6.924
 4968SOL     OW15802   5.213   3.436   3.383
 4968SOL    HW115803   5.278   3.484   3.324
 4968SOL    HW215804   5.241   3.341   3.393
 4969SOL     OW15805   1.634   0.799   2.600
 4969SOL    HW115806   1.669   0.720   2.651
 4969SOL    HW215807   1.705   0.870   2.597
 4970SOL     OW15808   1.304   2.245   5.002
 4970SOL    HW115809   1.305   2.261   5.101
 4970SOL    HW215810   1.298   2.332   4.953
 4971SOL     OW15811   6.106   6.162   3.995
 4971SOL    HW115812   6.108   6.117   3.906
 4971SOL    HW215813   6.027   6.129   4.047
 4972SOL     OW15814   2.541   3.367   0.312
 4972SOL    HW115815   2.527   3.442   0.248
 4972SOL    HW215816   2.557   3.403   0.403
 4973SOL     OW15817   6.443   6.544   1.807
 4973SOL    HW115818   6.376   6.489   1.856
 4973SOL    HW215819   6.416   6.552   1.712
 4974SOL     OW15820   6.088   5.344   1.728
 4974SOL    HW115821   6.104   5.298   1.815
 4974SOL    HW215822   6.166   5.328   1.667
 4975SOL     OW15823   6.203   6.513   1.077
 4975SOL    HW115824   6.297   6.485   1.055
 4975SOL    HW215825   6.141   6.476   1.007
 4976SOL     OW15826   3.127   0.565   3.942
 4976SOL    HW115827   3.104   0.534   3.850
 4976SOL    HW215828   3.219   0.533   3.966
 4977SOL     OW15829   4.899   3.785   0.625
 4977SOL    HW115830   4.930   3.788   0.530
 4977SOL    HW215831   4.858   3.696   0.645
 4978SOL     OW15832   6.494   3.985   5.492
 4978SOL    HW115833   6.542   4.068   5.463
 4978SOL    HW215834   6.504   3.916   5.420
 4979SOL     OW15835   6.667   2.624   5.138
 4979SOL    HW115836   6.633   2.588   5.051
 4979SOL    HW215837   6.594   2.675   5.183
 4980SOL     OW15838   4.011   6.384   2.826
 4980SOL    HW115839   3.983   6.290   2.847
 4980SOL    HW215840   4.029   6.432   2.912
 4981SOL     OW15841   4.420   6.260   5.521
 4981SOL    HW115842   4.420   6.358   5.499
 4981SOL    HW215843   4.451   6.209   5.441
 4982SOL     OW15844   1.962   1.927   6.822
 4982SOL    HW115845   1.865   1.919   6.799
 4982SOL    HW215846   2.017   1.907   6.742
 4983SOL     OW15847   5.478   3.305   3.925
 4983SOL    HW115848   5.575   3.284   3.939
 4983SOL    HW215849   5.442   3.355   4.004
 4984SOL     OW15850   5.639   3.424   4.717
 4984SOL    HW115851   5.652   3.423   4.618
 4984SOL    HW215852   5.543   3.441   4.738
 4985SOL     OW15853   6.149   5.711   3.809
 4985SOL    HW115854   6.144   5.618   3.772
 4985SOL    HW215855   6.211   5.712   3.888
 4986SOL     OW15856   6.216   4.613   3.043
 4986SOL    HW115857   6.193   4.528   3.092
 4986SOL    HW215858   6.204   4.599   2.945
 4987SOL     OW15859   0.630   2.624   1.061
 4987SOL    HW115860   0.711   2.634   1.003
 4987SOL    HW215861   0.568   2.558   1.018
 4988SOL     OW15862   6.996   1.905   4.019
 4988SOL    HW115863   6.985   1.910   3.920
 4988SOL    HW215864   0.057   1.859   4.041
 4989SOL     OW15865   5.656   1.520   1.491
 4989SOL    HW115866   5.616   1.593   1.546
 4989SOL    HW215867   5.621   1.432   1.522
 4990SOL     OW15868   0.750   2.602   6.162
 4990SOL    HW115869   0.660   2.609   6.118
 4990SOL    HW215870   0.740   2.559   6.252
 4991SOL     OW15871   0.478   3.099   4.201
 4991SOL    HW115872   0.437   3.072   4.114
 4991SOL    HW215873   0.565   3.144   4.184
 4992SOL     OW15874   4.037   0.351   4.479
 4992SOL    HW115875   3.956   0.308   4.438
 4992SOL    HW215876   4.066   0.428   4.422
 4993SOL     OW15877   2.442   4.701   3.770
 4993SOL    HW115878   2.464   4.780   3.827
 4993SOL    HW215879   2.519   4.681   3.710
 4994SOL     OW15880   1.214   6.999   2.713
 4994SOL    HW115881   1.159   6.918   2.693
 4994SOL    HW215882   1.193   0.046   2.648
 4995SOL     OW15883   6.920   2.884   6.295
 4995SOL    HW115884   6.831   2.930   6.290
 4995SOL    HW215885   6.907   2.785   6.295
 4996SOL     OW15886   0.443   0.946   1.773
 4996SOL    HW115887   0.454   0.848   1.788
 4996SOL    HW215888   0.496   0.974   1.693
 4997SOL     OW15889   6.894   2.517   2.960
 4997SOL    HW115890   6.960   2.505   3.035
 4997SOL    HW215891   6.850   2.430   2.941
 4998SOL     OW15892   2.012   4.623   5.391
 4998SOL    HW115893   2.099   4.665   5.419
 4998SOL    HW215894   1.962   4.688   5.334
 4999SOL     OW15895   4.920   5.552   1.495
 4999SOL    HW115896   4.994   5.547   1.428
 4999SOL    HW215897   4.954   5.520   1.584
 5000SOL     OW15898   1.017   0.403   4.665
 5000SOL    HW115899   1.016   0.331   4.595
 5000SOL    HW215900   0.923   0.426   4.690
 5001SOL     OW15901   1.951   3.936   6.228
 5001SOL    HW115902   2.016   3.939   6.152
 5001SOL    HW215903   1.900   4.022   6.232
 5002SOL     OW15904   1.350   2.456   3.216
 5002SOL    HW115905   1.371   2.549   3.246
 5002SOL    HW215906   1.322   2.457   3.120
 5003SOL     OW15907   0.515   6.863   3.297
 5003SOL    HW115908   0.584   6.822   3.238
 5003SOL    HW215909   0.518   6.962   3.288
 5004SOL     OW15910   2.872   5.505   5.652
 5004SOL    HW115911   2.932   5.526   5.574
 5004SOL    HW215912   2.817   5.424   5.630
 5005SOL     OW15913   3.668   1.948   0.823
 5005SOL    HW115914   3.663   1.911   0.730
 5005SOL    HW215915   3.758   1.989   0.838
 5006SOL     OW15916   5.804   6.981   5.597
 5006SOL    HW115917   5.855   0.002   5.524
 5006SOL    HW215918   5.727   0.015   5.625
 5007SOL     OW15919   3.126   0.246   5.906
 5007SOL    HW115920   3.191   0.322   5.904
 5007SOL    HW215921   3.083   0.242   5.996
 5008SOL     OW15922   5.993   0.983   3.208
 5008SOL    HW115923   6.067   0.920   3.184
 5008SOL    HW215924   6.020   1.076   3.183
 5009SOL     OW15925   1.519   6.034   1.767
 5009SOL    HW115926   1.612   5.997   1.769
 5009SOL    HW215927   1.520   6.125   1.725
 5010SOL     OW15928   3.397   3.961   4.095
 5010SOL    HW115929   3.488   3.977   4.134
 5010SOL    HW215930   3.328   3.967   4.167
 5011SOL     OW15931   1.995   3.274   2.050
 5011SOL    HW115932   1.906   3.300   2.086
 5011SOL    HW215933   2.044   3.355   2.018
 5012SOL     OW15934   6.319   2.842   5.903
 5012SOL    HW115935   6.411   2.881   5.893
 5012SOL    HW215936   6.272   2.847   5.815
 5013SOL     OW15937   4.585   0.521   6.039
 5013SOL    HW115938   4.503   0.466   6.020
 5013SOL    HW215939   4.642   0.473   6.105
 5014SOL     OW15940   6.163   6.096   1.034
 5014SOL    HW115941   6.248   6.077   0.986
 5014SOL    HW215942   6.171   6.182   1.084
 5015SOL     OW15943   4.536   1.647   3.589
 5015SOL    HW115944   4.513   1.592   3.509
 5015SOL    HW215945   4.582   1.590   3.656
 5016SOL     OW15946   2.134   1.269   2.920
 5016SOL    HW115947   2.085   1.343   2.966
 5016SOL    HW215948   2.233   1.280   2.934
 5017SOL     OW15949   2.438   2.360   0.478
 5017SOL    HW115950   2.421   2.264   0.497
 5017SOL    HW215951   2.406   2.382   0.385
 5018SOL     OW15952   0.472   4.078   2.606
 5018SOL    HW115953   0.440   4.134   2.529
 5018SOL    HW215954   0.477   3.983   2.578
 5019SOL     OW15955   2.304   4.031   0.168
 5019SOL    HW115956   2.331   4.084   0.088
 5019SOL    HW215957   2.254   4.089   0.232
 5020SOL     OW15958   5.819   5.602   5.973
 5020SOL    HW115959   5.737   5.642   5.932
 5020SOL    HW215960   5.894   5.669   5.971
 5021SOL     OW15961   1.137   4.512   6.193
 5021SOL    HW115962   1.064   4.581   6.187
 5021SOL    HW215963   1.129   4.449   6.117
 5022SOL     OW15964   2.159   6.685   0.448
 5022SOL    HW115965   2.096   6.712   0.520
 5022SOL    HW215966   2.184   6.765   0.393
 5023SOL     OW15967   6.175   2.553   0.902
 5023SOL    HW115968   6.147   2.644   0.873
 5023SOL    HW215969   6.175   2.547   1.002
 5024SOL     OW15970   6.941   3.788   3.015
 5024SOL    HW115971   6.909   3.717   3.077
 5024SOL    HW215972   6.887   3.785   2.930
 5025SOL     OW15973   4.427   1.796   2.591
 5025SOL    HW115974   4.336   1.835   2.577
 5025SOL    HW215975   4.496   1.868   2.581
 5026SOL     OW15976   6.325   5.857   5.583
 5026SOL    HW115977   6.326   5.782   5.649
 5026SOL    HW215978   6.345   5.943   5.630
 5027SOL     OW15979   0.659   6.961   3.068
 5027SOL    HW115980   0.634   0.021   3.022
 5027SOL    HW215981   0.687   6.893   3.000
 5028SOL     OW15982   0.353   5.960   1.868
 5028SOL    HW115983   0.275   5.901   1.847
 5028SOL    HW215984   0.430   5.937   1.808
 5029SOL     OW15985   6.865   2.318   2.500
 5029SOL    HW115986   6.918   2.381   2.443
 5029SOL    HW215987   6.776   2.359   2.521
 5030SOL     OW15988   0.108   6.924   0.079
 5030SOL    HW115989   0.067   7.008   0.044
 5030SOL    HW215990   0.115   6.857   0.004
 5031SOL     OW15991   6.032   0.905   4.273
 5031SOL    HW115992   6.018   0.976   4.204
 5031SOL    HW215993   6.088   0.942   4.347
 5032SOL     OW15994   1.461   5.020   0.758
 5032SOL    HW115995   1.397   5.096   0.742
 5032SOL    HW215996   1.444   4.981   0.848
 5033SOL     OW15997   3.049   5.368   5.255
 5033SOL    HW115998   3.049   5.276   5.293
 5033SOL    HW215999   3.037   5.363   5.156
 5034SOL     OW16000   6.407   2.822   1.989
 5034SOL    HW116001   6.502   2.794   2.001
 5034SOL    HW216002   6.397   2.919   2.014
 5035SOL     OW16003   5.358   5.014   0.862
 5035SOL    HW116004   5.446   5.031   0.819
 5035SOL    HW216005   5.344   4.915   0.872
 5036SOL     OW16006   1.393   6.015   6.373
 5036SOL    HW116007   1.466   5.965   6.327
 5036SOL    HW216008   1.321   5.951   6.401
 5037SOL     OW16009   4.118   1.899   3.393
 5037SOL    HW116010   4.149   1.896   3.488
 5037SOL    HW216011   4.109   1.805   3.359
 5038SOL     OW16012   1.176   5.714   5.831
 5038SOL    HW116013   1.163   5.802   5.878
 5038SOL    HW216014   1.086   5.678   5.804
 5039SOL     OW16015   2.313   3.159   5.344
 5039SOL    HW116016   2.291   3.114   5.431
 5039SOL    HW216017   2.355   3.093   5.282
 5040SOL     OW16018   2.647   3.217   6.778
 5040SOL    HW116019   2.710   3.263   6.715
 5040SOL    HW216020   2.653   3.261   6.868
 5041SOL     OW16021   0.814   4.256   1.385
 5041SOL    HW116022   0.785   4.256   1.481
 5041SOL    HW216023   0.903   4.301   1.377
 5042SOL     OW16024   6.719   3.101   6.925
 5042SOL    HW116025   6.816   3.088   6.904
 5042SOL    HW216026   6.665   3.091   6.841
 5043SOL     OW16027   3.833   1.741   4.842
 5043SOL    HW116028   3.929   1.719   4.827
 5043SOL    HW216029   3.782   1.657   4.860
 5044SOL     OW16030   6.309   6.246   3.724
 5044SOL    HW116031   6.340   6.337   3.751
 5044SOL    HW216032   6.210   6.240   3.732
 5045SOL     OW16033   5.965   3.095   0.498
 5045SOL    HW116034   5.932   3.016   0.549
 5045SOL    HW216035   6.064   3.090   0.489
 5046SOL     OW16036   3.807   2.962   5.000
 5046SOL    HW116037   3.904   2.942   5.011
 5046SOL    HW216038   3.764   2.968   5.091
 5047SOL     OW16039   5.520   0.984   2.628
 5047SOL    HW116040   5.582   1.013   2.702
 5047SOL    HW216041   5.564   0.998   2.540
 5048SOL     OW16042   6.553   2.528   2.207
 5048SOL    HW116043   6.551   2.607   2.145
 5048SOL    HW216044   6.628   2.467   2.180
 5049SOL     OW16045   1.021   1.649   2.546
 5049SOL    HW116046   0.994   1.608   2.633
 5049SOL    HW216047   1.083   1.726   2.564
 5050SOL     OW16048   6.760   1.376   2.006
 5050SOL    HW116049   6.784   1.320   2.085
 5050SOL    HW216050   6.843   1.403   1.957
 5051SOL     OW16051   2.835   4.007   1.384
 5051SOL    HW116052   2.864   3.928   1.439
 5051SOL    HW216053   2.896   4.084   1.402
 5052SOL     OW16054   3.581   4.263   0.753
 5052SOL    HW116055   3.615   4.283   0.661
 5052SOL    HW216056   3.499   4.207   0.748
 5053SOL     OW16057   2.065   4.179   2.143
 5053SOL    HW116058   2.043   4.199   2.047
 5053SOL    HW216059   2.003   4.231   2.202
 5054SOL     OW16060   3.678   5.673   5.326
 5054SOL    HW116061   3.601   5.610   5.314
 5054SOL    HW216062   3.752   5.646   5.264
 5055SOL     OW16063   0.407   2.093   4.648
 5055SOL    HW116064   0.337   2.104   4.577
 5055SOL    HW216065   0.432   1.997   4.655
 5056SOL     OW16066   0.036   4.000   6.609
 5056SOL    HW116067   6.975   3.971   6.653
 5056SOL    HW216068   0.022   4.004   6.510
 5057SOL     OW16069   0.921   5.496   3.333
 5057SOL    HW116070   0.939   5.443   3.250
 5057SOL    HW216071   0.841   5.554   3.319
 5058SOL     OW16072   3.858   4.062   6.905
 5058SOL    HW116073   3.880   4.014   6.990
 5058SOL    HW216074   3.830   4.156   6.926
 5059SOL     OW16075   4.364   2.218   4.696
 5059SOL    HW116076   4.381   2.316   4.710
 5059SOL    HW216077   4.336   2.177   4.783
 5060SOL     OW16078   6.897   3.328   5.526
 5060SOL    HW116079   6.995   3.343   5.542
 5060SOL    HW216080   6.857   3.283   5.605
 5061SOL     OW16081   2.914   3.720   4.370
 5061SOL    HW116082   2.904   3.807   4.321
 5061SOL    HW216083   2.845   3.715   4.442
 5062SOL     OW16084   5.125   1.474   2.470
 5062SOL    HW116085   5.028   1.480   2.449
 5062SOL    HW216086   5.156   1.560   2.512
 5063SOL     OW16087   1.996   6.473   1.501
 5063SOL    HW116088   1.914   6.455   1.447
 5063SOL    HW216089   2.053   6.390   1.504
 5064SOL     OW16090   4.584   5.208   0.871
 5064SOL    HW116091   4.499   5.253   0.898
 5064SOL    HW216092   4.567   5.147   0.793
 5065SOL     OW16093   1.596   0.500   3.360
 5065SOL    HW116094   1.518   0.524   3.302
 5065SOL    HW216095   1.658   0.578   3.366
 5066SOL     OW16096   2.318   4.520   2.226
 5066SOL    HW116097   2.388   4.575   2.270
 5066SOL    HW216098   2.241   4.508   2.288
 5067SOL     OW16099   4.252   2.040   1.878
 5067SOL    HW116100   4.164   2.013   1.838
 5067SOL    HW216101   4.237   2.111   1.946
 5068SOL     OW16102   3.745   6.000   0.719
 5068SOL    HW116103   3.645   5.996   0.715
 5068SOL    HW216104   3.784   5.932   0.658
 5069SOL     OW16105   2.306   3.652   6.336
 5069SOL    HW116106   2.266   3.579   6.392
 5069SOL    HW216107   2.302   3.626   6.239
 5070SOL     OW16108   5.745   2.912   3.813
 5070SOL    HW116109   5.802   2.841   3.773
 5070SOL    HW216110   5.650   2.897   3.787
 5071SOL     OW16111   3.754   1.384   3.998
 5071SOL    HW116112   3.833   1.429   3.957
 5071SOL    HW216113   3.785   1.324   4.072
 5072SOL     OW16114   1.517   0.799   1.020
 5072SOL    HW116115   1.494   0.755   1.107
 5072SOL    HW216116   1.479   0.891   1.019
 5073SOL     OW16117   2.618   6.181   2.261
 5073SOL    HW116118   2.705   6.138   2.239
 5073SOL    HW216119   2.606   6.263   2.204
 5074SOL     OW16120   3.236   1.454   1.893
 5074SOL    HW116121   3.289   1.537   1.911
 5074SOL    HW216122   3.175   1.470   1.816
 5075SOL     OW16123   0.972   3.083   6.970
 5075SOL    HW116124   0.947   2.993   7.007
 5075SOL    HW216125   1.061   3.076   6.924
 5076SOL     OW16126   5.147   0.530   6.921
 5076SOL    HW116127   5.175   0.504   6.829
 5076SOL    HW216128   5.218   0.504   6.986
 5077SOL     OW16129   1.766   3.837   4.764
 5077SOL    HW116130   1.687   3.802   4.814
 5077SOL    HW216131   1.774   3.935   4.778
 5078SOL     OW16132   0.516   1.399   4.283
 5078SOL    HW116133   0.599   1.417   4.336
 5078SOL    HW216134   0.542   1.375   4.189
 5079SOL     OW16135   1.927   1.910   5.744
 5079SOL    HW116136   1.881   1.993   5.714
 5079SOL    HW216137   1.907   1.836   5.681
 5080SOL     OW16138   6.060   5.500   5.607
 5080SOL    HW116139   5.989   5.440   5.643
 5080SOL    HW216140   6.043   5.594   5.637
 5081SOL     OW16141   2.861   5.536   5.006
 5081SOL    HW116142   2.787   5.603   5.007
 5081SOL    HW216143   2.824   5.444   5.003
 5082SOL     OW16144   4.627   6.635   0.060
 5082SOL    HW116145   4.627   6.706   0.131
 5082SOL    HW216146   4.643   6.546   0.102
 5083SOL     OW16147   3.030   0.931   1.974
 5083SOL    HW116148   3.118   0.883   1.973
 5083SOL    HW216149   3.031   1.002   2.045
 5084SOL     OW16150   1.092   4.973   5.247
 5084SOL    HW116151   1.050   5.059   5.218
 5084SOL    HW216152   1.117   4.919   5.167
 5085SOL     OW16153   1.313   2.870   6.019
 5085SOL    HW116154   1.267   2.958   6.011
 5085SOL    HW216155   1.401   2.882   6.066
 5086SOL     OW16156   0.222   4.328   2.781
 5086SOL    HW116157   0.214   4.261   2.707
 5086SOL    HW216158   0.230   4.280   2.869
 5087SOL     OW16159   6.916   5.473   2.458
 5087SOL    HW116160   6.864   5.389   2.472
 5087SOL    HW216161   6.972   5.464   2.376
 5088SOL     OW16162   4.428   5.959   2.687
 5088SOL    HW116163   4.379   6.043   2.665
 5088SOL    HW216164   4.421   5.941   2.785
 5089SOL     OW16165   6.063   4.451   4.349
 5089SOL    HW116166   6.155   4.419   4.370
 5089SOL    HW216167   6.001   4.425   4.422
 5090SOL     OW16168   1.708   0.330   3.546
 5090SOL    HW116169   1.647   0.367   3.477
 5090SOL    HW216170   1.654   0.290   3.620
 5091SOL     OW16171   6.400   0.138   0.123
 5091SOL    HW116172   6.321   0.198   0.135
 5091SOL    HW216173   6.457   0.142   0.206
 5092SOL     OW16174   4.111   3.461   4.491
 5092SOL    HW116175   4.156   3.403   4.423
 5092SOL    HW216176   4.089   3.407   4.572
 5093SOL     OW16177   2.562   1.379   2.649
 5093SOL    HW116178   2.576   1.318   2.727
 5093SOL    HW216179   2.572   1.328   2.564
 5094SOL     OW16180   2.924   5.914   6.636
 5094SOL    HW116181   2.826   5.901   6.654
 5094SOL    HW216182   2.936   5.992   6.575
 5095SOL     OW16183   0.609   1.555   3.669
 5095SOL    HW116184   0.555   1.530   3.749
 5095SOL    HW216185   0.678   1.622   3.695
 5096SOL     OW16186   5.741   4.347   6.419
 5096SOL    HW116187   5.776   4.284   6.488
 5096SOL    HW216188   5.643   4.360   6.431
 5097SOL     OW16189   6.537   6.945   0.053
 5097SOL    HW116190   6.500   6.897   6.998
 5097SOL    HW216191   6.473   7.017   0.081
 5098SOL     OW16192   3.933   2.281   1.816
 5098SOL    HW116193   3.935   2.247   1.722
 5098SOL    HW216194   3.840   2.272   1.853
 5099SOL     OW16195   0.143   6.141   1.409
 5099SOL    HW116196   0.146   6.067   1.476
 5099SOL    HW216197   0.221   6.202   1.422
 5100SOL     OW16198   4.589   5.530   2.899
 5100SOL    HW116199   4.640   5.447   2.881
 5100SOL    HW216200   4.638   5.586   2.966
 5101SOL     OW16201   4.235   0.600   4.914
 5101SOL    HW116202   4.151   0.642   4.948
 5101SOL    HW216203   4.290   0.669   4.867
 5102SOL     OW16204   4.995   5.617   4.101
 5102SOL    HW116205   4.898   5.602   4.083
 5102SOL    HW216206   5.020   5.574   4.187
 5103SOL     OW16207   0.766   0.495   4.778
 5103SOL    HW116208   0.735   0.401   4.789
 5103SOL    HW216209   0.701   0.545   4.721
 5104SOL     OW16210   3.393   6.007   1.737
 5104SOL    HW116211   3.326   6.055   1.681
 5104SOL    HW216212   3.347   5.958   1.810
 5105SOL     OW16213   3.009   3.105   0.301
 5105SOL    HW116214   3.021   3.080   0.205
 5105SOL    HW216215   2.912   3.122   0.320
 5106SOL     OW16216   3.910   1.686   0.773
 5106SOL    HW116217   4.002   1.653   0.795
 5106SOL    HW216218   3.843   1.634   0.826
 5107SOL     OW16219   5.628   3.262   1.326
 5107SOL    HW116220   5.708   3.295   1.376
 5107SOL    HW216221   5.584   3.189   1.377
 5108SOL     OW16222   4.744   4.012   5.723
 5108SOL    HW116223   4.819   4.021   5.787
 5108SOL    HW216224   4.675   3.950   5.760
 5109SOL     OW16225   1.388   2.627   0.897
 5109SOL    HW116226   1.346   2.550   0.849
 5109SOL    HW216227   1.342   2.712   0.871
 5110SOL     OW16228   6.934   0.006   6.362
 5110SOL    HW116229   6.859   7.017   6.426
 5110SOL    HW216230   6.926   6.965   6.287
 5111SOL     OW16231   0.981   6.549   4.657
 5111SOL    HW116232   0.935   6.603   4.587
 5111SOL    HW216233   0.913   6.503   4.715
 5112SOL     OW16234   0.528   0.199   2.591
 5112SOL    HW116235   0.522   0.205   2.491
 5112SOL    HW216236   0.612   0.245   2.622
 5113SOL     OW16237   1.800   5.415   0.560
 5113SOL    HW116238   1.864   5.363   0.615
 5113SOL    HW216239   1.734   5.354   0.517
 5114SOL     OW16240   3.652   6.957   0.470
 5114SOL    HW116241   3.566   6.968   0.420
 5114SOL    HW216242   3.677   6.860   0.472
 5115SOL     OW16243   2.032   3.742   1.660
 5115SOL    HW116244   2.127   3.724   1.686
 5115SOL    HW216245   2.009   3.836   1.683
 5116SOL     OW16246   2.550   5.962   0.109
 5116SOL    HW116247   2.562   5.951   0.207
 5116SOL    HW216248   2.639   5.961   0.063
 5117SOL     OW16249   0.986   3.418   4.209
 5117SOL    HW116250   0.997   3.336   4.153
 5117SOL    HW216251   0.908   3.471   4.176
 5118SOL     OW16252   5.888   0.011   0.170
 5118SOL    HW116253   5.872   0.064   0.087
 5118SOL    HW216254   5.886   0.072   0.250
 5119SOL     OW16255   5.005   1.648   0.640
 5119SOL    HW116256   4.961   1.735   0.618
 5119SOL    HW216257   4.935   1.580   0.660
 5120SOL     OW16258   5.085   0.199   5.064
 5120SOL    HW116259   5.068   0.231   5.157
 5120SOL    HW216260   5.086   0.099   5.062
 5121SOL     OW16261   3.513   3.363   0.161
 5121SOL    HW116262   3.531   3.277   0.207
 5121SOL    HW216263   3.588   3.383   0.097
 5122SOL     OW16264   3.529   5.466   2.951
 5122SOL    HW116265   3.518   5.368   2.938
 5122SOL    HW216266   3.610   5.484   3.006
 5123SOL     OW16267   5.704   2.546   2.481
 5123SOL    HW116268   5.783   2.591   2.523
 5123SOL    HW216269   5.718   2.539   2.383
 5124SOL     OW16270   2.131   6.361   2.969
 5124SOL    HW116271   2.081   6.294   2.915
 5124SOL    HW216272   2.192   6.314   3.033
 5125SOL     OW16273   0.455   2.016   3.388
 5125SOL    HW116274   0.555   2.007   3.388
 5125SOL    HW216275   0.430   2.111   3.406
 5126SOL     OW16276   1.441   6.557   6.852
 5126SOL    HW116277   1.359   6.517   6.810
 5126SOL    HW216278   1.522   6.511   6.817
 5127SOL     OW16279   2.138   5.382   0.432
 5127SOL    HW116280   2.197   5.328   0.372
 5127SOL    HW216281   2.056   5.411   0.382
 5128SOL     OW16282   0.145   6.018   0.683
 5128SOL    HW116283   0.102   6.007   0.773
 5128SOL    HW216284   0.192   6.106   0.679
 5129SOL     OW16285   4.928   6.463   1.790
 5129SOL    HW116286   4.999   6.405   1.750
 5129SOL    HW216287   4.939   6.556   1.756
 5130SOL     OW16288   0.099   4.568   2.895
 5130SOL    HW116289   0.176   4.528   2.945
 5130SOL    HW216290   0.074   4.656   2.936
 5131SOL     OW16291   1.313   3.195   4.066
 5131SOL    HW116292   1.363   3.117   4.029
 5131SOL    HW216293   1.351   3.219   4.156
 5132SOL     OW16294   4.249   3.361   6.148
 5132SOL    HW116295   4.204   3.272   6.138
 5132SOL    HW216296   4.180   3.432   6.162
 5133SOL     OW16297   3.270   4.951   0.460
 5133SOL    HW116298   3.201   5.010   0.418
 5133SOL    HW216299   3.225   4.880   0.515
 5134SOL     OW16300   0.558   2.746   1.684
 5134SOL    HW116301   0.636   2.798   1.649
 5134SOL    HW216302   0.495   2.808   1.731
 5135SOL     OW16303   6.384   1.928   5.925
 5135SOL    HW116304   6.459   1.893   5.982
 5135SOL    HW216305   6.297   1.909   5.970
 5136SOL     OW16306   5.126   0.875   4.995
 5136SOL    HW116307   5.080   0.791   5.024
 5136SOL    HW216308   5.075   0.954   5.028
 5137SOL     OW16309   6.034   3.143   6.160
 5137SOL    HW116310   5.982   3.058   6.157
 5137SOL    HW216311   6.022   3.186   6.249
 5138SOL     OW16312   3.965   3.155   6.762
 5138SOL    HW116313   3.898   3.087   6.792
 5138SOL    HW216314   3.918   3.229   6.714
 5139SOL     OW16315   1.509   6.797   4.058
 5139SOL    HW116316   1.544   6.890   4.051
 5139SOL    HW216317   1.410   6.799   4.066
 5140SOL     OW16318   2.512   1.632   6.891
 5140SOL    HW116319   2.489   1.561   6.959
 5140SOL    HW216320   2.606   1.661   6.905
 5141SOL     OW16321   6.000   3.358   0.992
 5141SOL    HW116322   6.007   3.262   1.020
 5141SOL    HW216323   5.916   3.397   1.031
 5142SOL     OW16324   5.896   1.967   3.959
 5142SOL    HW116325   5.946   1.936   3.879
 5142SOL    HW216326   5.938   1.930   4.042
 5143SOL     OW16327   0.879   4.155   4.254
 5143SOL    HW116328   0.848   4.109   4.338
 5143SOL    HW216329   0.830   4.117   4.176
 5144SOL     OW16330   1.989   6.589   6.148
 5144SOL    HW116331   2.054   6.599   6.073
 5144SOL    HW216332   1.956   6.495   6.152
 5145SOL     OW16333   2.607   5.318   6.242
 5145SOL    HW116334   2.679   5.358   6.185
 5145SOL    HW216335   2.560   5.247   6.191
 5146SOL     OW16336   4.566   3.805   6.565
 5146SOL    HW116337   4.602   3.897   6.551
 5146SOL    HW216338   4.487   3.790   6.505
 5147SOL     OW16339   0.016   4.095   2.044
 5147SOL    HW116340   0.068   4.095   1.959
 5147SOL    HW216341   7.008   4.188   2.064
 5148SOL     OW16342   0.907   6.281   1.068
 5148SOL    HW116343   0.956   6.193   1.068
 5148SOL    HW216344   0.835   6.279   0.999
 5149SOL     OW16345   5.858   6.995   3.793
 5149SOL    HW116346   5.891   6.905   3.764
 5149SOL    HW216347   5.780   6.984   3.853
 5150SOL     OW16348   2.085   5.537   3.821
 5150SOL    HW116349   2.009   5.518   3.883
 5150SOL    HW216350   2.094   5.636   3.808
 5151SOL     OW16351   5.623   0.958   6.720
 5151SOL    HW116352   5.579   0.895   6.655
 5151SOL    HW216353   5.559   1.031   6.744
 5152SOL     OW16354   2.485   4.983   6.444
 5152SOL    HW116355   2.459   5.068   6.400
 5152SOL    HW216356   2.554   5.002   6.515
 5153SOL     OW16357   2.142   1.320   6.448
 5153SOL    HW116358   2.166   1.223   6.448
 5153SOL    HW216359   2.173   1.362   6.363
 5154SOL     OW16360   2.203   3.388   6.431
 5154SOL    HW116361   2.240   3.307   6.385
 5154SOL    HW216362   2.119   3.417   6.385
 5155SOL     OW16363   4.319   6.765   2.089
 5155SOL    HW116364   4.343   6.838   2.024
 5155SOL    HW216365   4.222   6.773   2.113
 5156SOL     OW16366   6.835   2.332   6.342
 5156SOL    HW116367   6.783   2.340   6.257
 5156SOL    HW216368   6.858   2.236   6.358
 5157SOL     OW16369   4.924   3.076   3.339
 5157SOL    HW116370   5.013   3.040   3.364
 5157SOL    HW216371   4.933   3.138   3.261
 5158SOL     OW16372   3.135   2.224   1.541
 5158SOL    HW116373   3.051   2.218   1.595
 5158SOL    HW216374   3.114   2.256   1.449
 5159SOL     OW16375   1.157   3.853   5.094
 5159SOL    HW116376   1.218   3.906   5.034
 5159SOL    HW216377   1.076   3.826   5.042
 5160SOL     OW16378   1.656   4.063   4.446
 5160SOL    HW116379   1.750   4.088   4.469
 5160SOL    HW216380   1.653   3.968   4.415
 5161SOL     OW16381   1.373   4.344   5.152
 5161SOL    HW116382   1.423   4.258   5.142
 5161SOL    HW216383   1.407   4.410   5.085
 5162SOL     OW16384   0.150   5.337   4.288
 5162SOL    HW116385   0.185   5.243   4.283
 5162SOL    HW216386   0.226   5.401   4.274
 5163SOL     OW16387   4.487   4.819   1.483
 5163SOL    HW116388   4.409   4.876   1.457
 5163SOL    HW216389   4.460   4.755   1.555
 5164SOL     OW16390   5.602   2.419   5.981
 5164SOL    HW116391   5.535   2.484   5.948
 5164SOL    HW216392   5.648   2.456   6.062
 5165SOL     OW16393   5.967   4.615   4.725
 5165SOL    HW116394   5.907   4.670   4.668
 5165SOL    HW216395   6.010   4.672   4.795
 5166SOL     OW16396   1.861   5.380   1.877
 5166SOL    HW116397   1.772   5.371   1.832
 5166SOL    HW216398   1.910   5.293   1.873
 5167SOL     OW16399   6.214   6.799   5.435
 5167SOL    HW116400   6.234   6.870   5.503
 5167SOL    HW216401   6.290   6.733   5.432
 5168SOL     OW16402   4.889   2.552   3.650
 5168SOL    HW116403   4.957   2.625   3.653
 5168SOL    HW216404   4.826   2.561   3.727
 5169SOL     OW16405   3.580   3.321   6.454
 5169SOL    HW116406   3.662   3.328   6.396
 5169SOL    HW216407   3.500   3.347   6.400
 5170SOL     OW16408   6.586   4.163   6.068
 5170SOL    HW116409   6.597   4.257   6.101
 5170SOL    HW216410   6.586   4.100   6.146
 5171SOL     OW16411   2.442   4.459   4.567
 5171SOL    HW116412   2.418   4.514   4.647
 5171SOL    HW216413   2.521   4.401   4.589
 5172SOL     OW16414   1.316   3.176   1.359
 5172SOL    HW116415   1.254   3.102   1.335
 5172SOL    HW216416   1.382   3.190   1.285
 5173SOL     OW16417   5.967   4.334   6.229
 5173SOL    HW116418   6.034   4.293   6.292
 5173SOL    HW216419   5.885   4.360   6.281
 5174SOL     OW16420   1.875   4.698   4.613
 5174SOL    HW116421   1.902   4.711   4.518
 5174SOL    HW216422   1.897   4.605   4.642
 5175SOL     OW16423   2.334   4.647   6.929
 5175SOL    HW116424   2.333   4.691   6.839
 5175SOL    HW216425   2.373   4.556   6.920
 5176SOL     OW16426   3.958   2.930   0.829
 5176SOL    HW116427   3.955   2.993   0.752
 5176SOL    HW216428   3.879   2.869   0.825
 5177SOL     OW16429   4.886   6.863   5.483
 5177SOL    HW116430   4.877   6.796   5.556
 5177SOL    HW216431   4.945   6.939   5.513
 5178SOL     OW16432   2.589   2.286   1.149
 5178SOL    HW116433   2.591   2.212   1.082
 5178SOL    HW216434   2.555   2.251   1.236
 5179SOL     OW16435   5.010   6.140   5.272
 5179SOL    HW116436   4.970   6.092   5.194
 5179SOL    HW216437   4.940   6.157   5.341
 5180SOL     OW16438   3.377   2.594   6.773
 5180SOL    HW116439   3.416   2.524   6.712
 5180SOL    HW216440   3.283   2.614   6.744
 5181SOL     OW16441   3.996   1.135   3.158
 5181SOL    HW116442   4.089   1.100   3.169
 5181SOL    HW216443   3.931   1.061   3.176
 5182SOL     OW16444   5.572   4.790   1.653
 5182SOL    HW116445   5.487   4.809   1.603
 5182SOL    HW216446   5.599   4.695   1.637
 5183SOL     OW16447   4.727   6.785   1.577
 5183SOL    HW116448   4.693   6.775   1.484
 5183SOL    HW216449   4.816   6.738   1.585
 5184SOL     OW16450   0.839   1.794   3.882
 5184SOL    HW116451   0.810   1.890   3.874
 5184SOL    HW216452   0.887   1.768   3.798
 5185SOL     OW16453   4.328   0.322   2.969
 5185SOL    HW116454   4.394   0.395   2.989
 5185SOL    HW216455   4.337   0.294   2.874
 5186SOL     OW16456   6.661   4.430   0.991
 5186SOL    HW116457   6.593   4.379   0.939
 5186SOL    HW216458   6.699   4.371   1.063
 5187SOL     OW16459   6.678   0.874   3.896
 5187SOL    HW116460   6.581   0.867   3.872
 5187SOL    HW216461   6.732   0.822   3.831
 5188SOL     OW16462   0.628   5.178   0.451
 5188SOL    HW116463   0.727   5.179   0.466
 5188SOL    HW216464   0.582   5.150   0.535
 5189SOL     OW16465   4.683   5.171   6.984
 5189SOL    HW116466   4.591   5.206   6.997
 5189SOL    HW216467   4.681   5.091   6.924
 5190SOL     OW16468   1.119   2.118   4.398
 5190SOL    HW116469   1.211   2.114   4.438
 5190SOL    HW216470   1.098   2.212   4.371
 5191SOL     OW16471   3.614   0.916   1.423
 5191SOL    HW116472   3.636   0.900   1.519
 5191SOL    HW216473   3.590   1.012   1.410
 5192SOL     OW16474   4.771   5.644   2.617
 5192SOL    HW116475   4.845   5.688   2.667
 5192SOL    HW216476   4.777   5.545   2.626
 5193SOL     OW16477   4.465   4.535   3.560
 5193SOL    HW116478   4.525   4.473   3.610
 5193SOL    HW216479   4.498   4.544   3.466
 5194SOL     OW16480   5.056   0.052   5.744
 5194SOL    HW116481   5.146   0.086   5.771
 5194SOL    HW216482   5.025   7.007   5.808
 5195SOL     OW16483   6.454   6.946   4.503
 5195SOL    HW116484   6.386   6.995   4.558
 5195SOL    HW216485   6.410   6.911   4.420
 5196SOL     OW16486   0.862   4.045   1.639
 5196SOL    HW116487   0.786   4.111   1.642
 5196SOL    HW216488   0.942   4.089   1.600
 5197SOL     OW16489   1.745   5.939   4.195
 5197SOL    HW116490   1.692   5.983   4.267
 5197SOL    HW216491   1.840   5.970   4.199
 5198SOL     OW16492   2.802   6.853   4.958
 5198SOL    HW116493   2.744   6.831   5.036
 5198SOL    HW216494   2.885   6.899   4.991
 5199SOL     OW16495   2.484   5.338   1.195
 5199SOL    HW116496   2.493   5.354   1.096
 5199SOL    HW216497   2.552   5.393   1.243
 5200SOL     OW16498   0.901   2.044   5.057
 5200SOL    HW116499   0.973   1.999   5.005
 5200SOL    HW216500   0.812   2.020   5.019
 5201SOL     OW16501   5.871   5.268   4.307
 5201SOL    HW116502   5.779   5.295   4.336
 5201SOL    HW216503   5.914   5.345   4.261
 5202SOL     OW16504   5.379   3.078   0.093
 5202SOL    HW116505   5.330   3.053   0.009
 5202SOL    HW216506   5.383   3.177   0.101
 5203SOL     OW16507   1.517   0.342   5.875
 5203SOL    HW116508   1.498   0.332   5.972
 5203SOL    HW216509   1.432   0.361   5.826
 5204SOL     OW16510   3.204   6.717   6.495
 5204SOL    HW116511   3.242   6.808   6.508
 5204SOL    HW216512   3.123   6.706   6.554
 5205SOL     OW16513   6.502   5.795   0.796
 5205SOL    HW116514   6.430   5.770   0.861
 5205SOL    HW216515   6.591   5.769   0.833
 5206SOL     OW16516   0.872   4.433   5.339
 5206SOL    HW116517   0.772   4.438   5.337
 5206SOL    HW216518   0.906   4.417   5.246
 5207SOL     OW16519   0.035   0.060   4.122
 5207SOL    HW116520   0.064   7.014   4.187
 5207SOL    HW216521   0.061   0.150   4.156
 5208SOL     OW16522   4.601   2.785   0.165
 5208SOL    HW116523   4.510   2.801   0.127
 5208SOL    HW216524   4.593   2.767   0.263
 5209SOL     OW16525   4.626   6.902   3.273
 5209SOL    HW116526   4.700   6.902   3.206
 5209SOL    HW216527   4.592   6.995   3.286
 5210SOL     OW16528   5.062   4.358   1.394
 5210SOL    HW116529   5.001   4.420   1.344
 5210SOL    HW216530   5.125   4.314   1.331
 5211SOL     OW16531   4.648   2.383   4.409
 5211SOL    HW116532   4.614   2.447   4.478
 5211SOL    HW216533   4.584   2.381   4.332
 5212SOL     OW16534   1.416   2.252   0.670
 5212SOL    HW116535   1.486   2.181   0.674
 5212SOL    HW216536   1.331   2.213   0.634
 5213SOL     OW16537   4.010   3.869   2.194
 5213SOL    HW116538   4.079   3.941   2.193
 5213SOL    HW216539   3.935   3.894   2.132
 5214SOL     OW16540   5.371   4.406   6.262
 5214SOL    HW116541   5.321   4.335   6.212
 5214SOL    HW216542   5.419   4.465   6.196
 5215SOL     OW16543   0.167   3.250   4.448
 5215SOL    HW116544   0.265   3.259   4.435
 5215SOL    HW216545   0.125   3.340   4.448
 5216SOL     OW16546   4.951   5.378   0.965
 5216SOL    HW116547   4.902   5.315   1.027
 5216SOL    HW216548   5.005   5.442   1.019
 5217SOL     OW16549   3.580   5.392   4.079
 5217SOL    HW116550   3.534   5.439   4.003
 5217SOL    HW216551   3.512   5.348   4.137
 5218SOL     OW16552   0.503   1.644   0.902
 5218SOL    HW116553   0.439   1.685   0.837
 5218SOL    HW216554   0.512   1.703   0.982
 5219SOL     OW16555   3.415   1.587   4.597
 5219SOL    HW116556   3.456   1.578   4.688
 5219SOL    HW216557   3.316   1.580   4.604
 5220SOL     OW16558   1.916   5.622   3.462
 5220SOL    HW116559   1.947   5.528   3.477
 5220SOL    HW216560   1.993   5.684   3.471
 5221SOL     OW16561   6.836   0.267   1.483
 5221SOL    HW116562   6.927   0.300   1.506
 5221SOL    HW216563   6.778   0.345   1.459
 5222SOL     OW16564   4.397   4.882   1.829
 5222SOL    HW116565   4.481   4.829   1.814
 5222SOL    HW216566   4.337   4.832   1.891
 5223SOL     OW16567   0.258   2.555   0.844
 5223SOL    HW116568   0.355   2.546   0.869
 5223SOL    HW216569   0.215   2.623   0.903
 5224SOL     OW16570   0.799   1.862   4.691
 5224SOL    HW116571   0.851   1.784   4.727
 5224SOL    HW216572   0.862   1.936   4.667
 5225SOL     OW16573   6.628   1.061   4.606
 5225SOL    HW116574   6.618   1.024   4.514
 5225SOL    HW216575   6.723   1.085   4.623
 5226SOL     OW16576   0.344   5.780   3.466
 5226SOL    HW116577   0.270   5.772   3.533
 5226SOL    HW216578   0.364   5.690   3.428
 5227SOL     OW16579   6.915   3.900   6.057
 5227SOL    HW116580   6.930   3.802   6.052
 5227SOL    HW216581   6.816   3.919   6.052
 5228SOL     OW16582   0.989   2.927   6.451
 5228SOL    HW116583   1.077   2.933   6.404
 5228SOL    HW216584   0.928   2.865   6.401
 5229SOL     OW16585   3.456   6.083   0.073
 5229SOL    HW116586   3.372   6.091   0.126
 5229SOL    HW216587   3.458   5.993   0.028
 5230SOL     OW16588   6.467   6.776   2.431
 5230SOL    HW116589   6.492   6.683   2.404
 5230SOL    HW216590   6.509   6.841   2.367
 5231SOL     OW16591   5.326   1.434   3.454
 5231SOL    HW116592   5.344   1.366   3.383
 5231SOL    HW216593   5.413   1.466   3.492
 5232SOL     OW16594   1.608   3.975   6.230
 5232SOL    HW116595   1.508   3.965   6.233
 5232SOL    HW216596   1.634   4.062   6.271
 5233SOL     OW16597   3.236   1.372   2.387
 5233SOL    HW116598   3.154   1.400   2.337
 5233SOL    HW216599   3.216   1.372   2.485
 5234SOL     OW16600   2.059   3.019   0.492
 5234SOL    HW116601   2.037   2.922   0.494
 5234SOL    HW216602   2.017   3.061   0.412
 5235SOL     OW16603   2.064   2.182   0.392
 5235SOL    HW116604   2.015   2.190   0.305
 5235SOL    HW216605   2.160   2.157   0.374
 5236SOL     OW16606   3.429   4.943   1.998
 5236SOL    HW116607   3.416   4.997   2.081
 5236SOL    HW216608   3.482   4.862   2.018
 5237SOL     OW16609   1.936   2.031   4.794
 5237SOL    HW116610   1.898   1.947   4.755
 5237SOL    HW216611   1.995   2.009   4.872
 5238SOL     OW16612   0.877   4.564   2.647
 5238SOL    HW116613   0.942   4.618   2.700
 5238SOL    HW216614   0.786   4.571   2.687
 5239SOL     OW16615   3.525   4.146   1.092
 5239SOL    HW116616   3.582   4.099   1.024
 5239SOL    HW216617   3.484   4.078   1.152
 5240SOL     OW16618   2.500   2.942   5.754
 5240SOL    HW116619   2.490   2.883   5.834
 5240SOL    HW216620   2.576   3.005   5.768
 5241SOL     OW16621   1.499   6.339   2.325
 5241SOL    HW116622   1.523   6.427   2.366
 5241SOL    HW216623   1.574   6.274   2.338
 5242SOL     OW16624   5.014   0.601   1.427
 5242SOL    HW116625   5.008   0.510   1.386
 5242SOL    HW216626   4.931   0.652   1.406
 5243SOL     OW16627   2.501   6.378   1.879
 5243SOL    HW116628   2.464   6.408   1.791
 5243SOL    HW216629   2.595   6.346   1.867
 5244SOL     OW16630   5.169   3.325   0.584
 5244SOL    HW116631   5.122   3.362   0.664
 5244SOL    HW216632   5.249   3.381   0.563
 5245SOL     OW16633   3.893   4.248   0.158
 5245SOL    HW116634   3.836   4.322   0.124
 5245SOL    HW216635   3.944   4.280   0.238
 5246SOL     OW16636   6.765   2.351   2.150
 5246SOL    HW116637   6.773   2.299   2.065
 5246SOL    HW216638   6.823   2.309   2.220
 5247SOL     OW16639   3.859   1.493   5.370
 5247SOL    HW116640   3.790   1.537   5.312
 5247SOL    HW216641   3.941   1.549   5.372
 5248SOL     OW16642   6.863   2.071   2.938
 5248SOL    HW116643   6.916   2.008   2.995
 5248SOL    HW216644   6.904   2.075   2.847
 5249SOL     OW16645   1.372   5.232   6.882
 5249SOL    HW116646   1.296   5.214   6.944
 5249SOL    HW216647   1.343   5.297   6.812
 5250SOL     OW16648   1.733   5.557   0.797
 5250SOL    HW116649   1.775   5.518   0.715
 5250SOL    HW216650   1.662   5.495   0.831
 5251SOL     OW16651   0.865   4.621   1.174
 5251SOL    HW116652   0.908   4.647   1.087
 5251SOL    HW216653   0.921   4.654   1.250
 5252SOL     OW16654   3.164   6.827   2.162
 5252SOL    HW116655   3.264   6.832   2.157
 5252SOL    HW216656   3.137   6.757   2.227
 5253SOL     OW16657   5.839   4.105   4.736
 5253SOL    HW116658   5.826   4.203   4.745
 5253SOL    HW216659   5.809   4.075   4.645
 5254SOL     OW16660   5.528   0.510   3.526
 5254SOL    HW116661   5.508   0.587   3.465
 5254SOL    HW216662   5.452   0.497   3.590
 5255SOL     OW16663   5.310   2.328   4.736
 5255SOL    HW116664   5.364   2.304   4.816
 5255SOL    HW216665   5.231   2.383   4.764
 5256SOL     OW16666   4.896   1.158   3.138
 5256SOL    HW116667   4.892   1.063   3.168
 5256SOL    HW216668   4.988   1.178   3.104
 5257SOL     OW16669   4.757   0.154   0.440
 5257SOL    HW116670   4.758   0.055   0.457
 5257SOL    HW216671   4.849   0.191   0.451
 5258SOL     OW16672   5.818   1.885   2.598
 5258SOL    HW116673   5.808   1.977   2.636
 5258SOL    HW216674   5.728   1.841   2.595
 5259SOL     OW16675   5.114   5.886   2.922
 5259SOL    HW116676   5.016   5.887   2.902
 5259SOL    HW216677   5.157   5.968   2.883
 5260SOL     OW16678   3.306   5.384   0.000
 5260SOL    HW116679   3.259   5.297   0.018
 5260SOL    HW216680   3.289   5.448   0.075
 5261SOL     OW16681   0.267   4.827   0.973
 5261SOL    HW116682   0.226   4.890   1.039
 5261SOL    HW216683   0.227   4.842   0.883
 5262SOL     OW16684   2.720   0.627   3.039
 5262SOL    HW116685   2.652   0.660   2.975
 5262SOL    HW216686   2.797   0.587   2.989
 5263SOL     OW16687   2.094   1.318   3.310
 5263SOL    HW116688   2.045   1.403   3.291
 5263SOL    HW216689   2.174   1.312   3.249
 5264SOL     OW16690   6.809   2.086   2.165
 5264SOL    HW116691   6.742   2.083   2.239
 5264SOL    HW216692   6.777   2.029   2.089
 5265SOL     OW16693   5.850   2.742   4.701
 5265SOL    HW116694   5.890   2.760   4.611
 5265SOL    HW216695   5.896   2.663   4.742
 5266SOL     OW16696   2.298   6.472   0.888
 5266SOL    HW116697   2.276   6.561   0.927
 5266SOL    HW216698   2.216   6.433   0.846
 5267SOL     OW16699   4.647   2.227   4.630
 5267SOL    HW116700   4.555   2.187   4.632
 5267SOL    HW216701   4.662   2.272   4.542
 5268SOL     OW16702   5.321   0.736   6.617
 5268SOL    HW116703   5.414   0.753   6.584
 5268SOL    HW216704   5.298   0.804   6.687
 5269SOL     OW16705   0.847   6.700   2.180
 5269SOL    HW116706   0.832   6.723   2.084
 5269SOL    HW216707   0.802   6.769   2.238
 5270SOL     OW16708   5.369   1.485   0.191
 5270SOL    HW116709   5.286   1.509   0.240
 5270SOL    HW216710   5.384   1.386   0.197
 5271SOL     OW16711   6.565   5.108   4.570
 5271SOL    HW116712   6.652   5.061   4.581
 5271SOL    HW216713   6.539   5.152   4.656
 5272SOL     OW16714   4.050   6.212   1.077
 5272SOL    HW116715   3.950   6.221   1.075
 5272SOL    HW216716   4.088   6.236   0.988
 5273SOL     OW16717   0.797   3.176   2.734
 5273SOL    HW116718   0.833   3.269   2.729
 5273SOL    HW216719   0.790   3.138   2.641
 5274SOL     OW16720   4.626   6.572   2.605
 5274SOL    HW116721   4.673   6.629   2.538
 5274SOL    HW216722   4.612   6.625   2.689
 5275SOL     OW16723   2.686   0.668   1.024
 5275SOL    HW116724   2.700   0.587   1.080
 5275SOL    HW216725   2.696   0.750   1.080
 5276SOL     OW16726   2.437   0.356   2.231
 5276SOL    HW116727   2.489   0.380   2.150
 5276SOL    HW216728   2.499   0.325   2.303
 5277SOL     OW16729   3.215   0.942   2.611
 5277SOL    HW116730   3.178   0.849   2.602
 5277SOL    HW216731   3.303   0.939   2.658
 5278SOL     OW16732   4.628   4.588   3.317
 5278SOL    HW116733   4.691   4.643   3.370
 5278SOL    HW216734   4.547   4.642   3.294
 5279SOL     OW16735   2.710   5.315   0.754
 5279SOL    HW116736   2.798   5.269   0.740
 5279SOL    HW216737   2.718   5.411   0.728
 5280SOL     OW16738   2.915   6.268   4.984
 5280SOL    HW116739   2.912   6.303   4.891
 5280SOL    HW216740   2.891   6.171   4.984
 5281SOL     OW16741   6.946   1.599   2.812
 5281SOL    HW116742   6.861   1.556   2.842
 5281SOL    HW216743   7.023   1.542   2.840
 5282SOL     OW16744   2.114   1.854   3.778
 5282SOL    HW116745   2.189   1.791   3.797
 5282SOL    HW216746   2.150   1.940   3.742
 5283SOL     OW16747   5.519   6.121   1.139
 5283SOL    HW116748   5.490   6.029   1.164
 5283SOL    HW216749   5.606   6.117   1.090
 5284SOL     OW16750   5.589   4.650   2.943
 5284SOL    HW116751   5.575   4.749   2.949
 5284SOL    HW216752   5.547   4.605   3.022
 5285SOL     OW16753   3.147   4.953   3.905
 5285SOL    HW116754   3.230   4.963   3.961
 5285SOL    HW216755   3.172   4.958   3.808
 5286SOL     OW16756   2.288   4.198   1.318
 5286SOL    HW116757   2.352   4.271   1.298
 5286SOL    HW216758   2.304   4.164   1.411
 5287SOL     OW16759   2.617   1.388   0.655
 5287SOL    HW116760   2.569   1.391   0.742
 5287SOL    HW216761   2.562   1.432   0.584
 5288SOL     OW16762   3.317   0.291   1.418
 5288SOL    HW116763   3.382   0.367   1.424
 5288SOL    HW216764   3.224   0.326   1.430
 5289SOL     OW16765   0.902   5.166   0.486
 5289SOL    HW116766   0.974   5.213   0.434
 5289SOL    HW216767   0.938   5.081   0.522
 5290SOL     OW16768   3.667   5.890   6.722
 5290SOL    HW116769   3.613   5.962   6.680
 5290SOL    HW216770   3.660   5.806   6.668
 5291SOL     OW16771   1.897   5.126   5.640
 5291SOL    HW116772   1.850   5.063   5.578
 5291SOL    HW216773   1.990   5.142   5.607
 5292SOL     OW16774   5.323   3.135   6.783
 5292SOL    HW116775   5.224   3.133   6.787
 5292SOL    HW216776   5.354   3.123   6.689
 5293SOL     OW16777   0.842   1.253   4.590
 5293SOL    HW116778   0.796   1.284   4.673
 5293SOL    HW216779   0.808   1.306   4.512
 5294SOL     OW16780   5.854   2.916   6.158
 5294SOL    HW116781   5.833   2.938   6.253
 5294SOL    HW216782   5.769   2.908   6.105
 5295SOL     OW16783   5.227   1.176   2.803
 5295SOL    HW116784   5.321   1.212   2.800
 5295SOL    HW216785   5.180   1.213   2.883
 5296SOL     OW16786   1.860   4.432   0.069
 5296SOL    HW116787   1.942   4.489   0.073
 5296SOL    HW216788   1.887   4.336   0.073
 5297SOL     OW16789   1.911   1.732   0.869
 5297SOL    HW116790   1.930   1.823   0.832
 5297SOL    HW216791   1.949   1.663   0.808
 5298SOL     OW16792   6.429   4.804   2.049
 5298SOL    HW116793   6.345   4.755   2.025
 5298SOL    HW216794   6.508   4.747   2.024
 5299SOL     OW16795   2.515   0.426   1.592
 5299SOL    HW116796   2.481   0.374   1.671
 5299SOL    HW216797   2.612   0.404   1.578
 5300SOL     OW16798   0.168   5.939   3.171
 5300SOL    HW116799   0.095   5.904   3.113
 5300SOL    HW216800   0.150   5.914   3.266
 5301SOL     OW16801   4.153   1.707   0.036
 5301SOL    HW116802   4.119   1.616   0.060
 5301SOL    HW216803   4.236   1.699   7.007
 5302SOL     OW16804   0.071   4.316   3.444
 5302SOL    HW116805   7.014   4.267   3.475
 5302SOL    HW216806   0.045   4.404   3.405
 5303SOL     OW16807   0.162   4.785   3.693
 5303SOL    HW116808   0.117   4.851   3.633
 5303SOL    HW216809   0.120   4.787   3.784
 5304SOL     OW16810   4.726   1.909   5.802
 5304SOL    HW116811   4.728   1.906   5.702
 5304SOL    HW216812   4.808   1.956   5.835
 5305SOL     OW16813   2.135   0.587   3.752
 5305SOL    HW116814   2.074   0.516   3.716
 5305SOL    HW216815   2.190   0.548   3.826
 5306SOL     OW16816   2.423   6.826   5.654
 5306SOL    HW116817   2.470   6.869   5.730
 5306SOL    HW216818   2.483   6.825   5.574
 5307SOL     OW16819   4.192   6.390   6.351
 5307SOL    HW116820   4.216   6.372   6.255
 5307SOL    HW216821   4.124   6.463   6.354
 5308SOL     OW16822   6.879   0.433   3.575
 5308SOL    HW116823   6.936   0.380   3.512
 5308SOL    HW216824   6.796   0.381   3.596
 5309SOL     OW16825   3.734   4.152   3.892
 5309SOL    HW116826   3.671   4.092   3.842
 5309SOL    HW216827   3.747   4.236   3.840
 5310SOL     OW16828   5.276   2.496   1.383
 5310SOL    HW116829   5.221   2.563   1.432
 5310SOL    HW216830   5.360   2.540   1.350
 5311SOL     OW16831   2.636   5.211   0.012
 5311SOL    HW116832   2.727   5.176   0.036
 5311SOL    HW216833   2.642   5.309   7.017
 5312SOL     OW16834   1.086   4.333   2.913
 5312SOL    HW116835   1.121   4.426   2.920
 5312SOL    HW216836   1.087   4.290   3.003
 5313SOL     OW16837   1.112   6.113   6.535
 5313SOL    HW116838   1.033   6.172   6.554
 5313SOL    HW216839   1.096   6.063   6.450
 5314SOL     OW16840   4.485   5.392   6.771
 5314SOL    HW116841   4.417   5.432   6.710
 5314SOL    HW216842   4.439   5.341   6.844
 5315SOL     OW16843   5.629   3.715   1.725
 5315SOL    HW116844   5.675   3.762   1.650
 5315SOL    HW216845   5.533   3.741   1.726
 5316SOL     OW16846   0.216   5.121   4.734
 5316SOL    HW116847   0.271   5.049   4.693
 5316SOL    HW216848   0.186   5.185   4.663
 5317SOL     OW16849   5.419   0.634   2.646
 5317SOL    HW116850   5.342   0.686   2.684
 5317SOL    HW216851   5.424   0.649   2.547
 5318SOL     OW16852   6.834   2.697   4.641
 5318SOL    HW116853   6.914   2.716   4.584
 5318SOL    HW216854   6.827   2.598   4.657
 5319SOL     OW16855   5.852   0.081   6.937
 5319SOL    HW116856   5.774   0.114   6.885
 5319SOL    HW216857   5.906   0.018   6.881
 5320SOL     OW16858   5.392   3.542   6.575
 5320SOL    HW116859   5.483   3.515   6.608
 5320SOL    HW216860   5.356   3.615   6.633
 5321SOL     OW16861   1.960   5.491   5.444
 5321SOL    HW116862   2.047   5.462   5.406
 5321SOL    HW216863   1.898   5.412   5.449
 5322SOL     OW16864   4.142   5.763   6.314
 5322SOL    HW116865   4.072   5.736   6.379
 5322SOL    HW216866   4.227   5.784   6.362
 5323SOL     OW16867   3.920   1.577   0.239
 5323SOL    HW116868   3.938   1.664   0.193
 5323SOL    HW216869   3.932   1.589   0.338
 5324SOL     OW16870   4.280   2.976   1.707
 5324SOL    HW116871   4.201   2.963   1.767
 5324SOL    HW216872   4.304   3.073   1.704
 5325SOL     OW16873   5.128   6.274   1.819
 5325SOL    HW116874   5.219   6.307   1.795
 5325SOL    HW216875   5.084   6.239   1.736
 5326SOL     OW16876   6.642   5.902   1.904
 5326SOL    HW116877   6.710   5.974   1.918
 5326SOL    HW216878   6.601   5.877   1.992
 5327SOL     OW16879   6.722   6.958   4.496
 5327SOL    HW116880   6.623   6.944   4.494
 5327SOL    HW216881   6.742   0.031   4.495
 5328SOL     OW16882   3.762   3.696   6.887
 5328SOL    HW116883   3.803   3.736   6.969
 5328SOL    HW216884   3.815   3.721   6.807
 5329SOL     OW16885   0.608   4.699   0.867
 5329SOL    HW116886   0.592   4.747   0.954
 5329SOL    HW216887   0.690   4.642   0.875
 5330SOL     OW16888   3.865   3.791   1.360
 5330SOL    HW116889   3.954   3.749   1.341
 5330SOL    HW216890   3.822   3.817   1.274
 5331SOL     OW16891   4.043   2.107   0.316
 5331SOL    HW116892   4.141   2.126   0.316
 5331SOL    HW216893   4.012   2.095   0.411
 5332SOL     OW16894   6.207   5.482   0.478
 5332SOL    HW116895   6.297   5.501   0.516
 5332SOL    HW216896   6.199   5.384   0.458
 5333SOL     OW16897   1.485   1.384   3.740
 5333SOL    HW116898   1.453   1.467   3.694
 5333SOL    HW216899   1.406   1.331   3.771
 5334SOL     OW16900   4.673   4.329   3.225
 5334SOL    HW116901   4.651   4.268   3.301
 5334SOL    HW216902   4.649   4.423   3.250
 5335SOL     OW16903   0.156   4.774   1.351
 5335SOL    HW116904   0.242   4.806   1.390
 5335SOL    HW216905   0.153   4.674   1.353
 5336SOL     OW16906   1.918   2.120   4.388
 5336SOL    HW116907   1.960   2.206   4.360
 5336SOL    HW216908   1.887   2.127   4.483
 5337SOL     OW16909   6.690   4.203   1.455
 5337SOL    HW116910   6.677   4.163   1.546
 5337SOL    HW216911   6.663   4.299   1.456
 5338SOL     OW16912   6.230   3.012   0.261
 5338SOL    HW116913   6.151   2.964   0.225
 5338SOL    HW216914   6.275   2.956   0.330
 5339SOL     OW16915   5.934   2.390   3.038
 5339SOL    HW116916   6.027   2.356   3.054
 5339SOL    HW216917   5.871   2.314   3.036
 5340SOL     OW16918   5.742   2.884   2.350
 5340SOL    HW116919   5.700   2.841   2.430
 5340SOL    HW216920   5.839   2.861   2.348
 5341SOL     OW16921   4.530   4.860   3.451
 5341SOL    HW116922   4.622   4.898   3.461
 5341SOL    HW216923   4.490   4.846   3.541
 5342SOL     OW16924   6.106   0.081   5.314
 5342SOL    HW116925   6.163   0.119   5.386
 5342SOL    HW216926   6.020   0.049   5.352
 5343SOL     OW16927   3.917   3.780   5.538
 5343SOL    HW116928   3.980   3.837   5.591
 5343SOL    HW216929   3.963   3.751   5.453
 5344SOL     OW16930   0.475   1.589   6.469
 5344SOL    HW116931   0.445   1.548   6.555
 5344SOL    HW216932   0.436   1.680   6.460
 5345SOL     OW16933   5.461   1.157   6.796
 5345SOL    HW116934   5.493   1.208   6.716
 5345SOL    HW216935   5.422   1.221   6.863
 5346SOL     OW16936   2.902   5.202   3.571
 5346SOL    HW116937   2.857   5.137   3.631
 5346SOL    HW216938   2.939   5.278   3.625
 5347SOL     OW16939   6.381   2.105   4.197
 5347SOL    HW116940   6.347   2.011   4.195
 5347SOL    HW216941   6.481   2.105   4.186
 5348SOL     OW16942   5.196   2.242   4.136
 5348SOL    HW116943   5.172   2.337   4.114
 5348SOL    HW216944   5.256   2.207   4.064
 5349SOL     OW16945   0.899   2.748   1.760
 5349SOL    HW116946   0.916   2.847   1.758
 5349SOL    HW216947   0.885   2.715   1.667
 5350SOL     OW16948   2.316   6.568   5.523
 5350SOL    HW116949   2.350   6.636   5.457
 5350SOL    HW216950   2.262   6.615   5.593
 5351SOL     OW16951   0.393   5.497   1.743
 5351SOL    HW116952   0.466   5.528   1.804
 5351SOL    HW216953   0.416   5.407   1.707
 5352SOL     OW16954   2.084   3.725   4.151
 5352SOL    HW116955   2.127   3.718   4.241
 5352SOL    HW216956   2.031   3.810   4.145
 5353SOL     OW16957   4.669   5.350   3.223
 5353SOL    HW116958   4.577   5.315   3.240
 5353SOL    HW216959   4.711   5.300   3.148
 5354SOL     OW16960   4.226   5.557   0.361
 5354SOL    HW116961   4.133   5.592   0.346
 5354SOL    HW216962   4.257   5.582   0.452
 5355SOL     OW16963   5.503   4.879   5.136
 5355SOL    HW116964   5.504   4.975   5.111
 5355SOL    HW216965   5.516   4.822   5.055
 5356SOL     OW16966   0.511   4.804   1.088
 5356SOL    HW116967   0.426   4.811   1.037
 5356SOL    HW216968   0.510   4.721   1.144
 5357SOL     OW16969   5.011   4.821   1.944
 5357SOL    HW116970   4.941   4.885   1.915
 5357SOL    HW216971   5.101   4.854   1.916
 5358SOL     OW16972   4.474   1.294   6.934
 5358SOL    HW116973   4.417   1.347   6.870
 5358SOL    HW216974   4.524   1.357   6.993
 5359SOL     OW16975   1.477   1.913   7.018
 5359SOL    HW116976   1.414   1.912   0.072
 5359SOL    HW216977   1.564   1.874   0.021
 5360SOL     OW16978   5.879   4.540   3.730
 5360SOL    HW116979   5.970   4.517   3.697
 5360SOL    HW216980   5.811   4.515   3.661
 5361SOL     OW16981   3.593   6.195   2.554
 5361SOL    HW116982   3.544   6.172   2.470
 5361SOL    HW216983   3.661   6.266   2.534
 5362SOL     OW16984   5.497   6.889   2.417
 5362SOL    HW116985   5.470   6.966   2.358
 5362SOL    HW216986   5.418   6.860   2.471
 5363SOL     OW16987   5.476   5.436   4.821
 5363SOL    HW116988   5.449   5.503   4.890
 5363SOL    HW216989   5.438   5.346   4.846
 5364SOL     OW16990   4.788   0.923   2.648
 5364SOL    HW116991   4.882   0.888   2.647
 5364SOL    HW216992   4.773   0.973   2.734
 5365SOL     OW16993   3.103   3.172   4.090
 5365SOL    HW116994   3.072   3.249   4.146
 5365SOL    HW216995   3.203   3.172   4.088
 5366SOL     OW16996   6.465   6.617   1.540
 5366SOL    HW116997   6.401   6.620   1.463
 5366SOL    HW216998   6.522   6.699   1.539
 5367SOL     OW16999   0.116   6.400   1.072
 5367SOL    HW117000   0.096   6.370   0.979
 5367SOL    HW217001   0.146   6.496   1.070
 5368SOL     OW17002   6.658   5.574   3.386
 5368SOL    HW117003   6.596   5.549   3.312
 5368SOL    HW217004   6.749   5.592   3.349
 5369SOL     OW17005   2.903   5.676   2.086
 5369SOL    HW117006   2.879   5.709   1.995
 5369SOL    HW217007   2.826   5.626   2.125
 5370SOL     OW17008   3.225   3.930   1.477
 5370SOL    HW117009   3.323   3.909   1.489
 5370SOL    HW217010   3.178   3.919   1.565
 5371SOL     OW17011   6.802   5.148   5.538
 5371SOL    HW117012   6.847   5.094   5.467
 5371SOL    HW217013   6.712   5.176   5.507
 5372SOL     OW17014   0.858   0.474   2.335
 5372SOL    HW117015   0.799   0.536   2.389
 5372SOL    HW217016   0.953   0.485   2.365
 5373SOL     OW17017   3.794   0.094   6.021
 5373SOL    HW117018   3.832   0.145   6.098
 5373SOL    HW217019   3.751   0.010   6.054
 5374SOL     OW17020   2.673   5.333   1.557
 5374SOL    HW117021   2.635   5.272   1.488
 5374SOL    HW217022   2.606   5.405   1.579
 5375SOL     OW17023   0.842   5.875   4.649
 5375SOL    HW117024   0.884   5.955   4.606
 5375SOL    HW217025   0.775   5.904   4.717
 5376SOL     OW17026   0.883   1.469   0.282
 5376SOL    HW117027   0.961   1.428   0.235
 5376SOL    HW217028   0.810   1.401   0.290
 5377SOL     OW17029   2.286   0.525   3.074
 5377SOL    HW117030   2.309   0.620   3.096
 5377SOL    HW217031   2.204   0.498   3.124
 5378SOL     OW17032   5.941   0.686   1.479
 5378SOL    HW117033   5.934   0.785   1.469
 5378SOL    HW217034   5.894   0.657   1.563
 5379SOL     OW17035   0.728   3.091   5.993
 5379SOL    HW117036   0.807   3.147   6.020
 5379SOL    HW217037   0.694   3.123   5.904
 5380SOL     OW17038   4.874   0.346   1.317
 5380SOL    HW117039   4.922   0.276   1.371
 5380SOL    HW217040   4.866   0.315   1.222
 5381SOL     OW17041   4.713   6.326   3.065
 5381SOL    HW117042   4.707   6.355   2.969
 5381SOL    HW217043   4.750   6.400   3.120
 5382SOL     OW17044   4.268   1.871   2.117
 5382SOL    HW117045   4.257   1.901   2.023
 5382SOL    HW217046   4.261   1.771   2.122
 5383SOL     OW17047   1.806   3.012   4.297
 5383SOL    HW117048   1.812   3.095   4.242
 5383SOL    HW217049   1.862   2.941   4.256
 5384SOL     OW17050   4.634   5.965   5.406
 5384SOL    HW117051   4.584   6.006   5.483
 5384SOL    HW217052   4.729   5.952   5.432
 5385SOL     OW17053   5.896   2.503   5.729
 5385SOL    HW117054   5.817   2.442   5.738
 5385SOL    HW217055   5.942   2.486   5.642
 5386SOL     OW17056   6.792   4.268   3.989
 5386SOL    HW117057   6.693   4.261   4.006
 5386SOL    HW217058   6.820   4.198   3.924
 5387SOL     OW17059   2.027   1.359   2.624
 5387SOL    HW117060   2.117   1.362   2.581
 5387SOL    HW217061   2.035   1.315   2.714
 5388SOL     OW17062   1.034   6.812   2.354
 5388SOL    HW117063   1.082   6.875   2.293
 5388SOL    HW217064   0.989   6.741   2.300
 5389SOL     OW17065   4.839   1.948   4.010
 5389SOL    HW117066   4.757   1.897   3.985
 5389SOL    HW217067   4.916   1.917   3.955
 5390SOL     OW17068   6.506   3.278   3.834
 5390SOL    HW117069   6.454   3.201   3.795
 5390SOL    HW217070   6.593   3.244   3.870
 5391SOL     OW17071   2.130   2.742   0.204
 5391SOL    HW117072   2.127   2.648   0.172
 5391SOL    HW217073   2.096   2.746   0.298
 5392SOL     OW17074   5.233   1.683   3.431
 5392SOL    HW117075   5.205   1.724   3.344
 5392SOL    HW217076   5.263   1.589   3.416
 5393SOL     OW17077   3.767   1.510   5.673
 5393SOL    HW117078   3.837   1.495   5.603
 5393SOL    HW217079   3.683   1.542   5.629
 5394SOL     OW17080   2.088   0.392   0.807
 5394SOL    HW117081   2.072   0.301   0.769
 5394SOL    HW217082   2.031   0.404   0.889
 5395SOL     OW17083   5.280   2.242   0.926
 5395SOL    HW117084   5.267   2.336   0.895
 5395SOL    HW217085   5.190   2.199   0.940
 5396SOL     OW17086   6.127   5.313   3.096
 5396SOL    HW117087   6.028   5.302   3.105
 5396SOL    HW217088   6.148   5.357   3.009
 5397SOL     OW17089   6.579   1.224   3.092
 5397SOL    HW117090   6.481   1.218   3.111
 5397SOL    HW217091   6.594   1.233   2.994
 5398SOL     OW17092   4.824   1.846   3.431
 5398SOL    HW117093   4.774   1.879   3.350
 5398SOL    HW217094   4.839   1.922   3.494
 5399SOL     OW17095   2.085   6.938   5.394
 5399SOL    HW117096   2.133   6.907   5.477
 5399SOL    HW217097   2.008   6.995   5.421
 5400SOL     OW17098   3.422   3.360   1.229
 5400SOL    HW117099   3.409   3.421   1.307
 5400SOL    HW217100   3.454   3.271   1.260
 5401SOL     OW17101   5.812   4.450   1.946
 5401SOL    HW117102   5.738   4.433   1.880
 5401SOL    HW217103   5.873   4.521   1.910
 5402SOL     OW17104   1.784   6.950   0.715
 5402SOL    HW117105   1.803   0.006   0.770
 5402SOL    HW217106   1.732   6.977   0.633
 5403SOL     OW17107   5.062   3.391   0.308
 5403SOL    HW117108   5.122   3.462   0.272
 5403SOL    HW217109   5.089   3.368   0.401
 5404SOL     OW17110   6.192   0.745   1.145
 5404SOL    HW117111   6.201   0.653   1.182
 5404SOL    HW217112   6.186   0.811   1.221
 5405SOL     OW17113   5.147   5.431   6.713
 5405SOL    HW117114   5.221   5.486   6.753
 5405SOL    HW217115   5.129   5.352   6.771
 5406SOL     OW17116   2.546   0.431   3.919
 5406SOL    HW117117   2.607   0.469   3.849
 5406SOL    HW217118   2.600   0.409   4.001
 5407SOL     OW17119   2.247   0.447   1.611
 5407SOL    HW117120   2.347   0.450   1.598
 5407SOL    HW217121   2.219   0.522   1.670
 5408SOL     OW17122   2.566   2.475   4.531
 5408SOL    HW117123   2.564   2.489   4.432
 5408SOL    HW217124   2.577   2.378   4.552
 5409SOL     OW17125   1.075   2.762   1.136
 5409SOL    HW117126   1.043   2.699   1.207
 5409SOL    HW217127   1.027   2.744   1.051
 5410SOL     OW17128   0.884   2.286   1.026
 5410SOL    HW117129   0.968   2.286   0.972
 5410SOL    HW217130   0.817   2.226   0.982
 5411SOL     OW17131   4.073   5.010   6.827
 5411SOL    HW117132   4.081   5.087   6.764
 5411SOL    HW217133   4.149   4.947   6.812
 5412SOL     OW17134   0.371   2.402   5.690
 5412SOL    HW117135   0.288   2.414   5.746
 5412SOL    HW217136   0.449   2.388   5.750
 5413SOL     OW17137   6.770   6.869   4.936
 5413SOL    HW117138   6.687   6.915   4.904
 5413SOL    HW217139   6.754   6.770   4.942
 5414SOL     OW17140   6.727   4.070   5.644
 5414SOL    HW117141   6.808   4.012   5.638
 5414SOL    HW217142   6.653   4.028   5.591
 5415SOL     OW17143   3.666   0.656   0.599
 5415SOL    HW117144   3.622   0.728   0.653
 5415SOL    HW217145   3.657   0.678   0.502
 5416SOL     OW17146   3.349   4.890   5.345
 5416SOL    HW117147   3.335   4.836   5.428
 5416SOL    HW217148   3.395   4.976   5.368
 5417SOL     OW17149   4.509   6.110   3.617
 5417SOL    HW117150   4.587   6.143   3.565
 5417SOL    HW217151   4.507   6.010   3.615
 5418SOL     OW17152   6.348   4.120   4.496
 5418SOL    HW117153   6.269   4.119   4.558
 5418SOL    HW217154   6.341   4.199   4.436
 5419SOL     OW17155   3.837   6.670   6.814
 5419SOL    HW117156   3.792   6.672   6.724
 5419SOL    HW217157   3.918   6.729   6.812
 5420SOL     OW17158   1.535   0.961   1.432
 5420SOL    HW117159   1.477   0.965   1.351
 5420SOL    HW217160   1.500   1.024   1.502
 5421SOL     OW17161   3.659   5.103   2.216
 5421SOL    HW117162   3.563   5.130   2.209
 5421SOL    HW217163   3.708   5.131   2.133
 5422SOL     OW17164   2.241   6.361   3.928
 5422SOL    HW117165   2.321   6.311   3.959
 5422SOL    HW217166   2.269   6.439   3.873
 5423SOL     OW17167   6.136   6.500   2.463
 5423SOL    HW117168   6.176   6.575   2.516
 5423SOL    HW217169   6.054   6.466   2.509
 5424SOL     OW17170   4.485   4.081   5.350
 5424SOL    HW117171   4.512   4.110   5.441
 5424SOL    HW217172   4.530   4.138   5.281
 5425SOL     OW17173   6.995   3.651   6.267
 5425SOL    HW117174   6.993   3.593   6.186
 5425SOL    HW217175   7.017   3.597   6.348
 5426SOL     OW17176   5.951   5.240   2.709
 5426SOL    HW117177   5.863   5.269   2.747
 5426SOL    HW217178   5.982   5.308   2.642
 5427SOL     OW17179   4.746   2.700   6.541
 5427SOL    HW117180   4.817   2.635   6.516
 5427SOL    HW217181   4.786   2.775   6.594
 5428SOL     OW17182   6.814   5.388   3.151
 5428SOL    HW117183   6.896   5.413   3.099
 5428SOL    HW217184   6.842   5.350   3.240
 5429SOL     OW17185   2.674   0.081   3.647
 5429SOL    HW117186   2.702   0.049   3.556
 5429SOL    HW217187   2.605   0.152   3.637
 5430SOL     OW17188   2.517   3.655   6.657
 5430SOL    HW117189   2.592   3.673   6.721
 5430SOL    HW217190   2.504   3.735   6.599
 5431SOL     OW17191   3.231   5.043   5.686
 5431SOL    HW117192   3.242   4.945   5.672
 5431SOL    HW217193   3.250   5.092   5.601
 5432SOL     OW17194   5.421   5.567   0.866
 5432SOL    HW117195   5.486   5.616   0.807
 5432SOL    HW217196   5.346   5.531   0.810
 5433SOL     OW17197   1.592   6.586   0.946
 5433SOL    HW117198   1.667   6.648   0.967
 5433SOL    HW217199   1.512   6.609   1.001
 5434SOL     OW17200   5.247   0.763   4.787
 5434SOL    HW117201   5.205   0.808   4.866
 5434SOL    HW217202   5.267   0.831   4.717
 5435SOL     OW17203   6.527   3.998   1.046
 5435SOL    HW117204   6.596   4.034   0.983
 5435SOL    HW217205   6.469   3.932   0.997
 5436SOL     OW17206   1.421   4.459   3.061
 5436SOL    HW117207   1.417   4.526   3.135
 5436SOL    HW217208   1.353   4.481   2.991
 5437SOL     OW17209   3.802   5.843   0.516
 5437SOL    HW117210   3.739   5.767   0.504
 5437SOL    HW217211   3.799   5.902   0.435
 5438SOL     OW17212   4.567   4.418   2.690
 5438SOL    HW117213   4.559   4.386   2.784
 5438SOL    HW217214   4.628   4.357   2.639
 5439SOL     OW17215   0.978   4.651   1.556
 5439SOL    HW117216   1.021   4.561   1.540
 5439SOL    HW217217   0.902   4.640   1.620
 5440SOL     OW17218   5.316   6.242   3.463
 5440SOL    HW117219   5.394   6.304   3.451
 5440SOL    HW217220   5.291   6.203   3.374
 5441SOL     OW17221   4.427   2.191   3.757
 5441SOL    HW117222   4.437   2.229   3.666
 5441SOL    HW217223   4.445   2.093   3.755
 5442SOL     OW17224   5.299   6.920   4.583
 5442SOL    HW117225   5.209   6.964   4.585
 5442SOL    HW217226   5.288   6.822   4.568
 5443SOL     OW17227   4.753   0.137   4.476
 5443SOL    HW117228   4.802   0.208   4.424
 5443SOL    HW217229   4.661   0.126   4.439
 5444SOL     OW17230   0.231   0.910   4.286
 5444SOL    HW117231   0.326   0.883   4.300
 5444SOL    HW217232   0.216   1.001   4.325
 5445SOL     OW17233   5.222   5.440   5.476
 5445SOL    HW117234   5.187   5.381   5.549
 5445SOL    HW217235   5.169   5.524   5.473
 5446SOL     OW17236   0.931   4.476   5.935
 5446SOL    HW117237   0.980   4.471   5.848
 5446SOL    HW217238   0.861   4.405   5.938
 5447SOL     OW17239   0.987   1.603   0.732
 5447SOL    HW117240   1.055   1.531   0.751
 5447SOL    HW217241   0.973   1.609   0.634
 5448SOL     OW17242   3.967   5.580   3.503
 5448SOL    HW117243   4.021   5.497   3.513
 5448SOL    HW217244   3.870   5.560   3.519
 5449SOL     OW17245   3.103   1.917   2.371
 5449SOL    HW117246   3.158   1.932   2.453
 5449SOL    HW217247   3.134   1.979   2.299
 5450SOL     OW17248   3.870   5.531   1.597
 5450SOL    HW117249   3.927   5.588   1.537
 5450SOL    HW217250   3.789   5.583   1.625
 5451SOL     OW17251   1.283   0.395   3.025
 5451SOL    HW117252   1.263   0.417   2.930
 5451SOL    HW217253   1.257   0.300   3.043
 5452SOL     OW17254   2.013   4.847   2.363
 5452SOL    HW117255   1.929   4.896   2.339
 5452SOL    HW217256   2.030   4.775   2.295
 5453SOL     OW17257   5.745   4.433   3.232
 5453SOL    HW117258   5.767   4.443   3.135
 5453SOL    HW217259   5.712   4.520   3.269
 5454SOL     OW17260   6.349   5.250   3.784
 5454SOL    HW117261   6.275   5.296   3.735
 5454SOL    HW217262   6.413   5.318   3.820
 5455SOL     OW17263   0.428   1.768   3.106
 5455SOL    HW117264   0.435   1.710   3.025
 5455SOL    HW217265   0.519   1.806   3.127
 5456SOL     OW17266   5.201   1.049   6.332
 5456SOL    HW117267   5.295   1.014   6.336
 5456SOL    HW217268   5.201   1.146   6.358
 5457SOL     OW17269   6.031   2.185   0.449
 5457SOL    HW117270   6.120   2.152   0.482
 5457SOL    HW217271   5.998   2.123   0.377
 5458SOL     OW17272   6.224   4.600   0.876
 5458SOL    HW117273   6.163   4.524   0.898
 5458SOL    HW217274   6.281   4.620   0.956
 5459SOL     OW17275   2.231   4.378   5.874
 5459SOL    HW117276   2.281   4.446   5.928
 5459SOL    HW217277   2.254   4.388   5.777
 5460SOL     OW17278   1.815   0.180   0.171
 5460SOL    HW117279   1.737   0.120   0.188
 5460SOL    HW217280   1.848   0.216   0.258
 5461SOL     OW17281   6.891   1.255   6.629
 5461SOL    HW117282   6.839   1.209   6.701
 5461SOL    HW217283   6.962   1.194   6.595
 5462SOL     OW17284   5.230   5.830   6.855
 5462SOL    HW117285   5.194   5.853   6.946
 5462SOL    HW217286   5.268   5.738   6.857
 5463SOL     OW17287   0.210   2.626   0.330
 5463SOL    HW117288   0.185   2.620   0.426
 5463SOL    HW217289   0.159   2.700   0.286
 5464SOL     OW17290   6.408   6.419   5.191
 5464SOL    HW117291   6.508   6.416   5.199
 5464SOL    HW217292   6.374   6.331   5.159
 5465SOL     OW17293   7.015   6.730   3.436
 5465SOL    HW117294   6.938   6.762   3.491
 5465SOL    HW217295   0.044   6.809   3.405
 5466SOL     OW17296   6.105   2.968   5.180
 5466SOL    HW117297   6.099   3.043   5.114
 5466SOL    HW217298   6.174   2.990   5.249
 5467SOL     OW17299   5.428   4.030   3.347
 5467SOL    HW117300   5.427   4.040   3.247
 5467SOL    HW217301   5.504   4.083   3.385
 5468SOL     OW17302   6.993   1.127   2.466
 5468SOL    HW117303   6.970   1.121   2.563
 5468SOL    HW217304   6.913   1.157   2.414
 5469SOL     OW17305   2.319   0.892   5.209
 5469SOL    HW117306   2.400   0.944   5.236
 5469SOL    HW217307   2.312   0.810   5.266
 5470SOL     OW17308   4.142   5.575   4.480
 5470SOL    HW117309   4.087   5.492   4.488
 5470SOL    HW217310   4.237   5.554   4.506
 5471SOL     OW17311   4.948   0.029   2.669
 5471SOL    HW117312   5.025   7.007   2.626
 5471SOL    HW217313   4.970   0.050   2.765
 5472SOL     OW17314   3.084   1.464   6.105
 5472SOL    HW117315   3.020   1.456   6.029
 5472SOL    HW217316   3.033   1.485   6.189
 5473SOL     OW17317   2.280   4.846   1.657
 5473SOL    HW117318   2.306   4.925   1.602
 5473SOL    HW217319   2.200   4.802   1.616
 5474SOL     OW17320   0.413   5.533   3.333
 5474SOL    HW117321   0.465   5.537   3.248
 5474SOL    HW217322   0.418   5.441   3.371
 5475SOL     OW17323   0.126   1.906   6.686
 5475SOL    HW117324   0.141   2.003   6.709
 5475SOL    HW217325   0.207   1.870   6.641
 5476SOL     OW17326   2.575   6.260   6.024
 5476SOL    HW117327   2.504   6.328   6.007
 5476SOL    HW217328   2.660   6.290   5.980
 5477SOL     OW17329   2.228   5.137   4.307
 5477SOL    HW117330   2.242   5.076   4.386
 5477SOL    HW217331   2.130   5.153   4.294
 5478SOL     OW17332   6.068   4.639   6.441
 5478SOL    HW117333   6.101   4.601   6.355
 5478SOL    HW217334   5.968   4.633   6.444
 5479SOL     OW17335   4.248   2.035   4.527
 5479SOL    HW117336   4.299   2.107   4.574
 5479SOL    HW217337   4.166   2.014   4.580
 5480SOL     OW17338   6.245   4.419   5.007
 5480SOL    HW117339   6.261   4.451   5.100
 5480SOL    HW217340   6.324   4.364   4.977
 5481SOL     OW17341   4.245   0.686   6.180
 5481SOL    HW117342   4.272   0.756   6.246
 5481SOL    HW217343   4.243   0.726   6.088
 5482SOL     OW17344   3.704   3.339   1.588
 5482SOL    HW117345   3.775   3.328   1.518
 5482SOL    HW217346   3.747   3.353   1.677
 5483SOL     OW17347   6.555   3.446   5.666
 5483SOL    HW117348   6.600   3.531   5.692
 5483SOL    HW217349   6.462   3.446   5.702
 5484SOL     OW17350   6.949   6.592   4.234
 5484SOL    HW117351   6.883   6.640   4.291
 5484SOL    HW217352   0.015   6.596   4.277
 5485SOL     OW17353   3.866   6.999   4.976
 5485SOL    HW117354   3.836   6.988   5.071
 5485SOL    HW217355   3.854   6.912   4.928
 5486SOL     OW17356   1.451   0.511   3.593
 5486SOL    HW117357   1.526   0.513   3.659
 5486SOL    HW217358   1.485   0.479   3.505
 5487SOL     OW17359   6.286   4.441   0.413
 5487SOL    HW117360   6.310   4.528   0.369
 5487SOL    HW217361   6.322   4.440   0.506
 5488SOL     OW17362   5.061   2.224   6.939
 5488SOL    HW117363   5.113   2.189   7.017
 5488SOL    HW217364   5.098   2.187   6.854
 5489SOL     OW17365   1.701   4.581   2.561
 5489SOL    HW117366   1.681   4.663   2.506
 5489SOL    HW217367   1.797   4.583   2.589
 5490SOL     OW17368   3.571   0.630   0.129
 5490SOL    HW117369   3.602   0.540   0.161
 5490SOL    HW217370   3.550   0.624   0.031
 5491SOL     OW17371   1.835   4.740   0.418
 5491SOL    HW117372   1.856   4.658   0.470
 5491SOL    HW217373   1.808   4.813   0.481
 5492SOL     OW17374   1.044   2.063   6.418
 5492SOL    HW117375   0.993   2.025   6.496
 5492SOL    HW217376   0.982   2.074   6.340
 5493SOL     OW17377   3.856   3.283   5.933
 5493SOL    HW117378   3.778   3.247   5.883
 5493SOL    HW217379   3.838   3.379   5.959
 5494SOL     OW17380   6.758   3.517   1.198
 5494SOL    HW117381   6.793   3.608   1.174
 5494SOL    HW217382   6.816   3.476   1.268
 5495SOL     OW17383   3.685   3.753   1.809
 5495SOL    HW117384   3.713   3.721   1.719
 5495SOL    HW217385   3.586   3.753   1.815
 5496SOL     OW17386   3.445   5.969   1.448
 5496SOL    HW117387   3.464   5.917   1.531
 5496SOL    HW217388   3.526   5.968   1.389
 5497SOL     OW17389   0.663   1.499   3.022
 5497SOL    HW117390   0.641   1.425   3.086
 5497SOL    HW217391   0.581   1.554   3.005
 5498SOL     OW17392   4.505   0.744   5.906
 5498SOL    HW117393   4.406   0.756   5.916
 5498SOL    HW217394   4.533   0.659   5.950
 5499SOL     OW17395   0.177   0.772   3.876
 5499SOL    HW117396   0.207   0.776   3.781
 5499SOL    HW217397   0.212   0.851   3.926
 5500SOL     OW17398   2.527   4.930   0.492
 5500SOL    HW117399   2.575   4.874   0.560
 5500SOL    HW217400   2.585   4.943   0.412
 5501SOL     OW17401   2.831   0.164   2.155
 5501SOL    HW117402   2.847   0.204   2.245
 5501SOL    HW217403   2.774   0.226   2.101
 5502SOL     OW17404   5.853   4.150   5.804
 5502SOL    HW117405   5.889   4.066   5.766
 5502SOL    HW217406   5.896   4.168   5.893
 5503SOL     OW17407   1.167   4.409   3.413
 5503SOL    HW117408   1.154   4.361   3.326
 5503SOL    HW217409   1.104   4.374   3.481
 5504SOL     OW17410   3.617   0.900   4.899
 5504SOL    HW117411   3.636   0.993   4.930
 5504SOL    HW217412   3.535   0.865   4.945
 5505SOL     OW17413   2.395   5.848   5.058
 5505SOL    HW117414   2.378   5.807   5.148
 5505SOL    HW217415   2.381   5.947   5.064
 5506SOL     OW17416   6.683   0.635   5.054
 5506SOL    HW117417   6.732   0.550   5.038
 5506SOL    HW217418   6.720   0.707   4.995
 5507SOL     OW17419   2.175   6.553   2.773
 5507SOL    HW117420   2.101   6.621   2.763
 5507SOL    HW217421   2.142   6.475   2.826
 5508SOL     OW17422   2.291   0.760   6.464
 5508SOL    HW117423   2.267   0.714   6.378
 5508SOL    HW217424   2.387   0.741   6.485
 5509SOL     OW17425   5.704   6.304   0.559
 5509SOL    HW117426   5.661   6.394   0.552
 5509SOL    HW217427   5.647   6.237   0.511
 5510SOL     OW17428   3.998   6.579   6.363
 5510SOL    HW117429   3.969   6.634   6.440
 5510SOL    HW217430   3.921   6.564   6.301
 5511SOL     OW17431   0.879   0.579   2.622
 5511SOL    HW117432   0.918   0.560   2.712
 5511SOL    HW217433   0.901   0.673   2.595
 5512SOL     OW17434   6.613   2.090   0.498
 5512SOL    HW117435   6.676   2.103   0.575
 5512SOL    HW217436   6.561   2.005   0.510
 5513SOL     OW17437   4.536   4.682   4.501
 5513SOL    HW117438   4.574   4.608   4.556
 5513SOL    HW217439   4.487   4.746   4.560
 5514SOL     OW17440   5.934   5.098   3.245
 5514SOL    HW117441   5.982   5.011   3.246
 5514SOL    HW217442   5.947   5.144   3.333
 5515SOL     OW17443   6.812   2.956   1.759
 5515SOL    HW117444   6.742   3.025   1.772
 5515SOL    HW217445   6.900   3.000   1.743
 5516SOL     OW17446   1.461   2.781   6.859
 5516SOL    HW117447   1.397   2.857   6.871
 5516SOL    HW217448   1.522   2.801   6.783
 5517SOL     OW17449   3.216   2.473   1.679
 5517SOL    HW117450   3.282   2.412   1.723
 5517SOL    HW217451   3.213   2.455   1.581
 5518SOL     OW17452   5.376   5.070   6.245
 5518SOL    HW117453   5.450   5.003   6.240
 5518SOL    HW217454   5.352   5.086   6.341
 5519SOL     OW17455   5.136   3.897   3.014
 5519SOL    HW117456   5.116   3.980   2.964
 5519SOL    HW217457   5.051   3.853   3.042
 5520SOL     OW17458   1.655   4.366   2.913
 5520SOL    HW117459   1.731   4.309   2.945
 5520SOL    HW217460   1.604   4.401   2.991
 5521SOL     OW17461   5.032   5.991   1.837
 5521SOL    HW117462   5.089   5.916   1.869
 5521SOL    HW217463   5.085   6.076   1.837
 5522SOL     OW17464   2.663   3.423   1.338
 5522SOL    HW117465   2.687   3.337   1.292
 5522SOL    HW217466   2.609   3.403   1.420
 5523SOL     OW17467   3.448   6.750   2.939
 5523SOL    HW117468   3.464   6.719   3.033
 5523SOL    HW217469   3.352   6.735   2.914
 5524SOL     OW17470   0.526   5.702   4.938
 5524SOL    HW117471   0.610   5.713   4.991
 5524SOL    HW217472   0.518   5.607   4.908
 5525SOL     OW17473   6.715   4.877   6.966
 5525SOL    HW117474   6.811   4.878   6.994
 5525SOL    HW217475   6.690   4.785   6.936
 5526SOL     OW17476   5.976   3.308   4.109
 5526SOL    HW117477   5.909   3.309   4.034
 5526SOL    HW217478   5.971   3.395   4.158
 5527SOL     OW17479   0.860   2.370   2.052
 5527SOL    HW117480   0.799   2.439   2.093
 5527SOL    HW217481   0.822   2.340   1.965
 5528SOL     OW17482   0.083   2.930   5.293
 5528SOL    HW117483   0.119   2.933   5.200
 5528SOL    HW217484   0.153   2.893   5.354
 5529SOL     OW17485   2.243   0.408   4.688
 5529SOL    HW117486   2.301   0.395   4.768
 5529SOL    HW217487   2.276   0.486   4.634
 5530SOL     OW17488   0.173   2.441   1.410
 5530SOL    HW117489   0.195   2.426   1.313
 5530SOL    HW217490   0.254   2.473   1.458
 5531SOL     OW17491   3.962   3.303   4.682
 5531SOL    HW117492   4.001   3.275   4.769
 5531SOL    HW217493   3.865   3.280   4.680
 5532SOL     OW17494   1.396   0.719   0.599
 5532SOL    HW117495   1.465   0.678   0.540
 5532SOL    HW217496   1.306   0.711   0.556
 5533SOL     OW17497   2.689   0.891   3.181
 5533SOL    HW117498   2.745   0.973   3.171
 5533SOL    HW217499   2.724   0.819   3.120
 5534SOL     OW17500   0.861   3.152   6.590
 5534SOL    HW117501   0.775   3.146   6.540
 5534SOL    HW217502   0.932   3.102   6.540
 5535SOL     OW17503   6.780   2.934   2.900
 5535SOL    HW117504   6.833   2.889   2.972
 5535SOL    HW217505   6.688   2.895   2.897
 5536SOL     OW17506   2.130   0.738   4.071
 5536SOL    HW117507   2.158   0.651   4.032
 5536SOL    HW217508   2.089   0.795   4.000
 5537SOL     OW17509   3.877   0.323   4.718
 5537SOL    HW117510   3.885   0.389   4.793
 5537SOL    HW217511   3.947   0.341   4.650
 5538SOL     OW17512   4.258   0.596   5.366
 5538SOL    HW117513   4.284   0.499   5.371
 5538SOL    HW217514   4.238   0.630   5.458
 5539SOL     OW17515   0.567   1.444   1.748
 5539SOL    HW117516   0.548   1.355   1.789
 5539SOL    HW217517   0.631   1.432   1.671
 5540SOL     OW17518   5.162   2.925   1.457
 5540SOL    HW117519   5.099   2.986   1.504
 5540SOL    HW217520   5.198   2.971   1.375
 5541SOL     OW17521   5.099   3.217   5.400
 5541SOL    HW117522   5.127   3.156   5.473
 5541SOL    HW217523   5.003   3.200   5.377
 5542SOL     OW17524   5.620   5.361   5.819
 5542SOL    HW117525   5.526   5.334   5.797
 5542SOL    HW217526   5.618   5.444   5.875
 5543SOL     OW17527   2.698   5.485   0.038
 5543SOL    HW117528   2.643   5.563   0.010
 5543SOL    HW217529   2.750   5.508   0.121
 5544SOL     OW17530   5.410   5.011   5.724
 5544SOL    HW117531   5.475   5.028   5.650
 5544SOL    HW217532   5.330   4.963   5.688
 5545SOL     OW17533   4.368   1.188   2.502
 5545SOL    HW117534   4.340   1.131   2.579
 5545SOL    HW217535   4.462   1.219   2.516
 5546SOL     OW17536   1.214   6.692   4.341
 5546SOL    HW117537   1.140   6.704   4.274
 5546SOL    HW217538   1.296   6.738   4.307
 5547SOL     OW17539   3.477   1.136   5.252
 5547SOL    HW117540   3.451   1.210   5.314
 5547SOL    HW217541   3.520   1.174   5.171
 5548SOL     OW17542   6.292   4.245   5.993
 5548SOL    HW117543   6.375   4.199   6.023
 5548SOL    HW217544   6.253   4.296   6.070
 5549SOL     OW17545   4.056   3.234   1.526
 5549SOL    HW117546   3.997   3.171   1.476
 5549SOL    HW217547   4.147   3.195   1.535
 5550SOL     OW17548   2.414   4.453   3.073
 5550SOL    HW117549   2.419   4.497   2.984
 5550SOL    HW217550   2.373   4.362   3.064
 5551SOL     OW17551   1.363   6.609   2.703
 5551SOL    HW117552   1.308   6.570   2.777
 5551SOL    HW217553   1.343   6.562   2.618
 5552SOL     OW17554   5.844   0.454   6.062
 5552SOL    HW117555   5.941   0.476   6.059
 5552SOL    HW217556   5.809   0.466   6.155
 5553SOL     OW17557   4.190   6.619   6.704
 5553SOL    HW117558   4.178   6.678   6.624
 5553SOL    HW217559   4.222   6.529   6.673
 5554SOL     OW17560   5.129   3.446   1.917
 5554SOL    HW117561   5.043   3.406   1.886
 5554SOL    HW217562   5.169   3.501   1.843
 5555SOL     OW17563   1.024   3.413   2.133
 5555SOL    HW117564   0.978   3.491   2.175
 5555SOL    HW217565   1.004   3.411   2.035
 5556SOL     OW17566   6.211   0.709   3.877
 5556SOL    HW117567   6.284   0.646   3.905
 5556SOL    HW217568   6.247   0.772   3.808
 5557SOL     OW17569   4.267   5.224   1.940
 5557SOL    HW117570   4.268   5.267   1.849
 5557SOL    HW217571   4.194   5.156   1.944
 5558SOL     OW17572   3.611   3.484   6.753
 5558SOL    HW117573   3.637   3.572   6.793
 5558SOL    HW217574   3.693   3.432   6.730
 5559SOL     OW17575   1.615   0.396   1.956
 5559SOL    HW117576   1.658   0.473   1.908
 5559SOL    HW217577   1.546   0.431   2.019
 5560SOL     OW17578   0.221   5.718   1.328
 5560SOL    HW117579   0.184   5.787   1.391
 5560SOL    HW217580   0.259   5.642   1.380
 5561SOL     OW17581   2.766   0.568   4.419
 5561SOL    HW117582   2.766   0.591   4.516
 5561SOL    HW217583   2.699   0.626   4.371
 5562SOL     OW17584   4.375   3.580   0.473
 5562SOL    HW117585   4.469   3.595   0.441
 5562SOL    HW217586   4.376   3.514   0.547
 5563SOL     OW17587   2.862   5.032   2.892
 5563SOL    HW117588   2.896   5.115   2.937
 5563SOL    HW217589   2.763   5.037   2.885
 5564SOL     OW17590   4.423   6.920   6.061
 5564SOL    HW117591   4.421   7.002   6.004
 5564SOL    HW217592   4.342   6.865   6.043
 5565SOL     OW17593   3.844   2.632   6.171
 5565SOL    HW117594   3.929   2.680   6.192
 5565SOL    HW217595   3.783   2.637   6.251
 5566SOL     OW17596   2.346   4.426   0.199
 5566SOL    HW117597   2.371   4.484   0.276
 5566SOL    HW217598   2.427   4.405   0.145
 5567SOL     OW17599   0.097   4.110   1.764
 5567SOL    HW117600   0.021   4.088   1.703
 5567SOL    HW217601   0.179   4.061   1.734
 5568SOL     OW17602   4.632   1.032   3.483
 5568SOL    HW117603   4.640   1.131   3.483
 5568SOL    HW217604   4.643   0.997   3.390
 5569SOL     OW17605   2.235   2.272   2.246
 5569SOL    HW117606   2.201   2.256   2.339
 5569SOL    HW217607   2.244   2.184   2.199
 5570SOL     OW17608   6.232   3.347   3.744
 5570SOL    HW117609   6.263   3.412   3.813
 5570SOL    HW217610   6.254   3.382   3.653
 5571SOL     OW17611   6.577   5.845   2.165
 5571SOL    HW117612   6.503   5.855   2.231
 5571SOL    HW217613   6.650   5.910   2.186
 5572SOL     OW17614   1.251   4.371   4.774
 5572SOL    HW117615   1.160   4.392   4.808
 5572SOL    HW217616   1.296   4.307   4.836
 5573SOL     OW17617   1.346   5.762   5.647
 5573SOL    HW117618   1.341   5.858   5.621
 5573SOL    HW217619   1.272   5.740   5.710
 5574SOL     OW17620   0.342   2.933   0.906
 5574SOL    HW117621   0.279   3.007   0.931
 5574SOL    HW217622   0.427   2.943   0.957
 5575SOL     OW17623   6.657   0.791   0.837
 5575SOL    HW117624   6.739   0.836   0.801
 5575SOL    HW217625   6.584   0.796   0.769
 5576SOL     OW17626   1.313   4.486   2.444
 5576SOL    HW117627   1.399   4.453   2.406
 5576SOL    HW217628   1.236   4.436   2.403
 5577SOL     OW17629   2.269   2.604   6.622
 5577SOL    HW117630   2.215   2.607   6.537
 5577SOL    HW217631   2.315   2.692   6.635
 5578SOL     OW17632   3.408   4.150   2.360
 5578SOL    HW117633   3.416   4.250   2.360
 5578SOL    HW217634   3.437   4.115   2.449
 5579SOL     OW17635   0.595   4.058   0.750
 5579SOL    HW117636   0.659   3.989   0.715
 5579SOL    HW217637   0.576   4.125   0.678
 5580SOL     OW17638   4.532   1.805   5.433
 5580SOL    HW117639   4.611   1.846   5.387
 5580SOL    HW217640   4.493   1.871   5.497
 5581SOL     OW17641   1.549   0.679   1.647
 5581SOL    HW117642   1.624   0.635   1.697
 5581SOL    HW217643   1.544   0.775   1.673
 5582SOL     OW17644   2.654   4.311   6.288
 5582SOL    HW117645   2.558   4.338   6.291
 5582SOL    HW217646   2.663   4.225   6.238
 5583SOL     OW17647   4.333   1.130   2.806
 5583SOL    HW117648   4.397   1.174   2.869
 5583SOL    HW217649   4.247   1.112   2.853
 5584SOL     OW17650   6.719   3.760   4.444
 5584SOL    HW117651   6.688   3.725   4.356
 5584SOL    HW217652   6.673   3.847   4.464
 5585SOL     OW17653   5.763   5.748   3.200
 5585SOL    HW117654   5.714   5.663   3.224
 5585SOL    HW217655   5.857   5.742   3.235
 5586SOL     OW17656   0.035   4.102   5.863
 5586SOL    HW117657   7.013   4.015   5.875
 5586SOL    HW217658   0.082   4.128   5.947
 5587SOL     OW17659   4.430   7.003   0.242
 5587SOL    HW117660   4.354   0.023   0.289
 5587SOL    HW217661   4.490   0.047   0.201
 5588SOL     OW17662   2.245   5.877   3.111
 5588SOL    HW117663   2.218   5.924   3.195
 5588SOL    HW217664   2.180   5.898   3.038
 5589SOL     OW17665   6.157   3.908   5.942
 5589SOL    HW117666   6.105   3.907   5.857
 5589SOL    HW217667   6.239   3.851   5.932
 5590SOL     OW17668   6.788   6.455   3.939
 5590SOL    HW117669   6.885   6.480   3.940
 5590SOL    HW217670   6.744   6.497   3.859
 5591SOL     OW17671   6.887   2.056   1.731
 5591SOL    HW117672   6.967   2.081   1.785
 5591SOL    HW217673   6.825   2.001   1.787
 5592SOL     OW17674   2.160   5.741   3.498
 5592SOL    HW117675   2.222   5.819   3.495
 5592SOL    HW217676   2.201   5.667   3.550
 5593SOL     OW17677   0.267   2.792   6.899
 5593SOL    HW117678   0.250   2.813   6.802
 5593SOL    HW217679   0.187   2.748   6.938
 5594SOL     OW17680   5.284   0.693   5.224
 5594SOL    HW117681   5.213   0.746   5.272
 5594SOL    HW217682   5.257   0.682   5.128
 5595SOL     OW17683   1.048   1.851   4.938
 5595SOL    HW117684   1.077   1.764   4.977
 5595SOL    HW217685   1.106   1.873   4.859
 5596SOL     OW17686   4.013   0.375   2.892
 5596SOL    HW117687   4.067   0.341   2.815
 5596SOL    HW217688   4.075   0.415   2.960
 5597SOL     OW17689   4.703   2.738   4.719
 5597SOL    HW117690   4.745   2.778   4.801
 5597SOL    HW217691   4.761   2.759   4.640
 5598SOL     OW17692   5.230   3.804   4.395
 5598SOL    HW117693   5.157   3.786   4.461
 5598SOL    HW217694   5.256   3.900   4.399
 5599SOL     OW17695   1.157   1.689   4.172
 5599SOL    HW117696   1.090   1.619   4.150
 5599SOL    HW217697   1.247   1.646   4.185
 5600SOL     OW17698   1.075   0.887   1.860
 5600SOL    HW117699   1.001   0.822   1.842
 5600SOL    HW217700   1.099   0.883   1.957
 5601SOL     OW17701   2.522   0.620   5.014
 5601SOL    HW117702   2.428   0.612   5.046
 5601SOL    HW217703   2.580   0.650   5.089
 5602SOL     OW17704   6.304   1.889   1.515
 5602SOL    HW117705   6.380   1.933   1.563
 5602SOL    HW217706   6.324   1.792   1.502
 5603SOL     OW17707   5.421   1.776   6.651
 5603SOL    HW117708   5.367   1.719   6.712
 5603SOL    HW217709   5.459   1.854   6.702
 5604SOL     OW17710   6.366   2.037   4.695
 5604SOL    HW117711   6.355   2.085   4.608
 5604SOL    HW217712   6.387   2.102   4.767
 5605SOL     OW17713   0.539   0.578   5.080
 5605SOL    HW117714   0.605   0.640   5.122
 5605SOL    HW217715   0.578   0.486   5.074
 5606SOL     OW17716   4.918   6.759   0.053
 5606SOL    HW117717   4.981   6.683   0.065
 5606SOL    HW217718   4.826   6.724   0.038
 5607SOL     OW17719   5.023   0.799   2.669
 5607SOL    HW117720   5.104   0.856   2.670
 5607SOL    HW217721   5.039   0.718   2.612
 5608SOL     OW17722   5.091   6.928   4.822
 5608SOL    HW117723   5.070   6.989   4.746
 5608SOL    HW217724   5.185   6.943   4.852
 5609SOL     OW17725   2.929   6.372   1.287
 5609SOL    HW117726   2.976   6.299   1.337
 5609SOL    HW217727   2.926   6.454   1.344
 5610SOL     OW17728   4.386   6.445   0.588
 5610SOL    HW117729   4.323   6.375   0.554
 5610SOL    HW217730   4.355   6.479   0.677
 5611SOL     OW17731   0.971   5.386   2.553
 5611SOL    HW117732   0.976   5.456   2.482
 5611SOL    HW217733   0.933   5.302   2.514
 5612SOL     OW17734   3.583   2.050   6.750
 5612SOL    HW117735   3.651   1.977   6.749
 5612SOL    HW217736   3.626   2.137   6.728
 5613SOL     OW17737   5.589   4.059   3.865
 5613SOL    HW117738   5.615   4.119   3.940
 5613SOL    HW217739   5.628   3.968   3.880
 5614SOL     OW17740   4.655   2.654   4.192
 5614SOL    HW117741   4.673   2.680   4.097
 5614SOL    HW217742   4.670   2.732   4.252
 5615SOL     OW17743   0.622   1.320   4.765
 5615SOL    HW117744   0.540   1.365   4.728
 5615SOL    HW217745   0.604   1.222   4.776
 5616SOL     OW17746   2.533   1.848   5.156
 5616SOL    HW117747   2.452   1.844   5.097
 5616SOL    HW217748   2.536   1.936   5.203
 5617SOL     OW17749   3.243   0.533   6.125
 5617SOL    HW117750   3.296   0.567   6.203
 5617SOL    HW217751   3.199   0.447   6.150
 5618SOL     OW17752   0.238   4.070   3.814
 5618SOL    HW117753   0.145   4.087   3.845
 5618SOL    HW217754   0.303   4.109   3.879
 5619SOL     OW17755   2.686   3.743   5.741
 5619SOL    HW117756   2.747   3.674   5.779
 5619SOL    HW217757   2.734   3.794   5.670
 5620SOL     OW17758   3.696   2.796   0.813
 5620SOL    HW117759   3.621   2.772   0.875
 5620SOL    HW217760   3.661   2.808   0.721
 5621SOL     OW17761   1.097   2.458   6.322
 5621SOL    HW117762   1.114   2.384   6.387
 5621SOL    HW217763   1.015   2.439   6.269
 5622SOL     OW17764   4.722   0.181   5.979
 5622SOL    HW117765   4.813   0.218   5.958
 5622SOL    HW217766   4.719   0.151   6.075
 5623SOL     OW17767   2.100   6.300   5.314
 5623SOL    HW117768   2.063   6.390   5.335
 5623SOL    HW217769   2.066   6.270   5.225
 5624SOL     OW17770   1.036   4.175   3.584
 5624SOL    HW117771   1.002   4.082   3.600
 5624SOL    HW217772   0.959   4.235   3.562
 5625SOL     OW17773   6.569   1.687   4.470
 5625SOL    HW117774   6.625   1.617   4.513
 5625SOL    HW217775   6.505   1.644   4.406
 5626SOL     OW17776   2.887   6.542   3.809
 5626SOL    HW117777   2.844   6.632   3.824
 5626SOL    HW217778   2.816   6.473   3.799
 5627SOL     OW17779   0.914   5.834   6.485
 5627SOL    HW117780   0.855   5.908   6.455
 5627SOL    HW217781   0.916   5.762   6.416
 5628SOL     OW17782   1.381   2.536   6.875
 5628SOL    HW117783   1.392   2.636   6.872
 5628SOL    HW217784   1.296   2.511   6.829
 5629SOL     OW17785   3.163   4.009   2.329
 5629SOL    HW117786   3.215   3.968   2.404
 5629SOL    HW217787   3.139   4.104   2.353
 5630SOL     OW17788   1.954   4.608   1.113
 5630SOL    HW117789   1.942   4.532   1.049
 5630SOL    HW217790   2.049   4.640   1.109
 5631SOL     OW17791   4.345   2.116   0.350
 5631SOL    HW117792   4.386   2.169   0.424
 5631SOL    HW217793   4.398   2.033   0.335
 5632SOL     OW17794   3.604   2.884   6.335
 5632SOL    HW117795   3.649   2.917   6.419
 5632SOL    HW217796   3.632   2.790   6.317
 5633SOL     OW17797   6.952   3.106   4.543
 5633SOL    HW117798   7.013   3.182   4.567
 5633SOL    HW217799   6.933   3.109   4.445
 5634SOL     OW17800   1.976   5.502   4.609
 5634SOL    HW117801   1.940   5.410   4.621
 5634SOL    HW217802   2.045   5.520   4.679
 5635SOL     OW17803   1.944   3.971   5.438
 5635SOL    HW117804   1.933   4.051   5.379
 5635SOL    HW217805   1.928   3.888   5.384
 5636SOL     OW17806   3.594   6.740   3.740
 5636SOL    HW117807   3.638   6.810   3.685
 5636SOL    HW217808   3.591   6.654   3.689
 5637SOL     OW17809   4.550   6.774   3.734
 5637SOL    HW117810   4.501   6.706   3.679
 5637SOL    HW217811   4.634   6.800   3.687
 5638SOL     OW17812   6.007   4.013   1.391
 5638SOL    HW117813   6.021   3.935   1.452
 5638SOL    HW217814   6.023   4.098   1.442
 5639SOL     OW17815   0.618   0.588   0.412
 5639SOL    HW117816   0.591   0.679   0.383
 5639SOL    HW217817   0.566   0.519   0.360
 5640SOL     OW17818   2.785   0.579   3.743
 5640SOL    HW117819   2.769   0.545   3.651
 5640SOL    HW217820   2.753   0.674   3.749
 5641SOL     OW17821   0.707   5.038   5.423
 5641SOL    HW117822   0.653   5.035   5.508
 5641SOL    HW217823   0.734   4.945   5.398
 5642SOL     OW17824   2.003   6.924   5.878
 5642SOL    HW117825   1.986   7.020   5.899
 5642SOL    HW217826   1.923   6.870   5.907
 5643SOL     OW17827   4.389   1.195   5.067
 5643SOL    HW117828   4.301   1.170   5.027
 5643SOL    HW217829   4.426   1.116   5.117
 5644SOL     OW17830   3.249   6.976   4.974
 5644SOL    HW117831   3.260   6.888   4.928
 5644SOL    HW217832   3.338   7.023   4.976
 5645SOL     OW17833   6.530   4.229   4.010
 5645SOL    HW117834   6.550   4.191   4.100
 5645SOL    HW217835   6.492   4.158   3.951
 5646SOL     OW17836   1.897   5.532   3.020
 5646SOL    HW117837   1.970   5.479   2.977
 5646SOL    HW217838   1.818   5.535   2.958
 5647SOL     OW17839   5.082   0.108   1.004
 5647SOL    HW117840   5.138   0.026   1.014
 5647SOL    HW217841   5.032   0.105   0.917
 5648SOL     OW17842   2.032   5.962   2.958
 5648SOL    HW117843   1.961   5.971   3.028
 5648SOL    HW217844   2.049   6.050   2.915
 5649SOL     OW17845   1.008   6.689   3.854
 5649SOL    HW117846   1.071   6.632   3.801
 5649SOL    HW217847   0.914   6.658   3.838
 5650SOL     OW17848   1.071   4.859   1.701
 5650SOL    HW117849   1.139   4.911   1.650
 5650SOL    HW217850   1.054   4.772   1.654
 5651SOL     OW17851   1.315   0.804   0.310
 5651SOL    HW117852   1.252   0.786   0.387
 5651SOL    HW217853   1.361   0.719   0.284
 5652SOL     OW17854   6.735   5.710   0.902
 5652SOL    HW117855   6.808   5.645   0.922
 5652SOL    HW217856   6.771   5.803   0.903
 5653SOL     OW17857   0.294   6.168   6.990
 5653SOL    HW117858   0.215   6.144   6.934
 5653SOL    HW217859   0.301   6.106   0.043
 5654SOL     OW17860   1.344   5.507   4.351
 5654SOL    HW117861   1.257   5.543   4.317
 5654SOL    HW217862   1.337   5.408   4.364
 5655SOL     OW17863   7.013   2.838   3.354
 5655SOL    HW117864   0.037   2.925   3.355
 5655SOL    HW217865   0.053   2.764   3.337
 5656SOL     OW17866   6.682   4.177   6.486
 5656SOL    HW117867   6.737   4.254   6.518
 5656SOL    HW217868   6.712   4.149   6.395
 5657SOL     OW17869   4.654   4.242   5.189
 5657SOL    HW117870   4.673   4.283   5.279
 5657SOL    HW217871   4.713   4.284   5.121
 5658SOL     OW17872   2.808   3.512   5.797
 5658SOL    HW117873   2.767   3.474   5.714
 5658SOL    HW217874   2.796   3.448   5.873
 5659SOL     OW17875   3.682   4.038   5.833
 5659SOL    HW117876   3.749   3.964   5.832
 5659SOL    HW217877   3.615   4.022   5.906
 5660SOL     OW17878   4.023   6.176   6.144
 5660SOL    HW117879   4.089   6.127   6.088
 5660SOL    HW217880   4.014   6.270   6.111
 5661SOL     OW17881   1.430   5.393   4.962
 5661SOL    HW117882   1.512   5.413   4.908
 5661SOL    HW217883   1.426   5.454   5.041
 5662SOL     OW17884   2.574   0.291   2.454
 5662SOL    HW117885   2.570   0.202   2.409
 5662SOL    HW217886   2.629   0.284   2.538
 5663SOL     OW17887   2.342   2.251   0.830
 5663SOL    HW117888   2.407   2.194   0.879
 5663SOL    HW217889   2.355   2.239   0.731
 5664SOL     OW17890   6.385   3.334   4.345
 5664SOL    HW117891   6.420   3.364   4.434
 5664SOL    HW217892   6.398   3.235   4.337
 5665SOL     OW17893   0.845   5.913   0.047
 5665SOL    HW117894   0.923   5.960   0.089
 5665SOL    HW217895   0.765   5.972   0.050
 5666SOL     OW17896   5.960   0.888   3.510
 5666SOL    HW117897   6.015   0.863   3.430
 5666SOL    HW217898   6.011   0.869   3.593
 5667SOL     OW17899   1.160   5.254   4.890
 5667SOL    HW117900   1.179   5.310   4.970
 5667SOL    HW217901   1.243   5.205   4.863
 5668SOL     OW17902   6.022   2.926   2.951
 5668SOL    HW117903   6.015   2.848   2.889
 5668SOL    HW217904   5.949   2.923   3.018
 5669SOL     OW17905   6.901   5.103   0.556
 5669SOL    HW117906   6.922   5.007   0.576
 5669SOL    HW217907   6.814   5.127   0.599
 5670SOL     OW17908   1.458   2.994   3.968
 5670SOL    HW117909   1.552   3.030   3.966
 5670SOL    HW217910   1.454   2.911   3.912
 5671SOL     OW17911   6.301   5.356   5.472
 5671SOL    HW117912   6.237   5.389   5.541
 5671SOL    HW217913   6.288   5.257   5.459
 5672SOL     OW17914   5.087   4.206   5.108
 5672SOL    HW117915   5.060   4.132   5.170
 5672SOL    HW217916   5.168   4.178   5.055
 5673SOL     OW17917   1.238   6.155   1.088
 5673SOL    HW117918   1.257   6.248   1.055
 5673SOL    HW217919   1.170   6.112   1.028
 5674SOL     OW17920   2.344   5.027   4.825
 5674SOL    HW117921   2.381   5.035   4.732
 5674SOL    HW217922   2.280   4.951   4.830
 5675SOL     OW17923   4.459   2.323   0.208
 5675SOL    HW117924   4.542   2.313   0.153
 5675SOL    HW217925   4.427   2.232   0.235
 5676SOL     OW17926   2.668   1.689   2.332
 5676SOL    HW117927   2.745   1.745   2.305
 5676SOL    HW217928   2.597   1.693   2.262
 5677SOL     OW17929   0.264   0.722   0.037
 5677SOL    HW117930   0.259   0.632   0.081
 5677SOL    HW217931   0.172   0.761   0.031
 5678SOL     OW17932   4.488   0.866   2.332
 5678SOL    HW117933   4.437   0.843   2.414
 5678SOL    HW217934   4.555   0.938   2.353
 5679SOL     OW17935   5.408   1.801   4.252
 5679SOL    HW117936   5.392   1.824   4.156
 5679SOL    HW217937   5.417   1.884   4.306
 5680SOL     OW17938   1.775   4.997   6.664
 5680SOL    HW117939   1.732   4.908   6.645
 5680SOL    HW217940   1.739   5.033   6.750
 5681SOL     OW17941   0.296   3.726   2.173
 5681SOL    HW117942   0.362   3.795   2.204
 5681SOL    HW217943   0.312   3.640   2.221
 5682SOL     OW17944   2.326   5.352   4.170
 5682SOL    HW117945   2.412   5.349   4.118
 5682SOL    HW217946   2.320   5.271   4.229
 5683SOL     OW17947   3.774   2.630   5.915
 5683SOL    HW117948   3.741   2.699   5.851
 5683SOL    HW217949   3.809   2.675   5.998
 5684SOL     OW17950   1.838   3.760   6.431
 5684SOL    HW117951   1.743   3.767   6.459
 5684SOL    HW217952   1.862   3.837   6.372
 5685SOL     OW17953   2.054   2.172   2.813
 5685SOL    HW117954   2.135   2.117   2.833
 5685SOL    HW217955   1.986   2.115   2.766
 5686SOL     OW17956   3.019   1.386   4.574
 5686SOL    HW117957   3.077   1.464   4.599
 5686SOL    HW217958   2.957   1.413   4.500
 5687SOL     OW17959   1.103   6.064   6.255
 5687SOL    HW117960   1.095   6.158   6.288
 5687SOL    HW217961   1.185   6.054   6.200
 5688SOL     OW17962   2.203   2.976   3.043
 5688SOL    HW117963   2.126   2.936   2.993
 5688SOL    HW217964   2.281   2.987   2.981
 5689SOL     OW17965   2.757   0.545   1.922
 5689SOL    HW117966   2.780   0.604   2.000
 5689SOL    HW217967   2.837   0.533   1.864
 5690SOL     OW17968   1.411   5.132   6.619
 5690SOL    HW117969   1.431   5.038   6.589
 5690SOL    HW217970   1.400   5.133   6.719
 5691SOL     OW17971   3.822   1.083   2.695
 5691SOL    HW117972   3.765   1.152   2.737
 5691SOL    HW217973   3.918   1.109   2.704
 5692SOL     OW17974   4.849   4.463   1.223
 5692SOL    HW117975   4.753   4.477   1.246
 5692SOL    HW217976   4.868   4.502   1.133
 5693SOL     OW17977   4.568   0.338   1.460
 5693SOL    HW117978   4.664   0.350   1.435
 5693SOL    HW217979   4.510   0.375   1.387
 5694SOL     OW17980   0.450   0.226   2.315
 5694SOL    HW117981   0.476   0.130   2.316
 5694SOL    HW217982   0.385   0.242   2.240
 5695SOL     OW17983   1.180   1.108   2.993
 5695SOL    HW117984   1.162   1.165   2.913
 5695SOL    HW217985   1.094   1.070   3.027
 5696SOL     OW17986   1.313   0.245   3.890
 5696SOL    HW117987   1.287   0.155   3.925
 5696SOL    HW217988   1.233   0.289   3.849
 5697SOL     OW17989   5.973   1.908   2.377
 5697SOL    HW117990   5.919   1.887   2.458
 5697SOL    HW217991   5.950   2.000   2.345
 5698SOL     OW17992   1.574   3.769   4.481
 5698SOL    HW117993   1.545   3.727   4.395
 5698SOL    HW217994   1.654   3.720   4.516
 5699SOL     OW17995   2.005   2.911   2.766
 5699SOL    HW117996   1.918   2.931   2.811
 5699SOL    HW217997   1.988   2.857   2.684
 5700SOL     OW17998   6.595   0.153   3.299
 5700SOL    HW117999   6.638   0.064   3.317
 5700SOL    HW218000   6.528   0.172   3.371
 5701SOL     OW18001   6.683   0.461   1.322
 5701SOL    HW118002   6.625   0.538   1.349
 5701SOL    HW218003   6.735   0.484   1.240
 5702SOL     OW18004   1.517   6.463   4.541
 5702SOL    HW118005   1.466   6.385   4.506
 5702SOL    HW218006   1.594   6.483   4.480
 5703SOL     OW18007   6.632   3.990   6.747
 5703SOL    HW118008   6.682   3.973   6.662
 5703SOL    HW218009   6.637   4.087   6.771
 5704SOL     OW18010   4.960   3.809   3.349
 5704SOL    HW118011   5.028   3.882   3.352
 5704SOL    HW218012   4.970   3.758   3.264
 5705SOL     OW18013   5.729   5.725   6.543
 5705SOL    HW118014   5.807   5.785   6.565
 5705SOL    HW218015   5.652   5.781   6.512
 5706SOL     OW18016   5.165   2.594   1.859
 5706SOL    HW118017   5.115   2.510   1.880
 5706SOL    HW218018   5.144   2.662   1.929
 5707SOL     OW18019   6.256   0.240   0.632
 5707SOL    HW118020   6.172   0.293   0.637
 5707SOL    HW218021   6.335   0.300   0.641
 5708SOL     OW18022   5.049   6.331   2.577
 5708SOL    HW118023   4.981   6.376   2.520
 5708SOL    HW218024   5.052   6.375   2.667
 5709SOL     OW18025   0.753   1.026   2.578
 5709SOL    HW118026   0.789   1.118   2.591
 5709SOL    HW218027   0.668   1.016   2.630
 5710SOL     OW18028   3.075   1.826   0.523
 5710SOL    HW118029   3.057   1.770   0.603
 5710SOL    HW218030   3.172   1.847   0.518
 5711SOL     OW18031   4.897   0.327   1.762
 5711SOL    HW118032   4.813   0.355   1.810
 5711SOL    HW218033   4.873   0.276   1.680
 5712SOL     OW18034   6.429   6.658   0.181
 5712SOL    HW118035   6.490   6.687   0.108
 5712SOL    HW218036   6.469   6.684   0.270
 5713SOL     OW18037   3.431   4.678   0.959
 5713SOL    HW118038   3.456   4.775   0.965
 5713SOL    HW218039   3.371   4.654   1.036
 5714SOL     OW18040   6.943   6.289   0.581
 5714SOL    HW118041   6.870   6.348   0.547
 5714SOL    HW218042   7.010   6.273   0.509
 5715SOL     OW18043   6.796   0.574   2.516
 5715SOL    HW118044   6.764   0.527   2.598
 5715SOL    HW218045   6.731   0.644   2.490
 5716SOL     OW18046   1.201   5.779   6.435
 5716SOL    HW118047   1.127   5.812   6.493
 5716SOL    HW218048   1.219   5.683   6.454
 5717SOL     OW18049   2.316   5.324   1.965
 5717SOL    HW118050   2.335   5.421   1.950
 5717SOL    HW218051   2.263   5.288   1.888
 5718SOL     OW18052   0.670   3.352   0.015
 5718SOL    HW118053   0.650   3.283   6.970
 5718SOL    HW218054   0.689   3.440   6.995
 5719SOL     OW18055   2.927   3.766   0.892
 5719SOL    HW118056   2.843   3.807   0.857
 5719SOL    HW218057   2.906   3.678   0.935
 5720SOL     OW18058   1.640   6.723   4.828
 5720SOL    HW118059   1.557   6.667   4.827
 5720SOL    HW218060   1.660   6.751   4.922
 5721SOL     OW18061   5.879   4.243   0.814
 5721SOL    HW118062   5.811   4.185   0.770
 5721SOL    HW218063   5.898   4.321   0.754
 5722SOL     OW18064   6.897   2.388   5.421
 5722SOL    HW118065   6.898   2.488   5.419
 5722SOL    HW218066   6.987   2.354   5.393
 5723SOL     OW18067   4.199   3.972   0.128
 5723SOL    HW118068   4.237   3.906   0.192
 5723SOL    HW218069   4.272   4.027   0.088
 5724SOL     OW18070   6.022   2.929   3.384
 5724SOL    HW118071   5.965   2.876   3.321
 5724SOL    HW218072   5.964   2.987   3.441
 5725SOL     OW18073   6.404   5.067   4.372
 5725SOL    HW118074   6.448   4.994   4.320
 5725SOL    HW218075   6.445   5.072   4.464
 5726SOL     OW18076   6.139   5.094   4.058
 5726SOL    HW118077   6.227   5.068   4.017
 5726SOL    HW218078   6.132   5.054   4.149
 5727SOL     OW18079   0.181   2.392   4.929
 5727SOL    HW118080   0.257   2.402   4.994
 5727SOL    HW218081   0.218   2.388   4.836
 5728SOL     OW18082   5.388   5.931   5.190
 5728SOL    HW118083   5.478   5.967   5.211
 5728SOL    HW218084   5.389   5.891   5.098
 5729SOL     OW18085   1.151   2.386   6.021
 5729SOL    HW118086   1.096   2.325   6.077
 5729SOL    HW218087   1.206   2.446   6.079
 5730SOL     OW18088   6.411   4.189   6.489
 5730SOL    HW118089   6.510   4.201   6.488
 5730SOL    HW218090   6.383   4.141   6.572
 5731SOL     OW18091   6.797   0.092   1.995
 5731SOL    HW118092   6.785   0.127   2.088
 5731SOL    HW218093   6.767   0.162   1.930
 5732SOL     OW18094   1.323   6.795   3.296
 5732SOL    HW118095   1.387   6.738   3.348
 5732SOL    HW218096   1.266   6.736   3.238
 5733SOL     OW18097   4.106   6.667   5.357
 5733SOL    HW118098   4.154   6.749   5.327
 5733SOL    HW218099   4.104   6.664   5.457
 5734SOL     OW18100   1.328   6.788   4.859
 5734SOL    HW118101   1.354   6.773   4.763
 5734SOL    HW218102   1.242   6.739   4.877
 5735SOL     OW18103   3.176   1.363   1.112
 5735SOL    HW118104   3.095   1.311   1.085
 5735SOL    HW218105   3.246   1.300   1.145
 5736SOL     OW18106   0.227   4.188   0.125
 5736SOL    HW118107   0.144   4.161   0.075
 5736SOL    HW218108   0.307   4.167   0.070
 5737SOL     OW18109   5.642   6.411   6.661
 5737SOL    HW118110   5.599   6.345   6.723
 5737SOL    HW218111   5.584   6.422   6.579
 5738SOL     OW18112   1.339   3.507   6.696
 5738SOL    HW118113   1.411   3.481   6.761
 5738SOL    HW218114   1.305   3.426   6.649
 5739SOL     OW18115   1.542   1.167   6.585
 5739SOL    HW118116   1.522   1.103   6.659
 5739SOL    HW218117   1.641   1.180   6.578
 5740SOL     OW18118   4.533   5.905   0.278
 5740SOL    HW118119   4.477   5.962   0.219
 5740SOL    HW218120   4.555   5.955   0.362
 5741SOL     OW18121   6.872   5.855   4.527
 5741SOL    HW118122   6.932   5.883   4.451
 5741SOL    HW218123   6.861   5.756   4.526
 5742SOL     OW18124   5.312   6.591   2.229
 5742SOL    HW118125   5.393   6.565   2.280
 5742SOL    HW218126   5.287   6.517   2.166
 5743SOL     OW18127   2.683   6.963   4.692
 5743SOL    HW118128   2.601   6.991   4.743
 5743SOL    HW218129   2.762   7.016   4.724
 5744SOL     OW18130   4.890   0.958   0.314
 5744SOL    HW118131   4.847   0.952   0.224
 5744SOL    HW218132   4.829   0.918   0.383
 5745SOL     OW18133   1.854   1.810   4.644
 5745SOL    HW118134   1.807   1.723   4.626
 5745SOL    HW218135   1.916   1.830   4.568
 5746SOL     OW18136   4.770   1.014   0.069
 5746SOL    HW118137   4.764   1.013   6.994
 5746SOL    HW218138   4.792   1.106   0.100
 5747SOL     OW18139   0.292   5.448   3.028
 5747SOL    HW118140   0.345   5.482   2.950
 5747SOL    HW218141   0.194   5.455   3.007
 5748SOL     OW18142   2.002   4.842   1.939
 5748SOL    HW118143   2.100   4.855   1.929
 5748SOL    HW218144   1.978   4.748   1.913
 5749SOL     OW18145   1.995   1.292   4.391
 5749SOL    HW118146   2.065   1.278   4.321
 5749SOL    HW218147   1.927   1.357   4.357
 5750SOL     OW18148   6.050   5.200   4.804
 5750SOL    HW118149   6.089   5.184   4.895
 5750SOL    HW218150   6.073   5.293   4.775
 5751SOL     OW18151   2.215   2.838   5.144
 5751SOL    HW118152   2.285   2.872   5.081
 5751SOL    HW218153   2.251   2.837   5.237
 5752SOL     OW18154   6.520   0.595   5.771
 5752SOL    HW118155   6.590   0.666   5.763
 5752SOL    HW218156   6.530   0.529   5.696
 5753SOL     OW18157   3.409   2.973   6.580
 5753SOL    HW118158   3.348   3.030   6.634
 5753SOL    HW218159   3.438   3.024   6.499
 5754SOL     OW18160   5.879   5.328   2.301
 5754SOL    HW118161   5.874   5.346   2.203
 5754SOL    HW218162   5.843   5.236   2.319
 5755SOL     OW18163   2.994   3.546   6.458
 5755SOL    HW118164   2.931   3.545   6.536
 5755SOL    HW218165   3.069   3.609   6.477
 5756SOL     OW18166   6.728   4.729   3.389
 5756SOL    HW118167   6.717   4.670   3.470
 5756SOL    HW218168   6.683   4.686   3.311
 5757SOL     OW18169   6.274   5.866   1.339
 5757SOL    HW118170   6.335   5.787   1.347
 5757SOL    HW218171   6.221   5.858   1.254
 5758SOL     OW18172   2.696   2.259   4.910
 5758SOL    HW118173   2.780   2.213   4.881
 5758SOL    HW218174   2.694   2.266   5.010
 5759SOL     OW18175   5.059   2.319   6.196
 5759SOL    HW118176   5.117   2.323   6.115
 5759SOL    HW218177   5.108   2.355   6.275
 5760SOL     OW18178   1.728   6.189   2.381
 5760SOL    HW118179   1.751   6.263   2.444
 5760SOL    HW218180   1.770   6.104   2.413
 5761SOL     OW18181   5.766   0.312   4.741
 5761SOL    HW118182   5.815   0.337   4.658
 5761SOL    HW218183   5.814   0.239   4.788
 5762SOL     OW18184   5.513   6.913   0.460
 5762SOL    HW118185   5.580   6.906   0.534
 5762SOL    HW218186   5.489   7.009   0.446
 5763SOL     OW18187   1.027   6.757   0.394
 5763SOL    HW118188   1.125   6.777   0.390
 5763SOL    HW218189   0.977   6.838   0.422
 5764SOL     OW18190   5.823   4.491   5.441
 5764SOL    HW118191   5.917   4.513   5.466
 5764SOL    HW218192   5.814   4.495   5.341
 5765SOL     OW18193   6.312   4.051   6.703
 5765SOL    HW118194   6.363   4.095   6.777
 5765SOL    HW218195   6.320   3.952   6.711
 5766SOL     OW18196   3.440   1.263   1.979
 5766SOL    HW118197   3.385   1.333   1.933
 5766SOL    HW218198   3.449   1.286   2.076
 5767SOL     OW18199   1.189   6.001   0.697
 5767SOL    HW118200   1.203   5.982   0.600
 5767SOL    HW218201   1.144   5.923   0.740
 5768SOL     OW18202   6.946   0.645   3.240
 5768SOL    HW118203   6.875   0.578   3.219
 5768SOL    HW218204   6.947   0.716   3.169
 5769SOL     OW18205   2.556   6.216   3.054
 5769SOL    HW118206   2.600   6.303   3.079
 5769SOL    HW218207   2.555   6.155   3.133
 5770SOL     OW18208   0.201   6.678   0.971
 5770SOL    HW118209   0.266   6.687   1.047
 5770SOL    HW218210   0.230   6.737   0.895
 5771SOL     OW18211   1.373   0.685   1.207
 5771SOL    HW118212   1.355   0.630   1.126
 5771SOL    HW218213   1.368   0.626   1.288
 5772SOL     OW18214   5.938   2.645   0.557
 5772SOL    HW118215   6.002   2.677   0.487
 5772SOL    HW218216   5.959   2.551   0.582
 5773SOL     OW18217   5.714   6.744   3.800
 5773SOL    HW118218   5.770   6.673   3.841
 5773SOL    HW218219   5.655   6.784   3.870
 5774SOL     OW18220   2.437   4.430   3.421
 5774SOL    HW118221   2.392   4.512   3.457
 5774SOL    HW218222   2.420   4.422   3.323
 5775SOL     OW18223   6.958   0.225   0.498
 5775SOL    HW118224   6.985   0.161   0.569
 5775SOL    HW218225   6.918   0.175   0.421
 5776SOL     OW18226   5.252   0.587   6.312
 5776SOL    HW118227   5.349   0.590   6.333
 5776SOL    HW218228   5.199   0.610   6.393
 5777SOL     OW18229   6.397   0.677   4.251
 5777SOL    HW118230   6.420   0.583   4.227
 5777SOL    HW218231   6.360   0.680   4.344
 5778SOL     OW18232   1.526   7.005   2.512
 5778SOL    HW118233   1.498   6.929   2.453
 5778SOL    HW218234   1.453   0.001   2.577
 5779SOL     OW18235   3.887   1.063   1.482
 5779SOL    HW118236   3.894   1.048   1.383
 5779SOL    HW218237   3.918   0.981   1.530
 5780SOL     OW18238   6.836   4.328   1.803
 5780SOL    HW118239   6.798   4.237   1.785
 5780SOL    HW218240   6.884   4.361   1.722
 5781SOL     OW18241   1.765   4.129   4.929
 5781SOL    HW118242   1.733   4.223   4.928
 5781SOL    HW218243   1.736   4.084   5.014
 5782SOL     OW18244   1.941   1.162   1.550
 5782SOL    HW118245   2.022   1.187   1.497
 5782SOL    HW218246   1.862   1.154   1.489
 5783SOL     OW18247   1.463   0.030   0.886
 5783SOL    HW118248   1.416   0.072   0.808
 5783SOL    HW218249   1.446   6.956   0.885
 5784SOL     OW18250   0.799   6.345   6.789
 5784SOL    HW118251   0.793   6.424   6.850
 5784SOL    HW218252   0.725   6.281   6.811
 5785SOL     OW18253   1.347   0.962   1.205
 5785SOL    HW118254   1.331   0.993   1.111
 5785SOL    HW218255   1.327   0.864   1.211
 5786SOL     OW18256   1.740   3.434   1.549
 5786SOL    HW118257   1.681   3.372   1.498
 5786SOL    HW218258   1.827   3.388   1.568
 5787SOL     OW18259   6.026   2.571   4.818
 5787SOL    HW118260   6.042   2.642   4.887
 5787SOL    HW218261   6.086   2.493   4.836
 5788SOL     OW18262   3.310   0.855   2.129
 5788SOL    HW118263   3.282   0.760   2.141
 5788SOL    HW218264   3.310   0.901   2.217
 5789SOL     OW18265   3.751   3.939   0.323
 5789SOL    HW118266   3.705   4.007   0.265
 5789SOL    HW218267   3.683   3.875   0.359
 5790SOL     OW18268   5.707   5.382   4.685
 5790SOL    HW118269   5.622   5.380   4.736
 5790SOL    HW218270   5.691   5.422   4.595
 5791SOL     OW18271   3.666   1.335   2.797
 5791SOL    HW118272   3.751   1.385   2.812
 5791SOL    HW218273   3.589   1.392   2.824
 5792SOL     OW18274   4.855   3.771   2.921
 5792SOL    HW118275   4.838   3.863   2.956
 5792SOL    HW218276   4.845   3.705   2.995
 5793SOL     OW18277   5.930   2.502   5.426
 5793SOL    HW118278   5.909   2.596   5.454
 5793SOL    HW218279   5.846   2.455   5.402
 5794SOL     OW18280   2.863   6.714   5.532
 5794SOL    HW118281   2.901   6.700   5.623
 5794SOL    HW218282   2.935   6.701   5.463
 5795SOL     OW18283   0.819   4.963   1.694
 5795SOL    HW118284   0.909   4.920   1.696
 5795SOL    HW218285   0.760   4.913   1.629
 5796SOL     OW18286   4.244   1.353   5.987
 5796SOL    HW118287   4.156   1.339   6.033
 5796SOL    HW218288   4.310   1.392   6.051
 5797SOL     OW18289   4.903   1.936   6.760
 5797SOL    HW118290   4.884   1.838   6.761
 5797SOL    HW218291   4.827   1.984   6.716
 5798SOL     OW18292   1.293   3.601   5.086
 5798SOL    HW118293   1.277   3.698   5.099
 5798SOL    HW218294   1.214   3.560   5.040
 5799SOL     OW18295   1.737   6.805   2.958
 5799SOL    HW118296   1.792   6.725   2.932
 5799SOL    HW218297   1.659   6.813   2.897
 5800SOL     OW18298   0.251   6.817   0.734
 5800SOL    HW118299   0.213   6.778   0.650
 5800SOL    HW218300   0.302   6.900   0.711
 5801SOL     OW18301   2.215   2.878   2.133
 5801SOL    HW118302   2.280   2.919   2.197
 5801SOL    HW218303   2.263   2.812   2.075
 5802SOL     OW18304   6.661   1.754   2.740
 5802SOL    HW118305   6.660   1.693   2.660
 5802SOL    HW218306   6.742   1.735   2.795
 5803SOL     OW18307   1.178   5.611   4.621
 5803SOL    HW118308   1.143   5.608   4.527
 5803SOL    HW218309   1.218   5.701   4.638
 5804SOL     OW18310   5.916   6.598   3.554
 5804SOL    HW118311   5.985   6.557   3.495
 5804SOL    HW218312   5.957   6.620   3.643
 5805SOL     OW18313   2.301   3.276   0.704
 5805SOL    HW118314   2.276   3.355   0.648
 5805SOL    HW218315   2.295   3.300   0.801
 5806SOL     OW18316   0.614   2.943   3.270
 5806SOL    HW118317   0.704   2.932   3.227
 5806SOL    HW218318   0.559   3.005   3.215
 5807SOL     OW18319   1.018   6.342   0.124
 5807SOL    HW118320   1.099   6.361   0.180
 5807SOL    HW218321   1.042   6.350   0.027
 5808SOL     OW18322   6.089   0.579   4.177
 5808SOL    HW118323   6.045   0.662   4.209
 5808SOL    HW218324   6.188   0.586   4.192
 5809SOL     OW18325   0.241   2.612   6.083
 5809SOL    HW118326   0.247   2.521   6.122
 5809SOL    HW218327   0.297   2.675   6.137
 5810SOL     OW18328   4.123   6.760   4.507
 5810SOL    HW118329   4.150   6.711   4.424
 5810SOL    HW218330   4.078   6.846   4.481
 5811SOL     OW18331   3.275   3.262   6.151
 5811SOL    HW118332   3.348   3.200   6.122
 5811SOL    HW218333   3.233   3.227   6.234
 5812SOL     OW18334   5.941   3.060   0.867
 5812SOL    HW118335   6.037   3.033   0.866
 5812SOL    HW218336   5.890   3.005   0.802
 5813SOL     OW18337   4.795   6.323   0.986
 5813SOL    HW118338   4.862   6.395   0.968
 5813SOL    HW218339   4.818   6.276   1.071
 5814SOL     OW18340   5.642   1.770   2.263
 5814SOL    HW118341   5.549   1.757   2.296
 5814SOL    HW218342   5.674   1.862   2.288
 5815SOL     OW18343   6.847   1.018   4.079
 5815SOL    HW118344   6.806   0.965   4.006
 5815SOL    HW218345   6.846   0.965   4.164
 5816SOL     OW18346   7.021   4.026   3.154
 5816SOL    HW118347   6.980   3.947   3.109
 5816SOL    HW218348   0.049   3.994   3.234
 5817SOL     OW18349   5.397   4.075   4.291
 5817SOL    HW118350   5.483   4.024   4.291
 5817SOL    HW218351   5.359   4.075   4.198
 5818SOL     OW18352   1.879   0.100   4.652
 5818SOL    HW118353   1.887   0.144   4.563
 5818SOL    HW218354   1.914   0.160   4.723
 5819SOL     OW18355   4.303   4.859   6.788
 5819SOL    HW118356   4.363   4.889   6.862
 5819SOL    HW218357   4.345   4.781   6.742
 5820SOL     OW18358   6.079   5.045   2.556
 5820SOL    HW118359   6.018   4.977   2.516
 5820SOL    HW218360   6.025   5.115   2.603
 5821SOL     OW18361   6.528   0.677   1.399
 5821SOL    HW118362   6.575   0.765   1.397
 5821SOL    HW218363   6.433   0.689   1.374
 5822SOL     OW18364   1.439   2.922   2.438
 5822SOL    HW118365   1.444   2.864   2.356
 5822SOL    HW218366   1.350   2.968   2.440
 5823SOL     OW18367   2.022   6.310   3.502
 5823SOL    HW118368   2.112   6.273   3.477
 5823SOL    HW218369   1.952   6.268   3.444
 5824SOL     OW18370   1.139   0.495   2.375
 5824SOL    HW118371   1.209   0.559   2.408
 5824SOL    HW218372   1.184   0.415   2.335
 5825SOL     OW18373   6.439   0.427   4.134
 5825SOL    HW118374   6.384   0.344   4.142
 5825SOL    HW218375   6.436   0.460   4.040
 5826SOL     OW18376   0.477   6.689   5.022
 5826SOL    HW118377   0.490   6.736   4.935
 5826SOL    HW218378   0.511   6.745   5.097
 5827SOL     OW18379   2.040   4.440   5.178
 5827SOL    HW118380   2.045   4.496   5.261
 5827SOL    HW218381   1.999   4.493   5.104
 5828SOL     OW18382   4.616   0.128   4.113
 5828SOL    HW118383   4.543   0.127   4.045
 5828SOL    HW218384   4.597   0.060   4.184
 5829SOL     OW18385   2.408   0.618   3.713
 5829SOL    HW118386   2.311   0.594   3.722
 5829SOL    HW218387   2.422   0.670   3.629
 5830SOL     OW18388   3.812   5.735   4.918
 5830SOL    HW118389   3.839   5.720   4.822
 5830SOL    HW218390   3.836   5.829   4.944
 5831SOL     OW18391   1.572   1.242   5.463
 5831SOL    HW118392   1.507   1.272   5.393
 5831SOL    HW218393   1.525   1.233   5.550
 5832SOL     OW18394   3.450   5.023   1.095
 5832SOL    HW118395   3.360   5.001   1.132
 5832SOL    HW218396   3.500   5.082   1.158
 5833SOL     OW18397   3.831   3.576   5.710
 5833SOL    HW118398   3.869   3.633   5.637
 5833SOL    HW218399   3.901   3.512   5.742
 5834SOL     OW18400   6.357   4.582   7.012
 5834SOL    HW118401   6.440   4.625   6.977
 5834SOL    HW218402   6.277   4.631   6.978
 5835SOL     OW18403   5.683   1.020   2.382
 5835SOL    HW118404   5.708   0.937   2.331
 5835SOL    HW218405   5.590   1.046   2.357
 5836SOL     OW18406   4.691   0.030   1.630
 5836SOL    HW118407   4.691   6.955   1.624
 5836SOL    HW218408   4.697   0.057   1.727
 5837SOL     OW18409   3.337   4.358   0.220
 5837SOL    HW118410   3.348   4.435   0.283
 5837SOL    HW218411   3.245   4.319   0.231
 5838SOL     OW18412   2.651   1.922   1.288
 5838SOL    HW118413   2.609   2.007   1.320
 5838SOL    HW218414   2.750   1.934   1.281
 5839SOL     OW18415   1.550   2.367   1.747
 5839SOL    HW118416   1.618   2.391   1.815
 5839SOL    HW218417   1.493   2.292   1.782
 5840SOL     OW18418   0.744   2.991   2.136
 5840SOL    HW118419   0.742   3.033   2.046
 5840SOL    HW218420   0.682   3.038   2.197
 5841SOL     OW18421   4.646   1.452   0.266
 5841SOL    HW118422   4.728   1.405   0.232
 5841SOL    HW218423   4.583   1.386   0.306
 5842SOL     OW18424   3.094   1.270   0.751
 5842SOL    HW118425   3.099   1.181   0.796
 5842SOL    HW218426   3.121   1.260   0.655
 5843SOL     OW18427   1.620   3.320   1.302
 5843SOL    HW118428   1.561   3.244   1.274
 5843SOL    HW218429   1.715   3.294   1.289
 5844SOL     OW18430   0.957   0.642   5.024
 5844SOL    HW118431   1.051   0.646   4.991
 5844SOL    HW218432   0.895   0.634   4.946
 5845SOL     OW18433   0.751   5.974   1.947
 5845SOL    HW118434   0.708   6.028   1.875
 5845SOL    HW218435   0.760   6.029   2.030
 5846SOL     OW18436   6.317   3.674   5.888
 5846SOL    HW118437   6.338   3.614   5.965
 5846SOL    HW218438   6.396   3.734   5.870
 5847SOL     OW18439   2.800   3.054   0.646
 5847SOL    HW118440   2.895   3.026   0.634
 5847SOL    HW218441   2.743   2.973   0.665
 5848SOL     OW18442   1.548   6.010   3.878
 5848SOL    HW118443   1.613   5.934   3.872
 5848SOL    HW218444   1.596   6.093   3.905
 5849SOL     OW18445   2.259   6.314   5.570
 5849SOL    HW118446   2.298   6.405   5.584
 5849SOL    HW218447   2.219   6.309   5.479
 5850SOL     OW18448   1.660   2.053   1.765
 5850SOL    HW118449   1.712   2.072   1.681
 5850SOL    HW218450   1.563   2.050   1.744
 5851SOL     OW18451   5.596   3.090   4.603
 5851SOL    HW118452   5.592   3.159   4.531
 5851SOL    HW218453   5.510   3.039   4.605
 5852SOL     OW18454   5.015   5.104   3.357
 5852SOL    HW118455   4.963   5.055   3.287
 5852SOL    HW218456   5.081   5.042   3.398
 5853SOL     OW18457   3.785   5.067   5.807
 5853SOL    HW118458   3.743   5.046   5.718
 5853SOL    HW218459   3.849   5.142   5.797
 5854SOL     OW18460   2.511   4.890   6.011
 5854SOL    HW118461   2.609   4.873   6.010
 5854SOL    HW218462   2.461   4.804   6.004
 5855SOL     OW18463   2.006   2.571   3.710
 5855SOL    HW118464   2.062   2.635   3.762
 5855SOL    HW218465   1.939   2.621   3.656
 5856SOL     OW18466   1.939   0.169   2.881
 5856SOL    HW118467   1.944   0.084   2.933
 5856SOL    HW218468   1.843   0.197   2.871
 5857SOL     OW18469   0.547   3.871   6.394
 5857SOL    HW118470   0.529   3.885   6.297
 5857SOL    HW218471   0.632   3.917   6.420
 5858SOL     OW18472   1.845   1.935   2.958
 5858SOL    HW118473   1.772   1.989   2.916
 5858SOL    HW218474   1.807   1.883   3.035
 5859SOL     OW18475   6.112   0.236   2.730
 5859SOL    HW118476   6.059   0.203   2.807
 5859SOL    HW218477   6.059   0.227   2.646
 5860SOL     OW18478   6.986   3.283   3.949
 5860SOL    HW118479   0.030   3.332   3.895
 5860SOL    HW218480   0.006   3.229   4.019
 5861SOL     OW18481   6.053   1.359   4.803
 5861SOL    HW118482   6.017   1.378   4.894
 5861SOL    HW218483   6.061   1.260   4.790
 5862SOL     OW18484   7.003   5.386   2.971
 5862SOL    HW118485   6.965   5.295   2.949
 5862SOL    HW218486   7.012   5.439   2.887
 5863SOL     OW18487   3.476   0.104   4.986
 5863SOL    HW118488   3.443   0.195   4.963
 5863SOL    HW218489   3.532   0.069   4.910
 5864SOL     OW18490   3.156   3.973   3.206
 5864SOL    HW118491   3.072   4.026   3.210
 5864SOL    HW218492   3.193   3.975   3.114
 5865SOL     OW18493   6.055   0.982   5.449
 5865SOL    HW118494   5.981   0.916   5.449
 5865SOL    HW218495   6.125   0.954   5.382
 5866SOL     OW18496   4.016   3.095   2.035
 5866SOL    HW118497   4.080   3.021   2.057
 5866SOL    HW218498   4.024   3.167   2.104
 5867SOL     OW18499   2.518   2.148   1.422
 5867SOL    HW118500   2.574   2.102   1.491
 5867SOL    HW218501   2.489   2.238   1.456
 5868SOL     OW18502   0.410   1.511   6.211
 5868SOL    HW118503   0.454   1.534   6.298
 5868SOL    HW218504   0.406   1.411   6.201
 5869SOL     OW18505   0.988   4.649   4.160
 5869SOL    HW118506   0.962   4.552   4.155
 5869SOL    HW218507   1.026   4.678   4.072
 5870SOL     OW18508   4.470   4.776   5.194
 5870SOL    HW118509   4.399   4.795   5.262
 5870SOL    HW218510   4.502   4.863   5.155
 5871SOL     OW18511   2.967   3.327   3.577
 5871SOL    HW118512   3.065   3.346   3.579
 5871SOL    HW218513   2.933   3.337   3.484
 5872SOL     OW18514   4.471   6.518   2.205
 5872SOL    HW118515   4.467   6.482   2.298
 5872SOL    HW218516   4.422   6.605   2.201
 5873SOL     OW18517   3.733   5.043   3.363
 5873SOL    HW118518   3.674   4.991   3.302
 5873SOL    HW218519   3.823   5.055   3.320
 5874SOL     OW18520   2.117   3.887   5.684
 5874SOL    HW118521   2.082   3.977   5.709
 5874SOL    HW218522   2.118   3.878   5.584
 5875SOL     OW18523   3.411   1.740   0.103
 5875SOL    HW118524   3.435   1.755   0.008
 5875SOL    HW218525   3.409   1.828   0.151
 5876SOL     OW18526   3.860   2.967   1.869
 5876SOL    HW118527   3.917   3.021   1.931
 5876SOL    HW218528   3.764   2.993   1.881
 5877SOL     OW18529   6.055   5.832   1.075
 5877SOL    HW118530   5.966   5.815   1.032
 5877SOL    HW218531   6.074   5.930   1.075
 5878SOL     OW18532   1.765   4.950   2.701
 5878SOL    HW118533   1.762   5.048   2.683
 5878SOL    HW218534   1.857   4.916   2.683
 5879SOL     OW18535   6.182   3.845   0.214
 5879SOL    HW118536   6.131   3.915   0.263
 5879SOL    HW218537   6.141   3.831   0.123
 5880SOL     OW18538   2.896   6.834   1.398
 5880SOL    HW118539   2.820   6.841   1.462
 5880SOL    HW218540   2.893   6.746   1.351
 5881SOL     OW18541   0.722   4.705   3.754
 5881SOL    HW118542   0.679   4.615   3.764
 5881SOL    HW218543   0.654   4.776   3.771
 5882SOL     OW18544   5.260   0.712   1.074
 5882SOL    HW118545   5.284   0.809   1.085
 5882SOL    HW218546   5.334   0.664   1.027
 5883SOL     OW18547   6.489   2.762   6.581
 5883SOL    HW118548   6.588   2.764   6.584
 5883SOL    HW218549   6.456   2.673   6.613
 5884SOL     OW18550   0.955   1.077   3.413
 5884SOL    HW118551   1.019   1.010   3.376
 5884SOL    HW218552   0.908   1.124   3.338
 5885SOL     OW18553   6.821   6.809   1.162
 5885SOL    HW118554   6.866   6.745   1.224
 5885SOL    HW218555   6.748   6.858   1.210
 5886SOL     OW18556   0.516   2.666   5.276
 5886SOL    HW118557   0.535   2.722   5.357
 5886SOL    HW218558   0.601   2.624   5.245
 5887SOL     OW18559   3.352   0.920   4.217
 5887SOL    HW118560   3.275   0.875   4.263
 5887SOL    HW218561   3.321   0.957   4.129
 5888SOL     OW18562   1.709   6.472   2.997
 5888SOL    HW118563   1.699   6.505   2.904
 5888SOL    HW218564   1.628   6.419   3.023
 5889SOL     OW18565   2.301   0.377   1.051
 5889SOL    HW118566   2.337   0.470   1.039
 5889SOL    HW218567   2.342   0.316   0.983
 5890SOL     OW18568   1.433   6.277   5.087
 5890SOL    HW118569   1.388   6.210   5.146
 5890SOL    HW218570   1.373   6.300   5.010
 5891SOL     OW18571   4.245   3.174   6.986
 5891SOL    HW118572   4.306   3.220   6.921
 5891SOL    HW218573   4.192   3.243   0.011
 5892SOL     OW18574   1.002   5.862   1.313
 5892SOL    HW118575   0.959   5.907   1.391
 5892SOL    HW218576   1.098   5.888   1.308
 5893SOL     OW18577   1.367   2.915   3.414
 5893SOL    HW118578   1.386   3.013   3.406
 5893SOL    HW218579   1.446   2.869   3.453
 5894SOL     OW18580   1.730   4.476   3.671
 5894SOL    HW118581   1.814   4.436   3.708
 5894SOL    HW218582   1.747   4.570   3.643
 5895SOL     OW18583   5.355   2.695   4.553
 5895SOL    HW118584   5.427   2.682   4.484
 5895SOL    HW218585   5.346   2.612   4.607
 5896SOL     OW18586   3.935   2.730   6.467
 5896SOL    HW118587   4.005   2.757   6.533
 5896SOL    HW218588   3.920   2.631   6.472
 5897SOL     OW18589   4.051   0.337   1.166
 5897SOL    HW118590   3.957   0.313   1.189
 5897SOL    HW218591   4.056   0.435   1.146
 5898SOL     OW18592   1.413   0.017   1.329
 5898SOL    HW118593   1.326   7.015   1.370
 5898SOL    HW218594   1.397   0.078   1.252
 5899SOL     OW18595   5.840   6.966   5.103
 5899SOL    HW118596   5.906   6.912   5.156
 5899SOL    HW218597   5.887   7.016   5.031
 5900SOL     OW18598   5.002   4.716   3.033
 5900SOL    HW118599   5.058   4.741   2.954
 5900SOL    HW218600   4.917   4.673   3.002
 5901SOL     OW18601   2.146   6.494   6.661
 5901SOL    HW118602   2.123   6.480   6.565
 5901SOL    HW218603   2.228   6.551   6.668
 5902SOL     OW18604   6.814   2.360   0.843
 5902SOL    HW118605   6.718   2.379   0.863
 5902SOL    HW218606   6.867   2.360   0.928
 5903SOL     OW18607   5.848   4.544   0.323
 5903SOL    HW118608   5.865   4.641   0.307
 5903SOL    HW218609   5.768   4.515   0.269
 5904SOL     OW18610   0.384   3.491   2.265
 5904SOL    HW118611   0.345   3.401   2.247
 5904SOL    HW218612   0.405   3.498   2.363
 5905SOL     OW18613   6.849   6.514   2.904
 5905SOL    HW118614   6.919   6.497   2.973
 5905SOL    HW218615   6.892   6.517   2.813
 5906SOL     OW18616   5.492   0.911   4.195
 5906SOL    HW118617   5.490   1.003   4.157
 5906SOL    HW218618   5.453   0.847   4.129
 5907SOL     OW18619   1.284   6.417   0.998
 5907SOL    HW118620   1.353   6.375   0.938
 5907SOL    HW218621   1.217   6.466   0.942
 5908SOL     OW18622   0.622   2.153   5.586
 5908SOL    HW118623   0.689   2.201   5.529
 5908SOL    HW218624   0.532   2.159   5.544
 5909SOL     OW18625   1.062   6.069   0.189
 5909SOL    HW118626   1.031   6.159   0.156
 5909SOL    HW218627   1.157   6.055   0.161
 5910SOL     OW18628   1.050   2.789   3.295
 5910SOL    HW118629   1.051   2.689   3.282
 5910SOL    HW218630   1.126   2.829   3.242
 5911SOL     OW18631   6.774   5.537   6.437
 5911SOL    HW118632   6.807   5.630   6.449
 5911SOL    HW218633   6.727   5.529   6.349
 5912SOL     OW18634   6.317   1.530   5.544
 5912SOL    HW118635   6.404   1.509   5.590
 5912SOL    HW218636   6.265   1.594   5.600
 5913SOL     OW18637   5.612   2.806   0.348
 5913SOL    HW118638   5.615   2.830   0.251
 5913SOL    HW218639   5.592   2.888   0.402
 5914SOL     OW18640   0.698   6.748   6.227
 5914SOL    HW118641   0.685   6.799   6.312
 5914SOL    HW218642   0.619   6.762   6.167
 5915SOL     OW18643   3.030   6.754   0.121
 5915SOL    HW118644   2.940   6.767   0.163
 5915SOL    HW218645   3.087   6.698   0.181
 5916SOL     OW18646   1.093   6.515   1.849
 5916SOL    HW118647   1.129   6.427   1.818
 5916SOL    HW218648   1.146   6.589   1.809
 5917SOL     OW18649   3.167   4.091   6.372
 5917SOL    HW118650   3.214   4.043   6.298
 5917SOL    HW218651   3.073   4.113   6.344
 5918SOL     OW18652   2.340   5.845   5.769
 5918SOL    HW118653   2.254   5.883   5.736
 5918SOL    HW218654   2.400   5.920   5.798
 5919SOL     OW18655   3.145   3.583   3.459
 5919SOL    HW118656   3.192   3.515   3.515
 5919SOL    HW218657   3.085   3.537   3.394
 5920SOL     OW18658   5.554   1.003   5.938
 5920SOL    HW118659   5.527   0.969   6.028
 5920SOL    HW218660   5.600   1.091   5.948
 5921SOL     OW18661   3.877   4.771   6.991
 5921SOL    HW118662   3.966   4.791   0.006
 5921SOL    HW218663   3.816   4.850   7.005
 5922SOL     OW18664   6.410   4.021   3.839
 5922SOL    HW118665   6.322   4.061   3.815
 5922SOL    HW218666   6.476   4.041   3.767
 5923SOL     OW18667   6.194   0.968   1.328
 5923SOL    HW118668   6.227   0.952   1.421
 5923SOL    HW218669   6.230   1.055   1.294
 5924SOL     OW18670   5.217   6.649   2.951
 5924SOL    HW118671   5.138   6.663   3.010
 5924SOL    HW218672   5.280   6.726   2.959
 5925SOL     OW18673   4.071   5.647   1.416
 5925SOL    HW118674   4.112   5.638   1.325
 5925SOL    HW218675   4.079   5.742   1.446
 5926SOL     OW18676   4.122   4.897   3.487
 5926SOL    HW118677   4.079   4.829   3.428
 5926SOL    HW218678   4.164   4.969   3.432
 5927SOL     OW18679   1.782   4.040   2.093
 5927SOL    HW118680   1.702   4.076   2.045
 5927SOL    HW218681   1.806   3.951   2.054
 5928SOL     OW18682   4.462   0.212   0.989
 5928SOL    HW118683   4.382   0.256   0.948
 5928SOL    HW218684   4.435   0.128   1.034
 5929SOL     OW18685   6.524   0.407   5.562
 5929SOL    HW118686   6.425   0.414   5.547
 5929SOL    HW218687   6.570   0.396   5.474
 5930SOL     OW18688   1.342   2.828   1.150
 5930SOL    HW118689   1.393   2.785   1.076
 5930SOL    HW218690   1.248   2.792   1.151
 5931SOL     OW18691   5.631   6.167   2.714
 5931SOL    HW118692   5.689   6.190   2.636
 5931SOL    HW218693   5.651   6.074   2.745
 5932SOL     OW18694   3.356   0.078   6.734
 5932SOL    HW118695   3.390   0.161   6.691
 5932SOL    HW218696   3.259   0.089   6.757
 5933SOL     OW18697   0.046   5.908   4.350
 5933SOL    HW118698   0.142   5.889   4.369
 5933SOL    HW218699   0.025   5.883   4.255
 5934SOL     OW18700   3.522   3.931   5.642
 5934SOL    HW118701   3.585   3.972   5.708
 5934SOL    HW218702   3.548   3.836   5.625
 5935SOL     OW18703   0.249   5.924   5.451
 5935SOL    HW118704   0.244   5.876   5.538
 5935SOL    HW218705   0.243   5.859   5.376
 5936SOL     OW18706   3.055   3.005   2.401
 5936SOL    HW118707   3.040   3.039   2.308
 5936SOL    HW218708   2.995   2.928   2.419
 5937SOL     OW18709   0.054   2.113   2.269
 5937SOL    HW118710   6.988   2.085   2.236
 5937SOL    HW218711   0.047   2.205   2.308
 5938SOL     OW18712   5.843   5.455   4.930
 5938SOL    HW118713   5.859   5.380   4.994
 5938SOL    HW218714   5.805   5.419   4.845
 5939SOL     OW18715   3.815   6.362   4.236
 5939SOL    HW118716   3.755   6.297   4.282
 5939SOL    HW218717   3.904   6.319   4.218
 5940SOL     OW18718   4.809   5.197   3.025
 5940SOL    HW118719   4.862   5.221   2.944
 5940SOL    HW218720   4.826   5.102   3.050
 5941SOL     OW18721   6.219   2.461   2.423
 5941SOL    HW118722   6.188   2.458   2.328
 5941SOL    HW218723   6.256   2.552   2.443
 5942SOL     OW18724   6.306   3.124   5.618
 5942SOL    HW118725   6.299   3.173   5.705
 5942SOL    HW218726   6.267   3.181   5.545
 5943SOL     OW18727   4.322   3.840   0.403
 5943SOL    HW118728   4.341   3.747   0.433
 5943SOL    HW218729   4.398   3.872   0.346
 5944SOL     OW18730   0.850   2.622   6.892
 5944SOL    HW118731   0.777   2.633   6.824
 5944SOL    HW218732   0.838   2.536   6.941
 5945SOL     OW18733   0.751   6.151   4.942
 5945SOL    HW118734   0.723   6.073   4.886
 5945SOL    HW218735   0.846   6.138   4.971
 5946SOL     OW18736   3.603   4.622   6.590
 5946SOL    HW118737   3.524   4.681   6.608
 5946SOL    HW218738   3.660   4.616   6.672
 5947SOL     OW18739   3.020   3.122   4.498
 5947SOL    HW118740   3.103   3.087   4.454
 5947SOL    HW218741   2.943   3.064   4.474
 5948SOL     OW18742   4.739   4.264   2.245
 5948SOL    HW118743   4.814   4.207   2.214
 5948SOL    HW218744   4.671   4.272   2.171
 5949SOL     OW18745   5.584   5.357   1.299
 5949SOL    HW118746   5.643   5.317   1.229
 5949SOL    HW218747   5.628   5.349   1.388
 5950SOL     OW18748   5.222   2.363   5.440
 5950SOL    HW118749   5.317   2.330   5.438
 5950SOL    HW218750   5.213   2.441   5.379
 5951SOL     OW18751   0.652   5.350   5.066
 5951SOL    HW118752   0.605   5.383   4.984
 5951SOL    HW218753   0.744   5.390   5.070
 5952SOL     OW18754   4.131   5.211   2.367
 5952SOL    HW118755   4.117   5.118   2.331
 5952SOL    HW218756   4.198   5.208   2.441
 5953SOL     OW18757   6.274   3.289   4.771
 5953SOL    HW118758   6.205   3.295   4.843
 5953SOL    HW218759   6.336   3.213   4.791
 5954SOL     OW18760   0.264   5.428   5.661
 5954SOL    HW118761   0.244   5.330   5.663
 5954SOL    HW218762   0.339   5.447   5.725
 5955SOL     OW18763   4.709   4.983   1.510
 5955SOL    HW118764   4.629   4.923   1.511
 5955SOL    HW218765   4.786   4.934   1.469
 5956SOL     OW18766   5.427   2.374   4.351
 5956SOL    HW118767   5.443   2.275   4.357
 5956SOL    HW218768   5.332   2.394   4.375
 5957SOL     OW18769   1.456   1.100   3.067
 5957SOL    HW118770   1.503   1.063   2.987
 5957SOL    HW218771   1.359   1.109   3.048
 5958SOL     OW18772   3.866   0.171   3.057
 5958SOL    HW118773   3.863   0.234   2.980
 5958SOL    HW218774   3.772   0.145   3.083
 5959SOL     OW18775   4.784   2.307   5.706
 5959SOL    HW118776   4.726   2.328   5.785
 5959SOL    HW218777   4.774   2.378   5.637
 5960SOL     OW18778   3.142   6.385   4.738
 5960SOL    HW118779   3.145   6.286   4.752
 5960SOL    HW218780   3.046   6.415   4.734
 5961SOL     OW18781   4.056   1.923   2.291
 5961SOL    HW118782   4.131   1.911   2.226
 5961SOL    HW218783   3.999   2.000   2.263
 5962SOL     OW18784   4.988   6.130   6.250
 5962SOL    HW118785   4.937   6.202   6.203
 5962SOL    HW218786   5.070   6.169   6.292
 5963SOL     OW18787   3.266   4.464   6.510
 5963SOL    HW118788   3.212   4.473   6.594
 5963SOL    HW218789   3.329   4.387   6.520
 5964SOL     OW18790   2.601   6.827   2.905
 5964SOL    HW118791   2.649   6.915   2.914
 5964SOL    HW218792   2.507   6.837   2.937
 5965SOL     OW18793   1.895   0.488   6.730
 5965SOL    HW118794   1.846   0.421   6.674
 5965SOL    HW218795   1.952   0.545   6.671
 5966SOL     OW18796   1.855   0.029   5.543
 5966SOL    HW118797   1.806   0.050   5.459
 5966SOL    HW218798   1.832   0.096   5.613
 5967SOL     OW18799   2.619   2.133   5.378
 5967SOL    HW118800   2.678   2.133   5.458
 5967SOL    HW218801   2.670   2.163   5.298
 5968SOL     OW18802   5.472   2.319   0.040
 5968SOL    HW118803   5.419   2.243   0.077
 5968SOL    HW218804   5.484   2.389   0.110
 5969SOL     OW18805   4.972   0.326   6.689
 5969SOL    HW118806   5.037   0.396   6.662
 5969SOL    HW218807   4.879   0.363   6.683
 5970SOL     OW18808   0.323   4.163   0.853
 5970SOL    HW118809   0.295   4.233   0.787
 5970SOL    HW218810   0.422   4.156   0.853
 5971SOL     OW18811   5.829   0.301   2.161
 5971SOL    HW118812   5.771   0.362   2.215
 5971SOL    HW218813   5.772   0.255   2.092
 5972SOL     OW18814   5.317   5.119   6.749
 5972SOL    HW118815   5.356   5.085   6.835
 5972SOL    HW218816   5.232   5.168   6.768
 5973SOL     OW18817   2.123   3.402   2.505
 5973SOL    HW118818   2.136   3.305   2.526
 5973SOL    HW218819   2.115   3.413   2.406
 5974SOL     OW18820   4.434   0.880   0.148
 5974SOL    HW118821   4.519   0.833   0.173
 5974SOL    HW218822   4.356   0.821   0.166
 5975SOL     OW18823   4.937   5.111   1.085
 5975SOL    HW118824   5.019   5.163   1.109
 5975SOL    HW218825   4.962   5.017   1.063
 5976SOL     OW18826   3.529   3.476   5.869
 5976SOL    HW118827   3.503   3.380   5.882
 5976SOL    HW218828   3.515   3.502   5.774
 5977SOL     OW18829   0.851   5.484   0.089
 5977SOL    HW118830   0.847   5.566   0.146
 5977SOL    HW218831   0.762   5.469   0.046
 5978SOL     OW18832   3.643   5.274   0.429
 5978SOL    HW118833   3.694   5.306   0.350
 5978SOL    HW218834   3.701   5.277   0.510
 5979SOL     OW18835   6.274   0.492   2.401
 5979SOL    HW118836   6.185   0.458   2.370
 5979SOL    HW218837   6.324   0.531   2.324
 5980SOL     OW18838   3.249   2.896   2.055
 5980SOL    HW118839   3.331   2.947   2.027
 5980SOL    HW218840   3.233   2.822   1.990
 5981SOL     OW18841   4.940   2.274   0.306
 5981SOL    HW118842   5.024   2.266   0.251
 5981SOL    HW218843   4.901   2.183   0.320
 5982SOL     OW18844   5.712   2.322   2.130
 5982SOL    HW118845   5.630   2.334   2.185
 5982SOL    HW218846   5.702   2.239   2.074
 5983SOL     OW18847   0.874   0.774   4.152
 5983SOL    HW118848   0.928   0.737   4.076
 5983SOL    HW218849   0.789   0.814   4.117
 5984SOL     OW18850   5.631   6.774   3.535
 5984SOL    HW118851   5.686   6.735   3.609
 5984SOL    HW218852   5.655   6.729   3.448
 5985SOL     OW18853   6.402   2.179   3.854
 5985SOL    HW118854   6.413   2.143   3.946
 5985SOL    HW218855   6.435   2.274   3.850
 5986SOL     OW18856   4.368   3.778   5.627
 5986SOL    HW118857   4.403   3.757   5.536
 5986SOL    HW218858   4.437   3.758   5.696
 5987SOL     OW18859   6.535   0.996   4.350
 5987SOL    HW118860   6.466   0.934   4.387
 5987SOL    HW218861   6.580   0.954   4.272
 5988SOL     OW18862   3.218   1.093   6.690
 5988SOL    HW118863   3.234   0.995   6.678
 5988SOL    HW218864   3.244   1.141   6.606
 5989SOL     OW18865   1.622   5.462   6.147
 5989SOL    HW118866   1.558   5.455   6.224
 5989SOL    HW218867   1.709   5.418   6.172
 5990SOL     OW18868   4.247   3.947   1.148
 5990SOL    HW118869   4.246   3.901   1.059
 5990SOL    HW218870   4.153   3.970   1.175
 5991SOL     OW18871   4.415   5.661   0.172
 5991SOL    HW118872   4.345   5.646   0.242
 5991SOL    HW218873   4.459   5.750   0.187
 5992SOL     OW18874   3.113   0.299   2.461
 5992SOL    HW118875   3.207   0.323   2.435
 5992SOL    HW218876   3.106   0.200   2.473
 5993SOL     OW18877   6.277   3.757   6.741
 5993SOL    HW118878   6.298   3.719   6.831
 5993SOL    HW218879   6.179   3.777   6.735
 5994SOL     OW18880   7.012   3.257   0.879
 5994SOL    HW118881   6.999   3.182   0.944
 5994SOL    HW218882   6.925   3.280   0.836
 5995SOL     OW18883   4.308   3.245   1.685
 5995SOL    HW118884   4.386   3.305   1.705
 5995SOL    HW218885   4.229   3.301   1.660
 5996SOL     OW18886   2.203   5.892   1.225
 5996SOL    HW118887   2.241   5.966   1.170
 5996SOL    HW218888   2.269   5.865   1.295
 5997SOL     OW18889   0.048   6.992   3.341
 5997SOL    HW118890   0.118   0.002   3.278
 5997SOL    HW218891   6.984   6.993   3.295
 5998SOL     OW18892   5.609   0.332   1.557
 5998SOL    HW118893   5.572   0.414   1.514
 5998SOL    HW218894   5.584   0.330   1.653
 5999SOL     OW18895   3.984   2.922   1.278
 5999SOL    HW118896   4.012   2.848   1.217
 5999SOL    HW218897   4.052   2.933   1.350
 6000SOL     OW18898   0.250   5.958   0.147
 6000SOL    HW118899   0.231   5.910   0.062
 6000SOL    HW218900   0.348   5.949   0.169
 6001SOL     OW18901   5.520   6.073   6.314
 6001SOL    HW118902   5.576   6.087   6.396
 6001SOL    HW218903   5.565   6.117   6.236
 6002SOL     OW18904   0.110   0.040   4.949
 6002SOL    HW118905   0.040   0.038   5.019
 6002SOL    HW218906   0.080   0.098   4.873
 6003SOL     OW18907   6.539   2.667   4.807
 6003SOL    HW118908   6.547   2.719   4.722
 6003SOL    HW218909   6.612   2.600   4.812
 6004SOL     OW18910   5.591   2.328   3.237
 6004SOL    HW118911   5.619   2.387   3.313
 6004SOL    HW218912   5.518   2.373   3.185
 6005SOL     OW18913   5.701   4.625   5.185
 6005SOL    HW118914   5.621   4.610   5.243
 6005SOL    HW218915   5.671   4.663   5.097
 6006SOL     OW18916   3.503   0.005   5.240
 6006SOL    HW118917   3.494   0.068   5.163
 6006SOL    HW218918   3.587   0.024   5.289
 6007SOL     OW18919   6.899   3.575   6.983
 6007SOL    HW118920   6.800   3.571   6.970
 6007SOL    HW218921   6.920   3.623   0.044
 6008SOL     OW18922   2.273   4.418   5.597
 6008SOL    HW118923   2.174   4.405   5.590
 6008SOL    HW218924   2.305   4.472   5.519
 6009SOL     OW18925   5.009   5.829   3.295
 6009SOL    HW118926   4.921   5.842   3.251
 6009SOL    HW218927   5.072   5.782   3.233
 6010SOL     OW18928   0.302   4.011   4.192
 6010SOL    HW118929   0.376   3.950   4.164
 6010SOL    HW218930   0.333   4.068   4.268
 6011SOL     OW18931   4.774   2.381   2.547
 6011SOL    HW118932   4.697   2.324   2.521
 6011SOL    HW218933   4.816   2.420   2.466
 6012SOL     OW18934   5.722   0.604   6.608
 6012SOL    HW118935   5.658   0.538   6.648
 6012SOL    HW218936   5.810   0.598   6.656
 6013SOL     OW18937   4.885   1.300   2.634
 6013SOL    HW118938   4.924   1.382   2.676
 6013SOL    HW218939   4.877   1.228   2.702
 6014SOL     OW18940   3.427   3.306   3.876
 6014SOL    HW118941   3.398   3.238   3.809
 6014SOL    HW218942   3.370   3.388   3.867
 6015SOL     OW18943   5.934   2.936   4.438
 6015SOL    HW118944   5.957   3.012   4.499
 6015SOL    HW218945   5.951   2.963   4.343
 6016SOL     OW18946   4.756   1.972   5.548
 6016SOL    HW118947   4.786   2.059   5.586
 6016SOL    HW218948   4.778   1.969   5.450
 6017SOL     OW18949   0.539   3.955   4.593
 6017SOL    HW118950   0.443   3.974   4.571
 6017SOL    HW218951   0.597   4.024   4.550
 6018SOL     OW18952   3.305   1.240   4.256
 6018SOL    HW118953   3.393   1.287   4.261
 6018SOL    HW218954   3.303   1.182   4.176
 6019SOL     OW18955   1.109   4.025   5.828
 6019SOL    HW118956   1.106   3.927   5.810
 6019SOL    HW218957   1.094   4.042   5.925
 6020SOL     OW18958   0.989   4.868   0.962
 6020SOL    HW118959   1.067   4.877   1.025
 6020SOL    HW218960   0.907   4.904   1.006
 6021SOL     OW18961   4.662   0.242   2.841
 6021SOL    HW118962   4.688   0.290   2.757
 6021SOL    HW218963   4.738   0.245   2.906
 6022SOL     OW18964   6.464   2.163   3.288
 6022SOL    HW118965   6.406   2.096   3.334
 6022SOL    HW218966   6.489   2.128   3.197
 6023SOL     OW18967   5.344   0.230   1.390
 6023SOL    HW118968   5.329   0.323   1.355
 6023SOL    HW218969   5.438   0.202   1.369
 6024SOL     OW18970   0.609   4.819   0.635
 6024SOL    HW118971   0.615   4.770   0.722
 6024SOL    HW218972   0.563   4.763   0.567
 6025SOL     OW18973   2.656   1.461   3.488
 6025SOL    HW118974   2.693   1.524   3.557
 6025SOL    HW218975   2.665   1.367   3.521
 6026SOL     OW18976   6.363   4.636   4.602
 6026SOL    HW118977   6.297   4.709   4.617
 6026SOL    HW218978   6.319   4.548   4.612
 6027SOL     OW18979   6.108   3.353   6.018
 6027SOL    HW118980   6.117   3.265   6.064
 6027SOL    HW218981   6.087   3.424   6.085
 6028SOL     OW18982   5.179   5.105   1.388
 6028SOL    HW118983   5.187   5.134   1.292
 6028SOL    HW218984   5.197   5.183   1.448
 6029SOL     OW18985   2.166   6.614   3.430
 6029SOL    HW118986   2.151   6.521   3.398
 6029SOL    HW218987   2.128   6.679   3.364
 6030SOL     OW18988   4.930   3.626   4.808
 6030SOL    HW118989   4.940   3.537   4.763
 6030SOL    HW218990   4.872   3.616   4.889
 6031SOL     OW18991   1.383   5.791   3.976
 6031SOL    HW118992   1.314   5.755   3.913
 6031SOL    HW218993   1.426   5.872   3.936
 6032SOL     OW18994   3.006   5.902   3.810
 6032SOL    HW118995   3.006   5.940   3.903
 6032SOL    HW218996   3.065   5.957   3.752
 6033SOL     OW18997   2.369   2.702   2.332
 6033SOL    HW118998   2.402   2.612   2.303
 6033SOL    HW218999   2.404   2.722   2.424
 6034SOL     OW19000   0.807   0.343   6.569
 6034SOL    HW119001   0.871   0.274   6.535
 6034SOL    HW219002   0.856   0.408   6.627
 6035SOL     OW19003   0.833   1.262   2.658
 6035SOL    HW119004   0.829   1.322   2.577
 6035SOL    HW219005   0.756   1.282   2.718
 6036SOL     OW19006   6.283   4.701   1.736
 6036SOL    HW119007   6.347   4.777   1.725
 6036SOL    HW219008   6.202   4.718   1.680
 6037SOL     OW19009   4.209   0.698   0.941
 6037SOL    HW119010   4.156   0.700   1.025
 6037SOL    HW219011   4.152   0.724   0.864
 6038SOL     OW19012   0.092   2.535   6.464
 6038SOL    HW119013   0.095   2.442   6.426
 6038SOL    HW219014   0.073   2.600   6.391
 6039SOL     OW19015   4.169   3.518   4.010
 6039SOL    HW119016   4.143   3.489   3.918
 6039SOL    HW219017   4.235   3.453   4.048
 6040SOL     OW19018   1.834   1.501   0.446
 6040SOL    HW119019   1.787   1.430   0.497
 6040SOL    HW219020   1.924   1.467   0.416
 6041SOL     OW19021   3.100   3.018   5.486
 6041SOL    HW119022   3.012   3.044   5.525
 6041SOL    HW219023   3.134   3.090   5.426
 6042SOL     OW19024   4.143   5.893   3.049
 6042SOL    HW119025   4.058   5.880   2.999
 6042SOL    HW219026   4.134   5.970   3.112
 6043SOL     OW19027   1.220   0.920   3.977
 6043SOL    HW119028   1.300   0.891   3.925
 6043SOL    HW219029   1.236   0.906   4.074
 6044SOL     OW19030   2.291   1.689   1.945
 6044SOL    HW119031   2.313   1.620   1.876
 6044SOL    HW219032   2.315   1.780   1.909
 6045SOL     OW19033   4.874   3.203   3.763
 6045SOL    HW119034   4.844   3.293   3.731
 6045SOL    HW219035   4.936   3.214   3.840
 6046SOL     OW19036   3.362   2.702   1.253
 6046SOL    HW119037   3.398   2.688   1.161
 6046SOL    HW219038   3.414   2.775   1.298
 6047SOL     OW19039   5.543   2.305   0.869
 6047SOL    HW119040   5.461   2.273   0.918
 6047SOL    HW219041   5.622   2.255   0.903
 6048SOL     OW19042   5.472   5.140   5.050
 6048SOL    HW119043   5.397   5.171   5.109
 6048SOL    HW219044   5.458   5.177   4.958
 6049SOL     OW19045   5.516   4.512   6.054
 6049SOL    HW119046   5.585   4.571   6.096
 6049SOL    HW219047   5.561   4.440   6.003
 6050SOL     OW19048   2.846   5.008   1.031
 6050SOL    HW119049   2.867   5.080   1.097
 6050SOL    HW219050   2.751   5.016   1.001
 6051SOL     OW19051   0.924   0.833   2.578
 6051SOL    HW119052   0.970   0.836   2.489
 6051SOL    HW219053   0.856   0.906   2.583
 6052SOL     OW19054   5.499   0.570   1.475
 6052SOL    HW119055   5.400   0.577   1.492
 6052SOL    HW219056   5.521   0.616   1.389
 6053SOL     OW19057   4.114   0.295   6.162
 6053SOL    HW119058   4.193   0.346   6.198
 6053SOL    HW219059   4.122   0.287   6.063
 6054SOL     OW19060   3.417   5.251   0.736
 6054SOL    HW119061   3.485   5.180   0.750
 6054SOL    HW219062   3.414   5.276   0.639
 6055SOL     OW19063   3.491   5.088   6.565
 6055SOL    HW119064   3.394   5.075   6.545
 6055SOL    HW219065   3.537   5.124   6.484
 6056SOL     OW19066   5.962   2.947   4.889
 6056SOL    HW119067   6.056   2.917   4.869
 6056SOL    HW219068   5.924   2.891   4.962
 6057SOL     OW19069   5.537   0.410   2.295
 6057SOL    HW119070   5.522   0.509   2.299
 6057SOL    HW219071   5.500   0.374   2.209
 6058SOL     OW19072   6.143   3.426   0.406
 6058SOL    HW119073   6.152   3.524   0.385
 6058SOL    HW219074   6.079   3.414   0.481
 6059SOL     OW19075   5.093   3.970   5.550
 6059SOL    HW119076   5.008   4.020   5.535
 6059SOL    HW219077   5.072   3.875   5.571
 6060SOL     OW19078   3.341   3.091   0.649
 6060SOL    HW119079   3.412   3.161   0.638
 6060SOL    HW219080   3.330   3.068   0.745
 6061SOL     OW19081   4.476   4.624   0.279
 6061SOL    HW119082   4.387   4.601   0.317
 6061SOL    HW219083   4.479   4.598   0.182
 6062SOL     OW19084   2.570   2.090   6.833
 6062SOL    HW119085   2.623   2.025   6.886
 6062SOL    HW219086   2.482   2.106   6.878
 6063SOL     OW19087   3.695   4.237   5.365
 6063SOL    HW119088   3.722   4.156   5.417
 6063SOL    HW219089   3.595   4.240   5.357
 6064SOL     OW19090   0.465   0.399   0.951
 6064SOL    HW119091   0.533   0.463   0.916
 6064SOL    HW219092   0.498   0.359   1.037
 6065SOL     OW19093   0.849   5.370   1.578
 6065SOL    HW119094   0.817   5.435   1.509
 6065SOL    HW219095   0.792   5.288   1.576
 6066SOL     OW19096   5.074   1.427   3.942
 6066SOL    HW119097   5.095   1.487   4.020
 6066SOL    HW219098   5.157   1.415   3.887
 6067SOL     OW19099   5.328   0.336   6.107
 6067SOL    HW119100   5.382   0.283   6.172
 6067SOL    HW219101   5.381   0.413   6.073
 6068SOL     OW19102   5.189   2.458   5.029
 6068SOL    HW119103   5.171   2.360   5.022
 6068SOL    HW219104   5.285   2.476   5.008
 6069SOL     OW19105   6.677   2.974   6.237
 6069SOL    HW119106   6.713   2.994   6.146
 6069SOL    HW219107   6.681   3.056   6.295
 6070SOL     OW19108   3.594   2.150   1.687
 6070SOL    HW119109   3.643   2.212   1.749
 6070SOL    HW219110   3.622   2.056   1.705
 6071SOL     OW19111   0.177   6.186   4.271
 6071SOL    HW119112   0.101   6.138   4.315
 6071SOL    HW219113   0.188   6.276   4.312
 6072SOL     OW19114   6.759   1.851   1.252
 6072SOL    HW119115   6.672   1.802   1.243
 6072SOL    HW219116   6.778   1.867   1.349
 6073SOL     OW19117   5.003   2.863   0.892
 6073SOL    HW119118   5.037   2.839   0.983
 6073SOL    HW219119   5.080   2.872   0.829
 6074SOL     OW19120   1.816   0.174   2.041
 6074SOL    HW119121   1.746   0.231   1.999
 6074SOL    HW219122   1.791   0.154   2.136
 6075SOL     OW19123   4.529   6.849   5.647
 6075SOL    HW119124   4.588   6.928   5.656
 6075SOL    HW219125   4.437   6.878   5.620
 6076SOL     OW19126   2.774   5.028   3.744
 6076SOL    HW119127   2.674   5.028   3.739
 6076SOL    HW219128   2.807   4.934   3.753
 6077SOL     OW19129   5.527   6.575   1.017
 6077SOL    HW119130   5.532   6.661   0.967
 6077SOL    HW219131   5.612   6.524   1.005
 6078SOL     OW19132   4.491   4.527   0.901
 6078SOL    HW119133   4.461   4.581   0.980
 6078SOL    HW219134   4.448   4.437   0.904
 6079SOL     OW19135   4.783   4.686   6.713
 6079SOL    HW119136   4.826   4.650   6.630
 6079SOL    HW219137   4.810   4.630   6.791
 6080SOL     OW19138   0.345   5.248   1.625
 6080SOL    HW119139   0.366   5.233   1.528
 6080SOL    HW219140   0.265   5.195   1.651
 6081SOL     OW19141   0.032   3.351   5.878
 6081SOL    HW119142   0.072   3.365   5.968
 6081SOL    HW219143   6.969   3.398   5.873
 6082SOL     OW19144   3.369   6.699   1.857
 6082SOL    HW119145   3.323   6.625   1.808
 6082SOL    HW219146   3.323   6.786   1.837
 6083SOL     OW19147   5.416   6.059   0.073
 6083SOL    HW119148   5.324   6.022   0.061
 6083SOL    HW219149   5.415   6.130   0.143
 6084SOL     OW19150   0.676   6.309   2.117
 6084SOL    HW119151   0.687   6.215   2.148
 6084SOL    HW219152   0.755   6.335   2.062
 6085SOL     OW19153   5.878   5.974   6.054
 6085SOL    HW119154   5.791   5.948   6.096
 6085SOL    HW219155   5.919   6.049   6.107
 6086SOL     OW19156   3.908   3.129   6.377
 6086SOL    HW119157   3.854   3.066   6.431
 6086SOL    HW219158   3.904   3.103   6.280
 6087SOL     OW19159   5.257   6.145   1.111
 6087SOL    HW119160   5.357   6.144   1.112
 6087SOL    HW219161   5.223   6.054   1.137
 6088SOL     OW19162   5.884   6.294   5.159
 6088SOL    HW119163   5.857   6.342   5.243
 6088SOL    HW219164   5.983   6.279   5.160
 6089SOL     OW19165   6.654   2.492   2.553
 6089SOL    HW119166   6.653   2.590   2.535
 6089SOL    HW219167   6.589   2.446   2.493
 6090SOL     OW19168   2.741   5.126   4.386
 6090SOL    HW119169   2.646   5.116   4.357
 6090SOL    HW219170   2.793   5.044   4.361
 6091SOL     OW19171   2.868   1.631   1.106
 6091SOL    HW119172   2.912   1.564   1.046
 6091SOL    HW219173   2.869   1.721   1.063
 6092SOL     OW19174   4.281   0.903   2.044
 6092SOL    HW119175   4.325   0.992   2.039
 6092SOL    HW219176   4.278   0.862   1.953
 6093SOL     OW19177   2.673   2.005   2.426
 6093SOL    HW119178   2.684   2.039   2.519
 6093SOL    HW219179   2.579   1.972   2.413
 6094SOL     OW19180   1.474   6.561   3.221
 6094SOL    HW119181   1.499   6.464   3.213
 6094SOL    HW219182   1.428   6.590   3.138
 6095SOL     OW19183   4.859   5.106   6.705
 6095SOL    HW119184   4.916   5.125   6.624
 6095SOL    HW219185   4.781   5.050   6.677
 6096SOL     OW19186   5.474   6.456   1.706
 6096SOL    HW119187   5.511   6.382   1.762
 6096SOL    HW219188   5.475   6.541   1.759
 6097SOL     OW19189   1.123   5.591   2.031
 6097SOL    HW119190   1.059   5.659   1.995
 6097SOL    HW219191   1.213   5.634   2.045
 6098SOL     OW19192   5.694   0.453   5.832
 6098SOL    HW119193   5.761   0.465   5.759
 6098SOL    HW219194   5.741   0.435   5.919
 6099SOL     OW19195   4.584   6.081   5.664
 6099SOL    HW119196   4.528   6.163   5.650
 6099SOL    HW219197   4.677   6.107   5.686
 6100SOL     OW19198   0.133   5.696   1.704
 6100SOL    HW119199   0.112   5.744   1.789
 6100SOL    HW219200   0.197   5.622   1.723
 6101SOL     OW19201   5.955   2.733   2.742
 6101SOL    HW119202   5.959   2.634   2.755
 6101SOL    HW219203   6.018   2.760   2.669
 6102SOL     OW19204   3.938   5.804   2.914
 6102SOL    HW119205   3.988   5.725   2.880
 6102SOL    HW219206   3.876   5.838   2.842
 6103SOL     OW19207   6.302   1.192   1.228
 6103SOL    HW119208   6.245   1.262   1.186
 6103SOL    HW219209   6.387   1.233   1.261
 6104SOL     OW19210   6.151   0.944   5.164
 6104SOL    HW119211   6.211   0.870   5.133
 6104SOL    HW219212   6.066   0.943   5.113
 6105SOL     OW19213   2.215   5.591   5.710
 6105SOL    HW119214   2.260   5.674   5.742
 6105SOL    HW219215   2.134   5.573   5.766
 6106SOL     OW19216   1.269   4.873   0.611
 6106SOL    HW119217   1.336   4.946   0.614
 6106SOL    HW219218   1.198   4.894   0.543
 6107SOL     OW19219   4.721   5.625   4.062
 6107SOL    HW119220   4.646   5.572   4.024
 6107SOL    HW219221   4.704   5.641   4.160
 6108SOL     OW19222   1.233   2.215   2.898
 6108SOL    HW119223   1.195   2.170   2.817
 6108SOL    HW219224   1.159   2.258   2.950
 6109SOL     OW19225   5.108   1.220   4.647
 6109SOL    HW119226   5.178   1.153   4.622
 6109SOL    HW219227   5.126   1.306   4.601
 6110SOL     OW19228   1.711   2.756   6.704
 6110SOL    HW119229   1.780   2.722   6.768
 6110SOL    HW219230   1.740   2.734   6.611
 6111SOL     OW19231   1.468   3.193   1.606
 6111SOL    HW119232   1.556   3.174   1.564
 6111SOL    HW219233   1.399   3.209   1.535
 6112SOL     OW19234   4.221   0.335   2.516
 6112SOL    HW119235   4.264   0.253   2.555
 6112SOL    HW219236   4.137   0.308   2.468
 6113SOL     OW19237   2.769   3.736   6.371
 6113SOL    HW119238   2.765   3.646   6.415
 6113SOL    HW219239   2.865   3.761   6.356
 6114SOL     OW19240   5.105   3.014   2.154
 6114SOL    HW119241   5.027   3.067   2.121
 6114SOL    HW219242   5.162   3.072   2.213
 6115SOL     OW19243   6.814   1.655   5.460
 6115SOL    HW119244   6.747   1.581   5.470
 6115SOL    HW219245   6.803   1.697   5.370
 6116SOL     OW19246   4.093   2.517   5.515
 6116SOL    HW119247   4.045   2.433   5.542
 6116SOL    HW219248   4.036   2.569   5.452
 6117SOL     OW19249   1.083   1.578   3.254
 6117SOL    HW119250   1.179   1.550   3.248
 6117SOL    HW219251   1.076   1.657   3.315
 6118SOL     OW19252   5.599   1.286   1.594
 6118SOL    HW119253   5.630   1.195   1.566
 6118SOL    HW219254   5.589   1.289   1.693
 6119SOL     OW19255   0.744   2.917   0.316
 6119SOL    HW119256   0.731   2.960   0.227
 6119SOL    HW219257   0.805   2.973   0.372
 6120SOL     OW19258   1.603   6.544   5.627
 6120SOL    HW119259   1.679   6.608   5.637
 6120SOL    HW219260   1.595   6.489   5.710
 6121SOL     OW19261   0.551   4.194   5.681
 6121SOL    HW119262   0.647   4.199   5.656
 6121SOL    HW219263   0.503   4.135   5.617
 6122SOL     OW19264   4.981   5.303   6.326
 6122SOL    HW119265   5.049   5.355   6.274
 6122SOL    HW219266   4.896   5.297   6.274
 6123SOL     OW19267   5.360   1.039   5.479
 6123SOL    HW119268   5.268   1.078   5.481
 6123SOL    HW219269   5.400   1.044   5.571
 6124SOL     OW19270   0.870   6.660   5.586
 6124SOL    HW119271   0.856   6.749   5.629
 6124SOL    HW219272   0.968   6.640   5.582
 6125SOL     OW19273   2.390   3.828   7.018
 6125SOL    HW119274   2.360   3.916   6.981
 6125SOL    HW219275   2.339   3.808   0.077
 6126SOL     OW19276   0.960   1.871   5.624
 6126SOL    HW119277   0.966   1.803   5.551
 6126SOL    HW219278   1.005   1.955   5.594
 6127SOL     OW19279   4.564   1.026   1.409
 6127SOL    HW119280   4.477   1.004   1.452
 6127SOL    HW219281   4.576   1.125   1.407
 6128SOL     OW19282   5.776   5.357   0.452
 6128SOL    HW119283   5.814   5.446   0.423
 6128SOL    HW219284   5.696   5.372   0.509
 6129SOL     OW19285   1.373   4.058   3.596
 6129SOL    HW119286   1.470   4.081   3.593
 6129SOL    HW219287   1.318   4.141   3.586
 6130SOL     OW19288   6.173   2.302   3.094
 6130SOL    HW119289   6.158   2.234   3.165
 6130SOL    HW219290   6.238   2.266   3.027
 6131SOL     OW19291   0.953   2.099   2.081
 6131SOL    HW119292   1.002   2.083   2.167
 6131SOL    HW219293   0.912   2.190   2.083
 6132SOL     OW19294   3.574   2.069   6.320
 6132SOL    HW119295   3.509   2.020   6.377
 6132SOL    HW219296   3.544   2.164   6.310
 6133SOL     OW19297   1.331   2.256   3.385
 6133SOL    HW119298   1.309   2.335   3.328
 6133SOL    HW219299   1.412   2.275   3.440
 6134SOL     OW19300   4.401   0.070   6.500
 6134SOL    HW119301   4.445   0.159   6.512
 6134SOL    HW219302   4.349   0.047   6.583
 6135SOL     OW19303   5.583   6.551   0.487
 6135SOL    HW119304   5.496   6.599   0.500
 6135SOL    HW219305   5.606   6.550   0.390
 6136SOL     OW19306   1.392   2.352   1.050
 6136SOL    HW119307   1.444   2.413   0.991
 6136SOL    HW219308   1.353   2.403   1.127
 6137SOL     OW19309   0.830   3.931   2.209
 6137SOL    HW119310   0.927   3.909   2.219
 6137SOL    HW219311   0.789   3.873   2.139
 6138SOL     OW19312   3.844   0.159   2.117
 6138SOL    HW119313   3.771   0.091   2.111
 6138SOL    HW219314   3.875   0.181   2.024
 6139SOL     OW19315   0.610   7.000   5.425
 6139SOL    HW119316   0.533   6.953   5.382
 6139SOL    HW219317   0.615   0.069   5.390
 6140SOL     OW19318   0.702   0.979   3.148
 6140SOL    HW119319   0.678   1.003   3.054
 6140SOL    HW219320   0.654   1.040   3.211
 6141SOL     OW19321   0.758   0.452   6.061
 6141SOL    HW119322   0.771   0.551   6.048
 6141SOL    HW219323   0.707   0.436   6.146
 6142SOL     OW19324   0.924   0.358   5.895
 6142SOL    HW119325   0.974   0.443   5.877
 6142SOL    HW219326   0.850   0.376   5.960
 6143SOL     OW19327   0.031   4.316   1.091
 6143SOL    HW119328   0.080   4.229   1.086
 6143SOL    HW219329   0.054   4.372   1.012
 6144SOL     OW19330   5.357   4.333   3.349
 6144SOL    HW119331   5.452   4.305   3.344
 6144SOL    HW219332   5.319   4.340   3.256
 6145SOL     OW19333   5.610   4.743   4.135
 6145SOL    HW119334   5.697   4.764   4.090
 6145SOL    HW219335   5.627   4.716   4.230
 6146SOL     OW19336   3.669   6.707   4.015
 6146SOL    HW119337   3.612   6.670   3.942
 6146SOL    HW219338   3.673   6.806   4.008
 6147SOL     OW19339   2.233   2.916   4.504
 6147SOL    HW119340   2.256   2.904   4.600
 6147SOL    HW219341   2.306   2.966   4.458
 6148SOL     OW19342   4.100   5.216   6.643
 6148SOL    HW119343   4.005   5.224   6.611
 6148SOL    HW219344   4.140   5.307   6.654
 6149SOL     OW19345   1.835   6.799   1.726
 6149SOL    HW119346   1.910   6.761   1.671
 6149SOL    HW219347   1.799   6.880   1.681
 6150SOL     OW19348   5.848   4.190   6.605
 6150SOL    HW119349   5.937   4.153   6.580
 6150SOL    HW219350   5.778   4.119   6.595
 6151SOL     OW19351   5.140   4.970   4.184
 6151SOL    HW119352   5.076   4.899   4.213
 6151SOL    HW219353   5.185   4.941   4.099
 6152SOL     OW19354   0.792   5.648   4.469
 6152SOL    HW119355   0.882   5.607   4.453
 6152SOL    HW219356   0.803   5.726   4.532
 6153SOL     OW19357   4.680   5.208   1.123
 6153SOL    HW119358   4.763   5.153   1.123
 6153SOL    HW219359   4.632   5.197   1.037
 6154SOL     OW19360   5.344   3.314   2.762
 6154SOL    HW119361   5.408   3.336   2.689
 6154SOL    HW219362   5.371   3.362   2.846
 6155SOL     OW19363   2.969   0.870   2.849
 6155SOL    HW119364   3.018   0.828   2.773
 6155SOL    HW219365   2.895   0.928   2.814
 6156SOL     OW19366   4.966   4.145   1.777
 6156SOL    HW119367   4.878   4.128   1.821
 6156SOL    HW219368   5.040   4.134   1.844
 6157SOL     OW19369   0.734   2.311   3.136
 6157SOL    HW119370   0.730   2.237   3.069
 6157SOL    HW219371   0.713   2.398   3.093
 6158SOL     OW19372   2.949   2.024   0.124
 6158SOL    HW119373   3.027   1.965   0.147
 6158SOL    HW219374   2.975   2.087   0.052
 6159SOL     OW19375   5.550   3.270   0.680
 6159SOL    HW119376   5.626   3.274   0.745
 6159SOL    HW219377   5.487   3.197   0.708
 6160SOL     OW19378   0.029   6.699   6.937
 6160SOL    HW119379   0.100   6.707   6.867
 6160SOL    HW219380   0.036   6.610   6.981
 6161SOL     OW19381   5.069   1.452   0.097
 6161SOL    HW119382   5.057   1.474   0.194
 6161SOL    HW219383   5.072   1.537   0.044
 6162SOL     OW19384   6.017   6.633   3.809
 6162SOL    HW119385   6.058   6.562   3.867
 6162SOL    HW219386   6.044   6.723   3.843
 6163SOL     OW19387   5.440   5.944   2.353
 6163SOL    HW119388   5.458   5.990   2.266
 6163SOL    HW219389   5.348   5.906   2.352
 6164SOL     OW19390   3.593   3.707   4.613
 6164SOL    HW119391   3.579   3.799   4.650
 6164SOL    HW219392   3.690   3.683   4.621
 6165SOL     OW19393   3.881   2.132   5.959
 6165SOL    HW119394   3.876   2.218   6.010
 6165SOL    HW219395   3.802   2.074   5.984
 6166SOL     OW19396   6.291   1.826   0.322
 6166SOL    HW119397   6.290   1.889   0.244
 6166SOL    HW219398   6.198   1.818   0.359
 6167SOL     OW19399   0.862   4.464   3.135
 6167SOL    HW119400   0.769   4.476   3.102
 6167SOL    HW219401   0.893   4.549   3.179
 6168SOL     OW19402   0.379   2.427   3.264
 6168SOL    HW119403   0.434   2.510   3.253
 6168SOL    HW219404   0.410   2.378   3.346
 6169SOL     OW19405   0.666   1.083   6.309
 6169SOL    HW119406   0.646   1.035   6.223
 6169SOL    HW219407   0.756   1.054   6.342
 6170SOL     OW19408   3.398   4.461   6.192
 6170SOL    HW119409   3.394   4.361   6.199
 6170SOL    HW219410   3.472   4.495   6.250
 6171SOL     OW19411   1.336   3.747   1.846
 6171SOL    HW119412   1.280   3.802   1.784
 6171SOL    HW219413   1.377   3.671   1.795
 6172SOL     OW19414   0.206   0.480   2.608
 6172SOL    HW119415   0.305   0.483   2.623
 6172SOL    HW219416   0.177   0.563   2.561
 6173SOL     OW19417   0.033   5.175   2.693
 6173SOL    HW119418   6.968   5.213   2.671
 6173SOL    HW219419   0.022   5.086   2.736
 6174SOL     OW19420   5.770   4.858   3.080
 6174SOL    HW119421   5.782   4.829   3.175
 6174SOL    HW219422   5.858   4.852   3.032
 6175SOL     OW19423   5.358   0.146   3.260
 6175SOL    HW119424   5.327   0.237   3.284
 6175SOL    HW219425   5.443   0.153   3.207
 6176SOL     OW19426   6.330   2.862   6.823
 6176SOL    HW119427   6.369   2.790   6.881
 6176SOL    HW219428   6.348   2.841   6.727
 6177SOL     OW19429   5.421   1.891   1.288
 6177SOL    HW119430   5.352   1.914   1.357
 6177SOL    HW219431   5.401   1.941   1.203
 6178SOL     OW19432   5.024   5.505   1.738
 6178SOL    HW119433   5.004   5.411   1.713
 6178SOL    HW219434   5.053   5.509   1.834
 6179SOL     OW19435   0.267   3.977   4.531
 6179SOL    HW119436   0.202   3.903   4.515
 6179SOL    HW219437   0.217   4.063   4.542
 6180SOL     OW19438   3.034   6.816   6.129
 6180SOL    HW119439   3.066   6.832   6.036
 6180SOL    HW219440   3.096   6.754   6.176
 6181SOL     OW19441   5.077   6.671   0.495
 6181SOL    HW119442   5.044   6.758   0.532
 6181SOL    HW219443   5.021   6.597   0.531
 6182SOL     OW19444   5.514   4.732   5.587
 6182SOL    HW119445   5.518   4.713   5.489
 6182SOL    HW219446   5.432   4.690   5.626
 6183SOL     OW19447   2.355   0.246   2.899
 6183SOL    HW119448   2.365   0.298   2.815
 6183SOL    HW219449   2.385   0.302   2.977
 6184SOL     OW19450   2.069   6.561   5.749
 6184SOL    HW119451   2.050   6.659   5.743
 6184SOL    HW219452   1.986   6.512   5.776
 6185SOL     OW19453   1.850   4.043   0.006
 6185SOL    HW119454   1.858   4.059   6.932
 6185SOL    HW219455   1.755   4.021   0.028
 6186SOL     OW19456   6.066   0.142   3.944
 6186SOL    HW119457   6.027   0.218   3.892
 6186SOL    HW219458   6.026   0.056   3.913
 6187SOL     OW19459   4.892   4.376   4.197
 6187SOL    HW119460   4.942   4.444   4.144
 6187SOL    HW219461   4.837   4.319   4.135
 6188SOL     OW19462   2.421   5.882   1.374
 6188SOL    HW119463   2.467   5.971   1.387
 6188SOL    HW219464   2.467   5.832   1.301
 6189SOL     OW19465   4.367   4.635   3.789
 6189SOL    HW119466   4.400   4.598   3.702
 6189SOL    HW219467   4.398   4.576   3.864
 6190SOL     OW19468   5.889   3.704   5.980
 6190SOL    HW119469   5.841   3.616   5.971
 6190SOL    HW219470   5.965   3.706   5.915
 6191SOL     OW19471   4.655   2.694   0.490
 6191SOL    HW119472   4.707   2.694   0.575
 6191SOL    HW219473   4.666   2.606   0.444
 6192SOL     OW19474   3.927   3.690   0.367
 6192SOL    HW119475   3.944   3.699   0.465
 6192SOL    HW219476   3.833   3.718   0.346
 6193SOL     OW19477   4.131   0.619   2.583
 6193SOL    HW119478   4.197   0.549   2.557
 6193SOL    HW219479   4.038   0.584   2.572
 6194SOL     OW19480   1.832   6.515   6.916
 6194SOL    HW119481   1.853   6.418   6.920
 6194SOL    HW219482   1.913   6.568   6.941
 6195SOL     OW19483   3.674   5.340   5.468
 6195SOL    HW119484   3.771   5.342   5.447
 6195SOL    HW219485   3.661   5.316   5.564
 6196SOL     OW19486   6.252   2.143   0.890
 6196SOL    HW119487   6.297   2.208   0.829
 6196SOL    HW219488   6.247   2.053   0.847
 6197SOL     OW19489   4.720   3.531   0.572
 6197SOL    HW119490   4.681   3.488   0.491
 6197SOL    HW219491   4.763   3.461   0.630
 6198SOL     OW19492   3.441   5.369   2.399
 6198SOL    HW119493   3.471   5.400   2.489
 6198SOL    HW219494   3.342   5.355   2.400
 6199SOL     OW19495   0.111   0.162   1.464
 6199SOL    HW119496   0.157   0.165   1.552
 6199SOL    HW219497   0.163   0.103   1.402
 6200SOL     OW19498   2.503   1.224   5.746
 6200SOL    HW119499   2.448   1.307   5.740
 6200SOL    HW219500   2.456   1.157   5.804
 6201SOL     OW19501   2.199   3.576   5.809
 6201SOL    HW119502   2.238   3.541   5.724
 6201SOL    HW219503   2.133   3.648   5.789
 6202SOL     OW19504   3.816   1.876   1.577
 6202SOL    HW119505   3.808   1.805   1.507
 6202SOL    HW219506   3.741   1.868   1.642
 6203SOL     OW19507   5.074   0.264   4.001
 6203SOL    HW119508   5.097   0.167   3.990
 6203SOL    HW219509   5.106   0.315   3.921
 6204SOL     OW19510   0.794   4.961   5.033
 6204SOL    HW119511   0.848   5.012   4.967
 6204SOL    HW219512   0.702   5.001   5.040
 6205SOL     OW19513   5.723   6.702   6.634
 6205SOL    HW119514   5.703   6.605   6.643
 6205SOL    HW219515   5.752   6.738   6.723
 6206SOL     OW19516   6.406   0.072   2.851
 6206SOL    HW119517   6.399   0.135   2.774
 6206SOL    HW219518   6.327   0.010   2.851
 6207SOL     OW19519   1.580   3.979   5.084
 6207SOL    HW119520   1.628   3.894   5.099
 6207SOL    HW219521   1.532   4.007   5.167
 6208SOL     OW19522   6.137   0.211   6.394
 6208SOL    HW119523   6.202   0.249   6.460
 6208SOL    HW219524   6.044   0.218   6.430
 6209SOL     OW19525   4.750   5.758   6.757
 6209SOL    HW119526   4.696   5.675   6.754
 6209SOL    HW219527   4.841   5.742   6.717
 6210SOL     OW19528   5.643   4.524   3.545
 6210SOL    HW119529   5.632   4.576   3.461
 6210SOL    HW219530   5.594   4.437   3.537
 6211SOL     OW19531   3.354   6.495   4.863
 6211SOL    HW119532   3.279   6.449   4.814
 6211SOL    HW219533   3.368   6.586   4.825
 6212SOL     OW19534   0.912   5.249   3.200
 6212SOL    HW119535   0.882   5.183   3.269
 6212SOL    HW219536   1.008   5.231   3.178
 6213SOL     OW19537   5.188   0.006   6.285
 6213SOL    HW119538   5.180   0.102   6.311
 6213SOL    HW219539   5.113   7.005   6.224
 6214SOL     OW19540   6.070   5.159   3.517
 6214SOL    HW119541   6.117   5.092   3.460
 6214SOL    HW219542   6.070   5.127   3.612
 6215SOL     OW19543   3.533   1.384   6.791
 6215SOL    HW119544   3.505   1.322   6.863
 6215SOL    HW219545   3.598   1.338   6.730
 6216SOL     OW19546   6.455   2.712   2.411
 6216SOL    HW119547   6.511   2.654   2.352
 6216SOL    HW219548   6.510   2.741   2.490
 6217SOL     OW19549   6.264   2.750   2.224
 6217SOL    HW119550   6.300   2.778   2.135
 6217SOL    HW219551   6.326   2.781   2.296
 6218SOL     OW19552   3.382   5.288   4.247
 6218SOL    HW119553   3.317   5.346   4.296
 6218SOL    HW219554   3.404   5.208   4.303
 6219SOL     OW19555   0.427   1.467   4.619
 6219SOL    HW119556   0.352   1.518   4.660
 6219SOL    HW219557   0.438   1.493   4.524
 6220SOL     OW19558   1.438   4.158   5.874
 6220SOL    HW119559   1.372   4.229   5.854
 6220SOL    HW219560   1.469   4.116   5.788
 6221SOL     OW19561   6.207   5.553   5.855
 6221SOL    HW119562   6.154   5.488   5.800
 6221SOL    HW219563   6.154   5.578   5.937
 6222SOL     OW19564   0.760   6.570   1.301
 6222SOL    HW119565   0.851   6.535   1.282
 6222SOL    HW219566   0.723   6.524   1.383
 6223SOL     OW19567   0.040   3.783   4.195
 6223SOL    HW119568   0.133   3.778   4.159
 6223SOL    HW219569   7.020   3.695   4.181
 6224SOL     OW19570   1.700   2.102   6.117
 6224SOL    HW119571   1.670   2.145   6.202
 6224SOL    HW219572   1.712   2.172   6.046
 6225SOL     OW19573   2.737   3.188   1.215
 6225SOL    HW119574   2.783   3.171   1.302
 6225SOL    HW219575   2.768   3.122   1.147
 6226SOL     OW19576   5.575   2.076   4.314
 6226SOL    HW119577   5.621   2.014   4.251
 6226SOL    HW219578   5.477   2.057   4.314
 6227SOL     OW19579   3.814   5.322   6.496
 6227SOL    HW119580   3.793   5.232   6.457
 6227SOL    HW219581   3.906   5.349   6.469
 6228SOL     OW19582   6.991   2.492   2.287
 6228SOL    HW119583   7.017   2.510   2.192
 6228SOL    HW219584   0.040   2.523   2.348
 6229SOL     OW19585   0.867   2.833   2.339
 6229SOL    HW119586   0.857   2.735   2.359
 6229SOL    HW219587   0.869   2.847   2.240
 6230SOL     OW19588   1.241   0.946   4.475
 6230SOL    HW119589   1.214   0.851   4.485
 6230SOL    HW219590   1.322   0.964   4.531
 6231SOL     OW19591   6.696   4.633   1.719
 6231SOL    HW119592   6.644   4.562   1.671
 6231SOL    HW219593   6.792   4.631   1.689
 6232SOL     OW19594   6.270   1.779   1.036
 6232SOL    HW119595   6.210   1.840   0.984
 6232SOL    HW219596   6.215   1.716   1.089
 6233SOL     OW19597   5.106   1.003   7.019
 6233SOL    HW119598   5.024   0.949   0.010
 6233SOL    HW219599   5.161   1.005   0.077
 6234SOL     OW19600   6.903   0.974   5.872
 6234SOL    HW119601   6.903   1.071   5.893
 6234SOL    HW219602   6.811   0.937   5.882
 6235SOL     OW19603   1.409   0.144   2.120
 6235SOL    HW119604   1.400   0.045   2.119
 6235SOL    HW219605   1.474   0.171   2.191
 6236SOL     OW19606   0.924   5.228   0.044
 6236SOL    HW119607   0.911   5.325   0.029
 6236SOL    HW219608   0.850   5.192   0.102
 6237SOL     OW19609   3.624   6.373   0.591
 6237SOL    HW119610   3.689   6.313   0.543
 6237SOL    HW219611   3.671   6.419   0.666
 6238SOL     OW19612   4.400   4.751   3.252
 6238SOL    HW119613   4.423   4.804   3.334
 6238SOL    HW219614   4.329   4.798   3.200
 6239SOL     OW19615   2.753   6.695   1.632
 6239SOL    HW119616   2.690   6.772   1.623
 6239SOL    HW219617   2.803   6.703   1.718
 6240SOL     OW19618   3.011   2.299   0.412
 6240SOL    HW119619   3.045   2.307   0.318
 6240SOL    HW219620   2.948   2.222   0.419
 6241SOL     OW19621   2.412   0.886   2.676
 6241SOL    HW119622   2.476   0.815   2.704
 6241SOL    HW219623   2.328   0.879   2.730
 6242SOL     OW19624   5.216   0.888   3.519
 6242SOL    HW119625   5.311   0.871   3.493
 6242SOL    HW219626   5.208   0.890   3.618
 6243SOL     OW19627   5.215   6.756   3.267
 6243SOL    HW119628   5.200   6.748   3.366
 6243SOL    HW219629   5.311   6.737   3.247
 6244SOL     OW19630   1.952   2.323   1.946
 6244SOL    HW119631   2.029   2.261   1.934
 6244SOL    HW219632   1.980   2.400   2.004
 6245SOL     OW19633   2.597   4.653   1.518
 6245SOL    HW119634   2.597   4.624   1.614
 6245SOL    HW219635   2.523   4.718   1.503
 6246SOL     OW19636   2.721   2.865   6.438
 6246SOL    HW119637   2.713   2.914   6.525
 6246SOL    HW219638   2.701   2.768   6.452
 6247SOL     OW19639   0.595   6.575   3.256
 6247SOL    HW119640   0.523   6.514   3.224
 6247SOL    HW219641   0.600   6.571   3.356
 6248SOL     OW19642   2.344   3.880   1.016
 6248SOL    HW119643   2.369   3.805   0.954
 6248SOL    HW219644   2.371   3.856   1.109
 6249SOL     OW19645   0.491   4.658   0.432
 6249SOL    HW119646   0.551   4.638   0.354
 6249SOL    HW219647   0.410   4.707   0.400
 6250SOL     OW19648   6.088   5.982   0.342
 6250SOL    HW119649   6.105   5.916   0.415
 6250SOL    HW219650   6.123   5.947   0.256
 6251SOL     OW19651   3.682   6.691   0.434
 6251SOL    HW119652   3.770   6.709   0.390
 6251SOL    HW219653   3.681   6.597   0.469
 6252SOL     OW19654   1.709   6.893   4.598
 6252SOL    HW119655   1.764   6.968   4.634
 6252SOL    HW219656   1.655   6.853   4.672
 6253SOL     OW19657   2.199   3.920   2.458
 6253SOL    HW119658   2.239   3.946   2.371
 6253SOL    HW219659   2.146   3.836   2.447
 6254SOL     OW19660   5.400   1.041   0.506
 6254SOL    HW119661   5.311   0.996   0.499
 6254SOL    HW219662   5.388   1.136   0.534
 6255SOL     OW19663   2.130   0.517   1.361
 6255SOL    HW119664   2.161   0.548   1.451
 6255SOL    HW219665   2.161   0.424   1.345
 6256SOL     OW19666   3.434   4.866   3.156
 6256SOL    HW119667   3.391   4.926   3.223
 6256SOL    HW219668   3.493   4.800   3.202
 6257SOL     OW19669   5.771   2.177   0.968
 6257SOL    HW119670   5.852   2.236   0.960
 6257SOL    HW219671   5.766   2.141   1.061
 6258SOL     OW19672   4.273   6.915   3.551
 6258SOL    HW119673   4.369   6.911   3.523
 6258SOL    HW219674   4.240   7.009   3.543
 6259SOL     OW19675   2.913   1.864   0.961
 6259SOL    HW119676   2.840   1.894   0.900
 6259SOL    HW219677   2.994   1.922   0.946
 6260SOL     OW19678   2.590   4.334   0.126
 6260SOL    HW119679   2.599   4.307   0.222
 6260SOL    HW219680   2.646   4.273   0.070
 6261SOL     OW19681   2.843   0.083   6.400
 6261SOL    HW119682   2.932   0.059   6.361
 6261SOL    HW219683   2.779   0.106   6.326
 6262SOL     OW19684   1.608   4.198   1.356
 6262SOL    HW119685   1.645   4.108   1.332
 6262SOL    HW219686   1.672   4.269   1.328
 6263SOL     OW19687   0.400   0.509   5.701
 6263SOL    HW119688   0.314   0.457   5.700
 6263SOL    HW219689   0.423   0.533   5.795
 6264SOL     OW19690   1.393   6.600   0.727
 6264SOL    HW119691   1.455   6.672   0.697
 6264SOL    HW219692   1.439   6.543   0.795
 6265SOL     OW19693   3.348   4.000   1.228
 6265SOL    HW119694   3.286   3.995   1.149
 6265SOL    HW219695   3.299   3.970   1.310
 6266SOL     OW19696   4.404   0.739   4.680
 6266SOL    HW119697   4.465   0.800   4.730
 6266SOL    HW219698   4.458   0.679   4.621
 6267SOL     OW19699   3.584   0.260   0.181
 6267SOL    HW119700   3.506   0.263   0.119
 6267SOL    HW219701   3.552   0.248   0.275
 6268SOL     OW19702   3.325   6.361   2.653
 6268SOL    HW119703   3.269   6.360   2.735
 6268SOL    HW219704   3.421   6.347   2.678
 6269SOL     OW19705   6.350   5.913   2.330
 6269SOL    HW119706   6.290   5.857   2.388
 6269SOL    HW219707   6.375   5.996   2.379
 6270SOL     OW19708   1.881   0.479   4.878
 6270SOL    HW119709   1.894   0.575   4.905
 6270SOL    HW219710   1.791   0.468   4.836
 6271SOL     OW19711   6.049   2.186   5.409
 6271SOL    HW119712   6.120   2.121   5.435
 6271SOL    HW219713   6.087   2.279   5.411
 6272SOL     OW19714   0.937   2.868   5.600
 6272SOL    HW119715   0.958   2.845   5.695
 6272SOL    HW219716   1.001   2.822   5.540
 6273SOL     OW19717   1.805   0.463   2.598
 6273SOL    HW119718   1.798   0.524   2.519
 6273SOL    HW219719   1.832   0.372   2.568
 6274SOL     OW19720   2.408   5.751   6.009
 6274SOL    HW119721   2.361   5.790   5.929
 6274SOL    HW219722   2.400   5.652   6.007
 6275SOL     OW19723   2.022   6.511   5.007
 6275SOL    HW119724   2.072   6.429   4.979
 6275SOL    HW219725   1.947   6.528   4.942
 6276SOL     OW19726   1.276   5.038   3.584
 6276SOL    HW119727   1.224   4.958   3.614
 6276SOL    HW219728   1.373   5.016   3.580
 6277SOL     OW19729   5.469   3.096   2.185
 6277SOL    HW119730   5.378   3.083   2.225
 6277SOL    HW219731   5.508   3.007   2.162
 6278SOL     OW19732   4.844   0.301   4.938
 6278SOL    HW119733   4.864   0.399   4.950
 6278SOL    HW219734   4.922   0.248   4.973
 6279SOL     OW19735   3.836   0.859   6.433
 6279SOL    HW119736   3.890   0.782   6.469
 6279SOL    HW219737   3.794   0.832   6.346
 6280SOL     OW19738   0.208   2.344   6.168
 6280SOL    HW119739   0.164   2.321   6.255
 6280SOL    HW219740   0.206   2.265   6.107
 6281SOL     OW19741   1.837   5.844   4.946
 6281SOL    HW119742   1.849   5.942   4.933
 6281SOL    HW219743   1.751   5.827   4.995
 6282SOL     OW19744   1.105   0.411   4.909
 6282SOL    HW119745   1.061   0.424   4.820
 6282SOL    HW219746   1.161   0.492   4.930
 6283SOL     OW19747   6.078   3.204   4.990
 6283SOL    HW119748   6.053   3.293   5.028
 6283SOL    HW219749   6.002   3.170   4.933
 6284SOL     OW19750   2.074   5.699   5.033
 6284SOL    HW119751   2.081   5.729   5.128
 6284SOL    HW219752   1.985   5.726   4.996
 6285SOL     OW19753   1.587   2.780   3.543
 6285SOL    HW119754   1.629   2.866   3.574
 6285SOL    HW219755   1.659   2.712   3.528
 6286SOL     OW19756   6.137   2.251   4.151
 6286SOL    HW119757   6.112   2.246   4.247
 6286SOL    HW219758   6.225   2.205   4.136
 6287SOL     OW19759   4.242   4.864   3.039
 6287SOL    HW119760   4.194   4.849   2.952
 6287SOL    HW219761   4.246   4.962   3.058
 6288SOL     OW19762   5.817   4.372   2.214
 6288SOL    HW119763   5.736   4.383   2.272
 6288SOL    HW219764   5.807   4.428   2.131
 6289SOL     OW19765   1.300   4.149   2.815
 6289SOL    HW119766   1.240   4.213   2.863
 6289SOL    HW219767   1.381   4.197   2.783
 6290SOL     OW19768   6.023   4.010   4.334
 6290SOL    HW119769   6.099   3.956   4.372
 6290SOL    HW219770   5.969   4.049   4.409
 6291SOL     OW19771   3.799   3.245   3.340
 6291SOL    HW119772   3.800   3.171   3.273
 6291SOL    HW219773   3.829   3.210   3.429
 6292SOL     OW19774   0.787   2.618   3.378
 6292SOL    HW119775   0.755   2.701   3.423
 6292SOL    HW219776   0.886   2.624   3.363
 6293SOL     OW19777   4.456   6.967   6.891
 6293SOL    HW119778   4.385   6.957   6.821
 6293SOL    HW219779   4.533   6.906   6.869
 6294SOL     OW19780   3.437   4.927   4.032
 6294SOL    HW119781   3.415   4.926   4.129
 6294SOL    HW219782   3.518   4.871   4.015
 6295SOL     OW19783   5.298   4.972   5.376
 6295SOL    HW119784   5.340   5.063   5.371
 6295SOL    HW219785   5.254   4.951   5.289
 6296SOL     OW19786   6.682   6.568   4.779
 6296SOL    HW119787   6.733   6.542   4.697
 6296SOL    HW219788   6.742   6.561   4.859
 6297SOL     OW19789   5.159   6.951   5.120
 6297SOL    HW119790   5.092   6.878   5.110
 6297SOL    HW219791   5.239   6.930   5.064
 6298SOL     OW19792   1.598   2.464   5.862
 6298SOL    HW119793   1.536   2.389   5.888
 6298SOL    HW219794   1.544   2.542   5.831
 6299SOL     OW19795   4.877   1.868   0.604
 6299SOL    HW119796   4.823   1.873   0.520
 6299SOL    HW219797   4.903   1.961   0.632
 6300SOL     OW19798   5.279   1.468   5.054
 6300SOL    HW119799   5.243   1.406   5.124
 6300SOL    HW219800   5.350   1.526   5.095
 6301SOL     OW19801   2.660   0.467   1.220
 6301SOL    HW119802   2.631   0.380   1.178
 6301SOL    HW219803   2.581   0.513   1.259
 6302SOL     OW19804   1.477   1.739   4.451
 6302SOL    HW119805   1.386   1.768   4.421
 6302SOL    HW219806   1.533   1.819   4.470
 6303SOL     OW19807   2.389   0.975   4.511
 6303SOL    HW119808   2.475   0.928   4.494
 6303SOL    HW219809   2.406   1.073   4.525
 6304SOL     OW19810   2.183   1.315   0.956
 6304SOL    HW119811   2.253   1.330   1.025
 6304SOL    HW219812   2.093   1.331   0.996
 6305SOL     OW19813   6.589   6.903   0.709
 6305SOL    HW119814   6.687   6.925   0.709
 6305SOL    HW219815   6.565   6.858   0.795
 6306SOL     OW19816   1.134   4.176   4.506
 6306SOL    HW119817   1.125   4.123   4.422
 6306SOL    HW219818   1.228   4.211   4.514
 6307SOL     OW19819   4.162   4.062   5.549
 6307SOL    HW119820   4.260   4.050   5.560
 6307SOL    HW219821   4.139   4.064   5.451
 6308SOL     OW19822   1.642   1.990   5.044
 6308SOL    HW119823   1.641   2.026   5.138
 6308SOL    HW219824   1.726   1.937   5.030
 6309SOL     OW19825   4.907   3.773   4.370
 6309SOL    HW119826   4.861   3.861   4.381
 6309SOL    HW219827   4.902   3.745   4.274
 6310SOL     OW19828   2.069   5.280   4.047
 6310SOL    HW119829   2.149   5.315   4.097
 6310SOL    HW219830   2.000   5.352   4.041
 6311SOL     OW19831   5.881   0.405   5.593
 6311SOL    HW119832   5.888   0.463   5.512
 6311SOL    HW219833   5.802   0.344   5.583
 6312SOL     OW19834   5.887   5.125   5.631
 6312SOL    HW119835   5.969   5.129   5.575
 6312SOL    HW219836   5.832   5.045   5.605
 6313SOL     OW19837   1.246   6.295   3.326
 6313SOL    HW119838   1.177   6.352   3.372
 6313SOL    HW219839   1.200   6.232   3.264
 6314SOL     OW19840   4.206   6.677   1.648
 6314SOL    HW119841   4.255   6.619   1.714
 6314SOL    HW219842   4.271   6.736   1.601
 6315SOL     OW19843   3.794   2.994   6.892
 6315SOL    HW119844   3.838   2.990   6.982
 6315SOL    HW219845   3.758   2.904   6.868
 6316SOL     OW19846   4.499   2.318   6.186
 6316SOL    HW119847   4.470   2.223   6.196
 6316SOL    HW219848   4.491   2.365   6.274
 6317SOL     OW19849   5.272   5.261   3.638
 6317SOL    HW119850   5.267   5.360   3.654
 6317SOL    HW219851   5.359   5.239   3.594
 6318SOL     OW19852   3.004   1.619   4.932
 6318SOL    HW119853   2.914   1.653   4.958
 6318SOL    HW219854   3.074   1.682   4.967
 6319SOL     OW19855   0.007   2.458   3.180
 6319SOL    HW119856   0.012   2.359   3.189
 6319SOL    HW219857   0.027   2.500   3.269
 6320SOL     OW19858   6.231   4.893   4.604
 6320SOL    HW119859   6.169   4.902   4.683
 6320SOL    HW219860   6.204   4.957   4.533
 6321SOL     OW19861   3.180   5.192   0.853
 6321SOL    HW119862   3.264   5.234   0.819
 6321SOL    HW219863   3.200   5.139   0.936
 6322SOL     OW19864   1.541   2.459   6.461
 6322SOL    HW119865   1.468   2.526   6.445
 6322SOL    HW219866   1.593   2.486   6.542
 6323SOL     OW19867   3.454   2.627   1.009
 6323SOL    HW119868   3.435   2.662   0.917
 6323SOL    HW219869   3.419   2.534   1.017
 6324SOL     OW19870   4.915   0.494   5.756
 6324SOL    HW119871   4.899   0.402   5.793
 6324SOL    HW219872   4.993   0.535   5.803
 6325SOL     OW19873   1.218   2.083   2.238
 6325SOL    HW119874   1.257   2.063   2.327
 6325SOL    HW219875   1.273   2.039   2.167
 6326SOL     OW19876   5.083   6.273   1.539
 6326SOL    HW119877   5.051   6.189   1.496
 6326SOL    HW219878   5.174   6.296   1.504
 6327SOL     OW19879   6.848   0.294   5.489
 6327SOL    HW119880   6.844   0.376   5.431
 6327SOL    HW219881   6.939   0.285   5.527
 6328SOL     OW19882   1.652   3.569   0.437
 6328SOL    HW119883   1.727   3.610   0.488
 6328SOL    HW219884   1.679   3.478   0.405
 6329SOL     OW19885   2.131   2.865   3.289
 6329SOL    HW119886   2.148   2.932   3.216
 6329SOL    HW219887   2.153   2.774   3.257
 6330SOL     OW19888   4.540   1.082   1.751
 6330SOL    HW119889   4.536   1.097   1.850
 6330SOL    HW219890   4.617   1.022   1.729
 6331SOL     OW19891   5.716   2.131   0.202
 6331SOL    HW119892   5.698   2.216   0.250
 6331SOL    HW219893   5.663   2.057   0.244
 6332SOL     OW19894   6.939   3.904   2.259
 6332SOL    HW119895   6.969   3.904   2.354
 6332SOL    HW219896   6.984   3.979   2.209
 6333SOL     OW19897   3.951   5.037   4.345
 6333SOL    HW119898   4.003   4.962   4.386
 6333SOL    HW219899   3.925   5.012   4.252
 6334SOL     OW19900   2.298   0.520   2.382
 6334SOL    HW119901   2.365   0.593   2.396
 6334SOL    HW219902   2.330   0.460   2.308
 6335SOL     OW19903   4.811   1.396   0.662
 6335SOL    HW119904   4.780   1.393   0.757
 6335SOL    HW219905   4.758   1.331   0.607
 6336SOL     OW19906   0.105   1.376   5.977
 6336SOL    HW119907   0.084   1.312   5.903
 6336SOL    HW219908   0.061   1.464   5.957
 6337SOL     OW19909   4.937   3.853   6.426
 6337SOL    HW119910   4.874   3.930   6.436
 6337SOL    HW219911   5.029   3.882   6.453
 6338SOL     OW19912   2.796   2.335   2.628
 6338SOL    HW119913   2.823   2.304   2.537
 6338SOL    HW219914   2.715   2.393   2.620
 6339SOL     OW19915   0.321   3.011   3.981
 6339SOL    HW119916   0.265   2.928   3.975
 6339SOL    HW219917   0.309   3.065   3.898
 6340SOL     OW19918   1.987   5.088   3.083
 6340SOL    HW119919   1.963   5.026   3.158
 6340SOL    HW219920   2.045   5.162   3.118
 6341SOL     OW19921   0.927   4.701   3.240
 6341SOL    HW119922   0.858   4.759   3.196
 6341SOL    HW219923   0.992   4.759   3.290
 6342SOL     OW19924   2.711   1.460   1.497
 6342SOL    HW119925   2.738   1.527   1.428
 6342SOL    HW219926   2.723   1.499   1.588
 6343SOL     OW19927   5.157   2.921   6.307
 6343SOL    HW119928   5.189   2.830   6.332
 6343SOL    HW219929   5.125   2.969   6.389
 6344SOL     OW19930   5.961   3.641   5.706
 6344SOL    HW119931   5.902   3.569   5.669
 6344SOL    HW219932   6.057   3.618   5.687
 6345SOL     OW19933   4.402   1.370   2.268
 6345SOL    HW119934   4.394   1.325   2.357
 6345SOL    HW219935   4.423   1.467   2.281
 6346SOL     OW19936   6.884   3.440   3.543
 6346SOL    HW119937   6.973   3.412   3.507
 6346SOL    HW219938   6.859   3.382   3.620
 6347SOL     OW19939   2.405   0.420   1.347
 6347SOL    HW119940   2.469   0.447   1.418
 6347SOL    HW219941   2.389   0.498   1.285
 6348SOL     OW19942   1.231   3.999   5.343
 6348SOL    HW119943   1.272   3.919   5.387
 6348SOL    HW219944   1.194   3.974   5.254
 6349SOL     OW19945   3.030   0.385   1.452
 6349SOL    HW119946   2.930   0.381   1.450
 6349SOL    HW219947   3.062   0.452   1.385
 6350SOL     OW19948   2.519   4.884   3.978
 6350SOL    HW119949   2.608   4.907   4.016
 6350SOL    HW219950   2.458   4.855   4.052
 6351SOL     OW19951   6.699   3.220   2.395
 6351SOL    HW119952   6.653   3.290   2.450
 6351SOL    HW219953   6.736   3.262   2.312
 6352SOL     OW19954   1.876   5.257   4.579
 6352SOL    HW119955   1.848   5.215   4.665
 6352SOL    HW219956   1.795   5.290   4.530
 6353SOL     OW19957   6.179   0.758   6.141
 6353SOL    HW119958   6.205   0.826   6.209
 6353SOL    HW219959   6.261   0.727   6.091
 6354SOL     OW19960   1.146   0.216   2.598
 6354SOL    HW119961   1.122   0.225   2.501
 6354SOL    HW219962   1.166   0.306   2.636
 6355SOL     OW19963   1.356   4.673   5.749
 6355SOL    HW119964   1.404   4.643   5.832
 6355SOL    HW219965   1.284   4.738   5.773
 6356SOL     OW19966   4.189   4.726   2.266
 6356SOL    HW119967   4.272   4.688   2.306
 6356SOL    HW219968   4.207   4.752   2.171
 6357SOL     OW19969   4.848   2.681   1.651
 6357SOL    HW119970   4.776   2.611   1.653
 6357SOL    HW219971   4.830   2.749   1.722
 6358SOL     OW19972   0.605   2.393   5.844
 6358SOL    HW119973   0.696   2.405   5.806
 6358SOL    HW219974   0.592   2.298   5.872
 6359SOL     OW19975   5.860   6.763   5.742
 6359SOL    HW119976   5.846   6.844   5.686
 6359SOL    HW219977   5.801   6.767   5.823
 6360SOL     OW19978   2.195   4.189   4.114
 6360SOL    HW119979   2.242   4.164   4.030
 6360SOL    HW219980   2.215   4.122   4.185
 6361SOL     OW19981   5.954   0.502   0.235
 6361SOL    HW119982   5.886   0.429   0.242
 6361SOL    HW219983   5.919   0.575   0.177
 6362SOL     OW19984   5.892   5.192   6.270
 6362SOL    HW119985   5.859   5.141   6.350
 6362SOL    HW219986   5.988   5.169   6.254
 6363SOL     OW19987   2.398   5.152   3.045
 6363SOL    HW119988   2.466   5.203   3.097
 6363SOL    HW219989   2.363   5.076   3.099
 6364SOL     OW19990   3.232   1.035   5.773
 6364SOL    HW119991   3.242   0.996   5.682
 6364SOL    HW219992   3.136   1.058   5.789
 6365SOL     OW19993   4.853   6.891   4.356
 6365SOL    HW119994   4.875   6.952   4.280
 6365SOL    HW219995   4.771   6.925   4.403
 6366SOL     OW19996   0.115   6.000   6.503
 6366SOL    HW119997   0.195   6.059   6.507
 6366SOL    HW219998   0.046   6.041   6.444
 6367SOL     OW19999   3.759   0.603   4.088
 6367SOL    HW120000   3.731   0.590   4.183
 6367SOL    HW220001   3.745   0.519   4.037
 6368SOL     OW20002   3.399   0.374   3.501
 6368SOL    HW120003   3.344   0.365   3.584
 6368SOL    HW220004   3.374   0.301   3.437
 6369SOL     OW20005   2.698   5.296   4.942
 6369SOL    HW120006   2.636   5.312   4.865
 6369SOL    HW220007   2.653   5.239   5.011
 6370SOL     OW20008   1.166   3.120   2.438
 6370SOL    HW120009   1.070   3.147   2.442
 6370SOL    HW220010   1.203   3.139   2.347
 6371SOL     OW20011   5.028   3.174   4.043
 6371SOL    HW120012   4.996   3.133   4.128
 6371SOL    HW220013   5.062   3.266   4.062
 6372SOL     OW20014   3.180   6.882   1.782
 6372SOL    HW120015   3.158   6.877   1.684
 6372SOL    HW220016   3.139   6.965   1.821
 6373SOL     OW20017   6.115   4.089   4.068
 6373SOL    HW120018   6.087   4.182   4.094
 6373SOL    HW220019   6.119   4.032   4.149
 6374SOL     OW20020   4.004   3.916   4.228
 6374SOL    HW120021   3.928   3.960   4.275
 6374SOL    HW220022   3.997   3.933   4.130
 6375SOL     OW20023   0.514   1.765   3.906
 6375SOL    HW120024   0.564   1.697   3.960
 6375SOL    HW220025   0.418   1.738   3.899
 6376SOL     OW20026   6.483   2.557   5.669
 6376SOL    HW120027   6.452   2.493   5.598
 6376SOL    HW220028   6.476   2.513   5.758
 6377SOL     OW20029   6.538   1.645   5.934
 6377SOL    HW120030   6.475   1.595   5.994
 6377SOL    HW220031   6.563   1.732   5.977
 6378SOL     OW20032   5.413   4.941   3.797
 6378SOL    HW120033   5.393   4.903   3.887
 6378SOL    HW220034   5.486   4.888   3.754
 6379SOL     OW20035   2.154   4.665   4.428
 6379SOL    HW120036   2.136   4.576   4.385
 6379SOL    HW220037   2.069   4.717   4.433
 6380SOL     OW20038   0.821   1.424   5.597
 6380SOL    HW120039   0.832   1.488   5.521
 6380SOL    HW220040   0.830   1.474   5.683
 6381SOL     OW20041   3.488   3.252   3.071
 6381SOL    HW120042   3.518   3.233   2.977
 6381SOL    HW220043   3.456   3.168   3.114
 6382SOL     OW20044   1.211   2.993   0.178
 6382SOL    HW120045   1.176   2.900   0.169
 6382SOL    HW220046   1.202   3.023   0.273
 6383SOL     OW20047   2.181   2.486   2.672
 6383SOL    HW120048   2.111   2.556   2.665
 6383SOL    HW220049   2.271   2.526   2.653
 6384SOL     OW20050   5.676   4.376   1.208
 6384SOL    HW120051   5.586   4.420   1.215
 6384SOL    HW220052   5.740   4.438   1.164
 6385SOL     OW20053   6.853   4.910   4.386
 6385SOL    HW120054   6.937   4.868   4.352
 6385SOL    HW220055   6.776   4.883   4.328
 6386SOL     OW20056   2.525   4.019   6.726
 6386SOL    HW120057   2.537   4.107   6.681
 6386SOL    HW220058   2.517   3.947   6.658
 6387SOL     OW20059   0.593   1.764   6.795
 6387SOL    HW120060   0.549   1.708   6.865
 6387SOL    HW220061   0.578   1.861   6.815
 6388SOL     OW20062   4.423   4.544   1.959
 6388SOL    HW120063   4.416   4.445   1.973
 6388SOL    HW220064   4.448   4.588   2.046
 6389SOL     OW20065   0.421   6.028   2.288
 6389SOL    HW120066   0.383   5.966   2.357
 6389SOL    HW220067   0.347   6.070   2.236
 6390SOL     OW20068   1.128   2.406   4.360
 6390SOL    HW120069   1.059   2.409   4.432
 6390SOL    HW220070   1.204   2.466   4.384
 6391SOL     OW20071   3.098   0.285   6.192
 6391SOL    HW120072   3.118   0.195   6.229
 6391SOL    HW220073   3.004   0.310   6.213
 6392SOL     OW20074   2.464   6.581   3.234
 6392SOL    HW120075   2.421   6.581   3.144
 6392SOL    HW220076   2.432   6.660   3.286
 6393SOL     OW20077   6.095   6.551   1.521
 6393SOL    HW120078   6.139   6.461   1.523
 6393SOL    HW220079   6.088   6.587   1.614
 6394SOL     OW20080   2.235   3.898   1.481
 6394SOL    HW120081   2.213   3.842   1.560
 6394SOL    HW220082   2.230   3.995   1.506
 6395SOL     OW20083   5.762   2.578   1.430
 6395SOL    HW120084   5.697   2.507   1.459
 6395SOL    HW220085   5.797   2.626   1.510
 6396SOL     OW20086   5.407   2.932   6.550
 6396SOL    HW120087   5.410   2.992   6.470
 6396SOL    HW220088   5.311   2.916   6.575
 6397SOL     OW20089   5.590   1.978   6.789
 6397SOL    HW120090   5.618   2.070   6.816
 6397SOL    HW220091   5.661   1.937   6.731
 6398SOL     OW20092   3.400   0.811   0.629
 6398SOL    HW120093   3.368   0.743   0.564
 6398SOL    HW220094   3.340   0.812   0.709
 6399SOL     OW20095   2.078   5.086   6.251
 6399SOL    HW120096   2.154   5.127   6.301
 6399SOL    HW220097   2.058   4.996   6.289
 6400SOL     OW20098   1.828   5.730   3.213
 6400SOL    HW120099   1.846   5.677   3.130
 6400SOL    HW220100   1.870   5.684   3.291
 6401SOL     OW20101   6.706   4.353   3.631
 6401SOL    HW120102   6.737   4.260   3.609
 6401SOL    HW220103   6.785   4.413   3.638
 6402SOL     OW20104   3.089   0.696   3.014
 6402SOL    HW120105   3.121   0.726   3.105
 6402SOL    HW220106   3.036   0.770   2.972
 6403SOL     OW20107   0.232   6.400   6.762
 6403SOL    HW120108   0.252   6.484   6.712
 6403SOL    HW220109   0.270   6.408   6.855
 6404SOL     OW20110   4.088   1.332   2.993
 6404SOL    HW120111   4.034   1.397   2.939
 6404SOL    HW220112   4.027   1.264   3.033
 6405SOL     OW20113   1.916   1.126   3.467
 6405SOL    HW120114   2.006   1.168   3.457
 6405SOL    HW220115   1.860   1.181   3.529
 6406SOL     OW20116   1.566   2.387   3.790
 6406SOL    HW120117   1.655   2.413   3.828
 6406SOL    HW220118   1.569   2.394   3.691
 6407SOL     OW20119   3.182   6.681   2.883
 6407SOL    HW120120   3.089   6.718   2.880
 6407SOL    HW220121   3.183   6.598   2.938
 6408SOL     OW20122   6.306   2.506   0.118
 6408SOL    HW120123   6.255   2.423   0.143
 6408SOL    HW220124   6.319   2.563   0.198
 6409SOL     OW20125   6.913   4.100   3.551
 6409SOL    HW120126   6.880   4.095   3.457
 6409SOL    HW220127   7.004   4.059   3.557
 6410SOL     OW20128   1.762   1.752   0.513
 6410SOL    HW120129   1.792   1.671   0.463
 6410SOL    HW220130   1.708   1.723   0.592
 6411SOL     OW20131   0.755   2.970   2.946
 6411SOL    HW120132   0.797   3.044   2.894
 6411SOL    HW220133   0.787   2.973   3.041
 6412SOL     OW20134   0.103   3.179   5.418
 6412SOL    HW120135   0.133   3.173   5.513
 6412SOL    HW220136   0.093   3.087   5.380
 6413SOL     OW20137   5.247   5.081   3.118
 6413SOL    HW120138   5.183   5.020   3.071
 6413SOL    HW220139   5.209   5.174   3.118
 6414SOL     OW20140   6.028   0.408   1.795
 6414SOL    HW120141   6.028   0.310   1.813
 6414SOL    HW220142   6.071   0.456   1.872
 6415SOL     OW20143   2.931   2.258   2.867
 6415SOL    HW120144   3.027   2.260   2.838
 6415SOL    HW220145   2.872   2.276   2.789
 6416SOL     OW20146   0.567   0.875   6.104
 6416SOL    HW120147   0.518   0.864   6.190
 6416SOL    HW220148   0.510   0.843   6.028
 6417SOL     OW20149   0.276   4.809   2.783
 6417SOL    HW120150   0.290   4.892   2.729
 6417SOL    HW220151   0.237   4.834   2.872
 6418SOL     OW20152   6.251   4.923   2.399
 6418SOL    HW120153   6.196   4.958   2.475
 6418SOL    HW220154   6.234   4.825   2.387
 6419SOL     OW20155   2.841   5.094   2.451
 6419SOL    HW120156   2.898   5.174   2.473
 6419SOL    HW220157   2.754   5.101   2.498
 6420SOL     OW20158   2.993   3.676   5.662
 6420SOL    HW120159   2.922   3.610   5.689
 6420SOL    HW220160   2.949   3.761   5.633
 6421SOL     OW20161   6.117   1.590   1.796
 6421SOL    HW120162   6.209   1.564   1.826
 6421SOL    HW220163   6.063   1.619   1.875
 6422SOL     OW20164   6.759   0.545   3.841
 6422SOL    HW120165   6.675   0.533   3.788
 6422SOL    HW220166   6.823   0.603   3.790
 6423SOL     OW20167   4.474   4.619   2.530
 6423SOL    HW120168   4.491   4.588   2.437
 6423SOL    HW220169   4.516   4.554   2.594
 6424SOL     OW20170   6.635   5.468   5.632
 6424SOL    HW120171   6.616   5.441   5.537
 6424SOL    HW220172   6.637   5.386   5.690
 6425SOL     OW20173   6.656   5.594   4.261
 6425SOL    HW120174   6.699   5.526   4.202
 6425SOL    HW220175   6.713   5.609   4.342
 6426SOL     OW20176   0.676   4.048   3.710
 6426SOL    HW120177   0.753   4.050   3.774
 6426SOL    HW220178   0.704   4.002   3.626
 6427SOL     OW20179   1.894   3.313   7.017
 6427SOL    HW120180   1.803   3.333   0.029
 6427SOL    HW220181   1.900   3.347   6.922
 6428SOL     OW20182   6.026   3.400   0.676
 6428SOL    HW120183   5.960   3.386   0.750
 6428SOL    HW220184   6.116   3.367   0.704
 6429SOL     OW20185   0.776   1.436   4.999
 6429SOL    HW120186   0.867   1.404   4.973
 6429SOL    HW220187   0.711   1.412   4.927
 6430SOL     OW20188   4.902   1.124   2.067
 6430SOL    HW120189   4.877   1.046   2.123
 6430SOL    HW220190   4.837   1.198   2.082
 6431SOL     OW20191   5.672   0.081   3.155
 6431SOL    HW120192   5.683   0.075   3.254
 6431SOL    HW220193   5.736   0.017   3.110
 6432SOL     OW20194   4.122   4.218   6.939
 6432SOL    HW120195   4.118   4.311   6.975
 6432SOL    HW220196   4.038   4.169   6.962
 6433SOL     OW20197   3.624   4.399   1.170
 6433SOL    HW120198   3.618   4.299   1.180
 6433SOL    HW220199   3.640   4.422   1.074
 6434SOL     OW20200   1.468   3.808   0.435
 6434SOL    HW120201   1.522   3.881   0.392
 6434SOL    HW220202   1.527   3.728   0.449
 6435SOL     OW20203   3.942   5.086   0.048
 6435SOL    HW120204   4.009   5.042   7.013
 6435SOL    HW220205   3.970   5.181   0.065
 6436SOL     OW20206   2.145   3.090   3.755
 6436SOL    HW120207   2.137   3.189   3.767
 6436SOL    HW220208   2.158   3.070   3.658
 6437SOL     OW20209   1.476   0.975   0.691
 6437SOL    HW120210   1.428   0.888   0.692
 6437SOL    HW220211   1.565   0.965   0.736
 6438SOL     OW20212   0.314   4.607   5.678
 6438SOL    HW120213   0.228   4.613   5.729
 6438SOL    HW220214   0.326   4.690   5.623
 6439SOL     OW20215   0.399   6.894   1.809
 6439SOL    HW120216   0.375   6.901   1.906
 6439SOL    HW220217   0.317   6.870   1.757
 6440SOL     OW20218   2.446   1.078   2.127
 6440SOL    HW120219   2.352   1.059   2.157
 6440SOL    HW220220   2.501   1.105   2.206
 6441SOL     OW20221   0.886   6.962   2.541
 6441SOL    HW120222   0.939   6.885   2.506
 6441SOL    HW220223   0.931   0.023   2.515
 6442SOL     OW20224   1.752   1.307   3.651
 6442SOL    HW120225   1.769   1.406   3.653
 6442SOL    HW220226   1.656   1.290   3.671
 6443SOL     OW20227   3.730   2.893   0.290
 6443SOL    HW120228   3.725   2.809   0.237
 6443SOL    HW220229   3.772   2.875   0.379
 6444SOL     OW20230   0.918   2.733   3.800
 6444SOL    HW120231   0.858   2.658   3.771
 6444SOL    HW220232   1.011   2.700   3.809
 6445SOL     OW20233   5.055   2.650   5.618
 6445SOL    HW120234   5.072   2.657   5.519
 6445SOL    HW220235   4.956   2.646   5.635
 6446SOL     OW20236   0.743   1.804   6.258
 6446SOL    HW120237   0.832   1.774   6.222
 6446SOL    HW220238   0.670   1.758   6.208
 6447SOL     OW20239   0.032   5.838   2.436
 6447SOL    HW120240   7.015   5.898   2.368
 6447SOL    HW220241   0.025   5.880   2.526
 6448SOL     OW20242   6.149   4.655   2.426
 6448SOL    HW120243   6.109   4.663   2.517
 6448SOL    HW220244   6.139   4.561   2.394
 6449SOL     OW20245   3.962   4.341   1.274
 6449SOL    HW120246   3.868   4.373   1.265
 6449SOL    HW220247   4.011   4.358   1.188
 6450SOL     OW20248   0.174   3.350   1.486
 6450SOL    HW120249   0.218   3.339   1.397
 6450SOL    HW220250   0.202   3.437   1.527
 6451SOL     OW20251   2.657   5.891   4.738
 6451SOL    HW120252   2.676   5.989   4.744
 6451SOL    HW220253   2.567   5.877   4.697
 6452SOL     OW20254   3.467   5.881   5.318
 6452SOL    HW120255   3.536   5.810   5.333
 6452SOL    HW220256   3.381   5.855   5.362
 6453SOL     OW20257   2.215   5.903   6.839
 6453SOL    HW120258   2.148   5.970   6.805
 6453SOL    HW220259   2.304   5.947   6.847
 6454SOL     OW20260   2.974   1.120   3.805
 6454SOL    HW120261   3.023   1.067   3.736
 6454SOL    HW220262   2.989   1.218   3.788
 6455SOL     OW20263   0.541   2.345   4.376
 6455SOL    HW120264   0.551   2.320   4.280
 6455SOL    HW220265   0.459   2.401   4.388
 6456SOL     OW20266   1.529   0.198   3.720
 6456SOL    HW120267   1.470   0.211   3.640
 6456SOL    HW220268   1.479   0.223   3.803
 6457SOL     OW20269   5.456   1.263   1.295
 6457SOL    HW120270   5.513   1.290   1.373
 6457SOL    HW220271   5.382   1.329   1.283
 6458SOL     OW20272   1.169   6.932   3.528
 6458SOL    HW120273   1.198   6.837   3.515
 6458SOL    HW220274   1.110   6.938   3.608
 6459SOL     OW20275   5.781   5.232   1.143
 6459SOL    HW120276   5.857   5.194   1.196
 6459SOL    HW220277   5.808   5.238   1.047
 6460SOL     OW20278   4.640   5.285   5.842
 6460SOL    HW120279   4.589   5.290   5.756
 6460SOL    HW220280   4.577   5.280   5.919
 6461SOL     OW20281   3.163   4.917   5.136
 6461SOL    HW120282   3.196   4.896   5.044
 6461SOL    HW220283   3.232   4.889   5.203
 6462SOL     OW20284   2.470   2.783   5.300
 6462SOL    HW120285   2.473   2.880   5.273
 6462SOL    HW220286   2.531   2.730   5.241
 6463SOL     OW20287   1.706   4.082   6.512
 6463SOL    HW120288   1.638   4.147   6.478
 6463SOL    HW220289   1.659   3.998   6.542
 6464SOL     OW20290   0.898   4.729   5.150
 6464SOL    HW120291   0.875   4.792   5.075
 6464SOL    HW220292   0.898   4.779   5.236
 6465SOL     OW20293   6.434   2.746   3.910
 6465SOL    HW120294   6.369   2.819   3.890
 6465SOL    HW220295   6.519   2.762   3.860
 6466SOL     OW20296   0.231   1.770   6.170
 6466SOL    HW120297   0.134   1.759   6.190
 6466SOL    HW220298   0.283   1.699   6.217
 6467SOL     OW20299   3.100   1.139   6.938
 6467SOL    HW120300   3.135   1.121   6.846
 6467SOL    HW220301   3.161   1.203   6.985
 6468SOL     OW20302   4.145   5.952   1.375
 6468SOL    HW120303   4.138   6.047   1.344
 6468SOL    HW220304   4.194   5.949   1.462
 6469SOL     OW20305   5.090   0.862   5.330
 6469SOL    HW120306   5.005   0.809   5.326
 6469SOL    HW220307   5.072   0.953   5.367
 6470SOL     OW20308   6.398   5.174   6.331
 6470SOL    HW120309   6.333   5.124   6.388
 6470SOL    HW220310   6.472   5.113   6.303
 6471SOL     OW20311   6.319   5.827   5.999
 6471SOL    HW120312   6.342   5.767   5.922
 6471SOL    HW220313   6.345   5.921   5.978
 6472SOL     OW20314   0.313   5.100   0.569
 6472SOL    HW120315   0.241   5.038   0.600
 6472SOL    HW220316   0.338   5.162   0.644
 6473SOL     OW20317   2.144   1.821   5.186
 6473SOL    HW120318   2.188   1.741   5.227
 6473SOL    HW220319   2.119   1.800   5.092
 6474SOL     OW20320   1.713   3.471   5.877
 6474SOL    HW120321   1.789   3.497   5.936
 6474SOL    HW220322   1.722   3.517   5.789
 6475SOL     OW20323   6.841   5.693   4.813
 6475SOL    HW120324   6.818   5.667   4.719
 6475SOL    HW220325   6.927   5.744   4.814
 6476SOL     OW20326   4.672   3.769   1.757
 6476SOL    HW120327   4.707   3.861   1.777
 6476SOL    HW220328   4.580   3.776   1.719
 6477SOL     OW20329   0.095   4.957   1.155
 6477SOL    HW120330   0.114   4.903   1.237
 6477SOL    HW220331   0.011   4.923   1.112
 6478SOL     OW20332   3.634   5.967   2.117
 6478SOL    HW120333   3.710   5.924   2.166
 6478SOL    HW220334   3.562   5.899   2.102
 6479SOL     OW20335   3.831   5.255   2.921
 6479SOL    HW120336   3.750   5.197   2.923
 6479SOL    HW220337   3.814   5.339   2.973
 6480SOL     OW20338   3.378   2.965   5.642
 6480SOL    HW120339   3.337   2.874   5.632
 6480SOL    HW220340   3.307   3.034   5.638
 6481SOL     OW20341   3.342   2.228   1.759
 6481SOL    HW120342   3.432   2.194   1.732
 6481SOL    HW220343   3.285   2.240   1.677
 6482SOL     OW20344   0.314   1.111   6.081
 6482SOL    HW120345   0.271   1.101   5.991
 6482SOL    HW220346   0.263   1.057   6.147
 6483SOL     OW20347   2.371   5.444   1.492
 6483SOL    HW120348   2.352   5.381   1.568
 6483SOL    HW220349   2.330   5.408   1.408
 6484SOL     OW20350   3.940   0.676   3.162
 6484SOL    HW120351   4.017   0.708   3.217
 6484SOL    HW220352   3.964   0.683   3.065
 6485SOL     OW20353   1.618   3.593   3.540
 6485SOL    HW120354   1.624   3.685   3.503
 6485SOL    HW220355   1.584   3.597   3.635
 6486SOL     OW20356   1.404   4.606   4.048
 6486SOL    HW120357   1.324   4.626   4.104
 6486SOL    HW220358   1.386   4.635   3.954
 6487SOL     OW20359   6.619   5.525   5.191
 6487SOL    HW120360   6.551   5.567   5.250
 6487SOL    HW220361   6.690   5.592   5.168
 6488SOL     OW20362   2.640   5.692   4.975
 6488SOL    HW120363   2.584   5.642   5.040
 6488SOL    HW220364   2.596   5.780   4.953
 6489SOL     OW20365   2.157   3.498   6.890
 6489SOL    HW120366   2.211   3.469   6.811
 6489SOL    HW220367   2.164   3.430   6.963
 6490SOL     OW20368   4.286   2.562   6.530
 6490SOL    HW120369   4.244   2.634   6.586
 6490SOL    HW220370   4.385   2.565   6.541
 6491SOL     OW20371   4.011   1.284   6.605
 6491SOL    HW120372   3.985   1.192   6.633
 6491SOL    HW220373   4.017   1.343   6.687
 6492SOL     OW20374   5.742   6.275   6.894
 6492SOL    HW120375   5.776   6.362   6.860
 6492SOL    HW220376   5.812   6.231   6.951
 6493SOL     OW20377   1.476   6.044   5.483
 6493SOL    HW120378   1.456   6.101   5.562
 6493SOL    HW220379   1.450   6.092   5.400
 6494SOL     OW20380   0.137   1.050   3.501
 6494SOL    HW120381   0.188   1.007   3.427
 6494SOL    HW220382   0.149   1.149   3.497
 6495SOL     OW20383   5.049   5.914   4.411
 6495SOL    HW120384   4.992   5.846   4.456
 6495SOL    HW220385   5.097   5.871   4.334
 6496SOL     OW20386   0.048   6.126   2.276
 6496SOL    HW120387   0.067   6.206   2.333
 6496SOL    HW220388   0.102   6.131   2.192
 6497SOL     OW20389   2.288   3.318   0.068
 6497SOL    HW120390   2.375   3.368   0.072
 6497SOL    HW220391   2.286   3.261   7.011
 6498SOL     OW20392   2.543   4.586   4.350
 6498SOL    HW120393   2.512   4.531   4.273
 6498SOL    HW220394   2.503   4.549   4.435
 6499SOL     OW20395   5.850   1.721   5.011
 6499SOL    HW120396   5.836   1.667   5.094
 6499SOL    HW220397   5.810   1.812   5.023
 6500SOL     OW20398   0.225   5.017   3.952
 6500SOL    HW120399   0.202   5.109   3.985
 6500SOL    HW220400   0.241   5.020   3.854
 6501SOL     OW20401   0.157   2.656   0.601
 6501SOL    HW120402   0.175   2.754   0.607
 6501SOL    HW220403   0.203   2.610   0.677
 6502SOL     OW20404   6.704   3.758   3.543
 6502SOL    HW120405   6.631   3.817   3.509
 6502SOL    HW220406   6.764   3.733   3.467
 6503SOL     OW20407   5.177   0.001   3.897
 6503SOL    HW120408   5.112   6.952   3.884
 6503SOL    HW220409   5.263   7.004   3.850
 6504SOL     OW20410   4.599   6.401   6.107
 6504SOL    HW120411   4.617   6.464   6.032
 6504SOL    HW220412   4.563   6.315   6.070
 6505SOL     OW20413   5.907   4.609   1.748
 6505SOL    HW120414   5.961   4.693   1.746
 6505SOL    HW220415   5.868   4.592   1.657
 6506SOL     OW20416   0.614   3.169   0.684
 6506SOL    HW120417   0.679   3.243   0.667
 6506SOL    HW220418   0.522   3.199   0.658
 6507SOL     OW20419   1.858   5.811   6.656
 6507SOL    HW120420   1.884   5.807   6.560
 6507SOL    HW220421   1.893   5.731   6.704
 6508SOL     OW20422   1.777   2.063   3.849
 6508SOL    HW120423   1.820   1.995   3.908
 6508SOL    HW220424   1.840   2.140   3.835
 6509SOL     OW20425   2.225   2.518   4.911
 6509SOL    HW120426   2.174   2.603   4.904
 6509SOL    HW220427   2.323   2.537   4.898
 6510SOL     OW20428   0.627   5.421   6.604
 6510SOL    HW120429   0.548   5.476   6.578
 6510SOL    HW220430   0.684   5.404   6.523
 6511SOL     OW20431   5.574   0.600   4.536
 6511SOL    HW120432   5.543   0.530   4.600
 6511SOL    HW220433   5.501   0.623   4.472
 6512SOL     OW20434   5.077   0.401   2.805
 6512SOL    HW120435   5.125   0.319   2.835
 6512SOL    HW220436   5.106   0.479   2.862
 6513SOL     OW20437   3.573   6.058   3.663
 6513SOL    HW120438   3.539   6.130   3.602
 6513SOL    HW220439   3.542   6.075   3.756
 6514SOL     OW20440   5.547   0.303   2.992
 6514SOL    HW120441   5.594   0.379   3.038
 6514SOL    HW220442   5.592   0.217   3.016
 6515SOL     OW20443   7.015   5.539   3.695
 6515SOL    HW120444   0.046   5.458   3.680
 6515SOL    HW220445   6.938   5.516   3.755
 6516SOL     OW20446   0.087   2.280   0.467
 6516SOL    HW120447   0.080   2.252   0.372
 6516SOL    HW220448   0.184   2.284   0.493
 6517SOL     OW20449   5.867   1.144   0.636
 6517SOL    HW120450   5.786   1.088   0.619
 6517SOL    HW220451   5.843   1.219   0.698
 6518SOL     OW20452   0.586   6.168   6.902
 6518SOL    HW120453   0.500   6.197   6.945
 6518SOL    HW220454   0.579   6.073   6.872
 6519SOL     OW20455   1.854   2.135   3.521
 6519SOL    HW120456   1.946   2.096   3.520
 6519SOL    HW220457   1.787   2.062   3.512
 6520SOL     OW20458   6.436   5.924   3.495
 6520SOL    HW120459   6.515   5.863   3.496
 6520SOL    HW220460   6.461   6.012   3.535
 6521SOL     OW20461   1.032   1.351   4.847
 6521SOL    HW120462   1.109   1.387   4.899
 6521SOL    HW220463   1.065   1.283   4.781
 6522SOL     OW20464   3.159   4.564   6.905
 6522SOL    HW120465   3.126   4.512   6.826
 6522SOL    HW220466   3.088   4.629   6.934
 6523SOL     OW20467   3.214   1.787   6.534
 6523SOL    HW120468   3.253   1.718   6.595
 6523SOL    HW220469   3.281   1.859   6.518
 6524SOL     OW20470   3.213   2.985   3.414
 6524SOL    HW120471   3.129   2.993   3.469
 6524SOL    HW220472   3.292   2.975   3.475
 6525SOL     OW20473   2.266   2.891   2.750
 6525SOL    HW120474   2.308   2.959   2.689
 6525SOL    HW220475   2.166   2.899   2.745
 6526SOL     OW20476   0.716   6.304   4.524
 6526SOL    HW120477   0.680   6.318   4.432
 6526SOL    HW220478   0.780   6.227   4.523
 6527SOL     OW20479   0.532   1.688   4.468
 6527SOL    HW120480   0.452   1.735   4.432
 6527SOL    HW220481   0.608   1.697   4.404
 6528SOL     OW20482   6.875   0.746   3.710
 6528SOL    HW120483   6.935   0.823   3.686
 6528SOL    HW220484   6.808   0.733   3.637
 6529SOL     OW20485   5.979   1.625   3.651
 6529SOL    HW120486   5.986   1.596   3.555
 6529SOL    HW220487   5.906   1.573   3.696
 6530SOL     OW20488   6.922   3.852   0.916
 6530SOL    HW120489   6.911   3.829   1.012
 6530SOL    HW220490   7.012   3.892   0.901
 6531SOL     OW20491   5.347   3.400   4.177
 6531SOL    HW120492   5.275   3.411   4.109
 6531SOL    HW220493   5.322   3.327   4.241
 6532SOL     OW20494   5.538   1.410   1.074
 6532SOL    HW120495   5.504   1.342   1.138
 6532SOL    HW220496   5.609   1.465   1.118
 6533SOL     OW20497   5.634   5.513   1.734
 6533SOL    HW120498   5.660   5.583   1.668
 6533SOL    HW220499   5.620   5.426   1.686
 6534SOL     OW20500   2.520   4.289   1.728
 6534SOL    HW120501   2.560   4.377   1.754
 6534SOL    HW220502   2.576   4.246   1.657
 6535SOL     OW20503   0.647   3.349   4.534
 6535SOL    HW120504   0.707   3.292   4.590
 6535SOL    HW220505   0.690   3.438   4.519
 6536SOL     OW20506   6.855   2.586   6.019
 6536SOL    HW120507   6.758   2.612   6.023
 6536SOL    HW220508   6.866   2.509   5.956
 6537SOL     OW20509   6.242   5.838   6.881
 6537SOL    HW120510   6.160   5.780   6.885
 6537SOL    HW220511   6.271   5.848   6.786
 6538SOL     OW20512   3.613   4.117   0.158
 6538SOL    HW120513   3.539   4.162   0.208
 6538SOL    HW220514   3.669   4.186   0.112
 6539SOL     OW20515   2.836   1.589   6.327
 6539SOL    HW120516   2.822   1.647   6.247
 6539SOL    HW220517   2.843   1.493   6.298
 6540SOL     OW20518   4.445   1.843   4.711
 6540SOL    HW120519   4.534   1.809   4.681
 6540SOL    HW220520   4.374   1.811   4.648
 6541SOL     OW20521   3.376   2.108   4.622
 6541SOL    HW120522   3.309   2.068   4.684
 6541SOL    HW220523   3.438   2.166   4.673
 6542SOL     OW20524   0.246   4.743   3.336
 6542SOL    HW120525   0.159   4.780   3.371
 6542SOL    HW220526   0.266   4.656   3.381
 6543SOL     OW20527   6.474   4.270   0.293
 6543SOL    HW120528   6.464   4.276   0.193
 6543SOL    HW220529   6.388   4.295   0.337
 6544SOL     OW20530   0.360   6.416   3.866
 6544SOL    HW120531   0.365   6.421   3.766
 6544SOL    HW220532   0.295   6.485   3.899
 6545SOL     OW20533   4.851   2.173   6.070
 6545SOL    HW120534   4.783   2.239   6.038
 6545SOL    HW220535   4.923   2.221   6.120
 6546SOL     OW20536   4.368   4.483   6.254
 6546SOL    HW120537   4.434   4.494   6.328
 6546SOL    HW220538   4.284   4.441   6.290
 6547SOL     OW20539   4.135   1.706   5.645
 6547SOL    HW120540   4.135   1.695   5.546
 6547SOL    HW220541   4.173   1.796   5.668
 6548SOL     OW20542   0.439   4.152   6.910
 6548SOL    HW120543   0.456   4.161   6.812
 6548SOL    HW220544   0.526   4.134   6.957
 6549SOL     OW20545   3.465   1.218   0.903
 6549SOL    HW120546   3.557   1.251   0.922
 6549SOL    HW220547   3.404   1.295   0.889
 6550SOL     OW20548   7.023   6.426   3.062
 6550SOL    HW120549   6.991   6.427   3.157
 6550SOL    HW220550   0.031   6.335   3.039
 6551SOL     OW20551   1.814   3.996   2.565
 6551SOL    HW120552   1.810   4.042   2.654
 6551SOL    HW220553   1.780   4.058   2.494
 6552SOL     OW20554   2.588   6.658   4.410
 6552SOL    HW120555   2.493   6.634   4.389
 6552SOL    HW220556   2.595   6.756   4.424
 6553SOL     OW20557   0.028   2.265   1.544
 6553SOL    HW120558   0.099   2.324   1.505
 6553SOL    HW220559   0.008   2.294   1.638
 6554SOL     OW20560   5.909   1.687   5.998
 6554SOL    HW120561   5.828   1.713   5.945
 6554SOL    HW220562   5.917   1.588   6.000
 6555SOL     OW20563   1.853   0.962   2.627
 6555SOL    HW120564   1.923   0.981   2.695
 6555SOL    HW220565   1.876   1.008   2.541
 6556SOL     OW20566   4.727   4.558   5.045
 6556SOL    HW120567   4.768   4.480   4.998
 6556SOL    HW220568   4.786   4.585   5.121
 6557SOL     OW20569   5.153   5.580   1.050
 6557SOL    HW120570   5.189   5.616   1.136
 6557SOL    HW220571   5.204   5.619   0.974
 6558SOL     OW20572   6.428   5.988   1.553
 6558SOL    HW120573   6.388   6.051   1.620
 6558SOL    HW220574   6.359   5.960   1.487
 6559SOL     OW20575   6.597   4.113   0.644
 6559SOL    HW120576   6.624   4.088   0.737
 6559SOL    HW220577   6.653   4.189   0.612
 6560SOL     OW20578   3.646   2.735   1.884
 6560SOL    HW120579   3.726   2.771   1.838
 6560SOL    HW220580   3.627   2.642   1.851
 6561SOL     OW20581   3.797   4.028   2.477
 6561SOL    HW120582   3.849   4.082   2.543
 6561SOL    HW220583   3.842   3.940   2.463
 6562SOL     OW20584   6.320   4.826   6.600
 6562SOL    HW120585   6.366   4.853   6.515
 6562SOL    HW220586   6.289   4.731   6.591
 6563SOL     OW20587   0.774   6.617   7.004
 6563SOL    HW120588   0.856   6.631   0.035
 6563SOL    HW220589   0.758   6.698   6.948
 6564SOL     OW20590   0.803   3.681   1.986
 6564SOL    HW120591   0.870   3.752   1.964
 6564SOL    HW220592   0.731   3.681   1.916
 6565SOL     OW20593   6.423   2.201   4.931
 6565SOL    HW120594   6.485   2.155   4.995
 6565SOL    HW220595   6.330   2.165   4.943
 6566SOL     OW20596   3.857   6.701   1.272
 6566SOL    HW120597   3.764   6.680   1.304
 6566SOL    HW220598   3.857   6.791   1.228
 6567SOL     OW20599   4.196   2.136   1.439
 6567SOL    HW120600   4.279   2.113   1.489
 6567SOL    HW220601   4.136   2.056   1.434
 6568SOL     OW20602   4.865   4.853   2.274
 6568SOL    HW120603   4.804   4.836   2.351
 6568SOL    HW220604   4.813   4.893   2.199
 6569SOL     OW20605   2.983   4.713   1.358
 6569SOL    HW120606   3.048   4.685   1.428
 6569SOL    HW220607   3.001   4.663   1.274
 6570SOL     OW20608   5.027   6.989   1.298
 6570SOL    HW120609   5.065   0.012   1.378
 6570SOL    HW220610   5.037   0.021   1.217
 6571SOL     OW20611   2.322   6.734   2.207
 6571SOL    HW120612   2.319   6.717   2.305
 6571SOL    HW220613   2.278   6.821   2.186
 6572SOL     OW20614   6.430   4.885   4.974
 6572SOL    HW120615   6.507   4.885   4.911
 6572SOL    HW220616   6.410   4.979   5.002
 6573SOL     OW20617   3.104   1.717   3.199
 6573SOL    HW120618   3.173   1.766   3.253
 6573SOL    HW220619   3.063   1.780   3.133
 6574SOL     OW20620   3.053   6.019   2.153
 6574SOL    HW120621   3.062   6.052   2.247
 6574SOL    HW220622   3.036   6.097   2.092
 6575SOL     OW20623   0.835   1.215   1.718
 6575SOL    HW120624   0.810   1.224   1.622
 6575SOL    HW220625   0.927   1.175   1.725
 6576SOL     OW20626   1.711   6.176   6.286
 6576SOL    HW120627   1.658   6.091   6.291
 6576SOL    HW220628   1.785   6.173   6.353
 6577SOL     OW20629   0.753   1.515   3.325
 6577SOL    HW120630   0.681   1.578   3.355
 6577SOL    HW220631   0.754   1.434   3.385
 6578SOL     OW20632   6.929   4.982   3.180
 6578SOL    HW120633   6.847   4.941   3.220
 6578SOL    HW220634   6.968   5.047   3.244
 6579SOL     OW20635   0.236   4.326   4.293
 6579SOL    HW120636   0.322   4.295   4.254
 6579SOL    HW220637   0.213   4.272   4.373
 6580SOL     OW20638   5.993   1.332   1.266
 6580SOL    HW120639   6.049   1.360   1.344
 6580SOL    HW220640   5.974   1.234   1.272
 6581SOL     OW20641   3.682   0.836   6.187
 6581SOL    HW120642   3.726   0.925   6.178
 6581SOL    HW220643   3.668   0.797   6.096
 6582SOL     OW20644   1.480   0.216   1.791
 6582SOL    HW120645   1.416   0.167   1.849
 6582SOL    HW220646   1.535   0.278   1.848
 6583SOL     OW20647   4.226   0.809   5.906
 6583SOL    HW120648   4.127   0.794   5.909
 6583SOL    HW220649   4.245   0.907   5.905
 6584SOL     OW20650   5.331   1.230   0.272
 6584SOL    HW120651   5.380   1.143   0.261
 6584SOL    HW220652   5.234   1.212   0.289
 6585SOL     OW20653   6.390   0.952   0.443
 6585SOL    HW120654   6.434   1.022   0.499
 6585SOL    HW220655   6.326   0.996   0.380
 6586SOL     OW20656   5.948   2.141   5.969
 6586SOL    HW120657   5.905   2.062   5.925
 6586SOL    HW220658   6.001   2.192   5.900
 6587SOL     OW20659   2.831   5.761   4.182
 6587SOL    HW120660   2.769   5.749   4.104
 6587SOL    HW220661   2.907   5.819   4.155
 6588SOL     OW20662   1.972   3.997   1.728
 6588SOL    HW120663   1.985   4.069   1.660
 6588SOL    HW220664   1.880   4.003   1.765
 6589SOL     OW20665   4.504   0.505   6.881
 6589SOL    HW120666   4.436   0.482   6.951
 6589SOL    HW220667   4.531   0.600   6.890
 6590SOL     OW20668   0.694   1.765   5.948
 6590SOL    HW120669   0.762   1.809   6.007
 6590SOL    HW220670   0.683   1.818   5.864
 6591SOL     OW20671   6.019   6.117   2.283
 6591SOL    HW120672   6.109   6.158   2.297
 6591SOL    HW220673   5.975   6.159   2.204
 6592SOL     OW20674   4.963   6.853   3.938
 6592SOL    HW120675   4.933   6.808   3.854
 6592SOL    HW220676   4.968   6.787   4.012
 6593SOL     OW20677   2.202   2.510   3.462
 6593SOL    HW120678   2.264   2.580   3.498
 6593SOL    HW220679   2.117   2.510   3.516
 6594SOL     OW20680   4.155   1.114   0.690
 6594SOL    HW120681   4.151   1.079   0.597
 6594SOL    HW220682   4.128   1.043   0.754
 6595SOL     OW20683   0.518   4.050   1.297
 6595SOL    HW120684   0.534   4.122   1.230
 6595SOL    HW220685   0.604   4.029   1.344
 6596SOL     OW20686   4.307   0.326   5.043
 6596SOL    HW120687   4.286   0.232   5.014
 6596SOL    HW220688   4.280   0.390   4.971
 6597SOL     OW20689   1.079   6.453   3.462
 6597SOL    HW120690   0.990   6.500   3.460
 6597SOL    HW220691   1.145   6.511   3.510
 6598SOL     OW20692   1.720   6.059   5.173
 6598SOL    HW120693   1.746   6.079   5.079
 6598SOL    HW220694   1.734   6.141   5.229
 6599SOL     OW20695   3.936   5.487   5.456
 6599SOL    HW120696   4.031   5.456   5.453
 6599SOL    HW220697   3.923   5.559   5.388
 6600SOL     OW20698   5.043   5.283   5.289
 6600SOL    HW120699   5.075   5.281   5.383
 6600SOL    HW220700   5.106   5.336   5.233
 6601SOL     OW20701   1.012   0.473   0.913
 6601SOL    HW120702   0.937   0.511   0.966
 6601SOL    HW220703   1.095   0.472   0.969
 6602SOL     OW20704   0.013   1.630   1.677
 6602SOL    HW120705   7.019   1.727   1.695
 6602SOL    HW220706   0.083   1.621   1.607
 6603SOL     OW20707   1.201   2.843   4.121
 6603SOL    HW120708   1.292   2.847   4.161
 6603SOL    HW220709   1.137   2.804   4.187
 6604SOL     OW20710   2.975   6.556   1.484
 6604SOL    HW120711   3.038   6.519   1.552
 6604SOL    HW220712   2.892   6.589   1.530
 6605SOL     OW20713   4.904   4.799   0.746
 6605SOL    HW120714   4.877   4.725   0.684
 6605SOL    HW220715   4.845   4.879   0.729
 6606SOL     OW20716   4.927   6.518   2.072
 6606SOL    HW120717   4.832   6.551   2.071
 6606SOL    HW220718   4.946   6.468   1.987
 6607SOL     OW20719   2.202   1.489   1.504
 6607SOL    HW120720   2.201   1.585   1.477
 6607SOL    HW220721   2.265   1.477   1.581
 6608SOL     OW20722   5.563   5.021   2.395
 6608SOL    HW120723   5.467   5.050   2.396
 6608SOL    HW220724   5.575   4.947   2.329
 6609SOL     OW20725   4.671   0.899   6.170
 6609SOL    HW120726   4.743   0.891   6.239
 6609SOL    HW220727   4.589   0.850   6.200
 6610SOL     OW20728   2.382   0.179   6.675
 6610SOL    HW120729   2.372   0.235   6.593
 6610SOL    HW220730   2.339   0.224   6.753
 6611SOL     OW20731   6.716   2.313   2.842
 6611SOL    HW120732   6.699   2.329   2.745
 6611SOL    HW220733   6.729   2.215   2.858
 6612SOL     OW20734   0.407   3.771   0.002
 6612SOL    HW120735   0.466   3.727   0.069
 6612SOL    HW220736   0.365   3.702   6.967
 6613SOL     OW20737   6.075   6.087   3.736
 6613SOL    HW120738   5.986   6.127   3.715
 6613SOL    HW220739   6.102   6.025   3.662
 6614SOL     OW20740   4.558   6.455   6.675
 6614SOL    HW120741   4.481   6.413   6.628
 6614SOL    HW220742   4.530   6.481   6.768
 6615SOL     OW20743   0.721   3.654   4.794
 6615SOL    HW120744   0.731   3.573   4.852
 6615SOL    HW220745   0.757   3.634   4.703
 6616SOL     OW20746   4.337   1.081   5.941
 6616SOL    HW120747   4.294   1.170   5.936
 6616SOL    HW220748   4.437   1.092   5.946
 6617SOL     OW20749   3.176   6.212   3.264
 6617SOL    HW120750   3.105   6.232   3.332
 6617SOL    HW220751   3.220   6.126   3.286
 6618SOL     OW20752   0.899   3.426   2.684
 6618SOL    HW120753   0.888   3.486   2.764
 6618SOL    HW220754   0.969   3.464   2.624
 6619SOL     OW20755   6.516   6.943   4.880
 6619SOL    HW120756   6.502   0.016   4.860
 6619SOL    HW220757   6.431   6.905   4.917
 6620SOL     OW20758   2.014   2.616   5.671
 6620SOL    HW120759   2.033   2.709   5.639
 6620SOL    HW220760   2.100   2.568   5.686
 6621SOL     OW20761   2.915   3.521   0.670
 6621SOL    HW120762   2.885   3.513   0.575
 6621SOL    HW220763   2.915   3.617   0.697
 6622SOL     OW20764   6.334   6.194   1.707
 6622SOL    HW120765   6.240   6.227   1.708
 6622SOL    HW220766   6.384   6.241   1.634
 6623SOL     OW20767   3.395   3.070   1.760
 6623SOL    HW120768   3.297   3.059   1.745
 6623SOL    HW220769   3.420   3.033   1.850
 6624SOL     OW20770   2.703   6.830   4.108
 6624SOL    HW120771   2.643   6.895   4.155
 6624SOL    HW220772   2.790   6.875   4.087
 6625SOL     OW20773   5.222   2.407   6.374
 6625SOL    HW120774   5.293   2.348   6.337
 6625SOL    HW220775   5.221   2.401   6.473
 6626SOL     OW20776   3.482   4.895   3.537
 6626SOL    HW120777   3.572   4.899   3.579
 6626SOL    HW220778   3.413   4.925   3.603
 6627SOL     OW20779   2.222   0.890   5.785
 6627SOL    HW120780   2.172   0.832   5.720
 6627SOL    HW220781   2.319   0.865   5.783
 6628SOL     OW20782   5.015   5.388   3.398
 6628SOL    HW120783   5.101   5.430   3.366
 6628SOL    HW220784   5.013   5.292   3.372
 6629SOL     OW20785   3.197   6.521   0.764
 6629SOL    HW120786   3.146   6.435   0.754
 6629SOL    HW220787   3.202   6.545   0.861
 6630SOL     OW20788   3.444   1.870   0.990
 6630SOL    HW120789   3.428   1.920   1.076
 6630SOL    HW220790   3.515   1.917   0.938
 6631SOL     OW20791   4.527   0.274   2.447
 6631SOL    HW120792   4.557   0.331   2.523
 6631SOL    HW220793   4.471   0.198   2.482
 6632SOL     OW20794   6.900   0.925   1.562
 6632SOL    HW120795   6.821   0.897   1.508
 6632SOL    HW220796   6.969   0.853   1.560
 6633SOL     OW20797   1.719   5.534   5.838
 6633SOL    HW120798   1.769   5.607   5.791
 6633SOL    HW220799   1.626   5.565   5.857
 6634SOL     OW20800   5.624   3.379   5.794
 6634SOL    HW120801   5.612   3.329   5.708
 6634SOL    HW220802   5.609   3.477   5.778
 6635SOL     OW20803   4.251   5.184   2.998
 6635SOL    HW120804   4.351   5.175   2.990
 6635SOL    HW220805   4.215   5.223   2.913
 6636SOL     OW20806   2.208   2.327   5.927
 6636SOL    HW120807   2.146   2.377   5.987
 6636SOL    HW220808   2.195   2.357   5.832
 6637SOL     OW20809   1.235   0.431   6.907
 6637SOL    HW120810   1.276   0.521   6.891
 6637SOL    HW220811   1.307   0.361   6.902
 6638SOL     OW20812   4.112   4.740   5.202
 6638SOL    HW120813   4.168   4.796   5.263
 6638SOL    HW220814   4.170   4.696   5.134
 6639SOL     OW20815   5.641   6.228   6.099
 6639SOL    HW120816   5.703   6.289   6.148
 6639SOL    HW220817   5.671   6.220   6.004
 6640SOL     OW20818   0.103   1.976   5.143
 6640SOL    HW120819   0.186   2.005   5.094
 6640SOL    HW220820   0.116   1.991   5.241
 6641SOL     OW20821   2.274   3.038   6.567
 6641SOL    HW120822   2.316   3.087   6.644
 6641SOL    HW220823   2.301   3.082   6.481
 6642SOL     OW20824   2.857   5.036   0.295
 6642SOL    HW120825   2.938   5.014   0.241
 6642SOL    HW220826   2.882   5.098   0.369
 6643SOL     OW20827   6.679   4.595   6.969
 6643SOL    HW120828   6.778   4.582   6.973
 6643SOL    HW220829   6.641   4.544   6.892
 6644SOL     OW20830   3.063   4.817   1.983
 6644SOL    HW120831   3.101   4.823   1.891
 6644SOL    HW220832   2.993   4.745   1.985
 6645SOL     OW20833   6.446   5.071   0.569
 6645SOL    HW120834   6.422   4.978   0.599
 6645SOL    HW220835   6.522   5.104   0.624
 6646SOL     OW20836   4.352   5.718   4.199
 6646SOL    HW120837   4.254   5.702   4.192
 6646SOL    HW220838   4.370   5.782   4.274
 6647SOL     OW20839   3.470   1.673   2.657
 6647SOL    HW120840   3.455   1.628   2.745
 6647SOL    HW220841   3.520   1.611   2.596
 6648SOL     OW20842   3.652   6.062   1.841
 6648SOL    HW120843   3.565   6.064   1.791
 6648SOL    HW220844   3.637   6.019   1.930
 6649SOL     OW20845   4.822   1.795   6.384
 6649SOL    HW120846   4.740   1.747   6.416
 6649SOL    HW220847   4.902   1.757   6.430
 6650SOL     OW20848   4.056   1.774   4.526
 6650SOL    HW120849   3.985   1.705   4.543
 6650SOL    HW220850   4.145   1.730   4.524
 6651SOL     OW20851   1.336   1.662   6.935
 6651SOL    HW120852   1.357   1.751   6.975
 6651SOL    HW220853   1.238   1.656   6.917
 6652SOL     OW20854   6.548   4.679   0.356
 6652SOL    HW120855   6.566   4.594   0.306
 6652SOL    HW220856   6.549   4.756   0.292
 6653SOL     OW20857   3.791   2.968   3.192
 6653SOL    HW120858   3.717   2.928   3.137
 6653SOL    HW220859   3.851   3.022   3.133
 6654SOL     OW20860   2.464   2.941   1.102
 6654SOL    HW120861   2.418   2.929   1.014
 6654SOL    HW220862   2.419   3.015   1.153
 6655SOL     OW20863   2.680   6.962   1.516
 6655SOL    HW120864   2.694   0.005   1.589
 6655SOL    HW220865   2.658   7.010   1.431
 6656SOL     OW20866   6.174   1.425   3.012
 6656SOL    HW120867   6.229   1.395   2.934
 6656SOL    HW220868   6.194   1.521   3.031
 6657SOL     OW20869   4.615   6.509   6.358
 6657SOL    HW120870   4.596   6.487   6.262
 6657SOL    HW220871   4.543   6.568   6.393
 6658SOL     OW20872   6.036   1.437   5.075
 6658SOL    HW120873   6.106   1.382   5.121
 6658SOL    HW220874   5.958   1.451   5.136
 6659SOL     OW20875   2.651   2.097   0.354
 6659SOL    HW120876   2.741   2.066   0.386
 6659SOL    HW220877   2.592   2.019   0.336
 6660SOL     OW20878   0.296   6.294   1.258
 6660SOL    HW120879   0.371   6.339   1.208
 6660SOL    HW220880   0.210   6.309   1.209
 6661SOL     OW20881   0.503   4.961   3.822
 6661SOL    HW120882   0.577   5.029   3.822
 6661SOL    HW220883   0.419   5.003   3.787
 6662SOL     OW20884   1.598   0.558   6.829
 6662SOL    HW120885   1.524   0.571   6.895
 6662SOL    HW220886   1.675   0.513   6.874
 6663SOL     OW20887   6.995   5.841   3.017
 6663SOL    HW120888   7.022   5.869   2.925
 6663SOL    HW220889   6.911   5.787   3.013
 6664SOL     OW20890   1.621   6.886   1.204
 6664SOL    HW120891   1.563   6.941   1.264
 6664SOL    HW220892   1.565   6.818   1.156
 6665SOL     OW20893   1.930   0.698   2.942
 6665SOL    HW120894   1.979   0.612   2.951
 6665SOL    HW220895   1.927   0.745   3.030
 6666SOL     OW20896   5.838   1.595   5.259
 6666SOL    HW120897   5.925   1.623   5.298
 6666SOL    HW220898   5.788   1.539   5.324
 6667SOL     OW20899   7.023   5.094   4.918
 6667SOL    HW120900   7.004   5.188   4.946
 6667SOL    HW220901   0.063   5.094   4.842
 6668SOL     OW20902   6.594   6.233   2.247
 6668SOL    HW120903   6.496   6.217   2.252
 6668SOL    HW220904   6.614   6.290   2.167
 6669SOL     OW20905   1.912   3.351   3.763
 6669SOL    HW120906   2.004   3.364   3.800
 6669SOL    HW220907   1.890   3.427   3.703
 6670SOL     OW20908   3.453   3.832   6.423
 6670SOL    HW120909   3.417   3.792   6.338
 6670SOL    HW220910   3.553   3.839   6.416
 6671SOL     OW20911   5.847   5.323   0.803
 6671SOL    HW120912   5.899   5.252   0.755
 6671SOL    HW220913   5.897   5.409   0.800
 6672SOL     OW20914   0.914   1.449   5.254
 6672SOL    HW120915   0.865   1.463   5.168
 6672SOL    HW220916   0.904   1.530   5.312
 6673SOL     OW20917   4.400   5.887   2.956
 6673SOL    HW120918   4.452   5.817   3.006
 6673SOL    HW220919   4.306   5.889   2.989
 6674SOL     OW20920   0.879   5.257   6.183
 6674SOL    HW120921   0.786   5.242   6.150
 6674SOL    HW220922   0.924   5.169   6.199
 6675SOL     OW20923   4.612   4.071   1.691
 6675SOL    HW120924   4.521   4.036   1.670
 6675SOL    HW220925   4.604   4.150   1.752
 6676SOL     OW20926   0.113   3.586   5.735
 6676SOL    HW120927   0.061   3.639   5.801
 6676SOL    HW220928   0.116   3.490   5.764
 6677SOL     OW20929   0.330   3.197   0.210
 6677SOL    HW120930   0.384   3.205   0.294
 6677SOL    HW220931   0.369   3.127   0.151
 6678SOL     OW20932   1.562   2.488   0.076
 6678SOL    HW120933   1.494   2.489   0.003
 6678SOL    HW220934   1.630   2.560   0.059
 6679SOL     OW20935   2.063   1.750   4.919
 6679SOL    HW120936   2.049   1.654   4.944
 6679SOL    HW220937   2.014   1.770   4.835
 6680SOL     OW20938   4.503   5.832   5.750
 6680SOL    HW120939   4.407   5.855   5.732
 6680SOL    HW220940   4.562   5.907   5.720
 6681SOL     OW20941   4.870   5.110   0.168
 6681SOL    HW120942   4.956   5.074   0.131
 6681SOL    HW220943   4.809   5.134   0.092
 6682SOL     OW20944   1.087   4.065   2.388
 6682SOL    HW120945   1.000   4.053   2.435
 6682SOL    HW220946   1.162   4.057   2.454
 6683SOL     OW20947   5.189   2.342   5.947
 6683SOL    HW120948   5.241   2.426   5.962
 6683SOL    HW220949   5.156   2.340   5.853
 6684SOL     OW20950   1.939   6.507   0.973
 6684SOL    HW120951   1.910   6.602   0.961
 6684SOL    HW220952   1.860   6.452   0.999
 6685SOL     OW20953   5.182   1.634   5.804
 6685SOL    HW120954   5.109   1.670   5.746
 6685SOL    HW220955   5.167   1.660   5.899
 6686SOL     OW20956   5.798   4.992   3.687
 6686SOL    HW120957   5.786   4.917   3.751
 6686SOL    HW220958   5.859   5.061   3.726
 6687SOL     OW20959   0.752   2.014   1.531
 6687SOL    HW120960   0.850   2.033   1.521
 6687SOL    HW220961   0.711   2.001   1.441
 6688SOL     OW20962   0.432   4.239   1.751
 6688SOL    HW120963   0.399   4.211   1.841
 6688SOL    HW220964   0.370   4.309   1.713
 6689SOL     OW20965   4.193   2.589   0.526
 6689SOL    HW120966   4.254   2.651   0.575
 6689SOL    HW220967   4.150   2.526   0.591
 6690SOL     OW20968   2.649   1.096   1.573
 6690SOL    HW120969   2.742   1.117   1.602
 6690SOL    HW220970   2.646   1.004   1.534
 6691SOL     OW20971   3.135   5.797   1.212
 6691SOL    HW120972   3.229   5.830   1.219
 6691SOL    HW220973   3.133   5.699   1.234
 6692SOL     OW20974   2.895   4.835   5.186
 6692SOL    HW120975   2.991   4.848   5.165
 6692SOL    HW220976   2.862   4.750   5.146
 6693SOL     OW20977   5.292   3.327   6.414
 6693SOL    HW120978   5.341   3.381   6.482
 6693SOL    HW220979   5.251   3.388   6.346
 6694SOL     OW20980   4.606   5.877   6.987
 6694SOL    HW120981   4.513   5.845   6.973
 6694SOL    HW220982   4.664   5.846   6.911
 6695SOL     OW20983   0.901   1.929   6.638
 6695SOL    HW120984   0.872   1.841   6.602
 6695SOL    HW220985   0.889   1.930   6.738
 6696SOL     OW20986   1.963   2.424   0.544
 6696SOL    HW120987   1.879   2.450   0.496
 6696SOL    HW220988   1.980   2.326   0.531
 6697SOL     OW20989   4.380   2.309   2.981
 6697SOL    HW120990   4.451   2.376   2.961
 6697SOL    HW220991   4.343   2.325   3.072
 6698SOL     OW20992   3.790   2.243   0.399
 6698SOL    HW120993   3.833   2.232   0.309
 6698SOL    HW220994   3.841   2.189   0.467
 6699SOL     OW20995   3.343   4.636   0.293
 6699SOL    HW120996   3.247   4.661   0.282
 6699SOL    HW220997   3.398   4.684   0.225
 6700SOL     OW20998   0.453   5.527   0.948
 6700SOL    HW120999   0.424   5.621   0.964
 6700SOL    HW221000   0.540   5.510   0.993
 6701SOL     OW21001   6.165   3.125   1.413
 6701SOL    HW121002   6.249   3.077   1.389
 6701SOL    HW221003   6.105   3.063   1.465
 6702SOL     OW21004   2.943   2.524   0.069
 6702SOL    HW121005   2.879   2.563   0.136
 6702SOL    HW221006   3.025   2.581   0.064
 6703SOL     OW21007   6.151   1.697   6.972
 6703SOL    HW121008   6.247   1.713   6.947
 6703SOL    HW221009   6.098   1.781   6.960
 6704SOL     OW21010   4.438   2.373   2.558
 6704SOL    HW121011   4.373   2.359   2.482
 6704SOL    HW221012   4.498   2.450   2.536
 6705SOL     OW21013   0.328   1.761   2.085
 6705SOL    HW121014   0.411   1.766   2.030
 6705SOL    HW221015   0.352   1.745   2.181
 6706SOL     OW21016   1.350   4.403   0.604
 6706SOL    HW121017   1.337   4.489   0.555
 6706SOL    HW221018   1.418   4.347   0.556
 6707SOL     OW21019   6.378   5.747   4.804
 6707SOL    HW121020   6.381   5.824   4.868
 6707SOL    HW221021   6.411   5.778   4.714
 6708SOL     OW21022   1.835   5.949   2.440
 6708SOL    HW121023   1.834   5.860   2.485
 6708SOL    HW221024   1.866   5.939   2.346
 6709SOL     OW21025   3.539   6.119   1.175
 6709SOL    HW121026   3.526   6.057   1.098
 6709SOL    HW221027   3.453   6.165   1.196
 6710SOL     OW21028   2.636   2.092   6.203
 6710SOL    HW121029   2.734   2.112   6.206
 6710SOL    HW221030   2.594   2.123   6.289
 6711SOL     OW21031   5.788   4.620   6.447
 6711SOL    HW121032   5.773   4.526   6.420
 6711SOL    HW221033   5.720   4.647   6.515
 6712SOL     OW21034   4.420   5.327   0.523
 6712SOL    HW121035   4.402   5.417   0.563
 6712SOL    HW221036   4.505   5.329   0.471
 6713SOL     OW21037   2.299   1.752   1.433
 6713SOL    HW121038   2.351   1.775   1.515
 6713SOL    HW221039   2.361   1.738   1.357
 6714SOL     OW21040   5.565   0.052   5.276
 6714SOL    HW121041   5.553   0.072   5.179
 6714SOL    HW221042   5.582   0.137   5.326
 6715SOL     OW21043   6.968   0.810   0.092
 6715SOL    HW121044   6.980   0.792   0.189
 6715SOL    HW221045   6.932   0.728   0.047
 6716SOL     OW21046   1.639   6.424   1.440
 6716SOL    HW121047   1.708   6.463   1.380
 6716SOL    HW221048   1.551   6.419   1.391
 6717SOL     OW21049   4.423   3.036   0.791
 6717SOL    HW121050   4.472   3.039   0.878
 6717SOL    HW221051   4.471   3.092   0.724
 6718SOL     OW21052   4.191   5.759   6.678
 6718SOL    HW121053   4.261   5.793   6.615
 6718SOL    HW221054   4.101   5.767   6.636
 6719SOL     OW21055   0.643   0.148   6.168
 6719SOL    HW121056   0.612   0.227   6.221
 6719SOL    HW221057   0.743   0.146   6.167
 6720SOL     OW21058   2.652   5.985   1.850
 6720SOL    HW121059   2.592   5.978   1.930
 6720SOL    HW221060   2.608   6.042   1.781
 6721SOL     OW21061   5.475   6.524   4.138
 6721SOL    HW121062   5.514   6.443   4.182
 6721SOL    HW221063   5.387   6.546   4.182
 6722SOL     OW21064   5.211   3.325   1.037
 6722SOL    HW121065   5.271   3.399   1.068
 6722SOL    HW221066   5.147   3.361   0.969
 6723SOL     OW21067   2.330   6.860   3.006
 6723SOL    HW121068   2.348   6.913   3.088
 6723SOL    HW221069   2.294   6.770   3.032
 6724SOL     OW21070   1.968   4.462   5.634
 6724SOL    HW121071   1.959   4.495   5.540
 6724SOL    HW221072   1.948   4.536   5.697
 6725SOL     OW21073   1.096   4.393   2.352
 6725SOL    HW121074   1.074   4.359   2.443
 6725SOL    HW221075   1.074   4.491   2.346
 6726SOL     OW21076   1.818   2.411   5.096
 6726SOL    HW121077   1.882   2.359   5.153
 6726SOL    HW221078   1.740   2.440   5.153
 6727SOL     OW21079   5.599   3.716   6.026
 6727SOL    HW121080   5.659   3.795   6.013
 6727SOL    HW221081   5.653   3.632   6.020
 6728SOL     OW21082   4.632   1.702   4.353
 6728SOL    HW121083   4.640   1.727   4.449
 6728SOL    HW221084   4.619   1.784   4.298
 6729SOL     OW21085   6.467   1.220   2.743
 6729SOL    HW121086   6.490   1.254   2.652
 6729SOL    HW221087   6.447   1.296   2.804
 6730SOL     OW21088   2.384   6.855   6.956
 6730SOL    HW121089   2.365   6.759   6.974
 6730SOL    HW221090   2.353   6.879   6.865
 6731SOL     OW21091   2.716   4.468   1.345
 6731SOL    HW121092   2.686   4.544   1.402
 6731SOL    HW221093   2.804   4.434   1.380
 6732SOL     OW21094   2.819   5.856   7.012
 6732SOL    HW121095   2.793   5.865   6.916
 6732SOL    HW221096   2.884   5.780   7.022
 6733SOL     OW21097   4.547   5.577   6.529
 6733SOL    HW121098   4.601   5.617   6.456
 6733SOL    HW221099   4.598   5.501   6.570
 6734SOL     OW21100   0.681   3.214   5.737
 6734SOL    HW121101   0.593   3.208   5.690
 6734SOL    HW221102   0.750   3.161   5.687
 6735SOL     OW21103   0.578   5.091   5.147
 6735SOL    HW121104   0.609   5.080   5.241
 6735SOL    HW221105   0.584   5.187   5.120
 6736SOL     OW21106   2.035   3.513   0.799
 6736SOL    HW121107   2.029   3.515   0.899
 6736SOL    HW221108   2.062   3.602   0.765
 6737SOL     OW21109   2.152   1.287   1.348
 6737SOL    HW121110   2.177   1.371   1.396
 6737SOL    HW221111   2.190   1.288   1.256
 6738SOL     OW21112   2.103   2.636   2.364
 6738SOL    HW121113   2.202   2.644   2.355
 6738SOL    HW221114   2.069   2.568   2.299
 6739SOL     OW21115   3.295   5.562   5.443
 6739SOL    HW121116   3.201   5.589   5.419
 6739SOL    HW221117   3.297   5.531   5.538
 6740SOL     OW21118   1.688   1.243   4.463
 6740SOL    HW121119   1.659   1.272   4.554
 6740SOL    HW221120   1.780   1.204   4.468
 6741SOL     OW21121   4.576   1.793   6.186
 6741SOL    HW121122   4.477   1.799   6.189
 6741SOL    HW221123   4.613   1.868   6.132
 6742SOL     OW21124   0.325   5.872   4.333
 6742SOL    HW121125   0.376   5.958   4.340
 6742SOL    HW221126   0.380   5.797   4.370
 6743SOL     OW21127   3.940   3.790   6.668
 6743SOL    HW121128   4.037   3.774   6.688
 6743SOL    HW221129   3.930   3.876   6.618
 6744SOL     OW21130   3.787   5.047   6.074
 6744SOL    HW121131   3.769   4.958   6.116
 6744SOL    HW221132   3.767   5.044   5.976
 6745SOL     OW21133   1.056   5.255   2.785
 6745SOL    HW121134   1.024   5.296   2.699
 6745SOL    HW221135   1.118   5.179   2.764
 6746SOL     OW21136   0.891   0.845   1.573
 6746SOL    HW121137   0.900   0.803   1.663
 6746SOL    HW221138   0.796   0.873   1.559
 6747SOL     OW21139   5.244   6.481   4.299
 6747SOL    HW121140   5.282   6.435   4.379
 6747SOL    HW221141   5.145   6.491   4.309
 6748SOL     OW21142   0.989   1.098   2.246
 6748SOL    HW121143   0.994   1.195   2.226
 6748SOL    HW221144   0.897   1.073   2.274
 6749SOL     OW21145   3.469   0.516   6.917
 6749SOL    HW121146   3.560   0.501   6.878
 6749SOL    HW221147   3.425   0.428   6.932
 6750SOL     OW21148   2.785   1.957   4.266
 6750SOL    HW121149   2.847   1.886   4.299
 6750SOL    HW221150   2.818   2.047   4.296
 6751SOL     OW21151   2.563   2.068   3.963
 6751SOL    HW121152   2.539   2.021   3.879
 6751SOL    HW221153   2.502   2.038   4.037
 6752SOL     OW21154   6.302   2.696   1.149
 6752SOL    HW121155   6.310   2.763   1.222
 6752SOL    HW221156   6.221   2.639   1.165
 6753SOL     OW21157   4.332   1.244   6.667
 6753SOL    HW121158   4.301   1.225   6.574
 6753SOL    HW221159   4.370   1.161   6.707
 6754SOL     OW21160   6.625   2.014   6.364
 6754SOL    HW121161   6.713   2.024   6.316
 6754SOL    HW221162   6.564   2.087   6.336
 6755SOL     OW21163   4.913   1.589   3.377
 6755SOL    HW121164   5.012   1.577   3.383
 6755SOL    HW221165   4.889   1.684   3.395
 6756SOL     OW21166   4.810   4.034   4.400
 6756SOL    HW121167   4.883   4.074   4.455
 6756SOL    HW221168   4.723   4.077   4.424
 6757SOL     OW21169   4.531   5.750   0.556
 6757SOL    HW121170   4.526   5.745   0.456
 6757SOL    HW221171   4.626   5.738   0.585
 6758SOL     OW21172   5.322   3.810   2.181
 6758SOL    HW121173   5.371   3.724   2.190
 6758SOL    HW221174   5.266   3.808   2.098
 6759SOL     OW21175   1.558   4.348   3.302
 6759SOL    HW121176   1.569   4.438   3.258
 6759SOL    HW221177   1.482   4.300   3.259
 6760SOL     OW21178   0.593   5.008   4.613
 6760SOL    HW121179   0.668   4.945   4.635
 6760SOL    HW221180   0.510   4.978   4.661
 6761SOL     OW21181   5.502   2.503   5.590
 6761SOL    HW121182   5.570   2.450   5.641
 6761SOL    HW221183   5.537   2.595   5.573
 6762SOL     OW21184   6.414   4.827   3.504
 6762SOL    HW121185   6.455   4.773   3.578
 6762SOL    HW221186   6.459   4.916   3.499
 6763SOL     OW21187   5.898   5.785   4.749
 6763SOL    HW121188   5.976   5.759   4.692
 6763SOL    HW221189   5.814   5.753   4.708
 6764SOL     OW21190   3.127   3.882   5.954
 6764SOL    HW121191   3.179   3.942   5.894
 6764SOL    HW221192   3.116   3.792   5.910
 6765SOL     OW21193   6.602   4.611   3.629
 6765SOL    HW121194   6.655   4.633   3.710
 6765SOL    HW221195   6.591   4.511   3.623
 6766SOL     OW21196   1.833   0.589   6.270
 6766SOL    HW121197   1.847   0.584   6.171
 6766SOL    HW221198   1.904   0.647   6.310
 6767SOL     OW21199   0.332   2.447   0.168
 6767SOL    HW121200   0.268   2.509   0.213
 6767SOL    HW221201   0.422   2.455   0.211
 6768SOL     OW21202   0.621   0.308   3.939
 6768SOL    HW121203   0.695   0.375   3.946
 6768SOL    HW221204   0.650   0.222   3.980
 6769SOL     OW21205   3.112   1.972   5.219
 6769SOL    HW121206   3.034   1.921   5.255
 6769SOL    HW221207   3.131   1.942   5.126
 6770SOL     OW21208   0.260   2.591   3.615
 6770SOL    HW121209   0.360   2.592   3.615
 6770SOL    HW221210   0.227   2.511   3.666
 6771SOL     OW21211   3.638   2.158   3.382
 6771SOL    HW121212   3.649   2.210   3.297
 6771SOL    HW221213   3.727   2.141   3.423
 6772SOL     OW21214   5.895   1.449   2.587
 6772SOL    HW121215   5.949   1.501   2.521
 6772SOL    HW221216   5.908   1.351   2.570
 6773SOL     OW21217   6.874   6.008   1.613
 6773SOL    HW121218   6.803   5.973   1.552
 6773SOL    HW221219   6.879   6.108   1.605
 6774SOL     OW21220   1.668   1.804   5.314
 6774SOL    HW121221   1.722   1.887   5.322
 6774SOL    HW221222   1.658   1.780   5.217
 6775SOL     OW21223   0.819   1.714   4.444
 6775SOL    HW121224   0.883   1.671   4.508
 6775SOL    HW221225   0.765   1.783   4.493
 6776SOL     OW21226   3.822   4.263   1.593
 6776SOL    HW121227   3.918   4.288   1.601
 6776SOL    HW221228   3.770   4.337   1.551
 6777SOL     OW21229   4.636   5.562   1.536
 6777SOL    HW121230   4.604   5.471   1.562
 6777SOL    HW221231   4.734   5.559   1.517
 6778SOL     OW21232   6.083   3.630   2.700
 6778SOL    HW121233   6.066   3.611   2.603
 6778SOL    HW221234   6.005   3.680   2.738
 6779SOL     OW21235   5.974   4.482   5.797
 6779SOL    HW121236   5.904   4.412   5.786
 6779SOL    HW221237   6.021   4.496   5.710
 6780SOL     OW21238   2.640   2.490   3.232
 6780SOL    HW121239   2.647   2.501   3.331
 6780SOL    HW221240   2.544   2.482   3.206
 6781SOL     OW21241   6.660   1.393   4.326
 6781SOL    HW121242   6.691   1.443   4.407
 6781SOL    HW221243   6.584   1.333   4.351
 6782SOL     OW21244   6.703   2.069   3.552
 6782SOL    HW121245   6.791   2.105   3.581
 6782SOL    HW221246   6.707   2.043   3.456
 6783SOL     OW21247   1.091   4.899   5.505
 6783SOL    HW121248   1.074   4.939   5.415
 6783SOL    HW221249   1.083   4.800   5.499
 6784SOL     OW21250   1.899   3.328   1.298
 6784SOL    HW121251   1.913   3.372   1.387
 6784SOL    HW221252   1.971   3.261   1.283
 6785SOL     OW21253   5.676   4.883   4.705
 6785SOL    HW121254   5.714   4.975   4.692
 6785SOL    HW221255   5.724   4.818   4.648
 6786SOL     OW21256   6.552   2.328   0.907
 6786SOL    HW121257   6.571   2.231   0.919
 6786SOL    HW221258   6.463   2.340   0.862
 6787SOL     OW21259   3.681   2.578   6.989
 6787SOL    HW121260   3.595   2.566   0.014
 6787SOL    HW221261   3.736   2.495   6.996
 6788SOL     OW21262   0.672   4.066   4.075
 6788SOL    HW121263   0.644   3.983   4.123
 6788SOL    HW221264   0.592   4.111   4.035
 6789SOL     OW21265   6.544   3.811   3.904
 6789SOL    HW121266   6.513   3.903   3.882
 6789SOL    HW221267   6.545   3.756   3.820
 6790SOL     OW21268   1.628   4.773   6.159
 6790SOL    HW121269   1.608   4.771   6.060
 6790SOL    HW221270   1.548   4.806   6.208
 6791SOL     OW21271   4.347   1.310   4.084
 6791SOL    HW121272   4.397   1.301   4.170
 6791SOL    HW221273   4.285   1.388   4.089
 6792SOL     OW21274   4.403   0.070   5.250
 6792SOL    HW121275   4.349   0.037   5.173
 6792SOL    HW221276   4.500   0.071   5.225
 6793SOL     OW21277   2.143   3.348   0.299
 6793SOL    HW121278   2.097   3.259   0.299
 6793SOL    HW221279   2.214   3.348   0.229
 6794SOL     OW21280   4.489   1.396   5.659
 6794SOL    HW121281   4.532   1.437   5.740
 6794SOL    HW221282   4.391   1.412   5.662
 6795SOL     OW21283   1.128   0.943   1.474
 6795SOL    HW121284   1.044   0.904   1.511
 6795SOL    HW221285   1.198   0.872   1.468
 6796SOL     OW21286   5.655   1.341   2.372
 6796SOL    HW121287   5.748   1.354   2.406
 6796SOL    HW221288   5.625   1.248   2.390
 6797SOL     OW21289   0.523   1.826   1.875
 6797SOL    HW121290   0.445   1.841   1.814
 6797SOL    HW221291   0.592   1.772   1.827
 6798SOL     OW21292   5.639   0.219   1.977
 6798SOL    HW121293   5.613   0.287   1.908
 6798SOL    HW221294   5.558   0.167   2.004
 6799SOL     OW21295   5.157   7.010   3.152
 6799SOL    HW121296   5.182   6.917   3.178
 6799SOL    HW221297   5.220   0.050   3.195
 6800SOL     OW21298   0.092   1.105   1.361
 6800SOL    HW121299   0.168   1.052   1.323
 6800SOL    HW221300   0.036   1.046   1.420
 6801SOL     OW21301   1.444   6.033   4.757
 6801SOL    HW121302   1.530   6.079   4.733
 6801SOL    HW221303   1.413   6.065   4.846
 6802SOL     OW21304   3.175   5.958   1.540
 6802SOL    HW121305   3.084   5.940   1.502
 6802SOL    HW221306   3.238   5.984   1.467
 6803SOL     OW21307   4.875   4.587   6.463
 6803SOL    HW121308   4.838   4.498   6.490
 6803SOL    HW221309   4.821   4.624   6.387
 6804SOL     OW21310   2.524   4.489   2.789
 6804SOL    HW121311   2.600   4.552   2.807
 6804SOL    HW221312   2.501   4.491   2.692
 6805SOL     OW21313   0.088   4.627   5.857
 6805SOL    HW121314   0.111   4.709   5.910
 6805SOL    HW221315   7.016   4.604   5.872
 6806SOL     OW21316   6.937   1.001   3.369
 6806SOL    HW121317   7.020   1.016   3.424
 6806SOL    HW221318   6.949   0.919   3.313
 6807SOL     OW21319   3.054   3.735   1.904
 6807SOL    HW121320   3.012   3.764   1.990
 6807SOL    HW221321   3.099   3.646   1.917
 6808SOL     OW21322   4.120   1.687   4.897
 6808SOL    HW121323   4.152   1.676   4.991
 6808SOL    HW221324   4.146   1.607   4.843
 6809SOL     OW21325   5.880   4.119   2.101
 6809SOL    HW121326   5.856   4.207   2.143
 6809SOL    HW221327   5.804   4.056   2.110
 6810SOL     OW21328   2.668   1.190   3.606
 6810SOL    HW121329   2.692   1.258   3.676
 6810SOL    HW221330   2.616   1.116   3.648
 6811SOL     OW21331   6.347   1.747   2.254
 6811SOL    HW121332   6.252   1.752   2.222
 6811SOL    HW221333   6.364   1.821   2.319
 6812SOL     OW21334   2.848   3.883   5.163
 6812SOL    HW121335   2.780   3.904   5.233
 6812SOL    HW221336   2.914   3.958   5.158
 6813SOL     OW21337   5.853   3.804   1.871
 6813SOL    HW121338   5.785   3.778   1.803
 6813SOL    HW221339   5.879   3.900   1.858
 6814SOL     OW21340   4.701   1.474   6.123
 6814SOL    HW121341   4.718   1.558   6.174
 6814SOL    HW221342   4.761   1.471   6.043
 6815SOL     OW21343   2.445   5.280   6.450
 6815SOL    HW121344   2.468   5.330   6.534
 6815SOL    HW221345   2.516   5.296   6.381
 6816SOL     OW21346   0.609   2.042   4.013
 6816SOL    HW121347   0.538   1.972   4.003
 6816SOL    HW221348   0.672   2.037   3.935
 6817SOL     OW21349   3.506   1.989   2.157
 6817SOL    HW121350   3.572   2.049   2.111
 6817SOL    HW221351   3.545   1.957   2.244
 6818SOL     OW21352   2.150   6.462   6.381
 6818SOL    HW121353   2.096   6.502   6.307
 6818SOL    HW221354   2.219   6.401   6.343
 6819SOL     OW21355   4.346   4.757   2.724
 6819SOL    HW121356   4.399   4.697   2.663
 6819SOL    HW221357   4.369   4.852   2.705
 6820SOL     OW21358   2.396   6.024   1.083
 6820SOL    HW121359   2.430   6.085   1.012
 6820SOL    HW221360   2.467   5.957   1.107
 6821SOL     OW21361   4.452   2.959   5.305
 6821SOL    HW121362   4.531   3.016   5.286
 6821SOL    HW221363   4.371   3.016   5.318
 6822SOL     OW21364   6.895   2.435   6.593
 6822SOL    HW121365   6.857   2.397   6.509
 6822SOL    HW221366   6.984   2.477   6.573
 6823SOL     OW21367   5.452   3.597   6.950
 6823SOL    HW121368   5.374   3.651   6.919
 6823SOL    HW221369   5.426   3.501   6.958
 6824SOL     OW21370   1.119   2.281   6.535
 6824SOL    HW121371   1.213   2.278   6.571
 6824SOL    HW221372   1.097   2.192   6.494
 6825SOL     OW21373   6.566   6.201   1.870
 6825SOL    HW121374   6.485   6.242   1.828
 6825SOL    HW221375   6.537   6.131   1.935
 6826SOL     OW21376   0.516   3.520   3.443
 6826SOL    HW121377   0.614   3.540   3.442
 6826SOL    HW221378   0.502   3.424   3.465
 6827SOL     OW21379   4.231   6.197   4.709
 6827SOL    HW121380   4.303   6.189   4.778
 6827SOL    HW221381   4.203   6.105   4.680
 6828SOL     OW21382   3.505   2.035   2.953
 6828SOL    HW121383   3.563   1.955   2.968
 6828SOL    HW221384   3.459   2.060   3.039
 6829SOL     OW21385   5.821   6.889   4.659
 6829SOL    HW121386   5.835   6.795   4.629
 6829SOL    HW221387   5.760   6.890   4.738
 6830SOL     OW21388   5.236   0.527   3.012
 6830SOL    HW121389   5.203   0.469   3.087
 6830SOL    HW221390   5.333   0.544   3.024
 6831SOL     OW21391   1.277   1.535   6.536
 6831SOL    HW121392   1.177   1.539   6.545
 6831SOL    HW221393   1.307   1.602   6.468
 6832SOL     OW21394   3.120   2.235   0.722
 6832SOL    HW121395   3.069   2.314   0.689
 6832SOL    HW221396   3.171   2.194   0.646
 6833SOL     OW21397   2.954   5.326   5.891
 6833SOL    HW121398   3.033   5.323   5.952
 6833SOL    HW221399   2.960   5.407   5.832
 6834SOL     OW21400   5.301   7.006   0.227
 6834SOL    HW121401   5.297   6.907   0.214
 6834SOL    HW221402   5.243   0.026   0.159
 6835SOL     OW21403   2.659   1.944   4.560
 6835SOL    HW121404   2.656   1.958   4.461
 6835SOL    HW221405   2.573   1.901   4.590
 6836SOL     OW21406   2.196   5.052   6.494
 6836SOL    HW121407   2.277   4.998   6.471
 6836SOL    HW221408   2.146   5.008   6.568
 6837SOL     OW21409   0.908   0.416   1.800
 6837SOL    HW121410   0.824   0.368   1.773
 6837SOL    HW221411   0.975   0.410   1.726
 6838SOL     OW21412   2.745   4.568   5.372
 6838SOL    HW121413   2.702   4.479   5.387
 6838SOL    HW221414   2.826   4.557   5.315
 6839SOL     OW21415   5.568   2.656   3.871
 6839SOL    HW121416   5.553   2.711   3.789
 6839SOL    HW221417   5.602   2.715   3.944
 6840SOL     OW21418   2.633   6.690   5.220
 6840SOL    HW121419   2.689   6.614   5.187
 6840SOL    HW221420   2.536   6.670   5.204
 6841SOL     OW21421   3.698   5.930   1.328
 6841SOL    HW121422   3.644   5.913   1.246
 6841SOL    HW221423   3.783   5.976   1.302
 6842SOL     OW21424   0.479   4.067   6.600
 6842SOL    HW121425   0.571   4.098   6.623
 6842SOL    HW221426   0.483   4.004   6.523
 6843SOL     OW21427   4.109   2.216   2.018
 6843SOL    HW121428   4.061   2.251   1.938
 6843SOL    HW221429   4.042   2.186   2.086
 6844SOL     OW21430   4.784   5.059   4.019
 6844SOL    HW121431   4.729   5.048   4.101
 6844SOL    HW221432   4.731   5.033   3.939
 6845SOL     OW21433   4.457   5.056   2.345
 6845SOL    HW121434   4.469   5.046   2.247
 6845SOL    HW221435   4.514   5.131   2.379
 6846SOL     OW21436   3.586   3.179   2.822
 6846SOL    HW121437   3.602   3.082   2.804
 6846SOL    HW221438   3.633   3.234   2.753
 6847SOL     OW21439   5.173   3.982   1.659
 6847SOL    HW121440   5.097   4.024   1.707
 6847SOL    HW221441   5.143   3.954   1.567
 6848SOL     OW21442   0.710   5.632   4.187
 6848SOL    HW121443   0.712   5.691   4.267
 6848SOL    HW221444   0.631   5.655   4.130
 6849SOL     OW21445   3.545   5.918   3.980
 6849SOL    HW121446   3.466   5.903   3.920
 6849SOL    HW221447   3.609   5.842   3.970
 6850SOL     OW21448   5.391   2.561   3.081
 6850SOL    HW121449   5.376   2.582   2.985
 6850SOL    HW221450   5.331   2.487   3.109
 6851SOL     OW21451   1.732   5.170   5.865
 6851SOL    HW121452   1.765   5.141   5.775
 6851SOL    HW221453   1.810   5.184   5.926
 6852SOL     OW21454   1.550   4.116   1.984
 6852SOL    HW121455   1.458   4.085   1.961
 6852SOL    HW221456   1.547   4.210   2.017
 6853SOL     OW21457   0.603   4.461   5.817
 6853SOL    HW121458   0.608   4.369   5.777
 6853SOL    HW221459   0.510   4.496   5.810
 6854SOL     OW21460   0.096   2.006   5.867
 6854SOL    HW121461   0.157   2.011   5.789
 6854SOL    HW221462   0.147   2.024   5.951
 6855SOL     OW21463   3.534   6.714   2.690
 6855SOL    HW121464   3.544   6.619   2.660
 6855SOL    HW221465   3.516   6.715   2.789
 6856SOL     OW21466   6.007   3.674   4.802
 6856SOL    HW121467   6.007   3.604   4.874
 6856SOL    HW221468   6.063   3.642   4.725
 6857SOL     OW21469   2.853   2.380   5.954
 6857SOL    HW121470   2.770   2.325   5.960
 6857SOL    HW221471   2.910   2.346   5.879
 6858SOL     OW21472   4.111   3.668   4.765
 6858SOL    HW121473   4.083   3.740   4.702
 6858SOL    HW221474   4.180   3.611   4.721
 6859SOL     OW21475   2.637   6.682   0.664
 6859SOL    HW121476   2.544   6.652   0.689
 6859SOL    HW221477   2.645   6.685   0.564
 6860SOL     OW21478   5.857   4.572   1.082
 6860SOL    HW121479   5.913   4.511   1.027
 6860SOL    HW221480   5.862   4.665   1.045
 6861SOL     OW21481   5.441   6.049   6.726
 6861SOL    HW121482   5.404   6.136   6.757
 6861SOL    HW221483   5.401   5.975   6.781
 6862SOL     OW21484   3.043   5.495   4.800
 6862SOL    HW121485   2.986   5.455   4.729
 6862SOL    HW221486   2.990   5.507   4.884
 6863SOL     OW21487   5.536   1.586   3.910
 6863SOL    HW121488   5.441   1.559   3.898
 6863SOL    HW221489   5.554   1.601   4.008
 6864SOL     OW21490   2.569   6.018   3.268
 6864SOL    HW121491   2.579   5.931   3.219
 6864SOL    HW221492   2.635   6.022   3.342
 6865SOL     OW21493   6.723   3.944   4.837
 6865SOL    HW121494   6.715   3.993   4.924
 6865SOL    HW221495   6.787   3.868   4.846
 6866SOL     OW21496   6.704   3.768   2.260
 6866SOL    HW121497   6.791   3.816   2.246
 6866SOL    HW221498   6.666   3.740   2.172
 6867SOL     OW21499   2.321   4.250   2.181
 6867SOL    HW121500   2.222   4.236   2.190
 6867SOL    HW221501   2.341   4.348   2.188
 6868SOL     OW21502   2.077   6.247   4.724
 6868SOL    HW121503   2.001   6.306   4.751
 6868SOL    HW221504   2.054   6.200   4.639
 6869SOL     OW21505   5.212   2.045   5.718
 6869SOL    HW121506   5.184   2.139   5.701
 6869SOL    HW221507   5.215   2.029   5.817
 6870SOL     OW21508   5.815   3.694   2.819
 6870SOL    HW121509   5.726   3.708   2.775
 6870SOL    HW221510   5.820   3.601   2.856
 6871SOL     OW21511   6.137   4.940   1.080
 6871SOL    HW121512   6.184   4.888   1.152
 6871SOL    HW221513   6.204   4.974   1.014
 6872SOL     OW21514   2.101   3.008   0.995
 6872SOL    HW121515   2.047   2.924   0.987
 6872SOL    HW221516   2.187   2.997   0.946
 6873SOL     OW21517   5.865   2.982   5.632
 6873SOL    HW121518   5.784   2.926   5.649
 6873SOL    HW221519   5.873   3.052   5.703
 6874SOL     OW21520   7.006   2.973   3.817
 6874SOL    HW121521   0.056   3.039   3.811
 6874SOL    HW221522   6.976   2.948   3.724
 6875SOL     OW21523   1.397   1.508   2.638
 6875SOL    HW121524   1.475   1.529   2.697
 6875SOL    HW221525   1.430   1.477   2.549
 6876SOL     OW21526   3.623   5.643   0.078
 6876SOL    HW121527   3.603   5.545   0.070
 6876SOL    HW221528   3.699   5.656   0.142
 6877SOL     OW21529   2.364   4.090   6.931
 6877SOL    HW121530   2.284   4.149   6.921
 6877SOL    HW221531   2.409   4.079   6.842
 6878SOL     OW21532   1.868   1.745   5.529
 6878SOL    HW121533   1.898   1.680   5.459
 6878SOL    HW221534   1.769   1.757   5.523
 6879SOL     OW21535   0.116   2.250   6.396
 6879SOL    HW121536   0.034   2.202   6.428
 6879SOL    HW221537   0.192   2.230   6.458
 6880SOL     OW21538   2.107   3.975   5.173
 6880SOL    HW121539   2.165   3.961   5.253
 6880SOL    HW221540   2.164   3.986   5.092
 6881SOL     OW21541   0.250   4.425   1.658
 6881SOL    HW121542   0.164   4.376   1.643
 6881SOL    HW221543   0.254   4.505   1.598
 6882SOL     OW21544   1.999   0.915   5.255
 6882SOL    HW121545   2.086   0.891   5.298
 6882SOL    HW221546   1.939   0.956   5.323
 6883SOL     OW21547   3.778   0.252   1.211
 6883SOL    HW121548   3.703   0.211   1.262
 6883SOL    HW221549   3.742   0.297   1.129
 6884SOL     OW21550   2.361   4.519   4.886
 6884SOL    HW121551   2.441   4.527   4.946
 6884SOL    HW221552   2.334   4.423   4.879
 6885SOL     OW21553   2.489   6.217   3.490
 6885SOL    HW121554   2.487   6.146   3.559
 6885SOL    HW221555   2.506   6.176   3.400
 6886SOL     OW21556   5.261   0.934   2.707
 6886SOL    HW121557   5.237   1.009   2.770
 6886SOL    HW221558   5.352   0.950   2.669
 6887SOL     OW21559   6.014   0.282   5.147
 6887SOL    HW121560   6.069   0.363   5.166
 6887SOL    HW221561   6.053   0.203   5.194
 6888SOL     OW21562   6.182   0.477   4.848
 6888SOL    HW121563   6.086   0.504   4.852
 6888SOL    HW221564   6.232   0.538   4.787
 6889SOL     OW21565   1.282   3.321   6.001
 6889SOL    HW121566   1.379   3.316   5.974
 6889SOL    HW221567   1.263   3.410   6.041
 6890SOL     OW21568   2.528   0.223   1.143
 6890SOL    HW121569   2.509   0.171   1.060
 6890SOL    HW221570   2.441   0.255   1.183
 6891SOL     OW21571   2.146   3.830   4.568
 6891SOL    HW121572   2.086   3.754   4.543
 6891SOL    HW221573   2.133   3.853   4.664
 6892SOL     OW21574   3.759   0.290   4.060
 6892SOL    HW121575   3.741   0.225   4.133
 6892SOL    HW221576   3.828   0.253   3.998
 6893SOL     OW21577   5.259   5.745   3.697
 6893SOL    HW121578   5.333   5.743   3.630
 6893SOL    HW221579   5.263   5.830   3.749
 6894SOL     OW21580   6.006   5.712   0.141
 6894SOL    HW121581   5.934   5.719   0.072
 6894SOL    HW221582   6.085   5.767   0.113
 6895SOL     OW21583   2.639   3.674   0.429
 6895SOL    HW121584   2.716   3.635   0.379
 6895SOL    HW221585   2.582   3.601   0.465
 6896SOL     OW21586   3.438   0.927   3.408
 6896SOL    HW121587   3.369   0.990   3.443
 6896SOL    HW221588   3.487   0.969   3.332
 6897SOL     OW21589   3.302   3.471   0.335
 6897SOL    HW121590   3.263   3.395   0.386
 6897SOL    HW221591   3.374   3.437   0.274
 6898SOL     OW21592   4.210   0.725   1.674
 6898SOL    HW121593   4.261   0.667   1.611
 6898SOL    HW221594   4.272   0.763   1.742
 6899SOL     OW21595   5.195   6.620   6.058
 6899SOL    HW121596   5.256   6.558   6.008
 6899SOL    HW221597   5.170   6.578   6.146
 6900SOL     OW21598   5.436   0.769   5.862
 6900SOL    HW121599   5.483   0.856   5.875
 6900SOL    HW221600   5.352   0.767   5.916
 6901SOL     OW21601   1.219   0.049   6.111
 6901SOL    HW121602   1.196   0.146   6.120
 6901SOL    HW221603   1.253   0.015   6.199
 6902SOL     OW21604   0.697   6.817   6.822
 6902SOL    HW121605   0.687   6.756   6.744
 6902SOL    HW221606   0.674   6.910   6.795
 6903SOL     OW21607   3.633   3.636   0.345
 6903SOL    HW121608   3.681   3.549   0.355
 6903SOL    HW221609   3.557   3.625   0.281
 6904SOL     OW21610   6.397   0.873   4.064
 6904SOL    HW121611   6.402   0.806   4.138
 6904SOL    HW221612   6.317   0.855   4.008
 6905SOL     OW21613   6.719   6.239   1.263
 6905SOL    HW121614   6.811   6.237   1.224
 6905SOL    HW221615   6.724   6.269   1.358
 6906SOL     OW21616   3.564   1.294   3.844
 6906SOL    HW121617   3.628   1.320   3.916
 6906SOL    HW221618   3.533   1.376   3.795
 6907SOL     OW21619   3.894   1.075   1.869
 6907SOL    HW121620   3.890   0.977   1.847
 6907SOL    HW221621   3.880   1.087   1.967
 6908SOL     OW21622   1.349   6.829   5.449
 6908SOL    HW121623   1.361   6.731   5.431
 6908SOL    HW221624   1.432   6.866   5.491
 6909SOL     OW21625   4.361   4.673   0.684
 6909SOL    HW121626   4.301   4.739   0.729
 6909SOL    HW221627   4.417   4.626   0.752
 6910SOL     OW21628   6.357   1.469   1.829
 6910SOL    HW121629   6.410   1.515   1.900
 6910SOL    HW221630   6.413   1.460   1.747
 6911SOL     OW21631   4.223   0.245   4.099
 6911SOL    HW121632   4.236   0.330   4.048
 6911SOL    HW221633   4.278   0.173   4.058
 6912SOL     OW21634   4.978   4.834   1.012
 6912SOL    HW121635   5.077   4.821   1.010
 6912SOL    HW221636   4.944   4.839   0.918
 6913SOL     OW21637   4.978   4.755   4.212
 6913SOL    HW121638   4.885   4.759   4.249
 6913SOL    HW221639   4.977   4.704   4.126
 6914SOL     OW21640   5.865   5.211   6.588
 6914SOL    HW121641   5.818   5.271   6.652
 6914SOL    HW221642   5.908   5.266   6.516
 6915SOL     OW21643   0.653   4.351   2.564
 6915SOL    HW121644   0.657   4.276   2.630
 6915SOL    HW221645   0.647   4.438   2.613
 6916SOL     OW21646   6.640   4.235   6.859
 6916SOL    HW121647   6.583   4.245   6.941
 6916SOL    HW221648   6.678   4.323   6.834
 6917SOL     OW21649   4.192   6.078   5.959
 6917SOL    HW121650   4.210   6.139   5.883
 6917SOL    HW221651   4.118   6.015   5.935
 6918SOL     OW21652   0.401   4.162   4.003
 6918SOL    HW121653   0.407   4.260   4.021
 6918SOL    HW221654   0.368   4.115   4.085
 6919SOL     OW21655   2.296   6.283   2.425
 6919SOL    HW121656   2.341   6.297   2.336
 6919SOL    HW221657   2.335   6.346   2.492
 6920SOL     OW21658   5.176   5.090   4.423
 6920SOL    HW121659   5.102   5.040   4.467
 6920SOL    HW221660   5.169   5.079   4.324
 6921SOL     OW21661   5.965   6.331   3.412
 6921SOL    HW121662   6.017   6.249   3.435
 6921SOL    HW221663   5.958   6.340   3.313
 6922SOL     OW21664   2.244   6.157   6.605
 6922SOL    HW121665   2.284   6.158   6.696
 6922SOL    HW221666   2.284   6.230   6.550
 6923SOL     OW21667   4.343   6.505   3.976
 6923SOL    HW121668   4.284   6.471   3.902
 6923SOL    HW221669   4.312   6.595   4.005
 6924SOL     OW21670   1.108   4.922   0.150
 6924SOL    HW121671   1.192   4.869   0.161
 6924SOL    HW221672   1.042   4.869   0.097
 6925SOL     OW21673   4.131   5.813   3.588
 6925SOL    HW121674   4.063   5.755   3.542
 6925SOL    HW221675   4.197   5.756   3.636
 6926SOL     OW21676   3.852   3.790   3.532
 6926SOL    HW121677   3.836   3.819   3.626
 6926SOL    HW221678   3.852   3.869   3.471
 6927SOL     OW21679   5.048   3.642   6.568
 6927SOL    HW121680   5.045   3.548   6.534
 6927SOL    HW221681   5.028   3.706   6.494
 6928SOL     OW21682   4.079   0.322   6.482
 6928SOL    HW121683   4.162   0.350   6.530
 6928SOL    HW221684   4.057   0.389   6.411
 6929SOL     OW21685   4.658   6.240   6.816
 6929SOL    HW121686   4.606   6.301   6.757
 6929SOL    HW221687   4.626   6.146   6.805
 6930SOL     OW21688   0.812   6.413   1.916
 6930SOL    HW121689   0.893   6.428   1.859
 6930SOL    HW221690   0.734   6.463   1.876
 6931SOL     OW21691   0.778   0.188   1.501
 6931SOL    HW121692   0.701   0.155   1.446
 6931SOL    HW221693   0.745   0.211   1.593
 6932SOL     OW21694   2.841   1.108   6.887
 6932SOL    HW121695   2.936   1.119   6.918
 6932SOL    HW221696   2.802   1.197   6.865
 6933SOL     OW21697   3.547   5.702   4.836
 6933SOL    HW121698   3.502   5.682   4.923
 6933SOL    HW221699   3.646   5.706   4.850
 6934SOL     OW21700   5.102   2.503   6.950
 6934SOL    HW121701   5.089   2.404   6.953
 6934SOL    HW221702   5.198   2.524   6.929
 6935SOL     OW21703   3.635   5.772   3.613
 6935SOL    HW121704   3.635   5.856   3.558
 6935SOL    HW221705   3.642   5.693   3.553
 6936SOL     OW21706   0.329   2.100   2.165
 6936SOL    HW121707   0.333   2.012   2.118
 6936SOL    HW221708   0.238   2.114   2.203
 6937SOL     OW21709   4.207   6.181   5.699
 6937SOL    HW121710   4.136   6.185   5.629
 6937SOL    HW221711   4.296   6.199   5.656
 6938SOL     OW21712   5.136   3.648   5.856
 6938SOL    HW121713   5.092   3.700   5.929
 6938SOL    HW221714   5.206   3.589   5.895
 6939SOL     OW21715   0.273   4.570   2.333
 6939SOL    HW121716   0.333   4.575   2.413
 6939SOL    HW221717   0.281   4.655   2.281
 6940SOL     OW21718   4.519   0.300   6.572
 6940SOL    HW121719   4.587   0.315   6.643
 6940SOL    HW221720   4.453   0.374   6.572
 6941SOL     OW21721   3.043   3.068   2.120
 6941SOL    HW121722   2.984   3.086   2.042
 6941SOL    HW221723   3.112   3.000   2.096
 6942SOL     OW21724   0.420   2.421   0.551
 6942SOL    HW121725   0.422   2.350   0.622
 6942SOL    HW221726   0.455   2.506   0.590
 6943SOL     OW21727   5.319   6.370   5.966
 6943SOL    HW121728   5.413   6.402   5.949
 6943SOL    HW221729   5.302   6.288   5.911
 6944SOL     OW21730   0.894   5.706   5.740
 6944SOL    HW121731   0.850   5.688   5.828
 6944SOL    HW221732   0.836   5.673   5.666
 6945SOL     OW21733   6.226   3.293   6.507
 6945SOL    HW121734   6.277   3.213   6.476
 6945SOL    HW221735   6.129   3.282   6.484
 6946SOL     OW21736   6.041   4.828   2.990
 6946SOL    HW121737   6.077   4.904   2.936
 6946SOL    HW221738   6.112   4.759   3.003
 6947SOL     OW21739   3.634   6.897   3.476
 6947SOL    HW121740   3.551   6.863   3.431
 6947SOL    HW221741   3.711   6.836   3.455
 6948SOL     OW21742   5.170   0.441   0.576
 6948SOL    HW121743   5.166   0.477   0.669
 6948SOL    HW221744   5.078   0.427   0.541
 6949SOL     OW21745   4.598   6.381   3.420
 6949SOL    HW121746   4.690   6.342   3.431
 6949SOL    HW221747   4.601   6.453   3.351
 6950SOL     OW21748   2.029   0.671   3.385
 6950SOL    HW121749   2.077   0.589   3.353
 6950SOL    HW221750   1.961   0.698   3.317
 6951SOL     OW21751   6.479   6.244   6.141
 6951SOL    HW121752   6.440   6.290   6.062
 6951SOL    HW221753   6.474   6.304   6.221
 6952SOL     OW21754   6.869   5.239   3.371
 6952SOL    HW121755   6.865   5.283   3.461
 6952SOL    HW221756   6.801   5.166   3.366
 6953SOL     OW21757   5.239   0.733   6.068
 6953SOL    HW121758   5.273   0.725   6.162
 6953SOL    HW221759   5.171   0.806   6.064
 6954SOL     OW21760   0.331   2.842   4.247
 6954SOL    HW121761   0.385   2.909   4.195
 6954SOL    HW221762   0.245   2.825   4.199
 6955SOL     OW21763   0.522   6.593   1.692
 6955SOL    HW121764   0.473   6.513   1.727
 6955SOL    HW221765   0.584   6.627   1.763
 6956SOL     OW21766   4.822   5.250   1.963
 6956SOL    HW121767   4.781   5.229   2.052
 6956SOL    HW221768   4.770   5.324   1.919
 6957SOL     OW21769   6.671   4.695   1.990
 6957SOL    HW121770   6.690   4.661   1.898
 6957SOL    HW221771   6.742   4.662   2.052
 6958SOL     OW21772   1.971   2.038   6.206
 6958SOL    HW121773   1.876   2.067   6.192
 6958SOL    HW221774   1.991   2.034   6.304
 6959SOL     OW21775   3.525   1.534   4.850
 6959SOL    HW121776   3.455   1.464   4.865
 6959SOL    HW221777   3.615   1.498   4.875
 6960SOL     OW21778   6.961   4.920   0.062
 6960SOL    HW121779   6.975   4.985   7.013
 6960SOL    HW221780   6.952   4.969   0.149
 6961SOL     OW21781   0.745   2.337   3.406
 6961SOL    HW121782   0.746   2.306   3.311
 6961SOL    HW221783   0.785   2.429   3.410
 6962SOL     OW21784   5.519   5.746   2.760
 6962SOL    HW121785   5.496   5.713   2.852
 6962SOL    HW221786   5.469   5.831   2.743
 6963SOL     OW21787   0.116   5.101   1.705
 6963SOL    HW121788   0.071   5.056   1.782
 6963SOL    HW221789   0.065   5.184   1.681
 6964SOL     OW21790   4.923   5.031   5.211
 6964SOL    HW121791   4.975   5.111   5.241
 6964SOL    HW221792   4.971   4.948   5.238
 6965SOL     OW21793   6.486   3.218   6.060
 6965SOL    HW121794   6.429   3.151   6.108
 6965SOL    HW221795   6.564   3.242   6.118
 6966SOL     OW21796   5.284   2.808   2.594
 6966SOL    HW121797   5.344   2.784   2.518
 6966SOL    HW221798   5.200   2.848   2.558
 6967SOL     OW21799   1.421   2.238   5.940
 6967SOL    HW121800   1.332   2.278   5.917
 6967SOL    HW221801   1.414   2.189   6.027
 6968SOL     OW21802   4.490   6.177   1.196
 6968SOL    HW121803   4.436   6.093   1.204
 6968SOL    HW221804   4.494   6.204   1.100
 6969SOL     OW21805   4.125   1.139   1.709
 6969SOL    HW121806   4.026   1.131   1.711
 6969SOL    HW221807   4.160   1.156   1.801
 6970SOL     OW21808   4.041   4.396   0.645
 6970SOL    HW121809   3.999   4.342   0.572
 6970SOL    HW221810   3.974   4.461   0.681
 6971SOL     OW21811   6.538   2.759   1.488
 6971SOL    HW121812   6.632   2.773   1.518
 6971SOL    HW221813   6.475   2.793   1.557
 6972SOL     OW21814   5.504   4.535   3.974
 6972SOL    HW121815   5.418   4.510   4.019
 6972SOL    HW221816   5.547   4.610   4.025
 6973SOL     OW21817   1.725   4.336   4.376
 6973SOL    HW121818   1.780   4.411   4.412
 6973SOL    HW221819   1.781   4.280   4.315
 6974SOL     OW21820   3.991   3.479   3.121
 6974SOL    HW121821   3.984   3.571   3.160
 6974SOL    HW221822   3.904   3.455   3.078
 6975SOL     OW21823   3.460   0.192   5.652
 6975SOL    HW121824   3.485   0.239   5.567
 6975SOL    HW221825   3.398   0.249   5.705
 6976SOL     OW21826   3.358   4.683   6.397
 6976SOL    HW121827   3.331   4.602   6.449
 6976SOL    HW221828   3.286   4.752   6.401
 6977SOL     OW21829   4.742   1.737   2.245
 6977SOL    HW121830   4.739   1.714   2.148
 6977SOL    HW221831   4.744   1.836   2.256
 6978SOL     OW21832   6.650   0.659   2.034
 6978SOL    HW121833   6.704   0.601   2.095
 6978SOL    HW221834   6.654   0.623   1.941
 6979SOL     OW21835   1.307   5.118   2.094
 6979SOL    HW121836   1.324   5.078   2.004
 6979SOL    HW221837   1.382   5.095   2.156
 6980SOL     OW21838   2.195   0.887   3.410
 6980SOL    HW121839   2.129   0.811   3.409
 6980SOL    HW221840   2.171   0.953   3.340
 6981SOL     OW21841   2.715   4.192   6.881
 6981SOL    HW121842   2.758   4.117   6.931
 6981SOL    HW221843   2.708   4.168   6.784
 6982SOL     OW21844   1.036   1.161   4.006
 6982SOL    HW121845   1.100   1.085   3.990
 6982SOL    HW221846   1.013   1.165   4.103
 6983SOL     OW21847   7.021   0.501   4.471
 6983SOL    HW121848   0.005   0.586   4.420
 6983SOL    HW221849   0.013   0.424   4.409
 6984SOL     OW21850   2.100   1.890   5.495
 6984SOL    HW121851   2.122   1.889   5.397
 6984SOL    HW221852   2.010   1.849   5.509
 6985SOL     OW21853   4.050   5.700   2.054
 6985SOL    HW121854   4.022   5.605   2.057
 6985SOL    HW221855   4.000   5.752   2.122
 6986SOL     OW21856   2.211   6.392   6.060
 6986SOL    HW121857   2.203   6.359   5.966
 6986SOL    HW221858   2.200   6.315   6.123
 6987SOL     OW21859   0.421   2.140   6.258
 6987SOL    HW121860   0.473   2.222   6.234
 6987SOL    HW221861   0.341   2.167   6.313
 6988SOL     OW21862   5.565   1.398   4.433
 6988SOL    HW121863   5.541   1.483   4.480
 6988SOL    HW221864   5.646   1.358   4.476
 6989SOL     OW21865   0.886   1.752   3.398
 6989SOL    HW121866   0.827   1.676   3.371
 6989SOL    HW221867   0.881   1.824   3.330
 6990SOL     OW21868   4.631   2.184   7.005
 6990SOL    HW121869   4.697   2.259   7.009
 6990SOL    HW221870   4.545   2.218   6.967
 6991SOL     OW21871   2.541   4.526   5.138
 6991SOL    HW121872   2.636   4.555   5.127
 6991SOL    HW221873   2.535   4.460   5.212
 6992SOL     OW21874   6.210   6.332   4.836
 6992SOL    HW121875   6.171   6.249   4.876
 6992SOL    HW221876   6.306   6.339   4.862
 6993SOL     OW21877   6.415   6.470   3.176
 6993SOL    HW121878   6.373   6.554   3.141
 6993SOL    HW221879   6.350   6.394   3.168
 6994SOL     OW21880   1.107   3.691   5.600
 6994SOL    HW121881   1.107   3.703   5.700
 6994SOL    HW221882   1.015   3.704   5.565
 6995SOL     OW21883   6.058   5.470   4.748
 6995SOL    HW121884   6.060   5.530   4.667
 6995SOL    HW221885   5.990   5.505   4.813
 6996SOL     OW21886   2.969   0.686   4.842
 6996SOL    HW121887   2.918   0.605   4.812
 6996SOL    HW221888   2.962   0.758   4.773
 6997SOL     OW21889   4.744   6.353   4.956
 6997SOL    HW121890   4.813   6.425   4.962
 6997SOL    HW221891   4.660   6.392   4.917
 6998SOL     OW21892   1.656   2.903   1.515
 6998SOL    HW121893   1.723   2.947   1.575
 6998SOL    HW221894   1.698   2.884   1.426
 6999SOL     OW21895   2.253   1.470   6.231
 6999SOL    HW121896   2.205   1.453   6.145
 6999SOL    HW221897   2.340   1.516   6.212
 7000SOL     OW21898   0.418   6.102   2.771
 7000SOL    HW121899   0.500   6.153   2.798
 7000SOL    HW221900   0.445   6.014   2.733
 7001SOL     OW21901   2.590   2.397   5.706
 7001SOL    HW121902   2.682   2.364   5.725
 7001SOL    HW221903   2.530   2.319   5.686
 7002SOL     OW21904   2.615   4.603   3.592
 7002SOL    HW121905   2.641   4.506   3.587
 7002SOL    HW221906   2.658   4.653   3.517
 7003SOL     OW21907   2.978   0.431   6.798
 7003SOL    HW121908   2.926   0.385   6.726
 7003SOL    HW221909   2.925   0.509   6.832
 7004SOL     OW21910   2.027   4.309   1.894
 7004SOL    HW121911   2.125   4.309   1.871
 7004SOL    HW221912   1.973   4.301   1.810
 7005SOL     OW21913   6.435   6.098   5.680
 7005SOL    HW121914   6.453   6.193   5.656
 7005SOL    HW221915   6.440   6.087   5.779
 7006SOL     OW21916   4.861   4.336   5.003
 7006SOL    HW121917   4.819   4.290   4.924
 7006SOL    HW221918   4.943   4.287   5.030
 7007SOL     OW21919   4.792   6.522   3.241
 7007SOL    HW121920   4.709   6.577   3.231
 7007SOL    HW221921   4.841   6.550   3.323
 7008SOL     OW21922   2.174   4.968   4.529
 7008SOL    HW121923   2.258   4.913   4.535
 7008SOL    HW221924   2.128   4.967   4.618
 7009SOL     OW21925   6.598   5.197   2.452
 7009SOL    HW121926   6.633   5.247   2.531
 7009SOL    HW221927   6.574   5.104   2.479
 7010SOL     OW21928   3.746   4.827   6.238
 7010SOL    HW121929   3.650   4.805   6.225
 7010SOL    HW221930   3.797   4.743   6.258
 7011SOL     OW21931   1.508   6.944   5.007
 7011SOL    HW121932   1.433   6.895   4.963
 7011SOL    HW221933   1.472   6.998   5.084
 7012SOL     OW21934   1.226   0.342   2.147
 7012SOL    HW121935   1.293   0.267   2.151
 7012SOL    HW221936   1.268   0.421   2.103
 7013SOL     OW21937   0.905   6.587   0.990
 7013SOL    HW121938   0.972   6.577   0.917
 7013SOL    HW221939   0.900   6.502   1.043
 7014SOL     OW21940   4.246   3.874   0.892
 7014SOL    HW121941   4.202   3.786   0.874
 7014SOL    HW221942   4.282   3.911   0.806
 7015SOL     OW21943   5.435   3.548   2.181
 7015SOL    HW121944   5.526   3.555   2.141
 7015SOL    HW221945   5.395   3.460   2.157
 7016SOL     OW21946   4.726   4.994   2.099
 7016SOL    HW121947   4.756   4.948   2.015
 7016SOL    HW221948   4.632   5.027   2.087
 7017SOL     OW21949   2.440   1.048   3.108
 7017SOL    HW121950   2.499   0.972   3.135
 7017SOL    HW221951   2.457   1.127   3.168
 7018SOL     OW21952   0.025   3.946   4.926
 7018SOL    HW121953   0.009   4.043   4.907
 7018SOL    HW221954   0.054   3.900   4.841
 7019SOL     OW21955   2.684   4.645   6.751
 7019SOL    HW121956   2.697   4.738   6.787
 7019SOL    HW221957   2.592   4.636   6.713
 7020SOL     OW21958   5.619   0.149   0.387
 7020SOL    HW121959   5.627   0.185   0.294
 7020SOL    HW221960   5.695   0.183   0.443
 7021SOL     OW21961   2.923   0.872   4.650
 7021SOL    HW121962   3.002   0.851   4.592
 7021SOL    HW221963   2.917   0.971   4.664
 7022SOL     OW21964   5.112   3.762   0.827
 7022SOL    HW121965   5.050   3.800   0.759
 7022SOL    HW221966   5.170   3.692   0.784
 7023SOL     OW21967   6.360   2.337   2.872
 7023SOL    HW121968   6.413   2.386   2.941
 7023SOL    HW221969   6.328   2.402   2.803
 7024SOL     OW21970   1.923   5.805   6.111
 7024SOL    HW121971   1.833   5.779   6.145
 7024SOL    HW221972   1.956   5.737   6.046
 7025SOL     OW21973   2.989   1.911   6.468
 7025SOL    HW121974   3.066   1.850   6.487
 7025SOL    HW221975   2.904   1.866   6.493
 7026SOL     OW21976   2.998   1.114   2.171
 7026SOL    HW121977   2.922   1.178   2.158
 7026SOL    HW221978   3.003   1.087   2.267
 7027SOL     OW21979   3.802   5.716   3.213
 7027SOL    HW121980   3.897   5.685   3.209
 7027SOL    HW221981   3.791   5.799   3.158
 7028SOL     OW21982   5.024   6.733   4.178
 7028SOL    HW121983   4.971   6.766   4.257
 7028SOL    HW221984   5.114   6.777   4.177
 7029SOL     OW21985   3.041   6.374   6.436
 7029SOL    HW121986   3.136   6.369   6.465
 7029SOL    HW221987   3.037   6.378   6.336
 7030SOL     OW21988   0.320   3.980   5.850
 7030SOL    HW121989   0.329   3.893   5.801
 7030SOL    HW221990   0.228   4.016   5.837
 7031SOL     OW21991   2.299   5.824   3.926
 7031SOL    HW121992   2.314   5.757   3.999
 7031SOL    HW221993   2.202   5.825   3.901
 7032SOL     OW21994   4.403   0.035   3.052
 7032SOL    HW121995   4.368   0.129   3.049
 7032SOL    HW221996   4.481   0.030   3.114
 7033SOL     OW21997   6.932   1.249   4.324
 7033SOL    HW121998   6.981   1.314   4.382
 7033SOL    HW221999   6.838   1.282   4.310
 7034SOL     OW22000   5.123   0.312   2.422
 7034SOL    HW122001   5.206   0.290   2.473
 7034SOL    HW222002   5.103   0.238   2.358
 7035SOL     OW22003   1.142   6.745   2.601
 7035SOL    HW122004   1.240   6.728   2.607
 7035SOL    HW222005   1.117   6.762   2.506
 7036SOL     OW22006   6.578   5.755   1.702
 7036SOL    HW122007   6.555   5.825   1.635
 7036SOL    HW222008   6.614   5.799   1.785
 7037SOL     OW22009   0.161   6.726   5.932
 7037SOL    HW122010   0.132   6.639   5.892
 7037SOL    HW222011   0.106   6.800   5.893
 7038SOL     OW22012   1.720   4.256   3.950
 7038SOL    HW122013   1.692   4.352   3.950
 7038SOL    HW222014   1.735   4.224   4.043
 7039SOL     OW22015   3.186   6.890   6.982
 7039SOL    HW122016   3.125   6.916   6.908
 7039SOL    HW222017   3.136   6.836   0.025
 7040SOL     OW22018   4.926   2.924   5.784
 7040SOL    HW122019   4.907   2.938   5.686
 7040SOL    HW222020   4.856   2.865   5.823
 7041SOL     OW22021   1.338   1.456   3.220
 7041SOL    HW122022   1.333   1.475   3.122
 7041SOL    HW222023   1.403   1.381   3.236
 7042SOL     OW22024   4.991   5.071   6.455
 7042SOL    HW122025   4.988   5.160   6.409
 7042SOL    HW222026   4.998   4.998   6.388
 7043SOL     OW22027   1.819   3.282   3.149
 7043SOL    HW122028   1.822   3.321   3.057
 7043SOL    HW222029   1.909   3.247   3.173
 7044SOL     OW22030   4.716   4.658   2.999
 7044SOL    HW122031   4.666   4.741   3.025
 7044SOL    HW222032   4.652   4.591   2.960
 7045SOL     OW22033   4.816   6.781   0.964
 7045SOL    HW122034   4.869   6.774   1.048
 7045SOL    HW222035   4.745   6.851   0.974
 7046SOL     OW22036   3.591   1.853   4.242
 7046SOL    HW122037   3.561   1.833   4.336
 7046SOL    HW222038   3.650   1.780   4.209
 7047SOL     OW22039   0.746   2.094   2.972
 7047SOL    HW122040   0.666   2.138   2.931
 7047SOL    HW222041   0.803   2.054   2.900
 7048SOL     OW22042   1.234   5.718   0.971
 7048SOL    HW122043   1.291   5.771   0.909
 7048SOL    HW222044   1.247   5.751   1.065
 7049SOL     OW22045   2.273   0.804   0.754
 7049SOL    HW122046   2.260   0.714   0.711
 7049SOL    HW222047   2.192   0.860   0.739
 7050SOL     OW22048   3.649   3.957   4.137
 7050SOL    HW122049   3.696   3.968   4.225
 7050SOL    HW222050   3.716   3.959   4.063
 7051SOL     OW22051   0.072   0.419   1.520
 7051SOL    HW122052   0.108   0.337   1.476
 7051SOL    HW222053   0.127   0.498   1.492
 7052SOL     OW22054   6.882   1.985   4.691
 7052SOL    HW122055   6.885   2.033   4.779
 7052SOL    HW222056   6.802   1.925   4.689
 7053SOL     OW22057   0.054   3.628   6.739
 7053SOL    HW122058   0.135   3.681   6.714
 7053SOL    HW222059   0.038   3.634   6.837
 7054SOL     OW22060   0.666   5.846   1.144
 7054SOL    HW122061   0.570   5.823   1.159
 7054SOL    HW222062   0.701   5.896   1.224
 7055SOL     OW22063   4.286   6.547   5.836
 7055SOL    HW122064   4.258   6.632   5.882
 7055SOL    HW222065   4.268   6.469   5.896
 7056SOL     OW22066   5.526   5.167   3.556
 7056SOL    HW122067   5.591   5.137   3.625
 7056SOL    HW222068   5.573   5.183   3.469
 7057SOL     OW22069   1.013   4.040   4.732
 7057SOL    HW122070   0.966   4.074   4.813
 7057SOL    HW222071   1.001   4.105   4.657
 7058SOL     OW22072   0.040   5.545   5.259
 7058SOL    HW122073   6.993   5.497   5.309
 7058SOL    HW222074   0.084   5.482   5.195
 7059SOL     OW22075   0.463   0.171   1.924
 7059SOL    HW122076   0.499   0.081   1.949
 7059SOL    HW222077   0.536   0.227   1.884
 7060SOL     OW22078   3.140   0.146   1.864
 7060SOL    HW122079   3.141   0.101   1.953
 7060SOL    HW222080   3.220   0.204   1.855
 7061SOL     OW22081   0.458   2.303   3.477
 7061SOL    HW122082   0.547   2.321   3.436
 7061SOL    HW222083   0.465   2.311   3.577
 7062SOL     OW22084   5.749   2.011   5.808
 7062SOL    HW122085   5.701   2.004   5.896
 7062SOL    HW222086   5.766   1.920   5.772
 7063SOL     OW22087   1.501   6.036   0.476
 7063SOL    HW122088   1.457   6.099   0.541
 7063SOL    HW222089   1.565   5.977   0.525
 7064SOL     OW22090   4.712   2.191   1.373
 7064SOL    HW122091   4.731   2.234   1.461
 7064SOL    HW222092   4.690   2.094   1.388
 7065SOL     OW22093   4.928   4.161   1.210
 7065SOL    HW122094   5.009   4.136   1.157
 7065SOL    HW222095   4.915   4.260   1.206
 7066SOL     OW22096   3.739   0.881   0.441
 7066SOL    HW122097   3.769   0.971   0.472
 7066SOL    HW222098   3.656   0.891   0.387
 7067SOL     OW22099   0.626   3.600   5.675
 7067SOL    HW122100   0.659   3.579   5.583
 7067SOL    HW222101   0.683   3.553   5.743
 7068SOL     OW22102   1.114   3.182   3.033
 7068SOL    HW122103   1.115   3.275   3.070
 7068SOL    HW222104   1.130   3.186   2.934
 7069SOL     OW22105   6.379   3.871   4.712
 7069SOL    HW122106   6.460   3.873   4.653
 7069SOL    HW222107   6.316   3.800   4.679
 7070SOL     OW22108   6.572   5.353   5.410
 7070SOL    HW122109   6.585   5.361   5.311
 7070SOL    HW222110   6.475   5.341   5.430
 7071SOL     OW22111   0.605   6.385   5.324
 7071SOL    HW122112   0.544   6.312   5.295
 7071SOL    HW222113   0.638   6.435   5.244
 7072SOL     OW22114   6.900   6.835   6.134
 7072SOL    HW122115   6.813   6.841   6.085
 7072SOL    HW222116   6.972   6.879   6.080
 7073SOL     OW22117   6.843   0.806   4.861
 7073SOL    HW122118   6.899   0.826   4.941
 7073SOL    HW222119   6.900   0.813   4.779
 7074SOL     OW22120   3.595   3.100   2.222
 7074SOL    HW122121   3.658   3.041   2.272
 7074SOL    HW222122   3.517   3.124   2.281
 7075SOL     OW22123   1.429   6.245   4.428
 7075SOL    HW122124   1.416   6.281   4.336
 7075SOL    HW222125   1.463   6.151   4.423
 7076SOL     OW22126   3.625   1.648   6.874
 7076SOL    HW122127   3.577   1.573   6.828
 7076SOL    HW222128   3.565   1.727   6.881
 7077SOL     OW22129   2.384   6.029   5.470
 7077SOL    HW122130   2.368   5.946   5.416
 7077SOL    HW222131   2.303   6.087   5.466
 7078SOL     OW22132   6.070   0.556   2.819
 7078SOL    HW122133   6.136   0.482   2.801
 7078SOL    HW222134   5.979   0.528   2.789
 7079SOL     OW22135   6.593   6.420   5.858
 7079SOL    HW122136   6.585   6.511   5.818
 7079SOL    HW222137   6.643   6.361   5.795
 7080SOL     OW22138   4.006   1.918   3.785
 7080SOL    HW122139   4.087   1.933   3.728
 7080SOL    HW222140   4.033   1.919   3.881
 7081SOL     OW22141   3.917   1.195   5.423
 7081SOL    HW122142   3.998   1.188   5.482
 7081SOL    HW222143   3.897   1.291   5.405
 7082SOL     OW22144   5.350   6.677   0.480
 7082SOL    HW122145   5.261   6.664   0.523
 7082SOL    HW222146   5.370   6.775   0.473
 7083SOL     OW22147   3.081   1.171   6.103
 7083SOL    HW122148   3.089   1.266   6.074
 7083SOL    HW222149   3.091   1.165   6.203
 7084SOL     OW22150   0.031   6.731   5.199
 7084SOL    HW122151   0.119   6.777   5.211
 7084SOL    HW222152   0.021   6.703   5.103
 7085SOL     OW22153   1.982   1.471   3.028
 7085SOL    HW122154   2.012   1.551   3.081
 7085SOL    HW222155   1.942   1.502   2.942
 7086SOL     OW22156   5.338   1.242   6.125
 7086SOL    HW122157   5.395   1.171   6.168
 7086SOL    HW222158   5.290   1.293   6.195
 7087SOL     OW22159   0.737   2.960   4.584
 7087SOL    HW122160   0.678   2.938   4.506
 7087SOL    HW222161   0.827   2.920   4.570
 7088SOL     OW22162   4.873   2.843   4.075
 7088SOL    HW122163   4.840   2.863   3.982
 7088SOL    HW222164   4.904   2.749   4.080
 7089SOL     OW22165   2.997   2.731   6.525
 7089SOL    HW122166   2.908   2.685   6.532
 7089SOL    HW222167   3.041   2.702   6.440
 7090SOL     OW22168   2.398   1.490   5.866
 7090SOL    HW122169   2.364   1.578   5.898
 7090SOL    HW222170   2.472   1.505   5.800
 7091SOL     OW22171   0.109   1.500   6.457
 7091SOL    HW122172   0.183   1.434   6.461
 7091SOL    HW222173   0.089   1.533   6.550
 7092SOL     OW22174   4.310   3.172   0.531
 7092SOL    HW122175   4.238   3.102   0.528
 7092SOL    HW222176   4.312   3.221   0.443
 7093SOL     OW22177   3.517   3.708   4.148
 7093SOL    HW122178   3.454   3.775   4.107
 7093SOL    HW222179   3.610   3.726   4.116
 7094SOL     OW22180   0.689   6.423   5.600
 7094SOL    HW122181   0.637   6.400   5.518
 7094SOL    HW222182   0.748   6.501   5.581
 7095SOL     OW22183   2.637   2.814   0.228
 7095SOL    HW122184   2.545   2.847   0.207
 7095SOL    HW222185   2.631   2.724   0.272
 7096SOL     OW22186   5.557   1.541   3.544
 7096SOL    HW122187   5.630   1.507   3.602
 7096SOL    HW222188   5.594   1.567   3.455
 7097SOL     OW22189   6.680   0.537   1.792
 7097SOL    HW122190   6.616   0.513   1.720
 7097SOL    HW222191   6.772   0.548   1.753
 7098SOL     OW22192   1.343   5.690   4.965
 7098SOL    HW122193   1.416   5.684   4.897
 7098SOL    HW222194   1.259   5.720   4.921
 7099SOL     OW22195   1.494   1.243   4.944
 7099SOL    HW122196   1.579   1.283   4.976
 7099SOL    HW222197   1.494   1.145   4.964
 7100SOL     OW22198   5.361   3.524   1.134
 7100SOL    HW122199   5.382   3.508   1.231
 7100SOL    HW222200   5.445   3.539   1.084
 7101SOL     OW22201   3.036   0.555   4.439
 7101SOL    HW122202   2.937   0.559   4.451
 7101SOL    HW222203   3.064   0.628   4.377
 7102SOL     OW22204   4.730   0.935   0.814
 7102SOL    HW122205   4.770   1.018   0.854
 7102SOL    HW222206   4.644   0.959   0.768
 7103SOL     OW22207   4.066   5.323   0.093
 7103SOL    HW122208   4.044   5.419   0.074
 7103SOL    HW222209   4.144   5.318   0.155
 7104SOL     OW22210   1.267   3.446   4.530
 7104SOL    HW122211   1.290   3.353   4.560
 7104SOL    HW222212   1.281   3.509   4.606
 7105SOL     OW22213   3.707   3.190   5.475
 7105SOL    HW122214   3.607   3.194   5.473
 7105SOL    HW222215   3.745   3.270   5.429
 7106SOL     OW22216   3.392   3.243   3.393
 7106SOL    HW122217   3.358   3.184   3.320
 7106SOL    HW222218   3.468   3.299   3.357
 7107SOL     OW22219   2.550   0.926   0.738
 7107SOL    HW122220   2.469   0.902   0.792
 7107SOL    HW222221   2.539   0.892   0.645
 7108SOL     OW22222   4.604   6.561   0.778
 7108SOL    HW122223   4.527   6.504   0.753
 7108SOL    HW222224   4.689   6.509   0.768
 7109SOL     OW22225   3.416   6.864   6.307
 7109SOL    HW122226   3.410   6.879   6.209
 7109SOL    HW222227   3.488   6.797   6.326
 7110SOL     OW22228   5.195   5.083   3.821
 7110SOL    HW122229   5.205   5.167   3.766
 7110SOL    HW222230   5.265   5.017   3.793
 7111SOL     OW22231   1.053   2.877   4.735
 7111SOL    HW122232   1.127   2.945   4.737
 7111SOL    HW222233   1.014   2.873   4.644
 7112SOL     OW22234   1.649   5.341   4.477
 7112SOL    HW122235   1.692   5.412   4.422
 7112SOL    HW222236   1.568   5.378   4.522
 7113SOL     OW22237   3.507   4.124   4.458
 7113SOL    HW122238   3.444   4.046   4.459
 7113SOL    HW222239   3.478   4.188   4.387
 7114SOL     OW22240   4.193   0.045   1.648
 7114SOL    HW122241   4.164   0.140   1.664
 7114SOL    HW222242   4.286   0.045   1.612
 7115SOL     OW22243   5.488   2.112   1.695
 7115SOL    HW122244   5.540   2.093   1.612
 7115SOL    HW222245   5.407   2.167   1.672
 7116SOL     OW22246   5.564   3.816   3.330
 7116SOL    HW122247   5.654   3.841   3.365
 7116SOL    HW222248   5.505   3.897   3.329
 7117SOL     OW22249   7.012   6.889   4.327
 7117SOL    HW122250   0.018   6.801   4.365
 7117SOL    HW222251   6.924   6.877   4.282
 7118SOL     OW22252   4.730   2.910   0.883
 7118SOL    HW122253   4.687   2.932   0.795
 7118SOL    HW222254   4.825   2.883   0.867
 7119SOL     OW22255   4.793   1.319   3.377
 7119SOL    HW122256   4.824   1.413   3.364
 7119SOL    HW222257   4.839   1.260   3.311
 7120SOL     OW22258   3.849   1.836   2.459
 7120SOL    HW122259   3.921   1.862   2.394
 7120SOL    HW222260   3.865   1.742   2.489
 7121SOL     OW22261   2.063   0.428   3.227
 7121SOL    HW122262   2.084   0.334   3.254
 7121SOL    HW222263   2.000   0.426   3.149
 7122SOL     OW22264   6.540   0.880   6.920
 7122SOL    HW122265   6.481   0.869   7.000
 7122SOL    HW222266   6.554   0.790   6.877
 7123SOL     OW22267   3.302   5.345   1.179
 7123SOL    HW122268   3.295   5.339   1.279
 7123SOL    HW222269   3.291   5.254   1.140
 7124SOL     OW22270   0.867   4.277   0.451
 7124SOL    HW122271   0.909   4.359   0.491
 7124SOL    HW222272   0.922   4.197   0.477
 7125SOL     OW22273   6.971   6.270   1.251
 7125SOL    HW122274   0.011   6.216   1.305
 7125SOL    HW222275   7.022   6.324   1.184
 7126SOL     OW22276   2.399   4.179   1.021
 7126SOL    HW122277   2.449   4.099   0.987
 7126SOL    HW222278   2.369   4.161   1.115
 7127SOL     OW22279   2.816   5.391   4.312
 7127SOL    HW122280   2.786   5.299   4.339
 7127SOL    HW222281   2.830   5.394   4.213
 7128SOL     OW22282   2.929   4.441   0.292
 7128SOL    HW122283   2.870   4.410   0.367
 7128SOL    HW222284   2.872   4.478   0.218
 7129SOL     OW22285   3.219   1.067   0.945
 7129SOL    HW122286   3.164   1.102   1.020
 7129SOL    HW222287   3.313   1.098   0.955
 7130SOL     OW22288   3.070   4.862   4.642
 7130SOL    HW122289   3.035   4.844   4.734
 7130SOL    HW222290   3.156   4.913   4.648
 7131SOL     OW22291   2.275   1.727   0.571
 7131SOL    HW122292   2.252   1.764   0.481
 7131SOL    HW222293   2.259   1.798   0.640
 7132SOL     OW22294   4.014   3.512   2.024
 7132SOL    HW122295   4.108   3.535   2.000
 7132SOL    HW222296   3.960   3.596   2.035
 7133SOL     OW22297   5.351   4.739   3.390
 7133SOL    HW122298   5.380   4.830   3.360
 7133SOL    HW222299   5.354   4.734   3.490
 7134SOL     OW22300   6.175   5.837   3.566
 7134SOL    HW122301   6.192   5.796   3.655
 7134SOL    HW222302   6.261   5.873   3.529
 7135SOL     OW22303   1.264   1.224   3.815
 7135SOL    HW122304   1.199   1.232   3.891
 7135SOL    HW222305   1.261   1.132   3.777
 7136SOL     OW22306   1.892   1.952   0.711
 7136SOL    HW122307   1.871   2.046   0.735
 7136SOL    HW222308   1.838   1.924   0.632
 7137SOL     OW22309   4.267   1.454   4.783
 7137SOL    HW122310   4.356   1.478   4.744
 7137SOL    HW222311   4.245   1.359   4.762
 7138SOL     OW22312   3.106   2.803   1.402
 7138SOL    HW122313   3.197   2.788   1.364
 7138SOL    HW222314   3.045   2.837   1.331
 7139SOL     OW22315   4.917   3.197   2.068
 7139SOL    HW122316   4.843   3.131   2.081
 7139SOL    HW222317   4.907   3.240   1.978
 7140SOL     OW22318   6.020   3.483   5.080
 7140SOL    HW122319   6.113   3.519   5.083
 7140SOL    HW222320   5.978   3.490   5.170
 7141SOL     OW22321   3.401   0.131   1.093
 7141SOL    HW122322   3.348   0.097   1.015
 7141SOL    HW222323   3.396   0.231   1.094
 7142SOL     OW22324   4.082   6.573   3.031
 7142SOL    HW122325   4.164   6.565   3.089
 7142SOL    HW222326   4.069   6.669   3.006
 7143SOL     OW22327   1.520   3.402   6.252
 7143SOL    HW122328   1.429   3.385   6.289
 7143SOL    HW222329   1.524   3.370   6.158
 7144SOL     OW22330   0.954   0.998   3.063
 7144SOL    HW122331   0.865   0.995   3.109
 7144SOL    HW222332   0.997   0.908   3.067
 7145SOL     OW22333   3.582   6.113   6.611
 7145SOL    HW122334   3.585   6.176   6.688
 7145SOL    HW222335   3.522   6.149   6.540
 7146SOL     OW22336   2.286   0.374   0.283
 7146SOL    HW122337   2.369   0.409   0.239
 7146SOL    HW222338   2.208   0.431   0.257
 7147SOL     OW22339   6.319   0.301   3.806
 7147SOL    HW122340   6.222   0.308   3.828
 7147SOL    HW222341   6.356   0.216   3.842
 7148SOL     OW22342   1.012   5.837   1.916
 7148SOL    HW122343   1.063   5.896   1.853
 7148SOL    HW222344   0.914   5.849   1.901
 7149SOL     OW22345   0.192   0.370   3.495
 7149SOL    HW122346   0.285   0.366   3.457
 7149SOL    HW222347   0.174   0.462   3.528
 7150SOL     OW22348   5.203   3.179   1.731
 7150SOL    HW122349   5.107   3.196   1.755
 7150SOL    HW222350   5.234   3.096   1.778
 7151SOL     OW22351   1.268   5.474   1.109
 7151SOL    HW122352   1.271   5.569   1.139
 7151SOL    HW222353   1.243   5.470   1.012
 7152SOL     OW22354   0.257   3.010   5.902
 7152SOL    HW122355   0.332   2.951   5.872
 7152SOL    HW222356   0.195   2.957   5.960
 7153SOL     OW22357   3.345   6.068   5.170
 7153SOL    HW122358   3.409   6.011   5.222
 7153SOL    HW222359   3.360   6.056   5.072
 7154SOL     OW22360   3.870   5.732   4.655
 7154SOL    HW122361   3.860   5.819   4.608
 7154SOL    HW222362   3.817   5.662   4.606
 7155SOL     OW22363   1.820   6.187   1.451
 7155SOL    HW122364   1.832   6.144   1.361
 7155SOL    HW222365   1.758   6.265   1.441
 7156SOL     OW22366   0.639   4.989   4.265
 7156SOL    HW122367   0.644   4.902   4.216
 7156SOL    HW222368   0.730   5.030   4.269
 7157SOL     OW22369   6.117   5.329   1.037
 7157SOL    HW122370   6.215   5.350   1.031
 7157SOL    HW222371   6.077   5.329   0.946
 7158SOL     OW22372   0.540   0.043   3.562
 7158SOL    HW122373   0.457   7.014   3.579
 7158SOL    HW222374   0.547   0.063   3.465
 7159SOL     OW22375   0.329   4.402   2.111
 7159SOL    HW122376   0.429   4.409   2.108
 7159SOL    HW222377   0.295   4.453   2.190
 7160SOL     OW22378   6.830   0.737   2.850
 7160SOL    HW122379   6.796   0.734   2.944
 7160SOL    HW222380   6.914   0.684   2.844
 7161SOL     OW22381   3.187   3.958   4.305
 7161SOL    HW122382   3.110   3.921   4.254
 7161SOL    HW222383   3.154   4.001   4.389
 7162SOL     OW22384   2.794   5.977   5.589
 7162SOL    HW122385   2.745   5.892   5.604
 7162SOL    HW222386   2.781   6.006   5.494
 7163SOL     OW22387   3.689   0.012   4.199
 7163SOL    HW122388   3.754   6.969   4.163
 7163SOL    HW222389   3.699   0.018   4.299
 7164SOL     OW22390   1.482   2.207   2.999
 7164SOL    HW122391   1.512   2.303   2.999
 7164SOL    HW222392   1.386   2.202   2.973
 7165SOL     OW22393   5.978   0.234   0.778
 7165SOL    HW122394   5.905   0.294   0.746
 7165SOL    HW222395   5.952   0.193   0.865
 7166SOL     OW22396   5.247   4.230   1.236
 7166SOL    HW122397   5.337   4.189   1.253
 7166SOL    HW222398   5.201   4.178   1.164
 7167SOL     OW22399   4.852   3.951   4.970
 7167SOL    HW122400   4.933   3.978   4.919
 7167SOL    HW222401   4.771   3.960   4.912
 7168SOL     OW22402   1.212   1.933   4.049
 7168SOL    HW122403   1.279   1.962   4.118
 7168SOL    HW222404   1.176   1.843   4.075
 7169SOL     OW22405   1.431   3.133   5.107
 7169SOL    HW122406   1.420   3.044   5.062
 7169SOL    HW222407   1.447   3.203   5.038
 7170SOL     OW22408   4.173   5.404   3.232
 7170SOL    HW122409   4.118   5.353   3.165
 7170SOL    HW222410   4.155   5.502   3.222
 7171SOL     OW22411   5.985   3.514   6.199
 7171SOL    HW122412   5.907   3.477   6.249
 7171SOL    HW222413   5.952   3.569   6.123
 7172SOL     OW22414   1.544   6.822   6.584
 7172SOL    HW122415   1.628   6.875   6.597
 7172SOL    HW222416   1.567   6.734   6.541
 7173SOL     OW22417   0.316   4.827   5.468
 7173SOL    HW122418   0.234   4.876   5.437
 7173SOL    HW222419   0.385   4.831   5.395
 7174SOL     OW22420   1.255   5.421   6.734
 7174SOL    HW122421   1.329   5.484   6.710
 7174SOL    HW222422   1.171   5.450   6.689
 7175SOL     OW22423   5.910   2.828   1.291
 7175SOL    HW122424   5.914   2.800   1.196
 7175SOL    HW222425   5.878   2.752   1.348
 7176SOL     OW22426   0.589   5.324   2.749
 7176SOL    HW122427   0.642   5.240   2.742
 7176SOL    HW222428   0.509   5.308   2.806
 7177SOL     OW22429   1.987   6.099   3.962
 7177SOL    HW122430   1.991   6.171   4.031
 7177SOL    HW222431   2.037   6.128   3.881
 7178SOL     OW22432   2.300   2.699   5.790
 7178SOL    HW122433   2.344   2.649   5.864
 7178SOL    HW222434   2.275   2.791   5.821
 7179SOL     OW22435   1.869   3.120   5.654
 7179SOL    HW122436   1.929   3.200   5.655
 7179SOL    HW222437   1.774   3.150   5.652
 7180SOL     OW22438   1.175   5.263   6.211
 7180SOL    HW122439   1.170   5.221   6.302
 7180SOL    HW222440   1.086   5.303   6.188
 7181SOL     OW22441   3.809   0.071   0.660
 7181SOL    HW122442   3.735   0.092   0.723
 7181SOL    HW222443   3.772   0.040   0.573
 7182SOL     OW22444   1.627   3.275   5.701
 7182SOL    HW122445   1.591   3.198   5.754
 7182SOL    HW222446   1.674   3.338   5.762
 7183SOL     OW22447   1.487   4.816   2.650
 7183SOL    HW122448   1.562   4.873   2.616
 7183SOL    HW222449   1.524   4.745   2.710
 7184SOL     OW22450   0.479   0.120   3.300
 7184SOL    HW122451   0.381   0.100   3.299
 7184SOL    HW222452   0.505   0.164   3.214
 7185SOL     OW22453   4.949   2.752   6.061
 7185SOL    HW122454   4.957   2.824   6.130
 7185SOL    HW222455   5.036   2.744   6.011
 7186SOL     OW22456   6.850   7.011   5.451
 7186SOL    HW122457   6.942   6.973   5.463
 7186SOL    HW222458   6.840   0.068   5.509
 7187SOL     OW22459   1.603   4.698   1.787
 7187SOL    HW122460   1.592   4.734   1.880
 7187SOL    HW222461   1.514   4.690   1.743
 7188SOL     OW22462   5.535   0.093   0.770
 7188SOL    HW122463   5.437   0.075   0.769
 7188SOL    HW222464   5.551   0.192   0.770
 7189SOL     OW22465   6.312   1.298   6.627
 7189SOL    HW122466   6.349   1.217   6.673
 7189SOL    HW222467   6.330   1.379   6.683
 7190SOL     OW22468   5.258   3.620   3.619
 7190SOL    HW122469   5.321   3.695   3.599
 7190SOL    HW222470   5.256   3.556   3.542
 7191SOL     OW22471   0.706   3.793   2.607
 7191SOL    HW122472   0.690   3.788   2.705
 7191SOL    HW222473   0.803   3.813   2.591
 7192SOL     OW22474   2.091   6.609   5.246
 7192SOL    HW122475   2.009   6.595   5.302
 7192SOL    HW222476   2.071   6.586   5.151
 7193SOL     OW22477   2.880   2.261   3.806
 7193SOL    HW122478   2.927   2.173   3.796
 7193SOL    HW222479   2.881   2.288   3.903
 7194SOL     OW22480   2.474   1.738   1.205
 7194SOL    HW122481   2.512   1.652   1.171
 7194SOL    HW222482   2.547   1.794   1.243
 7195SOL     OW22483   0.206   4.828   0.058
 7195SOL    HW122484   0.110   4.853   0.063
 7195SOL    HW222485   0.215   4.740   0.010
 7196SOL     OW22486   2.967   3.234   2.515
 7196SOL    HW122487   3.005   3.145   2.490
 7196SOL    HW222488   2.976   3.297   2.438
 7197SOL     OW22489   6.588   2.623   5.969
 7197SOL    HW122490   6.588   2.706   5.913
 7197SOL    HW222491   6.510   2.566   5.944
 7198SOL     OW22492   1.165   0.130   5.696
 7198SOL    HW122493   1.153   0.094   5.604
 7198SOL    HW222494   1.079   0.123   5.746
 7199SOL     OW22495   1.376   0.857   2.157
 7199SOL    HW122496   1.278   0.857   2.134
 7199SOL    HW222497   1.388   0.889   2.251
 7200SOL     OW22498   2.492   0.543   0.097
 7200SOL    HW122499   2.454   0.563   0.007
 7200SOL    HW222500   2.506   0.445   0.106
 7201SOL     OW22501   1.534   5.060   3.086
 7201SOL    HW122502   1.438   5.036   3.071
 7201SOL    HW222503   1.540   5.154   3.120
 7202SOL     OW22504   3.742   0.035   6.369
 7202SOL    HW122505   3.646   0.062   6.373
 7202SOL    HW222506   3.791   0.097   6.308
 7203SOL     OW22507   6.040   0.790   0.411
 7203SOL    HW122508   5.997   0.737   0.484
 7203SOL    HW222509   5.975   0.804   0.337
 7204SOL     OW22510   6.249   6.845   4.321
 7204SOL    HW122511   6.181   6.892   4.377
 7204SOL    HW222512   6.235   6.746   4.326
 7205SOL     OW22513   1.242   5.894   3.197
 7205SOL    HW122514   1.155   5.911   3.150
 7205SOL    HW222515   1.229   5.906   3.295
 7206SOL     OW22516   0.674   1.075   1.191
 7206SOL    HW122517   0.631   1.158   1.156
 7206SOL    HW222518   0.769   1.094   1.216
 7207SOL     OW22519   3.942   0.253   1.468
 7207SOL    HW122520   4.021   0.232   1.411
 7207SOL    HW222521   3.934   0.352   1.478
 7208SOL     OW22522   3.896   6.500   4.545
 7208SOL    HW122523   3.857   6.590   4.525
 7208SOL    HW222524   3.848   6.460   4.623
 7209SOL     OW22525   2.910   3.301   3.864
 7209SOL    HW122526   2.907   3.220   3.922
 7209SOL    HW222527   2.921   3.273   3.768
 7210SOL     OW22528   5.049   1.023   3.808
 7210SOL    HW122529   5.008   1.033   3.717
 7210SOL    HW222530   4.997   1.078   3.874
 7211SOL     OW22531   1.186   5.955   3.469
 7211SOL    HW122532   1.136   6.041   3.470
 7211SOL    HW222533   1.130   5.883   3.511
 7212SOL     OW22534   0.542   5.729   3.957
 7212SOL    HW122535   0.449   5.718   3.993
 7212SOL    HW222536   0.583   5.811   3.997
 7213SOL     OW22537   5.481   6.653   4.962
 7213SOL    HW122538   5.521   6.578   5.015
 7213SOL    HW222539   5.435   6.615   4.881
 7214SOL     OW22540   2.350   5.362   4.490
 7214SOL    HW122541   2.371   5.331   4.583
 7214SOL    HW222542   2.435   5.389   4.445
 7215SOL     OW22543   0.788   3.595   4.547
 7215SOL    HW122544   0.869   3.542   4.521
 7215SOL    HW222545   0.782   3.676   4.489
 7216SOL     OW22546   3.167   5.254   0.367
 7216SOL    HW122547   3.155   5.279   0.271
 7216SOL    HW222548   3.264   5.261   0.391
 7217SOL     OW22549   1.525   4.795   2.037
 7217SOL    HW122550   1.455   4.730   2.007
 7217SOL    HW222551   1.550   4.775   2.131
 7218SOL     OW22552   4.613   2.837   5.488
 7218SOL    HW122553   4.555   2.908   5.527
 7218SOL    HW222554   4.574   2.806   5.401
 7219SOL     OW22555   4.574   6.117   3.304
 7219SOL    HW122556   4.479   6.091   3.318
 7219SOL    HW222557   4.582   6.217   3.307
 7220SOL     OW22558   6.627   6.617   3.565
 7220SOL    HW122559   6.541   6.609   3.616
 7220SOL    HW222560   6.704   6.610   3.627
 7221SOL     OW22561   5.629   4.954   5.388
 7221SOL    HW122562   5.569   4.936   5.310
 7221SOL    HW222563   5.722   4.925   5.366
 7222SOL     OW22564   6.397   6.322   0.650
 7222SOL    HW122565   6.467   6.302   0.718
 7222SOL    HW222566   6.440   6.354   0.566
 7223SOL     OW22567   3.132   1.835   1.269
 7223SOL    HW122568   3.176   1.791   1.191
 7223SOL    HW222569   3.045   1.789   1.288
 7224SOL     OW22570   5.943   1.984   4.714
 7224SOL    HW122571   5.848   2.007   4.694
 7224SOL    HW222572   5.951   1.885   4.723
 7225SOL     OW22573   1.739   5.435   6.808
 7225SOL    HW122574   1.742   5.379   6.891
 7225SOL    HW222575   1.827   5.481   6.795
 7226SOL     OW22576   0.277   0.359   0.545
 7226SOL    HW122577   0.375   0.375   0.542
 7226SOL    HW222578   0.246   0.357   0.640
 7227SOL     OW22579   0.767   2.410   0.026
 7227SOL    HW122580   0.830   2.347   0.071
 7227SOL    HW222581   0.745   2.485   0.088
 7228SOL     OW22582   0.232   0.176   1.731
 7228SOL    HW122583   0.310   0.147   1.787
 7228SOL    HW222584   0.151   0.185   1.789
 7229SOL     OW22585   0.868   0.421   4.160
 7229SOL    HW122586   0.942   0.468   4.209
 7229SOL    HW222587   0.872   0.445   4.063
 7230SOL     OW22588   4.384   5.282   5.066
 7230SOL    HW122589   4.324   5.287   4.986
 7230SOL    HW222590   4.369   5.195   5.113
 7231SOL     OW22591   4.728   0.966   6.804
 7231SOL    HW122592   4.780   0.989   6.722
 7231SOL    HW222593   4.644   1.020   6.808
 7232SOL     OW22594   3.936   5.123   3.132
 7232SOL    HW122595   4.034   5.118   3.113
 7232SOL    HW222596   3.890   5.175   3.060
 7233SOL     OW22597   0.477   2.864   4.974
 7233SOL    HW122598   0.434   2.775   4.991
 7233SOL    HW222599   0.575   2.850   4.958
 7234SOL     OW22600   6.128   2.546   1.875
 7234SOL    HW122601   6.050   2.494   1.840
 7234SOL    HW222602   6.205   2.537   1.812
 7235SOL     OW22603   6.420   3.853   4.147
 7235SOL    HW122604   6.432   3.851   4.048
 7235SOL    HW222605   6.324   3.843   4.170
 7236SOL     OW22606   3.465   1.779   3.157
 7236SOL    HW122607   3.530   1.765   3.083
 7236SOL    HW222608   3.414   1.864   3.142
 7237SOL     OW22609   6.668   6.392   5.274
 7237SOL    HW122610   6.733   6.327   5.314
 7237SOL    HW222611   6.707   6.484   5.279
 7238SOL     OW22612   2.459   1.254   1.691
 7238SOL    HW122613   2.521   1.217   1.622
 7238SOL    HW222614   2.366   1.221   1.673
 7239SOL     OW22615   1.812   1.563   3.590
 7239SOL    HW122616   1.887   1.627   3.575
 7239SOL    HW222617   1.783   1.525   3.502
 7240SOL     OW22618   3.024   4.504   0.805
 7240SOL    HW122619   3.095   4.488   0.874
 7240SOL    HW222620   3.007   4.419   0.755
 7241SOL     OW22621   3.347   0.406   5.917
 7241SOL    HW122622   3.302   0.449   5.995
 7241SOL    HW222623   3.426   0.354   5.948
 7242SOL     OW22624   5.803   4.274   6.874
 7242SOL    HW122625   5.895   4.264   6.912
 7242SOL    HW222626   5.795   4.218   6.791
 7243SOL     OW22627   1.482   4.872   6.542
 7243SOL    HW122628   1.545   4.808   6.586
 7243SOL    HW222629   1.460   4.840   6.450
 7244SOL     OW22630   4.647   1.194   0.549
 7244SOL    HW122631   4.597   1.124   0.599
 7244SOL    HW222632   4.714   1.151   0.489
 7245SOL     OW22633   0.131   2.672   5.113
 7245SOL    HW122634   0.118   2.748   5.050
 7245SOL    HW222635   0.042   2.634   5.139
 7246SOL     OW22636   6.922   6.871   4.695
 7246SOL    HW122637   6.874   6.877   4.783
 7246SOL    HW222638   6.867   6.916   4.624
 7247SOL     OW22639   2.516   6.514   2.235
 7247SOL    HW122640   2.419   6.528   2.219
 7247SOL    HW222641   2.551   6.587   2.294
 7248SOL     OW22642   3.449   1.031   3.764
 7248SOL    HW122643   3.497   1.106   3.809
 7248SOL    HW222644   3.515   0.969   3.722
 7249SOL     OW22645   5.525   4.417   0.882
 7249SOL    HW122646   5.561   4.424   0.789
 7249SOL    HW222647   5.552   4.328   0.921
 7250SOL     OW22648   2.492   4.745   6.337
 7250SOL    HW122649   2.490   4.838   6.375
 7250SOL    HW222650   2.582   4.728   6.296
 7251SOL     OW22651   6.428   6.608   5.401
 7251SOL    HW122652   6.483   6.683   5.364
 7251SOL    HW222653   6.420   6.535   5.332
 7252SOL     OW22654   3.129   3.485   4.665
 7252SOL    HW122655   3.031   3.484   4.687
 7252SOL    HW222656   3.164   3.578   4.676
 7253SOL     OW22657   1.893   5.775   0.686
 7253SOL    HW122658   1.853   5.709   0.750
 7253SOL    HW222659   1.926   5.727   0.605
 7254SOL     OW22660   3.347   5.194   4.011
 7254SOL    HW122661   3.352   5.227   4.105
 7254SOL    HW222662   3.374   5.097   4.008
 7255SOL     OW22663   2.780   3.004   1.720
 7255SOL    HW122664   2.825   3.056   1.793
 7255SOL    HW222665   2.842   2.934   1.685
 7256SOL     OW22666   4.309   4.822   4.592
 7256SOL    HW122667   4.315   4.919   4.613
 7256SOL    HW222668   4.323   4.768   4.675
 7257SOL     OW22669   5.995   2.528   3.283
 7257SOL    HW122670   6.016   2.473   3.202
 7257SOL    HW222671   6.080   2.551   3.331
 7258SOL     OW22672   4.189   0.557   4.358
 7258SOL    HW122673   4.176   0.642   4.409
 7258SOL    HW222674   4.169   0.572   4.261
 7259SOL     OW22675   2.834   4.049   0.057
 7259SOL    HW122676   2.927   4.036   0.094
 7259SOL    HW222677   2.768   4.005   0.117
 7260SOL     OW22678   3.750   2.170   2.917
 7260SOL    HW122679   3.792   2.176   3.008
 7260SOL    HW222680   3.657   2.135   2.926
 7261SOL     OW22681   2.239   3.277   1.721
 7261SOL    HW122682   2.225   3.196   1.778
 7261SOL    HW222683   2.298   3.341   1.770
 7262SOL     OW22684   5.813   2.283   4.878
 7262SOL    HW122685   5.730   2.237   4.847
 7262SOL    HW222686   5.877   2.291   4.801
 7263SOL     OW22687   1.196   5.732   1.656
 7263SOL    HW122688   1.184   5.722   1.557
 7263SOL    HW222689   1.167   5.648   1.701
 7264SOL     OW22690   6.773   1.161   6.853
 7264SOL    HW122691   6.696   1.182   6.913
 7264SOL    HW222692   6.788   1.062   6.850
 7265SOL     OW22693   5.398   5.347   6.125
 7265SOL    HW122694   5.470   5.403   6.164
 7265SOL    HW222695   5.406   5.253   6.158
 7266SOL     OW22696   5.348   0.953   1.531
 7266SOL    HW122697   5.293   0.947   1.447
 7266SOL    HW222698   5.299   0.907   1.606
 7267SOL     OW22699   0.114   4.202   4.594
 7267SOL    HW122700   0.130   4.301   4.598
 7267SOL    HW222701   0.035   4.178   4.651
 7268SOL     OW22702   4.296   5.963   1.876
 7268SOL    HW122703   4.297   5.955   1.777
 7268SOL    HW222704   4.364   6.031   1.905
 7269SOL     OW22705   0.588   5.606   1.878
 7269SOL    HW122706   0.594   5.652   1.966
 7269SOL    HW222707   0.681   5.591   1.843
 7270SOL     OW22708   2.050   1.695   3.166
 7270SOL    HW122709   2.112   1.706   3.244
 7270SOL    HW222710   2.092   1.733   3.084
 7271SOL     OW22711   0.232   3.874   2.571
 7271SOL    HW122712   0.152   3.923   2.536
 7271SOL    HW222713   0.293   3.852   2.496
 7272SOL     OW22714   4.958   2.944   2.725
 7272SOL    HW122715   4.896   2.922   2.801
 7272SOL    HW222716   5.017   3.020   2.752
 7273SOL     OW22717   5.617   4.538   1.567
 7273SOL    HW122718   5.675   4.525   1.486
 7273SOL    HW222719   5.524   4.508   1.546
 7274SOL     OW22720   0.337   5.065   5.934
 7274SOL    HW122721   0.406   5.131   5.904
 7274SOL    HW222722   0.353   5.043   6.030
 7275SOL     OW22723   6.889   0.899   6.867
 7275SOL    HW122724   6.821   0.828   6.849
 7275SOL    HW222725   6.923   0.890   6.961
 7276SOL     OW22726   2.184   2.015   4.021
 7276SOL    HW122727   2.135   2.094   3.985
 7276SOL    HW222728   2.124   1.935   4.020
 7277SOL     OW22729   4.604   1.135   5.645
 7277SOL    HW122730   4.628   1.123   5.741
 7277SOL    HW222731   4.548   1.217   5.635
 7278SOL     OW22732   3.781   1.555   3.482
 7278SOL    HW122733   3.831   1.484   3.432
 7278SOL    HW222734   3.695   1.518   3.516
 7279SOL     OW22735   4.292   4.287   0.741
 7279SOL    HW122736   4.292   4.291   0.841
 7279SOL    HW222737   4.204   4.319   0.706
 7280SOL     OW22738   5.187   2.100   5.337
 7280SOL    HW122739   5.181   2.166   5.413
 7280SOL    HW222740   5.283   2.077   5.321
 7281SOL     OW22741   3.939   6.465   1.165
 7281SOL    HW122742   3.878   6.410   1.108
 7281SOL    HW222743   3.886   6.535   1.213
 7282SOL     OW22744   6.673   5.378   2.039
 7282SOL    HW122745   6.722   5.323   2.105
 7282SOL    HW222746   6.716   5.468   2.031
 7283SOL     OW22747   3.373   5.665   2.418
 7283SOL    HW122748   3.369   5.577   2.466
 7283SOL    HW222749   3.290   5.678   2.364
 7284SOL     OW22750   6.574   2.501   3.914
 7284SOL    HW122751   6.629   2.523   3.833
 7284SOL    HW222752   6.503   2.571   3.925
 7285SOL     OW22753   4.913   2.917   1.832
 7285SOL    HW122754   4.829   2.962   1.862
 7285SOL    HW222755   4.962   2.880   1.911
 7286SOL     OW22756   0.788   1.594   0.905
 7286SOL    HW122757   0.839   1.596   0.818
 7286SOL    HW222758   0.692   1.614   0.888
 7287SOL     OW22759   1.336   2.636   3.493
 7287SOL    HW122760   1.282   2.686   3.425
 7287SOL    HW222761   1.418   2.688   3.515
 7288SOL     OW22762   3.072   2.156   3.162
 7288SOL    HW122763   2.977   2.181   3.142
 7288SOL    HW222764   3.126   2.161   3.078
 7289SOL     OW22765   6.317   2.114   2.149
 7289SOL    HW122766   6.233   2.141   2.103
 7289SOL    HW222767   6.395   2.158   2.103
 7290SOL     OW22768   4.324   1.547   5.051
 7290SOL    HW122769   4.399   1.614   5.045
 7290SOL    HW222770   4.320   1.494   4.966
 7291SOL     OW22771   3.404   0.199   6.982
 7291SOL    HW122772   3.406   0.176   6.885
 7291SOL    HW222773   3.326   0.155   0.002
 7292SOL     OW22774   1.642   0.263   3.259
 7292SOL    HW122775   1.665   0.237   3.165
 7292SOL    HW222776   1.606   0.357   3.259
 7293SOL     OW22777   1.398   0.563   5.466
 7293SOL    HW122778   1.349   0.632   5.521
 7293SOL    HW222779   1.486   0.542   5.510
 7294SOL     OW22780   3.173   4.637   1.594
 7294SOL    HW122781   3.148   4.548   1.633
 7294SOL    HW222782   3.249   4.676   1.646
 7295SOL     OW22783   6.428   5.328   1.935
 7295SOL    HW122784   6.521   5.334   1.972
 7295SOL    HW222785   6.405   5.413   1.888
 7296SOL     OW22786   4.021   4.822   2.859
 7296SOL    HW122787   4.038   4.776   2.771
 7296SOL    HW222788   3.923   4.841   2.867
 7297SOL     OW22789   2.990   6.703   1.855
 7297SOL    HW122790   3.070   6.760   1.836
 7297SOL    HW222791   2.988   6.680   1.952
 7298SOL     OW22792   5.207   5.742   6.366
 7298SOL    HW122793   5.130   5.791   6.326
 7298SOL    HW222794   5.173   5.665   6.420
 7299SOL     OW22795   1.218   3.097   6.793
 7299SOL    HW122796   1.256   3.152   6.719
 7299SOL    HW222797   1.291   3.066   6.854
 7300SOL     OW22798   0.716   5.142   1.511
 7300SOL    HW122799   0.722   5.087   1.427
 7300SOL    HW222800   0.768   5.097   1.584
 7301SOL     OW22801   5.536   6.805   5.320
 7301SOL    HW122802   5.517   6.784   5.416
 7301SOL    HW222803   5.535   6.904   5.307
 7302SOL     OW22804   5.176   2.836   5.874
 7302SOL    HW122805   5.093   2.838   5.817
 7302SOL    HW222806   5.240   2.769   5.837
 7303SOL     OW22807   2.382   1.148   0.710
 7303SOL    HW122808   2.417   1.060   0.679
 7303SOL    HW222809   2.342   1.138   0.801
 7304SOL     OW22810   2.815   5.212   1.746
 7304SOL    HW122811   2.816   5.115   1.723
 7304SOL    HW222812   2.754   5.261   1.684
 7305SOL     OW22813   5.899   2.258   0.033
 7305SOL    HW122814   5.877   2.352   0.011
 7305SOL    HW222815   5.825   2.218   0.087
 7306SOL     OW22816   2.879   1.280   1.381
 7306SOL    HW122817   2.916   1.212   1.444
 7306SOL    HW222818   2.816   1.340   1.431
 7307SOL     OW22819   2.677   6.450   1.526
 7307SOL    HW122820   2.725   6.376   1.573
 7307SOL    HW222821   2.686   6.535   1.579
 7308SOL     OW22822   5.048   0.700   1.912
 7308SOL    HW122823   4.958   0.667   1.939
 7308SOL    HW222824   5.116   0.627   1.926
 7309SOL     OW22825   2.333   5.590   2.596
 7309SOL    HW122826   2.390   5.577   2.677
 7309SOL    HW222827   2.344   5.512   2.535
 7310SOL     OW22828   1.963   2.741   6.841
 7310SOL    HW122829   2.015   2.656   6.843
 7310SOL    HW222830   1.968   2.786   6.930
 7311SOL     OW22831   0.225   7.004   0.303
 7311SOL    HW122832   0.308   6.952   0.282
 7311SOL    HW222833   0.156   6.986   0.233
 7312SOL     OW22834   6.942   2.371   5.868
 7312SOL    HW122835   6.904   2.391   5.778
 7312SOL    HW222836   6.916   2.278   5.895
 7313SOL     OW22837   2.538   0.818   1.494
 7313SOL    HW122838   2.522   0.782   1.586
 7313SOL    HW222839   2.459   0.872   1.465
 7314SOL     OW22840   0.039   4.308   6.853
 7314SOL    HW122841   0.136   4.333   6.855
 7314SOL    HW222842   0.027   4.220   6.898
 7315SOL     OW22843   0.272   5.183   1.998
 7315SOL    HW122844   0.267   5.269   2.050
 7315SOL    HW222845   0.181   5.142   1.994
 7316SOL     OW22846   3.207   2.080   6.470
 7316SOL    HW122847   3.117   2.042   6.493
 7316SOL    HW222848   3.213   2.091   6.371
 7317SOL     OW22849   3.570   1.663   1.634
 7317SOL    HW122850   3.580   1.582   1.691
 7317SOL    HW222851   3.473   1.674   1.609
 7318SOL     OW22852   3.628   7.014   2.088
 7318SOL    HW122853   3.533   0.023   2.087
 7318SOL    HW222854   3.636   6.938   2.022
 7319SOL     OW22855   6.573   4.700   0.618
 7319SOL    HW122856   6.577   4.692   0.518
 7319SOL    HW222857   6.519   4.624   0.655
 7320SOL     OW22858   0.011   3.455   1.098
 7320SOL    HW122859   6.946   3.462   1.141
 7320SOL    HW222860   0.008   3.388   1.025
 7321SOL     OW22861   2.607   6.097   6.479
 7321SOL    HW122862   2.655   6.070   6.395
 7321SOL    HW222863   2.548   6.023   6.509
 7322SOL     OW22864   0.862   1.705   2.269
 7322SOL    HW122865   0.851   1.664   2.178
 7322SOL    HW222866   0.960   1.716   2.289
 7323SOL     OW22867   1.779   1.713   1.197
 7323SOL    HW122868   1.819   1.769   1.270
 7323SOL    HW222869   1.824   1.734   1.110
 7324SOL     OW22870   5.744   4.873   3.446
 7324SOL    HW122871   5.773   4.909   3.534
 7324SOL    HW222872   5.824   4.840   3.395
 7325SOL     OW22873   3.960   0.501   5.952
 7325SOL    HW122874   3.916   0.484   6.040
 7325SOL    HW222875   3.891   0.508   5.880
 7326SOL     OW22876   2.941   1.019   6.553
 7326SOL    HW122877   2.929   0.924   6.581
 7326SOL    HW222878   2.968   1.074   6.632
 7327SOL     OW22879   6.091   3.882   3.568
 7327SOL    HW122880   6.094   3.785   3.591
 7327SOL    HW222881   6.097   3.936   3.652
 7328SOL     OW22882   3.931   5.362   5.117
 7328SOL    HW122883   3.890   5.453   5.126
 7328SOL    HW222884   3.891   5.300   5.185
 7329SOL     OW22885   2.417   2.816   0.637
 7329SOL    HW122886   2.366   2.877   0.577
 7329SOL    HW222887   2.378   2.724   0.632
 7330SOL     OW22888   3.421   2.711   1.632
 7330SOL    HW122889   3.491   2.661   1.684
 7330SOL    HW222890   3.374   2.648   1.571
 7331SOL     OW22891   4.584   0.350   1.726
 7331SOL    HW122892   4.559   0.363   1.630
 7331SOL    HW222893   4.558   0.258   1.756
 7332SOL     OW22894   3.571   3.978   6.939
 7332SOL    HW122895   3.578   4.016   0.007
 7332SOL    HW222896   3.663   3.959   6.904
 7333SOL     OW22897   6.369   2.797   1.690
 7333SOL    HW122898   6.338   2.705   1.664
 7333SOL    HW222899   6.384   2.801   1.788
 7334SOL     OW22900   2.663   0.155   5.213
 7334SOL    HW122901   2.683   0.247   5.246
 7334SOL    HW222902   2.728   0.090   5.253
 7335SOL     OW22903   6.968   3.133   2.805
 7335SOL    HW122904   6.928   3.222   2.784
 7335SOL    HW222905   6.897   3.070   2.836
 7336SOL     OW22906   1.398   5.916   0.854
 7336SOL    HW122907   1.354   5.981   0.793
 7336SOL    HW222908   1.452   5.850   0.801
 7337SOL     OW22909   2.616   2.264   2.066
 7337SOL    HW122910   2.697   2.231   2.115
 7337SOL    HW222911   2.645   2.327   1.993
 7338SOL     OW22912   5.682   3.079   1.614
 7338SOL    HW122913   5.598   3.092   1.562
 7338SOL    HW222914   5.662   3.088   1.712
 7339SOL     OW22915   6.837   6.204   5.338
 7339SOL    HW122916   6.927   6.209   5.295
 7339SOL    HW222917   6.803   6.110   5.334
 7340SOL     OW22918   2.671   0.901   6.918
 7340SOL    HW122919   2.579   0.925   6.887
 7340SOL    HW222920   2.736   0.969   6.883
 7341SOL     OW22921   0.064   5.278   3.726
 7341SOL    HW122922   0.094   5.234   3.641
 7341SOL    HW222923   0.132   5.263   3.797
 7342SOL     OW22924   6.834   0.342   0.219
 7342SOL    HW122925   6.742   0.369   0.248
 7342SOL    HW222926   6.901   0.379   0.284
 7343SOL     OW22927   5.810   4.078   2.542
 7343SOL    HW122928   5.862   4.123   2.614
 7343SOL    HW222929   5.745   4.142   2.502
 7344SOL     OW22930   1.904   6.674   6.661
 7344SOL    HW122931   1.962   6.594   6.676
 7344SOL    HW222932   1.888   6.686   6.563
 7345SOL     OW22933   4.060   5.035   5.680
 7345SOL    HW122934   3.999   4.970   5.635
 7345SOL    HW222935   4.011   5.122   5.694
 7346SOL     OW22936   3.630   4.517   0.885
 7346SOL    HW122937   3.608   4.424   0.856
 7346SOL    HW222938   3.549   4.574   0.878
 7347SOL     OW22939   6.346   2.036   2.435
 7347SOL    HW122940   6.375   2.089   2.514
 7347SOL    HW222941   6.379   2.080   2.351
 7348SOL     OW22942   1.124   2.959   3.640
 7348SOL    HW122943   1.162   2.916   3.558
 7348SOL    HW222944   1.116   2.891   3.713
 7349SOL     OW22945   3.638   2.026   1.281
 7349SOL    HW122946   3.550   2.055   1.319
 7349SOL    HW222947   3.644   1.926   1.282
 7350SOL     OW22948   0.538   2.630   3.659
 7350SOL    HW122949   0.603   2.577   3.714
 7350SOL    HW222950   0.589   2.692   3.599
 7351SOL     OW22951   4.384   4.759   6.261
 7351SOL    HW122952   4.468   4.801   6.224
 7351SOL    HW222953   4.377   4.665   6.228
 7352SOL     OW22954   1.499   1.828   2.498
 7352SOL    HW122955   1.542   1.777   2.423
 7352SOL    HW222956   1.559   1.827   2.578
 7353SOL     OW22957   6.186   1.745   4.717
 7353SOL    HW122958   6.155   1.727   4.810
 7353SOL    HW222959   6.213   1.841   4.709
 7354SOL     OW22960   6.557   0.470   6.536
 7354SOL    HW122961   6.644   0.472   6.488
 7354SOL    HW222962   6.528   0.375   6.549
 7355SOL     OW22963   0.820   5.743   1.623
 7355SOL    HW122964   0.824   5.685   1.542
 7355SOL    HW222965   0.855   5.692   1.702
 7356SOL     OW22966   6.186   1.775   6.549
 7356SOL    HW122967   6.171   1.689   6.499
 7356SOL    HW222968   6.274   1.814   6.521
 7357SOL     OW22969   4.810   1.300   6.900
 7357SOL    HW122970   4.891   1.334   6.853
 7357SOL    HW222971   4.739   1.280   6.833
 7358SOL     OW22972   3.654   2.046   3.901
 7358SOL    HW122973   3.718   1.999   3.841
 7358SOL    HW222974   3.703   2.093   3.974
 7359SOL     OW22975   3.864   3.052   2.937
 7359SOL    HW122976   3.843   3.005   2.851
 7359SOL    HW222977   3.937   3.118   2.921
 7360SOL     OW22978   1.412   2.379   5.514
 7360SOL    HW122979   1.481   2.436   5.470
 7360SOL    HW222980   1.456   2.297   5.552
 7361SOL     OW22981   5.181   6.885   1.050
 7361SOL    HW122982   5.109   6.848   1.109
 7361SOL    HW222983   5.171   6.847   0.958
 7362SOL     OW22984   1.128   6.579   4.878
 7362SOL    HW122985   1.095   6.579   4.784
 7362SOL    HW222986   1.050   6.588   4.941
 7363SOL     OW22987   5.857   2.517   0.067
 7363SOL    HW122988   5.793   2.586   0.033
 7363SOL    HW222989   5.846   2.506   0.165
 7364SOL     OW22990   4.378   6.803   0.850
 7364SOL    HW122991   4.419   6.813   0.760
 7364SOL    HW222992   4.449   6.813   0.920
 7365SOL     OW22993   3.112   0.462   2.689
 7365SOL    HW122994   3.083   0.413   2.607
 7365SOL    HW222995   3.090   0.406   2.770
 7366SOL     OW22996   0.993   5.466   6.645
 7366SOL    HW122997   0.974   5.468   6.547
 7366SOL    HW222998   0.925   5.520   6.694
 7367SOL     OW22999   5.274   3.792   1.233
 7367SOL    HW123000   5.309   3.706   1.194
 7367SOL    HW223001   5.349   3.840   1.279
 7368SOL     OW23002   3.208   3.407   4.360
 7368SOL    HW123003   3.110   3.425   4.352
 7368SOL    HW223004   3.254   3.426   4.273
 7369SOL     OW23005   4.896   3.745   1.411
 7369SOL    HW123006   4.956   3.822   1.434
 7369SOL    HW223007   4.942   3.686   1.345
 7370SOL     OW23008   2.244   6.929   0.346
 7370SOL    HW123009   2.270   6.964   0.256
 7370SOL    HW223010   2.231   7.006   0.409
 7371SOL     OW23011   2.868   5.363   4.058
 7371SOL    HW123012   2.935   5.417   4.007
 7371SOL    HW223013   2.894   5.266   4.055
 7372SOL     OW23014   4.356   0.343   5.388
 7372SOL    HW123015   4.378   0.351   5.290
 7372SOL    HW223016   4.388   0.255   5.422
 7373SOL     OW23017   4.134   1.144   3.735
 7373SOL    HW123018   4.213   1.201   3.759
 7373SOL    HW223019   4.126   1.068   3.800
 7374SOL     OW23020   1.537   2.994   5.787
 7374SOL    HW123021   1.562   2.949   5.702
 7374SOL    HW223022   1.441   3.023   5.782
 7375SOL     OW23023   1.155   1.646   5.077
 7375SOL    HW123024   1.176   1.550   5.095
 7375SOL    HW223025   1.169   1.700   5.161
 7376SOL     OW23026   2.867   2.873   0.054
 7376SOL    HW123027   2.917   2.947   0.101
 7376SOL    HW223028   2.791   2.843   0.111
 7377SOL     OW23029   4.764   4.479   1.600
 7377SOL    HW123030   4.753   4.413   1.675
 7377SOL    HW223031   4.765   4.430   1.513
 7378SOL     OW23032   0.307   2.086   4.989
 7378SOL    HW123033   0.261   2.137   4.916
 7378SOL    HW223034   0.344   2.001   4.951
 7379SOL     OW23035   4.073   0.974   2.217
 7379SOL    HW123036   4.144   0.936   2.157
 7379SOL    HW223037   4.008   1.026   2.163
 7380SOL     OW23038   6.578   2.938   5.829
 7380SOL    HW123039   6.635   2.973   5.904
 7380SOL    HW223040   6.565   3.010   5.761
 7381SOL     OW23041   4.815   2.980   2.339
 7381SOL    HW123042   4.789   2.976   2.243
 7381SOL    HW223043   4.859   3.067   2.359
 7382SOL     OW23044   0.741   4.217   4.746
 7382SOL    HW123045   0.755   4.303   4.695
 7382SOL    HW223046   0.644   4.206   4.766
 7383SOL     OW23047   0.425   6.396   2.073
 7383SOL    HW123048   0.523   6.375   2.071
 7383SOL    HW223049   0.372   6.312   2.077
 7384SOL     OW23050   5.179   7.009   2.490
 7384SOL    HW123051   5.236   0.064   2.507
 7384SOL    HW223052   5.192   6.978   2.396
 7385SOL     OW23053   4.641   5.995   2.129
 7385SOL    HW123054   4.612   6.051   2.206
 7385SOL    HW223055   4.698   5.920   2.163
 7386SOL     OW23056   0.821   2.437   5.699
 7386SOL    HW123057   0.830   2.419   5.601
 7386SOL    HW223058   0.911   2.442   5.741
 7387SOL     OW23059   4.039   5.800   4.372
 7387SOL    HW123060   4.096   5.727   4.408
 7387SOL    HW223061   4.016   5.782   4.277
 7388SOL     OW23062   6.749   5.394   4.103
 7388SOL    HW123063   6.679   5.327   4.130
 7388SOL    HW223064   6.778   5.377   4.009
 7389SOL     OW23065   1.285   4.094   0.004
 7389SOL    HW123066   1.330   4.169   6.980
 7389SOL    HW223067   1.292   4.110   0.103
 7390SOL     OW23068   0.130   1.612   6.725
 7390SOL    HW123069   0.040   1.584   6.756
 7390SOL    HW223070   0.131   1.711   6.710
 7391SOL     OW23071   5.578   4.052   6.228
 7391SOL    HW123072   5.664   4.014   6.194
 7391SOL    HW223073   5.534   4.105   6.156
 7392SOL     OW23074   1.653   5.806   5.534
 7392SOL    HW123075   1.593   5.879   5.501
 7392SOL    HW223076   1.616   5.717   5.506
 7393SOL     OW23077   6.229   5.495   2.082
 7393SOL    HW123078   6.162   5.554   2.127
 7393SOL    HW223079   6.292   5.551   2.029
 7394SOL     OW23080   3.653   3.634   6.374
 7394SOL    HW123081   3.566   3.617   6.419
 7394SOL    HW223082   3.728   3.606   6.433
 7395SOL     OW23083   0.289   0.414   6.444
 7395SOL    HW123084   0.359   0.391   6.512
 7395SOL    HW223085   0.241   0.330   6.416
 7396SOL     OW23086   1.807   0.809   5.751
 7396SOL    HW123087   1.774   0.731   5.805
 7396SOL    HW223088   1.807   0.786   5.654
 7397SOL     OW23089   6.496   4.294   4.865
 7397SOL    HW123090   6.522   4.363   4.797
 7397SOL    HW223091   6.577   4.269   4.918
 7398SOL     OW23092   4.306   5.450   3.757
 7398SOL    HW123093   4.228   5.418   3.702
 7398SOL    HW223094   4.326   5.545   3.733
 7399SOL     OW23095   6.623   4.337   5.602
 7399SOL    HW123096   6.692   4.270   5.626
 7399SOL    HW223097   6.557   4.345   5.676
 7400SOL     OW23098   3.152   3.973   6.834
 7400SOL    HW123099   3.169   4.035   6.758
 7400SOL    HW223100   3.091   3.900   6.804
 7401SOL     OW23101   0.187   1.340   3.855
 7401SOL    HW123102   0.141   1.410   3.911
 7401SOL    HW223103   0.170   1.250   3.895
 7402SOL     OW23104   2.116   6.763   3.889
 7402SOL    HW123105   2.029   6.744   3.935
 7402SOL    HW223106   2.191   6.756   3.954
 7403SOL     OW23107   1.600   3.312   3.547
 7403SOL    HW123108   1.696   3.284   3.545
 7403SOL    HW223109   1.594   3.411   3.537
 7404SOL     OW23110   1.857   0.439   0.611
 7404SOL    HW123111   1.946   0.414   0.648
 7404SOL    HW223112   1.786   0.388   0.659
 7405SOL     OW23113   2.089   5.094   5.042
 7405SOL    HW123114   2.060   5.185   5.012
 7405SOL    HW223115   2.107   5.036   4.962
 7406SOL     OW23116   1.599   3.544   2.395
 7406SOL    HW123117   1.669   3.600   2.351
 7406SOL    HW223118   1.540   3.602   2.450
 7407SOL     OW23119   0.619   5.963   4.792
 7407SOL    HW123120   0.539   6.018   4.816
 7407SOL    HW223121   0.607   5.870   4.826
 7408SOL     OW23122   2.094   3.994   6.012
 7408SOL    HW123123   2.156   4.061   6.051
 7408SOL    HW223124   2.072   4.019   5.918
 7409SOL     OW23125   1.094   1.150   4.671
 7409SOL    HW123126   1.153   1.115   4.598
 7409SOL    HW223127   1.007   1.181   4.632
 7410SOL     OW23128   0.295   4.568   1.049
 7410SOL    HW123129   0.284   4.660   1.011
 7410SOL    HW223130   0.355   4.571   1.129
 7411SOL     OW23131   2.878   6.947   4.462
 7411SOL    HW123132   2.927   6.860   4.468
 7411SOL    HW223133   2.790   6.938   4.509
 7412SOL     OW23134   2.394   0.622   0.970
 7412SOL    HW123135   2.342   0.640   0.886
 7412SOL    HW223136   2.490   0.642   0.954
 7413SOL     OW23137   0.369   3.322   3.999
 7413SOL    HW123138   0.286   3.353   4.046
 7413SOL    HW223139   0.393   3.230   4.030
 7414SOL     OW23140   6.094   6.913   2.381
 7414SOL    HW123141   6.192   6.921   2.358
 7414SOL    HW223142   6.042   6.904   2.296
 7415SOL     OW23143   1.409   3.105   2.878
 7415SOL    HW123144   1.461   3.153   2.807
 7415SOL    HW223145   1.312   3.128   2.870
 7416SOL     OW23146   3.555   1.445   4.379
 7416SOL    HW123147   3.551   1.489   4.289
 7416SOL    HW223148   3.498   1.496   4.443
 7417SOL     OW23149   1.561   6.699   6.128
 7417SOL    HW123150   1.562   6.599   6.127
 7417SOL    HW223151   1.475   6.731   6.167
 7418SOL     OW23152   2.688   4.096   1.604
 7418SOL    HW123153   2.760   4.165   1.600
 7418SOL    HW223154   2.699   4.031   1.529
 7419SOL     OW23155   5.936   1.976   4.444
 7419SOL    HW123156   5.908   1.884   4.473
 7419SOL    HW223157   5.983   2.022   4.519
 7420SOL     OW23158   6.749   6.837   1.980
 7420SOL    HW123159   6.734   6.935   1.994
 7420SOL    HW223160   6.661   6.789   1.977
 7421SOL     OW23161   3.483   3.884   1.552
 7421SOL    HW123162   3.559   3.818   1.548
 7421SOL    HW223163   3.459   3.900   1.647
 7422SOL     OW23164   0.237   3.467   1.233
 7422SOL    HW123165   0.294   3.525   1.176
 7422SOL    HW223166   0.154   3.442   1.184
 7423SOL     OW23167   2.038   4.544   6.319
 7423SOL    HW123168   1.980   4.552   6.399
 7423SOL    HW223169   2.089   4.629   6.306
 7424SOL     OW23170   5.837   1.680   4.201
 7424SOL    HW123171   5.894   1.760   4.184
 7424SOL    HW223172   5.836   1.660   4.299
 7425SOL     OW23173   3.929   4.618   6.317
 7425SOL    HW123174   3.991   4.554   6.271
 7425SOL    HW223175   3.983   4.681   6.373
 7426SOL     OW23176   0.142   2.006   0.074
 7426SOL    HW123177   0.125   1.912   0.106
 7426SOL    HW223178   0.088   2.070   0.129
 7427SOL     OW23179   3.018   5.841   4.542
 7427SOL    HW123180   3.043   5.802   4.630
 7427SOL    HW223181   2.955   5.780   4.495
 7428SOL     OW23182   3.451   2.149   5.525
 7428SOL    HW123183   3.525   2.216   5.522
 7428SOL    HW223184   3.402   2.150   5.438
 7429SOL     OW23185   0.041   0.276   2.672
 7429SOL    HW123186   0.104   0.351   2.650
 7429SOL    HW223187   7.007   0.303   2.749
 7430SOL     OW23188   6.893   4.468   5.268
 7430SOL    HW123189   6.966   4.400   5.259
 7430SOL    HW223190   6.873   4.483   5.364
 7431SOL     OW23191   0.923   3.467   1.616
 7431SOL    HW123192   0.862   3.546   1.625
 7431SOL    HW223193   0.896   3.412   1.537
 7432SOL     OW23194   0.731   6.229   3.664
 7432SOL    HW123195   0.707   6.161   3.594
 7432SOL    HW223196   0.680   6.313   3.648
 7433SOL     OW23197   6.380   5.397   1.058
 7433SOL    HW123198   6.392   5.496   1.066
 7433SOL    HW223199   6.408   5.353   1.143
 7434SOL     OW23200   2.703   1.922   0.007
 7434SOL    HW123201   2.787   1.960   0.048
 7434SOL    HW223202   2.647   1.882   0.079
 7435SOL     OW23203   3.480   6.577   6.111
 7435SOL    HW123204   3.488   6.523   6.027
 7435SOL    HW223205   3.384   6.582   6.139
 7436SOL     OW23206   5.931   3.247   0.102
 7436SOL    HW123207   6.029   3.230   0.116
 7436SOL    HW223208   5.885   3.253   0.191
 7437SOL     OW23209   6.706   5.131   6.089
 7437SOL    HW123210   6.763   5.195   6.140
 7437SOL    HW223211   6.762   5.081   6.024
 7438SOL     OW23212   0.954   4.366   2.121
 7438SOL    HW123213   0.864   4.329   2.145
 7438SOL    HW223214   1.011   4.370   2.204
 7439SOL     OW23215   2.551   6.916   3.801
 7439SOL    HW123216   2.601   6.994   3.765
 7439SOL    HW223217   2.531   6.930   3.898
 7440SOL     OW23218   1.253   3.036   4.645
 7440SOL    HW123219   1.322   3.093   4.691
 7440SOL    HW223220   1.207   3.090   4.575
 7441SOL     OW23221   5.196   0.798   3.784
 7441SOL    HW123222   5.138   0.879   3.793
 7441SOL    HW223223   5.147   0.718   3.820
 7442SOL     OW23224   0.998   1.559   6.607
 7442SOL    HW123225   0.906   1.594   6.591
 7442SOL    HW223226   1.028   1.585   6.699
 7443SOL     OW23227   6.862   1.892   0.822
 7443SOL    HW123228   6.929   1.833   0.778
 7443SOL    HW223229   6.777   1.842   0.835
 7444SOL     OW23230   6.834   3.284   6.536
 7444SOL    HW123231   6.795   3.197   6.566
 7444SOL    HW223232   6.815   3.355   6.604
 7445SOL     OW23233   4.988   1.757   1.537
 7445SOL    HW123234   5.005   1.688   1.607
 7445SOL    HW223235   4.897   1.742   1.497
 7446SOL     OW23236   6.295   4.116   0.054
 7446SOL    HW123237   6.269   4.068   0.138
 7446SOL    HW223238   6.347   4.053   7.020
 7447SOL     OW23239   2.059   4.766   0.255
 7447SOL    HW123240   2.131   4.738   0.318
 7447SOL    HW223241   1.970   4.753   0.299
 7448SOL     OW23242   5.468   6.887   5.763
 7448SOL    HW123243   5.404   6.919   5.833
 7448SOL    HW223244   5.422   6.823   5.702
 7449SOL     OW23245   4.779   2.445   2.050
 7449SOL    HW123246   4.688   2.404   2.052
 7449SOL    HW223247   4.772   2.544   2.060
 7450SOL     OW23248   4.939   2.587   3.343
 7450SOL    HW123249   4.900   2.588   3.435
 7450SOL    HW223250   5.012   2.655   3.337
 7451SOL     OW23251   1.745   0.843   4.330
 7451SOL    HW123252   1.808   0.867   4.404
 7451SOL    HW223253   1.693   0.924   4.304
 7452SOL     OW23254   2.002   0.691   5.037
 7452SOL    HW123255   2.013   0.779   5.084
 7452SOL    HW223256   1.970   0.622   5.103
 7453SOL     OW23257   5.886   6.323   4.859
 7453SOL    HW123258   5.902   6.293   4.953
 7453SOL    HW223259   5.890   6.423   4.855
 7454SOL     OW23260   0.873   3.350   1.350
 7454SOL    HW123261   0.864   3.448   1.334
 7454SOL    HW223262   0.836   3.300   1.272
 7455SOL     OW23263   5.284   2.030   0.740
 7455SOL    HW123264   5.309   2.100   0.807
 7455SOL    HW223265   5.322   2.054   0.651
 7456SOL     OW23266   1.576   2.652   4.818
 7456SOL    HW123267   1.666   2.638   4.860
 7456SOL    HW223268   1.577   2.615   4.725
 7457SOL     OW23269   5.812   0.826   5.404
 7457SOL    HW123270   5.748   0.813   5.480
 7457SOL    HW223271   5.787   0.766   5.329
 7458SOL     OW23272   2.564   0.009   0.389
 7458SOL    HW123273   2.492   0.074   0.414
 7458SOL    HW223274   2.645   0.060   0.359
 7459SOL     OW23275   4.438   0.270   5.994
 7459SOL    HW123276   4.403   0.303   5.907
 7459SOL    HW223277   4.533   0.243   5.984
 7460SOL     OW23278   2.384   5.068   0.965
 7460SOL    HW123279   2.409   5.163   0.984
 7460SOL    HW223280   2.327   5.033   1.039
 7461SOL     OW23281   5.106   1.348   5.948
 7461SOL    HW123282   5.155   1.407   5.883
 7461SOL    HW223283   5.171   1.285   5.990
 7462SOL     OW23284   2.317   2.038   1.688
 7462SOL    HW123285   2.226   1.998   1.698
 7462SOL    HW223286   2.310   2.137   1.685
 7463SOL     OW23287   3.528   3.100   1.320
 7463SOL    HW123288   3.550   3.057   1.407
 7463SOL    HW223289   3.543   3.035   1.245
 7464SOL     OW23290   3.602   5.745   0.328
 7464SOL    HW123291   3.577   5.702   0.241
 7464SOL    HW223292   3.587   5.844   0.321
 7465SOL     OW23293   1.726   0.152   0.887
 7465SOL    HW123294   1.631   0.122   0.895
 7465SOL    HW223295   1.729   0.251   0.872
 7466SOL     OW23296   0.752   0.676   6.591
 7466SOL    HW123297   0.767   0.645   6.498
 7466SOL    HW223298   0.815   0.751   6.612
 7467SOL     OW23299   6.932   2.245   1.294
 7467SOL    HW123300   6.975   2.245   1.385
 7467SOL    HW223301   6.834   2.257   1.303
 7468SOL     OW23302   4.881   2.264   2.261
 7468SOL    HW123303   4.842   2.338   2.206
 7468SOL    HW223304   4.981   2.267   2.256
 7469SOL     OW23305   0.919   0.066   6.219
 7469SOL    HW123306   0.967   7.006   6.245
 7469SOL    HW223307   0.937   0.136   6.288
 7470SOL     OW23308   0.613   2.415   2.689
 7470SOL    HW123309   0.635   2.504   2.728
 7470SOL    HW223310   0.586   2.352   2.762
 7471SOL     OW23311   6.844   6.607   5.022
 7471SOL    HW123312   6.841   6.629   5.119
 7471SOL    HW223313   6.917   6.540   5.005
 7472SOL     OW23314   4.403   6.947   4.585
 7472SOL    HW123315   4.431   6.875   4.649
 7472SOL    HW223316   4.345   7.013   4.632
 7473SOL     OW23317   0.439   3.637   3.787
 7473SOL    HW123318   0.451   3.712   3.722
 7473SOL    HW223319   0.404   3.557   3.739
 7474SOL     OW23320   2.810   0.840   3.772
 7474SOL    HW123321   2.876   0.855   3.699
 7474SOL    HW223322   2.853   0.861   3.860
 7475SOL     OW23323   4.859   0.364   2.219
 7475SOL    HW123324   4.836   0.448   2.269
 7475SOL    HW223325   4.775   0.315   2.196
 7476SOL     OW23326   4.610   6.107   4.760
 7476SOL    HW123327   4.613   6.156   4.673
 7476SOL    HW223328   4.697   6.118   4.808
 7477SOL     OW23329   3.913   0.803   4.246
 7477SOL    HW123330   3.910   0.888   4.194
 7477SOL    HW223331   3.872   0.729   4.193
 7478SOL     OW23332   3.536   3.949   6.034
 7478SOL    HW123333   3.490   3.869   5.996
 7478SOL    HW223334   3.588   3.923   6.115
 7479SOL     OW23335   3.971   1.382   0.742
 7479SOL    HW123336   4.028   1.445   0.795
 7479SOL    HW223337   4.027   1.306   0.709
 7480SOL     OW23338   6.152   5.944   1.565
 7480SOL    HW123339   6.151   5.926   1.467
 7480SOL    HW223340   6.083   5.887   1.610
 7481SOL     OW23341   5.422   5.285   0.995
 7481SOL    HW123342   5.428   5.384   0.991
 7481SOL    HW223343   5.437   5.247   0.904
 7482SOL     OW23344   3.824   0.804   1.863
 7482SOL    HW123345   3.911   0.781   1.908
 7482SOL    HW223346   3.756   0.734   1.884
 7483SOL     OW23347   3.785   1.646   4.247
 7483SOL    HW123348   3.796   1.572   4.314
 7483SOL    HW223349   3.849   1.632   4.171
 7484SOL     OW23350   0.689   6.665   1.903
 7484SOL    HW123351   0.639   6.744   1.938
 7484SOL    HW223352   0.779   6.694   1.870
 7485SOL     OW23353   2.825   6.477   5.146
 7485SOL    HW123354   2.782   6.420   5.217
 7485SOL    HW223355   2.847   6.421   5.067
 7486SOL     OW23356   2.833   7.013   5.347
 7486SOL    HW123357   2.894   6.973   5.280
 7486SOL    HW223358   2.791   6.941   5.402
 7487SOL     OW23359   2.269   6.702   2.514
 7487SOL    HW123360   2.188   6.761   2.505
 7487SOL    HW223361   2.245   6.621   2.568
 7488SOL     OW23362   2.454   0.020   5.335
 7488SOL    HW123363   2.514   0.052   5.262
 7488SOL    HW223364   2.507   6.991   5.401
 7489SOL     OW23365   4.842   2.364   5.067
 7489SOL    HW123366   4.940   2.343   5.061
 7489SOL    HW223367   4.808   2.389   4.976
 7490SOL     OW23368   0.323   0.726   0.665
 7490SOL    HW123369   0.418   0.746   0.641
 7490SOL    HW223370   0.267   0.730   0.582
 7491SOL     OW23371   0.589   5.250   6.266
 7491SOL    HW123372   0.576   5.346   6.291
 7491SOL    HW223373   0.500   5.206   6.254
 7492SOL     OW23374   2.447   2.024   5.871
 7492SOL    HW123375   2.359   1.984   5.846
 7492SOL    HW223376   2.514   1.951   5.882
 7493SOL     OW23377   6.323   4.752   6.004
 7493SOL    HW123378   6.299   4.780   5.911
 7493SOL    HW223379   6.389   4.818   6.042
 7494SOL     OW23380   5.296   0.791   2.403
 7494SOL    HW123381   5.263   0.883   2.427
 7494SOL    HW223382   5.239   0.723   2.448
 7495SOL     OW23383   1.739   1.458   0.906
 7495SOL    HW123384   1.695   1.534   0.954
 7495SOL    HW223385   1.677   1.380   0.903
 7496SOL     OW23386   1.895   4.689   5.737
 7496SOL    HW123387   1.823   4.694   5.669
 7496SOL    HW223388   1.860   4.725   5.824
 7497SOL     OW23389   2.803   5.382   2.062
 7497SOL    HW123390   2.781   5.293   2.023
 7497SOL    HW223391   2.898   5.405   2.042
 7498SOL     OW23392   3.131   0.787   4.309
 7498SOL    HW123393   3.093   0.874   4.342
 7498SOL    HW223394   3.072   0.749   4.238
 7499SOL     OW23395   6.173   0.009   3.648
 7499SOL    HW123396   6.094   0.070   3.651
 7499SOL    HW223397   6.216   0.004   3.738
 7500SOL     OW23398   3.843   5.823   2.237
 7500SOL    HW123399   3.886   5.878   2.309
 7500SOL    HW223400   3.787   5.752   2.280
 7501SOL     OW23401   0.435   3.893   3.705
 7501SOL    HW123402   0.364   3.931   3.764
 7501SOL    HW223403   0.515   3.953   3.706
 7502SOL     OW23404   1.786   1.324   5.316
 7502SOL    HW123405   1.708   1.288   5.367
 7502SOL    HW223406   1.773   1.422   5.300
 7503SOL     OW23407   2.564   0.676   6.465
 7503SOL    HW123408   2.601   0.596   6.513
 7503SOL    HW223409   2.583   0.668   6.367
 7504SOL     OW23410   3.964   6.349   3.576
 7504SOL    HW123411   3.971   6.294   3.660
 7504SOL    HW223412   4.054   6.386   3.553
 7505SOL     OW23413   3.155   1.246   5.360
 7505SOL    HW123414   3.110   1.332   5.385
 7505SOL    HW223415   3.134   1.224   5.265
 7506SOL     OW23416   3.700   0.821   2.630
 7506SOL    HW123417   3.736   0.810   2.537
 7506SOL    HW223418   3.750   0.893   2.677
 7507SOL     OW23419   0.234   6.713   6.722
 7507SOL    HW123420   0.294   6.695   6.644
 7507SOL    HW223421   0.283   6.768   6.790
 7508SOL     OW23422   5.541   6.454   2.261
 7508SOL    HW123423   5.639   6.437   2.279
 7508SOL    HW223424   5.505   6.381   2.203
 7509SOL     OW23425   4.721   4.129   0.603
 7509SOL    HW123426   4.799   4.128   0.666
 7509SOL    HW223427   4.637   4.111   0.655
 7510SOL     OW23428   3.205   4.106   4.566
 7510SOL    HW123429   3.214   4.065   4.657
 7510SOL    HW223430   3.249   4.196   4.565
 7511SOL     OW23431   1.587   0.209   2.306
 7511SOL    HW123432   1.682   0.241   2.308
 7511SOL    HW223433   1.547   0.217   2.397
 7512SOL     OW23434   3.098   4.194   1.426
 7512SOL    HW123435   3.143   4.229   1.344
 7512SOL    HW223436   3.148   4.115   1.461
 7513SOL     OW23437   1.674   2.724   0.005
 7513SOL    HW123438   1.581   2.711   6.995
 7513SOL    HW223439   1.702   2.819   7.015
 7514SOL     OW23440   3.013   6.294   2.111
 7514SOL    HW123441   2.929   6.343   2.088
 7514SOL    HW223442   3.055   6.259   2.027
 7515SOL     OW23443   0.934   0.329   3.048
 7515SOL    HW123444   0.840   0.343   3.017
 7515SOL    HW223445   0.981   0.267   2.986
 7516SOL     OW23446   6.569   6.475   4.471
 7516SOL    HW123447   6.517   6.533   4.534
 7516SOL    HW223448   6.537   6.381   4.477
 7517SOL     OW23449   6.887   3.768   1.188
 7517SOL    HW123450   6.845   3.850   1.226
 7517SOL    HW223451   6.987   3.774   1.200
 7518SOL     OW23452   3.693   5.579   3.430
 7518SOL    HW123453   3.711   5.632   3.347
 7518SOL    HW223454   3.713   5.482   3.412
 7519SOL     OW23455   1.000   6.280   4.164
 7519SOL    HW123456   0.972   6.192   4.203
 7519SOL    HW223457   1.065   6.325   4.225
 7520SOL     OW23458   2.029   0.515   2.153
 7520SOL    HW123459   2.055   0.608   2.126
 7520SOL    HW223460   2.068   0.449   2.089
 7521SOL     OW23461   4.541   4.459   5.376
 7521SOL    HW123462   4.633   4.428   5.403
 7521SOL    HW223463   4.475   4.433   5.447
 7522SOL     OW23464   2.582   1.026   6.345
 7522SOL    HW123465   2.681   1.018   6.355
 7522SOL    HW223466   2.558   1.022   6.248
 7523SOL     OW23467   6.367   0.152   5.452
 7523SOL    HW123468   6.350   0.104   5.538
 7523SOL    HW223469   6.451   0.118   5.411
 7524SOL     OW23470   6.907   1.943   6.247
 7524SOL    HW123471   6.909   1.968   6.150
 7524SOL    HW223472   6.921   1.844   6.256
 7525SOL     OW23473   2.022   6.823   6.847
 7525SOL    HW123474   1.975   6.770   6.777
 7525SOL    HW223475   2.063   6.904   6.806
 7526SOL     OW23476   3.208   3.057   3.819
 7526SOL    HW123477   3.294   3.050   3.768
 7526SOL    HW223478   3.224   3.030   3.914
 7527SOL     OW23479   4.847   4.610   2.023
 7527SOL    HW123480   4.916   4.682   2.008
 7527SOL    HW223481   4.826   4.604   2.120
 7528SOL     OW23482   4.553   2.415   0.435
 7528SOL    HW123483   4.497   2.376   0.362
 7528SOL    HW223484   4.627   2.351   0.458
 7529SOL     OW23485   4.941   1.541   3.707
 7529SOL    HW123486   4.953   1.508   3.613
 7529SOL    HW223487   4.959   1.466   3.771
 7530SOL     OW23488   0.035   3.108   2.398
 7530SOL    HW123489   6.976   3.144   2.441
 7530SOL    HW223490   0.010   3.055   2.317
 7531SOL     OW23491   4.605   1.819   3.943
 7531SOL    HW123492   4.614   1.810   3.844
 7531SOL    HW223493   4.555   1.740   3.979
 7532SOL     OW23494   5.366   5.431   1.979
 7532SOL    HW123495   5.266   5.427   1.983
 7532SOL    HW223496   5.397   5.520   2.011
 7533SOL     OW23497   1.771   1.208   3.116
 7533SOL    HW123498   1.679   1.210   3.153
 7533SOL    HW223499   1.827   1.278   3.161
 7534SOL     OW23500   3.857   6.002   4.904
 7534SOL    HW123501   3.863   6.056   4.820
 7534SOL    HW223502   3.840   6.063   4.982
 7535SOL     OW23503   2.562   1.353   6.077
 7535SOL    HW123504   2.576   1.444   6.116
 7535SOL    HW223505   2.503   1.360   5.996
 7536SOL     OW23506   5.198   4.902   5.101
 7536SOL    HW123507   5.131   4.830   5.118
 7536SOL    HW223508   5.290   4.863   5.102
 7537SOL     OW23509   1.902   4.485   4.874
 7537SOL    HW123510   1.897   4.581   4.898
 7537SOL    HW223511   1.834   4.433   4.926
 7538SOL     OW23512   3.301   3.340   2.189
 7538SOL    HW123513   3.291   3.275   2.264
 7538SOL    HW223514   3.214   3.347   2.139
 7539SOL     OW23515   2.657   2.556   5.234
 7539SOL    HW123516   2.734   2.584   5.291
 7539SOL    HW223517   2.587   2.513   5.291
 7540SOL     OW23518   3.328   0.571   6.385
 7540SOL    HW123519   3.385   0.650   6.406
 7540SOL    HW223520   3.290   0.534   6.470
 7541SOL     OW23521   6.638   3.697   5.719
 7541SOL    HW123522   6.590   3.761   5.778
 7541SOL    HW223523   6.718   3.742   5.679
 7542SOL     OW23524   1.210   6.933   5.859
 7542SOL    HW123525   1.229   6.999   5.786
 7542SOL    HW223526   1.219   6.978   5.948
 7543SOL     OW23527   3.956   1.555   0.511
 7543SOL    HW123528   3.970   1.460   0.537
 7543SOL    HW223529   3.937   1.610   0.592
 7544SOL     OW23530   6.994   1.870   3.379
 7544SOL    HW123531   6.912   1.918   3.349
 7544SOL    HW223532   0.033   1.861   3.303
 7545SOL     OW23533   4.430   6.338   3.088
 7545SOL    HW123534   4.523   6.353   3.120
 7545SOL    HW223535   4.415   6.390   3.003
 7546SOL     OW23536   4.583   0.756   6.919
 7546SOL    HW123537   4.652   0.791   6.855
 7546SOL    HW223538   4.554   0.829   6.980
 7547SOL     OW23539   4.168   6.865   0.430
 7547SOL    HW123540   4.245   6.801   0.427
 7547SOL    HW223541   4.202   6.959   0.432
 7548SOL     OW23542   2.181   1.817   0.276
 7548SOL    HW123543   2.156   1.760   0.198
 7548SOL    HW223544   2.100   1.865   0.310
 7549SOL     OW23545   5.850   1.559   2.180
 7549SOL    HW123546   5.883   1.596   2.093
 7549SOL    HW223547   5.764   1.604   2.204
 7550SOL     OW23548   2.140   6.086   2.515
 7550SOL    HW123549   2.200   6.156   2.476
 7550SOL    HW223550   2.109   6.024   2.443
 7551SOL     OW23551   4.937   3.746   0.127
 7551SOL    HW123552   4.885   3.819   0.083
 7551SOL    HW223553   4.883   3.662   0.128
 7552SOL     OW23554   2.466   5.644   3.792
 7552SOL    HW123555   2.400   5.717   3.810
 7552SOL    HW223556   2.496   5.649   3.697
 7553SOL     OW23557   3.853   4.810   5.870
 7553SOL    HW123558   3.856   4.904   5.838
 7553SOL    HW223559   3.762   4.789   5.905
 7554SOL     OW23560   4.837   2.019   0.330
 7554SOL    HW123561   4.777   1.950   0.368
 7554SOL    HW223562   4.876   1.986   0.244
 7555SOL     OW23563   0.632   5.684   5.305
 7555SOL    HW123564   0.697   5.680   5.229
 7555SOL    HW223565   0.578   5.600   5.308
 7556SOL     OW23566   0.397   3.440   5.745
 7556SOL    HW123567   0.437   3.418   5.834
 7556SOL    HW223568   0.468   3.480   5.686
 7557SOL     OW23569   5.167   3.901   6.195
 7557SOL    HW123570   5.232   3.904   6.119
 7557SOL    HW223571   5.207   3.944   6.276
 7558SOL     OW23572   2.434   2.540   3.905
 7558SOL    HW123573   2.506   2.471   3.898
 7558SOL    HW223574   2.395   2.537   3.997
 7559SOL     OW23575   6.415   5.647   1.200
 7559SOL    HW123576   6.329   5.596   1.207
 7559SOL    HW223577   6.472   5.627   1.280
 7560SOL     OW23578   4.986   6.946   6.841
 7560SOL    HW123579   5.000   6.899   6.928
 7560SOL    HW223580   4.992   6.880   6.766
 7561SOL     OW23581   0.669   3.796   0.392
 7561SOL    HW123582   0.570   3.786   0.400
 7561SOL    HW223583   0.692   3.839   0.305
 7562SOL     OW23584   5.239   6.096   4.396
 7562SOL    HW123585   5.263   6.098   4.299
 7562SOL    HW223586   5.150   6.051   4.407
 7563SOL     OW23587   2.925   0.097   1.342
 7563SOL    HW123588   3.009   0.121   1.391
 7563SOL    HW223589   2.914   7.023   1.341
 7564SOL     OW23590   4.654   0.937   3.215
 7564SOL    HW123591   4.620   0.850   3.251
 7564SOL    HW223592   4.753   0.931   3.199
 7565SOL     OW23593   4.556   4.771   6.639
 7565SOL    HW123594   4.641   4.727   6.667
 7565SOL    HW223595   4.563   4.870   6.652
 7566SOL     OW23596   0.968   4.769   3.896
 7566SOL    HW123597   1.040   4.783   3.828
 7566SOL    HW223598   0.880   4.755   3.850
 7567SOL     OW23599   1.920   3.701   5.775
 7567SOL    HW123600   1.975   3.768   5.725
 7567SOL    HW223601   1.876   3.745   5.853
 7568SOL     OW23602   5.516   5.589   3.908
 7568SOL    HW123603   5.496   5.686   3.893
 7568SOL    HW223604   5.430   5.540   3.922
 7569SOL     OW23605   4.610   6.006   6.672
 7569SOL    HW123606   4.658   5.920   6.657
 7569SOL    HW223607   4.615   6.062   6.588
 7570SOL     OW23608   5.757   4.371   5.072
 7570SOL    HW123609   5.746   4.458   5.120
 7570SOL    HW223610   5.831   4.379   5.005
 7571SOL     OW23611   5.141   4.099   1.980
 7571SOL    HW123612   5.190   4.013   1.969
 7571SOL    HW223613   5.168   4.141   2.067
 7572SOL     OW23614   4.789   0.322   4.056
 7572SOL    HW123615   4.885   0.294   4.057
 7572SOL    HW223616   4.732   0.248   4.092
 7573SOL     OW23617   5.674   6.157   3.911
 7573SOL    HW123618   5.706   6.225   3.977
 7573SOL    HW223619   5.617   6.201   3.842
 7574SOL     OW23620   5.984   1.383   4.061
 7574SOL    HW123621   5.972   1.410   4.156
 7574SOL    HW223622   5.899   1.397   4.011
 7575SOL     OW23623   4.284   0.704   5.616
 7575SOL    HW123624   4.268   0.794   5.656
 7575SOL    HW223625   4.235   0.635   5.668
 7576SOL     OW23626   5.610   5.557   6.937
 7576SOL    HW123627   5.652   5.553   6.846
 7576SOL    HW223628   5.643   5.481   6.993
 7577SOL     OW23629   6.762   0.228   4.742
 7577SOL    HW123630   6.779   0.179   4.657
 7577SOL    HW223631   6.847   0.270   4.774
 7578SOL     OW23632   1.699   6.508   4.339
 7578SOL    HW123633   1.718   6.411   4.326
 7578SOL    HW223634   1.665   6.548   4.254
 7579SOL     OW23635   4.523   2.385   2.053
 7579SOL    HW123636   4.443   2.390   1.993
 7579SOL    HW223637   4.498   2.418   2.145
 7580SOL     OW23638   1.244   3.782   3.725
 7580SOL    HW123639   1.307   3.775   3.802
 7580SOL    HW223640   1.269   3.714   3.655
 7581SOL     OW23641   4.327   1.511   0.541
 7581SOL    HW123642   4.391   1.587   0.551
 7581SOL    HW223643   4.258   1.534   0.472
 7582SOL     OW23644   3.722   1.358   0.881
 7582SOL    HW123645   3.779   1.332   0.802
 7582SOL    HW223646   3.695   1.453   0.872
 7583SOL     OW23647   6.287   3.681   1.913
 7583SOL    HW123648   6.293   3.778   1.936
 7583SOL    HW223649   6.368   3.653   1.862
 7584SOL     OW23650   2.280   6.724   0.994
 7584SOL    HW123651   2.254   6.819   0.978
 7584SOL    HW223652   2.370   6.720   1.037
 7585SOL     OW23653   1.359   4.031   6.113
 7585SOL    HW123654   1.410   4.059   6.031
 7585SOL    HW223655   1.317   3.942   6.097
 7586SOL     OW23656   2.678   0.740   2.547
 7586SOL    HW123657   2.669   0.665   2.612
 7586SOL    HW223658   2.747   0.717   2.478
 7587SOL     OW23659   2.085   1.542   6.625
 7587SOL    HW123660   2.156   1.589   6.678
 7587SOL    HW223661   2.126   1.466   6.574
 7588SOL     OW23662   0.701   4.659   1.865
 7588SOL    HW123663   0.641   4.599   1.917
 7588SOL    HW223664   0.774   4.693   1.924
 7589SOL     OW23665   6.053   5.980   0.747
 7589SOL    HW123666   5.960   6.006   0.720
 7589SOL    HW223667   6.083   6.038   0.822
 7590SOL     OW23668   2.840   1.693   5.678
 7590SOL    HW123669   2.791   1.758   5.620
 7590SOL    HW223670   2.912   1.649   5.623
 7591SOL     OW23671   0.225   5.592   0.265
 7591SOL    HW123672   0.226   5.560   0.360
 7591SOL    HW223673   0.130   5.595   0.232
 7592SOL     OW23674   6.902   4.733   6.741
 7592SOL    HW123675   6.803   4.744   6.733
 7592SOL    HW223676   6.923   4.668   6.814
 7593SOL     OW23677   6.231   2.397   6.873
 7593SOL    HW123678   6.302   2.370   6.938
 7593SOL    HW223679   6.163   2.324   6.866
 7594SOL     OW23680   0.676   5.018   2.348
 7594SOL    HW123681   0.596   5.072   2.324
 7594SOL    HW223682   0.704   4.963   2.270
 7595SOL     OW23683   0.358   2.630   6.508
 7595SOL    HW123684   0.260   2.608   6.517
 7595SOL    HW223685   0.408   2.590   6.585
 7596SOL     OW23686   5.354   5.247   2.705
 7596SOL    HW123687   5.332   5.331   2.755
 7596SOL    HW223688   5.425   5.266   2.637
 7597SOL     OW23689   3.207   5.816   1.976
 7597SOL    HW123690   3.147   5.797   1.898
 7597SOL    HW223691   3.164   5.884   2.036
 7598SOL     OW23692   6.411   0.494   3.201
 7598SOL    HW123693   6.364   0.538   3.125
 7598SOL    HW223694   6.488   0.440   3.167
 7599SOL     OW23695   5.417   1.079   3.502
 7599SOL    HW123696   5.437   1.108   3.596
 7599SOL    HW223697   5.456   1.145   3.438
 7600SOL     OW23698   1.376   0.575   2.070
 7600SOL    HW123699   1.361   0.564   1.972
 7600SOL    HW223700   1.368   0.671   2.095
 7601SOL     OW23701   1.476   5.535   3.764
 7601SOL    HW123702   1.411   5.460   3.749
 7601SOL    HW223703   1.438   5.620   3.728
 7602SOL     OW23704   1.969   4.115   4.740
 7602SOL    HW123705   1.905   4.091   4.813
 7602SOL    HW223706   2.050   4.057   4.747
 7603SOL     OW23707   1.431   6.232   6.551
 7603SOL    HW123708   1.423   6.155   6.489
 7603SOL    HW223709   1.527   6.258   6.560
 7604SOL     OW23710   2.598   5.958   3.926
 7604SOL    HW123711   2.604   5.859   3.929
 7604SOL    HW223712   2.511   5.988   3.966
 7605SOL     OW23713   1.575   5.995   0.223
 7605SOL    HW123714   1.536   6.014   0.313
 7605SOL    HW223715   1.647   6.061   0.204
 7606SOL     OW23716   0.199   2.760   1.991
 7606SOL    HW123717   0.123   2.816   2.023
 7606SOL    HW223718   0.232   2.702   2.066
 7607SOL     OW23719   4.076   6.807   6.853
 7607SOL    HW123720   4.136   6.810   6.933
 7607SOL    HW223721   4.121   6.756   6.780
 7608SOL     OW23722   3.408   3.979   3.818
 7608SOL    HW123723   3.465   3.909   3.775
 7608SOL    HW223724   3.407   3.966   3.917
 7609SOL     OW23725   6.594   3.189   3.287
 7609SOL    HW123726   6.667   3.132   3.324
 7609SOL    HW223727   6.614   3.285   3.306
 7610SOL     OW23728   6.250   0.700   0.269
 7610SOL    HW123729   6.182   0.749   0.322
 7610SOL    HW223730   6.310   0.648   0.331
 7611SOL     OW23731   0.645   1.952   0.268
 7611SOL    HW123732   0.628   1.887   0.341
 7611SOL    HW223733   0.640   2.045   0.304
 7612SOL     OW23734   4.246   2.042   4.081
 7612SOL    HW123735   4.182   2.111   4.048
 7612SOL    HW223736   4.303   2.082   4.154
 7613SOL     OW23737   5.012   2.200   1.618
 7613SOL    HW123738   5.002   2.157   1.528
 7613SOL    HW223739   4.952   2.279   1.624
 7614SOL     OW23740   3.912   2.499   1.623
 7614SOL    HW123741   3.900   2.598   1.615
 7614SOL    HW223742   3.868   2.467   1.708
 7615SOL     OW23743   5.286   4.696   6.330
 7615SOL    HW123744   5.352   4.652   6.390
 7615SOL    HW223745   5.313   4.791   6.315
 7616SOL     OW23746   0.964   4.368   4.123
 7616SOL    HW123747   1.058   4.348   4.093
 7616SOL    HW223748   0.932   4.295   4.183
 7617SOL     OW23749   2.889   5.463   3.144
 7617SOL    HW123750   2.831   5.426   3.216
 7617SOL    HW223751   2.978   5.488   3.181
 7618SOL     OW23752   1.158   1.863   6.738
 7618SOL    HW123753   1.216   1.941   6.760
 7618SOL    HW223754   1.112   1.878   6.651
 7619SOL     OW23755   5.675   3.420   5.327
 7619SOL    HW123756   5.585   3.465   5.334
 7619SOL    HW223757   5.746   3.490   5.332
 7620SOL     OW23758   3.759   6.504   0.779
 7620SOL    HW123759   3.859   6.512   0.774
 7620SOL    HW223760   3.719   6.593   0.800
 7621SOL     OW23761   0.832   0.950   0.469
 7621SOL    HW123762   0.893   0.891   0.415
 7621SOL    HW223763   0.745   0.961   0.421
 7622SOL     OW23764   5.391   3.835   1.692
 7622SOL    HW123765   5.323   3.906   1.675
 7622SOL    HW223766   5.345   3.750   1.717
 7623SOL     OW23767   4.854   4.881   6.261
 7623SOL    HW123768   4.932   4.873   6.200
 7623SOL    HW223769   4.800   4.796   6.257
 7624SOL     OW23770   0.613   2.303   4.122
 7624SOL    HW123771   0.622   2.207   4.099
 7624SOL    HW223772   0.695   2.353   4.094
 7625SOL     OW23773   4.978   0.785   0.857
 7625SOL    HW123774   5.039   0.856   0.892
 7625SOL    HW223775   4.884   0.818   0.861
 7626SOL     OW23776   0.287   6.540   5.211
 7626SOL    HW123777   0.349   6.545   5.289
 7626SOL    HW223778   0.341   6.532   5.127
 7627SOL     OW23779   6.239   2.949   0.622
 7627SOL    HW123780   6.222   3.037   0.666
 7627SOL    HW223781   6.318   2.905   0.665
 7628SOL     OW23782   3.557   0.761   1.214
 7628SOL    HW123783   3.567   0.810   1.301
 7628SOL    HW223784   3.617   0.802   1.145
 7629SOL     OW23785   6.223   6.713   2.641
 7629SOL    HW123786   6.133   6.757   2.644
 7629SOL    HW223787   6.294   6.783   2.647
 7630SOL     OW23788   6.342   6.164   2.100
 7630SOL    HW123789   6.310   6.164   2.195
 7630SOL    HW223790   6.311   6.081   2.055
 7631SOL     OW23791   1.027   1.693   5.839
 7631SOL    HW123792   1.112   1.643   5.819
 7631SOL    HW223793   1.019   1.771   5.777
 7632SOL     OW23794   3.894   2.135   1.478
 7632SOL    HW123795   3.829   2.074   1.432
 7632SOL    HW223796   3.937   2.087   1.555
 7633SOL     OW23797   5.385   2.436   0.270
 7633SOL    HW123798   5.356   2.519   0.316
 7633SOL    HW223799   5.464   2.397   0.317
 7634SOL     OW23800   0.958   1.377   2.133
 7634SOL    HW123801   1.055   1.367   2.108
 7634SOL    HW223802   0.919   1.455   2.085
 7635SOL     OW23803   2.605   5.199   5.448
 7635SOL    HW123804   2.687   5.143   5.436
 7635SOL    HW223805   2.558   5.173   5.532
 7636SOL     OW23806   1.202   1.680   3.690
 7636SOL    HW123807   1.278   1.666   3.628
 7636SOL    HW223808   1.164   1.772   3.677
 7637SOL     OW23809   2.052   6.448   2.484
 7637SOL    HW123810   2.145   6.413   2.495
 7637SOL    HW223811   2.033   6.460   2.387
 7638SOL     OW23812   5.266   5.515   1.598
 7638SOL    HW123813   5.183   5.524   1.653
 7638SOL    HW223814   5.322   5.440   1.633
 7639SOL     OW23815   1.325   2.070   6.814
 7639SOL    HW123816   1.378   2.132   6.756
 7639SOL    HW223817   1.387   2.015   6.870
 7640SOL     OW23818   2.683   2.317   0.089
 7640SOL    HW123819   2.686   2.304   7.015
 7640SOL    HW223820   2.702   2.230   0.135
 7641SOL     OW23821   0.847   4.409   1.882
 7641SOL    HW123822   0.895   4.408   1.970
 7641SOL    HW223823   0.775   4.479   1.884
 7642SOL     OW23824   2.392   1.920   3.194
 7642SOL    HW123825   2.455   1.852   3.156
 7642SOL    HW223826   2.412   2.010   3.154
 7643SOL     OW23827   4.780   2.309   3.582
 7643SOL    HW123828   4.763   2.256   3.665
 7643SOL    HW223829   4.837   2.388   3.604
 7644SOL     OW23830   6.404   2.101   2.715
 7644SOL    HW123831   6.337   2.035   2.751
 7644SOL    HW223832   6.395   2.187   2.765
 7645SOL     OW23833   4.656   4.842   5.927
 7645SOL    HW123834   4.732   4.902   5.902
 7645SOL    HW223835   4.605   4.817   5.844
 7646SOL     OW23836   1.999   2.433   2.218
 7646SOL    HW123837   2.083   2.381   2.205
 7646SOL    HW223838   1.929   2.374   2.258
 7647SOL     OW23839   1.029   3.372   1.095
 7647SOL    HW123840   1.061   3.375   1.190
 7647SOL    HW223841   1.023   3.277   1.065
 7648SOL     OW23842   4.095   2.255   3.964
 7648SOL    HW123843   4.018   2.249   4.028
 7648SOL    HW223844   4.064   2.230   3.873
 7649SOL     OW23845   1.411   0.929   2.460
 7649SOL    HW123846   1.488   0.869   2.478
 7649SOL    HW223847   1.414   1.008   2.522
 7650SOL     OW23848   6.367   3.085   1.771
 7650SOL    HW123849   6.344   2.999   1.727
 7650SOL    HW223850   6.380   3.069   1.869
 7651SOL     OW23851   2.291   0.121   6.183
 7651SOL    HW123852   2.199   0.094   6.153
 7651SOL    HW223853   2.341   0.040   6.212
 7652SOL     OW23854   6.858   4.019   4.249
 7652SOL    HW123855   6.839   4.074   4.168
 7652SOL    HW223856   6.925   3.948   4.226
 7653SOL     OW23857   1.995   1.544   0.700
 7653SOL    HW123858   1.963   1.459   0.741
 7653SOL    HW223859   2.010   1.531   0.602
 7654SOL     OW23860   5.064   2.785   3.134
 7654SOL    HW123861   5.091   2.850   3.205
 7654SOL    HW223862   5.132   2.712   3.128
 7655SOL     OW23863   3.329   0.438   3.754
 7655SOL    HW123864   3.381   0.368   3.803
 7655SOL    HW223865   3.376   0.526   3.764
 7656SOL     OW23866   1.319   5.723   6.194
 7656SOL    HW123867   1.369   5.636   6.197
 7656SOL    HW223868   1.276   5.740   6.282
 7657SOL     OW23869   2.824   2.290   3.120
 7657SOL    HW123870   2.851   2.278   3.024
 7657SOL    HW223871   2.768   2.373   3.128
 7658SOL     OW23872   4.514   6.555   5.674
 7658SOL    HW123873   4.443   6.543   5.743
 7658SOL    HW223874   4.516   6.650   5.644
 7659SOL     OW23875   5.544   6.477   6.391
 7659SOL    HW123876   5.529   6.548   6.323
 7659SOL    HW223877   5.516   6.389   6.354
 7660SOL     OW23878   6.161   6.044   4.290
 7660SOL    HW123879   6.144   6.047   4.388
 7660SOL    HW223880   6.190   6.134   4.258
 7661SOL     OW23881   6.324   1.817   4.193
 7661SOL    HW123882   6.321   1.725   4.233
 7661SOL    HW223883   6.410   1.828   4.142
 7662SOL     OW23884   1.366   2.404   2.436
 7662SOL    HW123885   1.370   2.433   2.341
 7662SOL    HW223886   1.308   2.467   2.488
 7663SOL     OW23887   6.252   6.269   6.505
 7663SOL    HW123888   6.189   6.337   6.469
 7663SOL    HW223889   6.335   6.315   6.537
 7664SOL     OW23890   3.465   0.230   2.857
 7664SOL    HW123891   3.449   0.148   2.912
 7664SOL    HW223892   3.528   0.208   2.782
 7665SOL     OW23893   3.707   0.457   3.599
 7665SOL    HW123894   3.627   0.455   3.658
 7665SOL    HW223895   3.683   0.498   3.512
 7666SOL     OW23896   6.657   6.858   1.585
 7666SOL    HW123897   6.594   6.933   1.565
 7666SOL    HW223898   6.750   6.893   1.592
 7667SOL     OW23899   5.361   5.597   0.468
 7667SOL    HW123900   5.295   5.563   0.536
 7667SOL    HW223901   5.348   5.695   0.457
 7668SOL     OW23902   2.683   3.937   1.166
 7668SOL    HW123903   2.747   3.954   1.242
 7668SOL    HW223904   2.595   3.908   1.203
 7669SOL     OW23905   5.232   1.730   5.196
 7669SOL    HW123906   5.250   1.819   5.154
 7669SOL    HW223907   5.311   1.670   5.182
 7670SOL     OW23908   1.684   5.620   6.451
 7670SOL    HW123909   1.766   5.563   6.464
 7670SOL    HW223910   1.603   5.567   6.473
 7671SOL     OW23911   4.327   1.439   4.383
 7671SOL    HW123912   4.285   1.480   4.302
 7671SOL    HW223913   4.346   1.343   4.366
 7672SOL     OW23914   5.553   6.435   3.658
 7672SOL    HW123915   5.646   6.463   3.684
 7672SOL    HW223916   5.507   6.396   3.738
 7673SOL     OW23917   2.179   4.664   0.642
 7673SOL    HW123918   2.205   4.734   0.709
 7673SOL    HW223919   2.203   4.695   0.550
 7674SOL     OW23920   6.544   2.586   4.505
 7674SOL    HW123921   6.522   2.553   4.413
 7674SOL    HW223922   6.607   2.522   4.548
 7675SOL     OW23923   4.949   0.738   2.913
 7675SOL    HW123924   4.984   0.751   2.820
 7675SOL    HW223925   4.870   0.677   2.911
 7676SOL     OW23926   0.704   2.035   0.656
 7676SOL    HW123927   0.792   2.071   0.688
 7676SOL    HW223928   0.674   2.088   0.577
 7677SOL     OW23929   1.729   3.606   1.842
 7677SOL    HW123930   1.729   3.675   1.770
 7677SOL    HW223931   1.756   3.517   1.804
 7678SOL     OW23932   1.314   1.205   6.284
 7678SOL    HW123933   1.321   1.108   6.264
 7678SOL    HW223934   1.315   1.219   6.383
 7679SOL     OW23935   1.267   6.333   4.891
 7679SOL    HW123936   1.214   6.413   4.922
 7679SOL    HW223937   1.238   6.309   4.799
 7680SOL     OW23938   2.032   2.918   0.026
 7680SOL    HW123939   2.080   2.955   6.971
 7680SOL    HW223940   2.092   2.856   0.076
 7681SOL     OW23941   3.281   0.217   0.348
 7681SOL    HW123942   3.224   0.296   0.328
 7681SOL    HW223943   3.338   0.236   0.428
 7682SOL     OW23944   2.592   0.349   2.011
 7682SOL    HW123945   2.650   0.416   1.966
 7682SOL    HW223946   2.516   0.324   1.951
 7683SOL     OW23947   6.959   2.169   3.621
 7683SOL    HW123948   7.009   2.223   3.553
 7683SOL    HW223949   6.985   2.197   3.713
 7684SOL     OW23950   5.668   2.247   6.851
 7684SOL    HW123951   5.720   2.327   6.820
 7684SOL    HW223952   5.610   2.274   6.928
 7685SOL     OW23953   3.851   3.106   0.138
 7685SOL    HW123954   3.784   3.051   0.187
 7685SOL    HW223955   3.803   3.174   0.082
 7686SOL     OW23956   4.292   0.170   3.486
 7686SOL    HW123957   4.257   0.218   3.405
 7686SOL    HW223958   4.304   0.235   3.561
 7687SOL     OW23959   6.058   5.681   5.335
 7687SOL    HW123960   6.117   5.741   5.281
 7687SOL    HW223961   6.115   5.624   5.394
 7688SOL     OW23962   0.189   0.679   6.468
 7688SOL    HW123963   0.204   0.582   6.484
 7688SOL    HW223964   0.274   0.729   6.487
 7689SOL     OW23965   5.169   5.494   3.671
 7689SOL    HW123966   5.207   5.587   3.668
 7689SOL    HW223967   5.079   5.493   3.628
 7690SOL     OW23968   5.903   5.371   2.030
 7690SOL    HW123969   5.920   5.469   2.029
 7690SOL    HW223970   5.989   5.322   2.017
 7691SOL     OW23971   4.735   2.912   4.332
 7691SOL    HW123972   4.690   2.996   4.362
 7691SOL    HW223973   4.783   2.928   4.246
 7692SOL     OW23974   0.614   0.043   1.048
 7692SOL    HW123975   0.641   6.974   1.070
 7692SOL    HW223976   0.670   0.107   1.100
 7693SOL     OW23977   4.443   0.511   0.630
 7693SOL    HW123978   4.500   0.473   0.556
 7693SOL    HW223979   4.355   0.464   0.631
 7694SOL     OW23980   0.659   4.381   4.152
 7694SOL    HW123981   0.750   4.341   4.159
 7694SOL    HW223982   0.664   4.478   4.175
 7695SOL     OW23983   4.101   7.010   1.319
 7695SOL    HW123984   4.174   0.022   1.261
 7695SOL    HW223985   4.125   7.024   1.415
 7696SOL     OW23986   6.801   2.068   4.424
 7696SOL    HW123987   6.876   2.129   4.400
 7696SOL    HW223988   6.824   2.017   4.508
 7697SOL     OW23989   2.553   1.147   2.869
 7697SOL    HW123990   2.606   1.074   2.825
 7697SOL    HW223991   2.495   1.108   2.940
 7698SOL     OW23992   0.250   2.964   4.465
 7698SOL    HW123993   0.295   2.919   4.388
 7698SOL    HW223994   0.234   3.060   4.443
 7699SOL     OW23995   3.354   5.724   6.753
 7699SOL    HW123996   3.380   5.628   6.742
 7699SOL    HW223997   3.410   5.765   6.824
 7700SOL     OW23998   5.097   6.625   5.338
 7700SOL    HW123999   5.192   6.601   5.320
 7700SOL    HW224000   5.092   6.716   5.378
 7701SOL     OW24001   5.825   1.534   6.475
 7701SOL    HW124002   5.727   1.541   6.493
 7701SOL    HW224003   5.850   1.594   6.398
 7702SOL     OW24004   3.569   6.019   5.888
 7702SOL    HW124005   3.514   5.949   5.933
 7702SOL    HW224006   3.512   6.070   5.823
 7703SOL     OW24007   6.574   1.285   4.709
 7703SOL    HW124008   6.597   1.200   4.661
 7703SOL    HW224009   6.657   1.327   4.745
 7704SOL     OW24010   4.284   4.839   5.391
 7704SOL    HW124011   4.235   4.783   5.457
 7704SOL    HW224012   4.251   4.933   5.397
 7705SOL     OW24013   3.581   4.640   5.642
 7705SOL    HW124014   3.630   4.657   5.556
 7705SOL    HW224015   3.575   4.542   5.658
 7706SOL     OW24016   4.805   1.208   5.473
 7706SOL    HW124017   4.786   1.287   5.414
 7706SOL    HW224018   4.727   1.193   5.533
 7707SOL     OW24019   0.488   5.721   6.551
 7707SOL    HW124020   0.466   5.691   6.644
 7707SOL    HW224021   0.496   5.821   6.550
 7708SOL     OW24022   4.884   6.142   4.867
 7708SOL    HW124023   4.967   6.180   4.826
 7708SOL    HW224024   4.843   6.211   4.927
 7709SOL     OW24025   5.605   3.279   2.058
 7709SOL    HW124026   5.696   3.293   2.098
 7709SOL    HW224027   5.559   3.205   2.107
 7710SOL     OW24028   2.029   0.423   1.071
 7710SOL    HW124029   2.128   0.433   1.075
 7710SOL    HW224030   1.986   0.512   1.088
 7711SOL     OW24031   6.495   6.125   4.696
 7711SOL    HW124032   6.480   6.202   4.759
 7711SOL    HW224033   6.588   6.090   4.708
 7712SOL     OW24034   6.592   4.829   1.204
 7712SOL    HW124035   6.549   4.915   1.179
 7712SOL    HW224036   6.624   4.834   1.299
 7713SOL     OW24037   2.083   4.005   0.864
 7713SOL    HW124038   2.165   3.983   0.916
 7713SOL    HW224039   2.008   4.025   0.927
 7714SOL     OW24040   6.923   5.244   5.201
 7714SOL    HW124041   6.841   5.300   5.210
 7714SOL    HW224042   6.899   5.148   5.217
 7715SOL     OW24043   5.245   1.419   1.248
 7715SOL    HW124044   5.240   1.512   1.283
 7715SOL    HW224045   5.167   1.401   1.189
 7716SOL     OW24046   5.443   3.113   3.265
 7716SOL    HW124047   5.505   3.035   3.269
 7716SOL    HW224048   5.468   3.179   3.335
 7717SOL     OW24049   2.833   1.184   4.336
 7717SOL    HW124050   2.793   1.275   4.343
 7717SOL    HW224051   2.910   1.186   4.273
 7718SOL     OW24052   1.617   2.373   3.508
 7718SOL    HW124053   1.622   2.451   3.446
 7718SOL    HW224054   1.678   2.301   3.475
 7719SOL     OW24055   6.787   3.493   3.886
 7719SOL    HW124056   6.737   3.465   3.968
 7719SOL    HW224057   6.856   3.424   3.863
 7720SOL     OW24058   0.105   6.807   0.468
 7720SOL    HW124059   0.012   6.823   0.500
 7720SOL    HW224060   0.148   6.894   0.446
 7721SOL     OW24061   1.851   3.965   3.095
 7721SOL    HW124062   1.821   4.042   3.151
 7721SOL    HW224063   1.772   3.912   3.064
 7722SOL     OW24064   0.313   5.215   2.698
 7722SOL    HW124065   0.332   5.117   2.690
 7722SOL    HW224066   0.214   5.231   2.687
 7723SOL     OW24067   6.751   4.107   0.875
 7723SOL    HW124068   6.825   4.043   0.898
 7723SOL    HW224069   6.789   4.186   0.827
 7724SOL     OW24070   2.264   4.847   1.963
 7724SOL    HW124071   2.315   4.907   2.024
 7724SOL    HW224072   2.298   4.858   1.869
 7725SOL     OW24073   4.959   2.329   3.240
 7725SOL    HW124074   4.983   2.268   3.316
 7725SOL    HW224075   4.947   2.422   3.275
 7726SOL     OW24076   0.024   4.843   3.956
 7726SOL    HW124077   7.019   4.823   4.050
 7726SOL    HW224078   0.101   4.907   3.959
 7727SOL     OW24079   5.827   2.024   3.208
 7727SOL    HW124080   5.912   2.047   3.255
 7727SOL    HW224081   5.750   2.055   3.263
 7728SOL     OW24082   1.075   3.538   3.348
 7728SOL    HW124083   1.162   3.538   3.396
 7728SOL    HW224084   1.085   3.491   3.260
 7729SOL     OW24085   6.311   2.535   1.688
 7729SOL    HW124086   6.346   2.442   1.673
 7729SOL    HW224087   6.262   2.566   1.607
 7730SOL     OW24088   5.862   5.676   2.571
 7730SOL    HW124089   5.943   5.623   2.544
 7730SOL    HW224090   5.827   5.643   2.658
 7731SOL     OW24091   5.842   1.027   1.017
 7731SOL    HW124092   5.925   1.078   0.995
 7731SOL    HW224093   5.765   1.063   0.965
 7732SOL     OW24094   4.595   6.077   0.489
 7732SOL    HW124095   4.691   6.102   0.505
 7732SOL    HW224096   4.560   6.027   0.568
 7733SOL     OW24097   4.424   6.565   1.816
 7733SOL    HW124098   4.448   6.510   1.736
 7733SOL    HW224099   4.451   6.516   1.899
 7734SOL     OW24100   1.335   3.817   3.404
 7734SOL    HW124101   1.269   3.844   3.334
 7734SOL    HW224102   1.344   3.890   3.472
 7735SOL     OW24103   3.871   4.858   6.676
 7735SOL    HW124104   3.913   4.910   6.750
 7735SOL    HW224105   3.809   4.789   6.714
 7736SOL     OW24106   5.348   4.414   0.310
 7736SOL    HW124107   5.433   4.373   0.342
 7736SOL    HW224108   5.283   4.342   0.286
 7737SOL     OW24109   4.703   1.413   0.901
 7737SOL    HW124110   4.626   1.350   0.914
 7737SOL    HW224111   4.669   1.507   0.903
 7738SOL     OW24112   2.364   5.760   0.175
 7738SOL    HW124113   2.381   5.722   0.266
 7738SOL    HW224114   2.436   5.825   0.152
 7739SOL     OW24115   0.236   1.588   1.462
 7739SOL    HW124116   0.319   1.642   1.465
 7739SOL    HW224117   0.258   1.494   1.436
 7740SOL     OW24118   0.653   0.512   2.859
 7740SOL    HW124119   0.676   0.599   2.903
 7740SOL    HW224120   0.571   0.474   2.902
 7741SOL     OW24121   1.562   5.668   4.786
 7741SOL    HW124122   1.662   5.673   4.783
 7741SOL    HW224123   1.527   5.642   4.696
 7742SOL     OW24124   6.308   1.930   3.752
 7742SOL    HW124125   6.314   2.014   3.806
 7742SOL    HW224126   6.212   1.908   3.737
 7743SOL     OW24127   4.737   3.091   6.154
 7743SOL    HW124128   4.672   3.092   6.078
 7743SOL    HW224129   4.830   3.085   6.119
 7744SOL     OW24130   0.130   6.607   3.887
 7744SOL    HW124131   0.056   6.664   3.923
 7744SOL    HW224132   0.093   6.540   3.823
 7745SOL     OW24133   3.655   2.392   5.843
 7745SOL    HW124134   3.737   2.337   5.830
 7745SOL    HW224135   3.680   2.482   5.877
 7746SOL     OW24136   2.703   0.149   6.760
 7746SOL    HW124137   2.755   0.131   6.677
 7746SOL    HW224138   2.606   0.155   6.737
 7747SOL     OW24139   5.038   6.487   0.972
 7747SOL    HW124140   5.022   6.581   1.002
 7747SOL    HW224141   5.042   6.427   1.051
 7748SOL     OW24142   3.175   4.044   5.512
 7748SOL    HW124143   3.076   4.055   5.521
 7748SOL    HW224144   3.195   3.961   5.459
 7749SOL     OW24145   4.371   3.679   6.051
 7749SOL    HW124146   4.350   3.600   5.993
 7749SOL    HW224147   4.286   3.717   6.088
 7750SOL     OW24148   0.628   6.006   0.905
 7750SOL    HW124149   0.646   6.102   0.884
 7750SOL    HW224150   0.695   5.974   0.972
 7751SOL     OW24151   1.622   1.320   2.189
 7751SOL    HW124152   1.711   1.363   2.173
 7751SOL    HW224153   1.581   1.296   2.101
 7752SOL     OW24154   5.162   0.545   4.659
 7752SOL    HW124155   5.218   0.488   4.599
 7752SOL    HW224156   5.221   0.596   4.721
 7753SOL     OW24157   1.742   1.561   4.607
 7753SOL    HW124158   1.653   1.515   4.604
 7753SOL    HW224159   1.790   1.546   4.520
 7754SOL     OW24160   4.073   6.217   1.329
 7754SOL    HW124161   4.120   6.302   1.353
 7754SOL    HW224162   4.049   6.219   1.231
 7755SOL     OW24163   1.288   3.781   6.075
 7755SOL    HW124164   1.361   3.764   6.009
 7755SOL    HW224165   1.301   3.722   6.155
 7756SOL     OW24166   2.310   6.645   1.422
 7756SOL    HW124167   2.331   6.742   1.430
 7756SOL    HW224168   2.210   6.632   1.426
 7757SOL     OW24169   6.965   4.657   1.618
 7757SOL    HW124170   6.987   4.741   1.568
 7757SOL    HW224171   6.996   4.666   1.713
 7758SOL     OW24172   1.468   0.518   6.241
 7758SOL    HW124173   1.534   0.507   6.315
 7758SOL    HW224174   1.495   0.595   6.183
 7759SOL     OW24175   2.427   2.189   5.651
 7759SOL    HW124176   2.444   2.133   5.733
 7759SOL    HW224177   2.330   2.185   5.628
 7760SOL     OW24178   4.883   1.639   2.479
 7760SOL    HW124179   4.968   1.691   2.477
 7760SOL    HW224180   4.834   1.652   2.392
 7761SOL     OW24181   5.570   5.230   4.312
 7761SOL    HW124182   5.529   5.263   4.226
 7761SOL    HW224183   5.525   5.145   4.340
 7762SOL     OW24184   0.632   0.648   4.572
 7762SOL    HW124185   0.603   0.743   4.558
 7762SOL    HW224186   0.728   0.639   4.547
 7763SOL     OW24187   2.115   0.345   5.045
 7763SOL    HW124188   2.124   0.260   4.993
 7763SOL    HW224189   2.051   0.406   4.999
 7764SOL     OW24190   3.428   4.150   5.248
 7764SOL    HW124191   3.405   4.177   5.155
 7764SOL    HW224192   3.467   4.058   5.247
 7765SOL     OW24193   6.918   3.525   4.202
 7765SOL    HW124194   6.822   3.551   4.195
 7765SOL    HW224195   6.936   3.483   4.291
 7766SOL     OW24196   0.515   4.515   0.650
 7766SOL    HW124197   0.510   4.578   0.573
 7766SOL    HW224198   0.555   4.561   0.729
 7767SOL     OW24199   4.227   0.034   1.985
 7767SOL    HW124200   4.154   6.990   1.978
 7767SOL    HW224201   4.193   0.112   2.037
 7768SOL     OW24202   4.549   4.348   2.980
 7768SOL    HW124203   4.596   4.321   3.064
 7768SOL    HW224204   4.509   4.439   2.991
 7769SOL     OW24205   3.991   2.316   5.251
 7769SOL    HW124206   3.998   2.270   5.162
 7769SOL    HW224207   4.027   2.409   5.243
 7770SOL     OW24208   0.878   3.236   5.073
 7770SOL    HW124209   0.813   3.291   5.021
 7770SOL    HW224210   0.956   3.212   5.014
 7771SOL     OW24211   3.069   2.681   6.280
 7771SOL    HW124212   3.075   2.768   6.231
 7771SOL    HW224213   2.998   2.624   6.238
 7772SOL     OW24214   5.348   1.072   1.127
 7772SOL    HW124215   5.403   1.143   1.171
 7772SOL    HW224216   5.360   1.078   1.028
 7773SOL     OW24217   3.169   6.341   0.355
 7773SOL    HW124218   3.220   6.283   0.292
 7773SOL    HW224219   3.230   6.409   0.395
 7774SOL     OW24220   5.064   2.136   3.398
 7774SOL    HW124221   5.152   2.101   3.431
 7774SOL    HW224222   4.990   2.092   3.449
 7775SOL     OW24223   3.669   0.425   6.705
 7775SOL    HW124224   3.719   0.509   6.687
 7775SOL    HW224225   3.731   0.347   6.701
 7776SOL     OW24226   0.501   6.638   5.406
 7776SOL    HW124227   0.498   6.538   5.415
 7776SOL    HW224228   0.482   6.680   5.495
 7777SOL     OW24229   5.826   5.262   3.848
 7777SOL    HW124230   5.742   5.208   3.857
 7777SOL    HW224231   5.804   5.359   3.842
 7778SOL     OW24232   6.518   3.654   2.908
 7778SOL    HW124233   6.471   3.710   2.976
 7778SOL    HW224234   6.452   3.599   2.858
 7779SOL     OW24235   3.614   6.442   2.742
 7779SOL    HW124236   3.699   6.479   2.706
 7779SOL    HW224237   3.631   6.396   2.829
 7780SOL     OW24238   6.813   5.513   5.840
 7780SOL    HW124239   6.760   5.513   5.755
 7780SOL    HW224240   6.880   5.587   5.836
 7781SOL     OW24241   1.751   3.227   0.404
 7781SOL    HW124242   1.818   3.252   0.334
 7781SOL    HW224243   1.772   3.277   0.488
 7782SOL     OW24244   6.407   4.799   3.237
 7782SOL    HW124245   6.332   4.740   3.207
 7782SOL    HW224246   6.400   4.815   3.335
 7783SOL     OW24247   0.832   6.934   5.642
 7783SOL    HW124248   0.899   6.966   5.575
 7783SOL    HW224249   0.746   6.983   5.628
 7784SOL     OW24250   2.462   2.061   1.934
 7784SOL    HW124251   2.526   1.986   1.917
 7784SOL    HW224252   2.507   2.133   1.987
 7785SOL     OW24253   1.665   6.519   2.735
 7785SOL    HW124254   1.592   6.452   2.721
 7785SOL    HW224255   1.626   6.611   2.736
 7786SOL     OW24256   4.381   0.523   6.650
 7786SOL    HW124257   4.339   0.610   6.624
 7786SOL    HW224258   4.431   0.535   6.736
 7787SOL     OW24259   2.710   3.368   0.855
 7787SOL    HW124260   2.776   3.366   0.780
 7787SOL    HW224261   2.691   3.274   0.885
 7788SOL     OW24262   1.611   5.385   1.732
 7788SOL    HW124263   1.563   5.401   1.818
 7788SOL    HW224264   1.565   5.435   1.658
 7789SOL     OW24265   3.391   6.913   6.035
 7789SOL    HW124266   3.311   6.860   6.008
 7789SOL    HW224267   3.409   6.984   5.967
 7790SOL     OW24268   6.282   5.229   2.647
 7790SOL    HW124269   6.375   5.199   2.630
 7790SOL    HW224270   6.221   5.150   2.650
 7791SOL     OW24271   2.235   6.014   1.595
 7791SOL    HW124272   2.332   5.990   1.585
 7791SOL    HW224273   2.181   5.930   1.600
 7792SOL     OW24274   0.475   1.485   2.612
 7792SOL    HW124275   0.408   1.558   2.599
 7792SOL    HW224276   0.560   1.524   2.648
 7793SOL     OW24277   4.089   1.918   6.892
 7793SOL    HW124278   4.110   1.846   6.958
 7793SOL    HW224279   4.112   1.888   6.800
 7794SOL     OW24280   0.815   5.483   2.779
 7794SOL    HW124281   0.882   5.452   2.712
 7794SOL    HW224282   0.729   5.435   2.765
 7795SOL     OW24283   3.257   5.434   5.714
 7795SOL    HW124284   3.189   5.365   5.690
 7795SOL    HW224285   3.303   5.408   5.799
 7796SOL     OW24286   3.530   3.216   5.861
 7796SOL    HW124287   3.493   3.152   5.929
 7796SOL    HW224288   3.604   3.172   5.811
 7797SOL     OW24289   0.756   5.132   2.737
 7797SOL    HW124290   0.746   5.045   2.785
 7797SOL    HW224291   0.798   5.116   2.648
 7798SOL     OW24292   0.227   1.351   1.669
 7798SOL    HW124293   0.234   1.450   1.685
 7798SOL    HW224294   0.216   1.304   1.756
 7799SOL     OW24295   3.088   6.276   2.791
 7799SOL    HW124296   3.027   6.271   2.870
 7799SOL    HW224297   3.105   6.183   2.758
 7800SOL     OW24298   0.991   6.031   1.076
 7800SOL    HW124299   1.002   5.962   1.005
 7800SOL    HW224300   1.023   5.994   1.163
 7801SOL     OW24301   1.593   2.293   2.527
 7801SOL    HW124302   1.644   2.346   2.595
 7801SOL    HW224303   1.509   2.341   2.502
 7802SOL     OW24304   6.870   4.527   5.908
 7802SOL    HW124305   6.864   4.429   5.894
 7802SOL    HW224306   6.835   4.551   5.998
 7803SOL     OW24307   5.734   2.574   6.187
 7803SOL    HW124308   5.687   2.647   6.238
 7803SOL    HW224309   5.769   2.506   6.250
 7804SOL     OW24310   2.278   2.227   4.498
 7804SOL    HW124311   2.239   2.295   4.560
 7804SOL    HW224312   2.237   2.237   4.408
 7805SOL     OW24313   5.398   2.734   1.829
 7805SOL    HW124314   5.421   2.756   1.735
 7805SOL    HW224315   5.312   2.683   1.831
 7806SOL     OW24316   6.657   2.687   5.516
 7806SOL    HW124317   6.608   2.661   5.600
 7806SOL    HW224318   6.685   2.783   5.522
 7807SOL     OW24319   2.112   4.797   6.053
 7807SOL    HW124320   2.111   4.897   6.046
 7807SOL    HW224321   2.025   4.760   6.021
 7808SOL     OW24322   5.149   4.437   3.026
 7808SOL    HW124323   5.194   4.395   2.947
 7808SOL    HW224324   5.077   4.376   3.059
 7809SOL     OW24325   5.156   4.665   3.835
 7809SOL    HW124326   5.232   4.680   3.771
 7809SOL    HW224327   5.111   4.752   3.855
 7810SOL     OW24328   4.280   6.328   5.036
 7810SOL    HW124329   4.344   6.258   5.004
 7810SOL    HW224330   4.211   6.344   4.966
 7811SOL     OW24331   1.267   5.745   2.376
 7811SOL    HW124332   1.272   5.721   2.279
 7811SOL    HW224333   1.342   5.702   2.425
 7812SOL     OW24334   2.465   2.483   5.962
 7812SOL    HW124335   2.409   2.400   5.957
 7812SOL    HW224336   2.555   2.465   5.924
 7813SOL     OW24337   5.014   2.782   1.173
 7813SOL    HW124338   4.989   2.697   1.126
 7813SOL    HW224339   4.953   2.795   1.252
 7814SOL     OW24340   6.343   3.323   1.996
 7814SOL    HW124341   6.366   3.229   2.023
 7814SOL    HW224342   6.399   3.388   2.048
 7815SOL     OW24343   6.453   2.687   5.327
 7815SOL    HW124344   6.515   2.653   5.398
 7815SOL    HW224345   6.359   2.661   5.350
 7816SOL     OW24346   0.205   1.644   5.412
 7816SOL    HW124347   0.186   1.602   5.500
 7816SOL    HW224348   0.145   1.606   5.343
 7817SOL     OW24349   3.419   3.718   5.951
 7817SOL    HW124350   3.476   3.641   5.921
 7817SOL    HW224351   3.325   3.702   5.923
 7818SOL     OW24352   4.996   1.535   1.708
 7818SOL    HW124353   5.002   1.521   1.807
 7818SOL    HW224354   4.907   1.506   1.675
 7819SOL     OW24355   0.651   3.443   3.882
 7819SOL    HW124356   0.688   3.484   3.966
 7819SOL    HW224357   0.555   3.470   3.872
 7820SOL     OW24358   1.852   0.625   5.467
 7820SOL    HW124359   1.901   0.561   5.525
 7820SOL    HW224360   1.852   0.591   5.373
 7821SOL     OW24361   6.224   5.949   0.101
 7821SOL    HW124362   6.232   5.914   0.008
 7821SOL    HW224363   6.307   5.926   0.152
 7822SOL     OW24364   1.418   1.011   5.235
 7822SOL    HW124365   1.460   0.976   5.151
 7822SOL    HW224366   1.440   1.108   5.246
 7823SOL     OW24367   1.665   4.316   6.778
 7823SOL    HW124368   1.580   4.274   6.813
 7823SOL    HW224369   1.741   4.253   6.793
 7824SOL     OW24370   5.781   1.862   2.954
 7824SOL    HW124371   5.812   1.821   2.867
 7824SOL    HW224372   5.845   1.935   2.980
 7825SOL     OW24373   2.075   3.045   1.523
 7825SOL    HW124374   2.154   3.006   1.570
 7825SOL    HW224375   1.993   3.032   1.578
 7826SOL     OW24376   5.345   0.681   0.209
 7826SOL    HW124377   5.332   0.593   0.163
 7826SOL    HW224378   5.443   0.701   0.216
 7827SOL     OW24379   4.658   4.765   1.880
 7827SOL    HW124380   4.724   4.830   1.840
 7827SOL    HW224381   4.706   4.706   1.946
 7828SOL     OW24382   1.203   5.909   0.441
 7828SOL    HW124383   1.166   5.982   0.383
 7828SOL    HW224384   1.303   5.908   0.435
 7829SOL     OW24385   2.511   3.065   1.729
 7829SOL    HW124386   2.467   3.029   1.647
 7829SOL    HW224387   2.609   3.042   1.727
 7830SOL     OW24388   5.674   3.462   6.645
 7830SOL    HW124389   5.758   3.517   6.640
 7830SOL    HW224390   5.690   3.384   6.705
 7831SOL     OW24391   1.145   3.960   0.271
 7831SOL    HW124392   1.135   4.059   0.287
 7831SOL    HW224393   1.240   3.934   0.286
 7832SOL     OW24394   2.953   1.765   5.328
 7832SOL    HW124395   3.001   1.695   5.380
 7832SOL    HW224396   2.875   1.725   5.281
 7833SOL     OW24397   0.348   0.043   0.546
 7833SOL    HW124398   0.300   0.057   0.459
 7833SOL    HW224399   0.398   0.126   0.569
 7834SOL     OW24400   0.662   0.639   2.452
 7834SOL    HW124401   0.724   0.634   2.530
 7834SOL    HW224402   0.632   0.733   2.439
 7835SOL     OW24403   2.275   2.868   4.767
 7835SOL    HW124404   2.339   2.794   4.745
 7835SOL    HW224405   2.318   2.932   4.830
 7836SOL     OW24406   3.256   6.988   6.497
 7836SOL    HW124407   3.317   7.002   6.575
 7836SOL    HW224408   3.303   6.936   6.426
 7837SOL     OW24409   5.990   6.844   2.649
 7837SOL    HW124410   5.997   6.860   2.550
 7837SOL    HW224411   5.898   6.867   2.680
 7838SOL     OW24412   4.432   6.775   4.362
 7838SOL    HW124413   4.455   6.687   4.403
 7838SOL    HW224414   4.450   6.848   4.428
 7839SOL     OW24415   5.797   4.020   4.490
 7839SOL    HW124416   5.753   4.086   4.429
 7839SOL    HW224417   5.774   3.928   4.461
 7840SOL     OW24418   5.108   2.681   4.306
 7840SOL    HW124419   5.185   2.716   4.252
 7840SOL    HW224420   5.137   2.598   4.354
 7841SOL     OW24421   6.042   2.214   6.816
 7841SOL    HW124422   5.972   2.212   6.886
 7841SOL    HW224423   6.028   2.137   6.753
 7842SOL     OW24424   1.604   1.609   3.083
 7842SOL    HW124425   1.513   1.618   3.123
 7842SOL    HW224426   1.661   1.685   3.114
 7843SOL     OW24427   5.492   4.015   0.748
 7843SOL    HW124428   5.451   4.097   0.709
 7843SOL    HW224429   5.460   4.002   0.842
 7844SOL     OW24430   4.271   1.016   3.479
 7844SOL    HW124431   4.204   1.039   3.549
 7844SOL    HW224432   4.341   0.956   3.518
 7845SOL     OW24433   0.497   0.791   4.291
 7845SOL    HW124434   0.535   0.836   4.210
 7845SOL    HW224435   0.484   0.694   4.273
 7846SOL     OW24436   2.304   1.024   1.436
 7846SOL    HW124437   2.271   1.087   1.367
 7846SOL    HW224438   2.295   1.066   1.527
 7847SOL     OW24439   0.401   1.142   0.873
 7847SOL    HW124440   0.326   1.095   0.920
 7847SOL    HW224441   0.364   1.197   0.798
 7848SOL     OW24442   3.960   4.050   1.735
 7848SOL    HW124443   3.953   3.960   1.693
 7848SOL    HW224444   3.927   4.119   1.671
 7849SOL     OW24445   5.020   3.490   4.325
 7849SOL    HW124446   4.947   3.559   4.332
 7849SOL    HW224447   5.082   3.516   4.251
 7850SOL     OW24448   0.173   1.149   4.385
 7850SOL    HW124449   0.084   1.147   4.339
 7850SOL    HW224450   0.165   1.195   4.473
 7851SOL     OW24451   6.000   6.520   0.406
 7851SOL    HW124452   5.987   6.617   0.426
 7851SOL    HW224453   6.087   6.506   0.360
 7852SOL     OW24454   2.870   6.408   0.162
 7852SOL    HW124455   2.858   6.309   0.153
 7852SOL    HW224456   2.878   6.449   0.072
 7853SOL     OW24457   2.911   1.660   0.335
 7853SOL    HW124458   2.924   1.625   0.242
 7853SOL    HW224459   2.979   1.731   0.353
 7854SOL     OW24460   3.723   3.422   2.337
 7854SOL    HW124461   3.657   3.384   2.273
 7854SOL    HW224462   3.736   3.520   2.319
 7855SOL     OW24463   4.302   5.399   6.075
 7855SOL    HW124464   4.360   5.469   6.034
 7855SOL    HW224465   4.357   5.318   6.094
 7856SOL     OW24466   6.089   4.198   4.661
 7856SOL    HW124467   6.153   4.153   4.724
 7856SOL    HW224468   5.995   4.182   4.690
 7857SOL     OW24469   6.042   2.225   6.215
 7857SOL    HW124470   6.080   2.312   6.185
 7857SOL    HW224471   6.004   2.176   6.137
 7858SOL     OW24472   6.302   4.537   3.790
 7858SOL    HW124473   6.339   4.630   3.793
 7858SOL    HW224474   6.254   4.524   3.703
 7859SOL     OW24475   1.084   4.663   6.597
 7859SOL    HW124476   1.013   4.592   6.598
 7859SOL    HW224477   1.169   4.625   6.560
 7860SOL     OW24478   4.007   6.367   1.990
 7860SOL    HW124479   4.103   6.392   1.983
 7860SOL    HW224480   3.997   6.268   1.980
 7861SOL     OW24481   4.756   5.278   1.482
 7861SOL    HW124482   4.674   5.289   1.538
 7861SOL    HW224483   4.758   5.186   1.443
 7862SOL     OW24484   2.863   4.318   1.610
 7862SOL    HW124485   2.959   4.301   1.635
 7862SOL    HW224486   2.825   4.389   1.669
 7863SOL     OW24487   6.221   6.408   2.883
 7863SOL    HW124488   6.240   6.346   2.959
 7863SOL    HW224489   6.207   6.354   2.799
 7864SOL     OW24490   0.411   6.142   5.377
 7864SOL    HW124491   0.481   6.121   5.308
 7864SOL    HW224492   0.372   6.057   5.412
 7865SOL     OW24493   3.619   6.404   3.723
 7865SOL    HW124494   3.701   6.411   3.780
 7865SOL    HW224495   3.539   6.397   3.782
 7866SOL     OW24496   2.676   1.530   3.229
 7866SOL    HW124497   2.673   1.445   3.175
 7866SOL    HW224498   2.673   1.508   3.326
 7867SOL     OW24499   6.185   5.965   2.641
 7867SOL    HW124500   6.142   5.895   2.584
 7867SOL    HW224501   6.180   5.937   2.737
 7868SOL     OW24502   5.316   6.332   1.440
 7868SOL    HW124503   5.317   6.430   1.460
 7868SOL    HW224504   5.378   6.313   1.364
 7869SOL     OW24505   6.484   3.394   1.150
 7869SOL    HW124506   6.404   3.436   1.109
 7869SOL    HW224507   6.555   3.463   1.165
 7870SOL     OW24508   6.681   5.076   3.975
 7870SOL    HW124509   6.667   5.110   4.068
 7870SOL    HW224510   6.736   5.141   3.924
 7871SOL     OW24511   5.496   3.330   3.438
 7871SOL    HW124512   5.583   3.372   3.462
 7871SOL    HW224513   5.444   3.312   3.522
 7872SOL     OW24514   0.425   3.765   3.287
 7872SOL    HW124515   0.465   3.728   3.371
 7872SOL    HW224516   0.437   3.700   3.212
 7873SOL     OW24517   6.765   0.468   6.363
 7873SOL    HW124518   6.836   0.537   6.347
 7873SOL    HW224519   6.771   0.397   6.293
 7874SOL     OW24520   6.495   1.329   0.361
 7874SOL    HW124521   6.483   1.428   0.369
 7874SOL    HW224522   6.427   1.283   0.418
 7875SOL     OW24523   5.123   4.392   7.017
 7875SOL    HW124524   5.046   4.333   0.017
 7875SOL    HW224525   5.121   4.474   0.051
 7876SOL     OW24526   6.673   0.532   4.687
 7876SOL    HW124527   6.657   0.441   4.651
 7876SOL    HW224528   6.726   0.526   4.772
 7877SOL     OW24529   0.111   2.353   3.491
 7877SOL    HW124530   0.120   2.309   3.401
 7877SOL    HW224531   0.200   2.360   3.534
 7878SOL     OW24532   4.436   4.614   2.974
 7878SOL    HW124533   4.394   4.662   3.051
 7878SOL    HW224534   4.409   4.659   2.888
 7879SOL     OW24535   5.036   5.877   3.548
 7879SOL    HW124536   5.044   5.861   3.450
 7879SOL    HW224537   5.113   5.834   3.596
 7880SOL     OW24538   0.302   6.418   0.042
 7880SOL    HW124539   0.310   6.323   0.012
 7880SOL    HW224540   0.391   6.451   0.074
 7881SOL     OW24541   6.606   4.005   4.562
 7881SOL    HW124542   6.636   4.016   4.656
 7881SOL    HW224543   6.536   4.073   4.540
 7882SOL     OW24544   0.912   2.557   2.429
 7882SOL    HW124545   0.812   2.559   2.422
 7882SOL    HW224546   0.938   2.529   2.521
 7883SOL     OW24547   2.774   1.006   2.658
 7883SOL    HW124548   2.812   1.048   2.576
 7883SOL    HW224549   2.724   0.923   2.632
 7884SOL     OW24550   1.663   4.515   3.969
 7884SOL    HW124551   1.573   4.537   4.008
 7884SOL    HW224552   1.671   4.559   3.879
 7885SOL     OW24553   6.212   5.424   2.863
 7885SOL    HW124554   6.283   5.483   2.827
 7885SOL    HW224555   6.218   5.334   2.821
 7886SOL     OW24556   5.139   3.446   1.514
 7886SOL    HW124557   5.107   3.418   1.423
 7886SOL    HW224558   5.123   3.373   1.579
 7887SOL     OW24559   3.505   3.087   6.204
 7887SOL    HW124560   3.554   3.174   6.197
 7887SOL    HW224561   3.554   3.025   6.266
 7888SOL     OW24562   6.612   1.506   4.095
 7888SOL    HW124563   6.528   1.559   4.108
 7888SOL    HW224564   6.639   1.465   4.182
 7889SOL     OW24565   6.288   5.280   0.720
 7889SOL    HW124566   6.368   5.334   0.694
 7889SOL    HW224567   6.218   5.341   0.758
 7890SOL     OW24568   1.376   2.522   4.401
 7890SOL    HW124569   1.467   2.484   4.419
 7890SOL    HW224570   1.377   2.620   4.418
 7891SOL     OW24571   0.789   2.689   4.230
 7891SOL    HW124572   0.758   2.748   4.156
 7891SOL    HW224573   0.728   2.698   4.309
 7892SOL     OW24574   1.826   2.628   4.914
 7892SOL    HW124575   1.823   2.544   4.968
 7892SOL    HW224576   1.914   2.674   4.928
 7893SOL     OW24577   6.451   0.143   1.872
 7893SOL    HW124578   6.398   0.196   1.806
 7893SOL    HW224579   6.440   0.046   1.852
 7894SOL     OW24580   2.413   1.739   6.456
 7894SOL    HW124581   2.439   1.647   6.427
 7894SOL    HW224582   2.321   1.759   6.422
 7895SOL     OW24583   3.747   5.729   3.869
 7895SOL    HW124584   3.808   5.802   3.900
 7895SOL    HW224585   3.720   5.746   3.774
 7896SOL     OW24586   4.238   2.666   1.594
 7896SOL    HW124587   4.186   2.718   1.662
 7896SOL    HW224588   4.209   2.571   1.595
 7897SOL     OW24589   3.660   4.539   6.297
 7897SOL    HW124590   3.757   4.550   6.317
 7897SOL    HW224591   3.607   4.553   6.381
 7898SOL     OW24592   4.841   0.381   4.317
 7898SOL    HW124593   4.818   0.388   4.220
 7898SOL    HW224594   4.939   0.360   4.327
 7899SOL     OW24595   5.322   5.451   1.294
 7899SOL    HW124596   5.414   5.411   1.302
 7899SOL    HW224597   5.286   5.469   1.385
 7900SOL     OW24598   0.292   4.367   0.635
 7900SOL    HW124599   0.367   4.431   0.652
 7900SOL    HW224600   0.316   4.306   0.560
 7901SOL     OW24601   5.052   0.925   6.125
 7901SOL    HW124602   5.006   0.984   6.059
 7901SOL    HW224603   5.094   0.981   6.197
 7902SOL     OW24604   0.111   6.711   2.786
 7902SOL    HW124605   0.106   6.652   2.867
 7902SOL    HW224606   0.037   6.687   2.723
 7903SOL     OW24607   3.137   1.640   4.109
 7903SOL    HW124608   3.120   1.736   4.087
 7903SOL    HW224609   3.235   1.627   4.127
 7904SOL     OW24610   5.937   0.818   2.449
 7904SOL    HW124611   6.035   0.822   2.429
 7904SOL    HW224612   5.923   0.811   2.547
 7905SOL     OW24613   5.672   0.951   0.538
 7905SOL    HW124614   5.573   0.956   0.522
 7905SOL    HW224615   5.698   0.857   0.559
 7906SOL     OW24616   1.608   5.112   1.758
 7906SOL    HW124617   1.580   5.070   1.672
 7906SOL    HW224618   1.600   5.211   1.751
 7907SOL     OW24619   5.908   0.774   2.725
 7907SOL    HW124620   5.818   0.730   2.719
 7907SOL    HW224621   5.976   0.706   2.753
 7908SOL     OW24622   0.378   1.486   6.748
 7908SOL    HW124623   0.287   1.527   6.752
 7908SOL    HW224624   0.370   1.387   6.756
 7909SOL     OW24625   5.195   4.746   2.836
 7909SOL    HW124626   5.236   4.832   2.807
 7909SOL    HW224627   5.265   4.689   2.879
 7910SOL     OW24628   1.871   3.354   0.634
 7910SOL    HW124629   1.910   3.438   0.671
 7910SOL    HW224630   1.927   3.276   0.662
 7911SOL     OW24631   1.040   3.829   1.299
 7911SOL    HW124632   1.100   3.852   1.222
 7911SOL    HW224633   1.095   3.818   1.382
 7912SOL     OW24634   5.288   5.513   0.130
 7912SOL    HW124635   5.252   5.420   0.125
 7912SOL    HW224636   5.371   5.514   0.185
 7913SOL     OW24637   1.051   3.889   0.865
 7913SOL    HW124638   1.050   3.948   0.784
 7913SOL    HW224639   0.961   3.848   0.877
 7914SOL     OW24640   6.858   4.983   5.897
 7914SOL    HW124641   6.917   5.058   5.868
 7914SOL    HW224642   6.913   4.899   5.907
 7915SOL     OW24643   3.758   0.864   2.960
 7915SOL    HW124644   3.677   0.824   3.004
 7915SOL    HW224645   3.739   0.959   2.934
 7916SOL     OW24646   0.645   6.977   4.657
 7916SOL    HW124647   0.743   6.976   4.678
 7916SOL    HW224648   0.631   7.019   4.568
 7917SOL     OW24649   4.059   2.513   6.717
 7917SOL    HW124650   4.006   2.573   6.776
 7917SOL    HW224651   4.006   2.489   6.636
 7918SOL     OW24652   1.798   1.261   5.041
 7918SOL    HW124653   1.794   1.276   5.140
 7918SOL    HW224654   1.882   1.213   5.017
 7919SOL     OW24655   1.157   4.796   3.674
 7919SOL    HW124656   1.237   4.750   3.712
 7919SOL    HW224657   1.138   4.759   3.583
 7920SOL     OW24658   4.773   0.942   1.803
 7920SOL    HW124659   4.754   0.846   1.781
 7920SOL    HW224660   4.868   0.951   1.831
 7921SOL     OW24661   5.243   1.971   1.466
 7921SOL    HW124662   5.263   2.063   1.499
 7921SOL    HW224663   5.146   1.962   1.446
 7922SOL     OW24664   1.019   6.745   6.766
 7922SOL    HW124665   1.089   6.767   6.833
 7922SOL    HW224666   1.006   6.646   6.761
 7923SOL     OW24667   3.521   2.327   6.299
 7923SOL    HW124668   3.600   2.345   6.241
 7923SOL    HW224669   3.437   2.344   6.247
 7924SOL     OW24670   5.882   6.722   1.118
 7924SOL    HW124671   5.887   6.708   1.217
 7924SOL    HW224672   5.830   6.647   1.076
 7925SOL     OW24673   2.583   6.461   0.388
 7925SOL    HW124674   2.580   6.557   0.360
 7925SOL    HW224675   2.676   6.437   0.415
 7926SOL     OW24676   5.488   1.035   6.220
 7926SOL    HW124677   5.487   0.945   6.263
 7926SOL    HW224678   5.577   1.078   6.233
 7927SOL     OW24679   5.498   6.677   1.858
 7927SOL    HW124680   5.488   6.719   1.948
 7927SOL    HW224681   5.570   6.724   1.807
 7928SOL     OW24682   0.258   0.905   3.327
 7928SOL    HW124683   0.346   0.896   3.373
 7928SOL    HW224684   0.256   0.842   3.248
 7929SOL     OW24685   4.644   3.869   6.819
 7929SOL    HW124686   4.602   3.860   6.729
 7929SOL    HW224687   4.742   3.884   6.809
 7930SOL     OW24688   3.325   5.523   6.237
 7930SOL    HW124689   3.266   5.578   6.179
 7930SOL    HW224690   3.419   5.527   6.203
 7931SOL     OW24691   2.997   2.477   0.619
 7931SOL    HW124692   2.907   2.512   0.644
 7931SOL    HW224693   2.987   2.411   0.545
 7932SOL     OW24694   6.959   5.560   0.951
 7932SOL    HW124695   6.973   5.462   0.969
 7932SOL    HW224696   7.009   5.584   0.867
 7933SOL     OW24697   6.249   0.396   5.499
 7933SOL    HW124698   6.229   0.317   5.441
 7933SOL    HW224699   6.181   0.401   5.573
 7934SOL     OW24700   1.706   4.675   1.087
 7934SOL    HW124701   1.698   4.630   0.998
 7934SOL    HW224702   1.802   4.676   1.115
 7935SOL     OW24703   5.627   4.012   2.190
 7935SOL    HW124704   5.602   3.967   2.104
 7935SOL    HW224705   5.607   3.951   2.266
 7936SOL     OW24706   2.770   6.058   3.749
 7936SOL    HW124707   2.856   6.007   3.748
 7936SOL    HW224708   2.721   6.040   3.834
 7937SOL     OW24709   1.802   6.118   4.911
 7937SOL    HW124710   1.761   6.208   4.919
 7937SOL    HW224711   1.830   6.102   4.816
 7938SOL     OW24712   5.414   0.555   4.826
 7938SOL    HW124713   5.365   0.475   4.862
 7938SOL    HW224714   5.360   0.637   4.843
 7939SOL     OW24715   0.658   1.772   5.369
 7939SOL    HW124716   0.622   1.778   5.276
 7939SOL    HW224717   0.583   1.789   5.434
 7940SOL     OW24718   4.390   2.045   2.274
 7940SOL    HW124719   4.337   1.985   2.214
 7940SOL    HW224720   4.327   2.105   2.325
 7941SOL     OW24721   4.231   6.317   3.266
 7941SOL    HW124722   4.178   6.246   3.219
 7941SOL    HW224723   4.318   6.330   3.219
 7942SOL     OW24724   1.296   2.810   1.972
 7942SOL    HW124725   1.380   2.780   2.016
 7942SOL    HW224726   1.258   2.735   1.918
 7943SOL     OW24727   2.150   4.850   5.711
 7943SOL    HW124728   2.058   4.813   5.704
 7943SOL    HW224729   2.215   4.787   5.668
 7944SOL     OW24730   1.093   2.372   1.427
 7944SOL    HW124731   1.086   2.367   1.526
 7944SOL    HW224732   1.061   2.287   1.387
 7945SOL     OW24733   6.560   5.365   3.052
 7945SOL    HW124734   6.508   5.408   3.126
 7945SOL    HW224735   6.657   5.364   3.076
 7946SOL     OW24736   3.841   0.359   5.330
 7946SOL    HW124737   3.877   0.326   5.417
 7946SOL    HW224738   3.917   0.386   5.271
 7947SOL     OW24739   2.158   2.538   5.336
 7947SOL    HW124740   2.068   2.581   5.340
 7947SOL    HW224741   2.215   2.573   5.411
 7948SOL     OW24742   1.373   4.691   2.304
 7948SOL    HW124743   1.320   4.618   2.347
 7948SOL    HW224744   1.470   4.670   2.310
 7949SOL     OW24745   4.981   4.560   5.712
 7949SOL    HW124746   4.893   4.596   5.679
 7949SOL    HW224747   4.965   4.500   5.790
 7950SOL     OW24748   5.781   5.791   5.352
 7950SOL    HW124749   5.796   5.874   5.406
 7950SOL    HW224750   5.869   5.749   5.330
 7951SOL     OW24751   2.951   5.370   2.514
 7951SOL    HW124752   2.871   5.411   2.469
 7951SOL    HW224753   2.979   5.428   2.591
 7952SOL     OW24754   6.056   3.751   6.991
 7952SOL    HW124755   6.076   3.655   7.007
 7952SOL    HW224756   6.051   3.768   6.892
 7953SOL     OW24757   4.198   1.415   1.043
 7953SOL    HW124758   4.195   1.458   0.953
 7953SOL    HW224759   4.145   1.470   1.108
 7954SOL     OW24760   3.855   4.061   6.615
 7954SOL    HW124761   3.934   4.092   6.562
 7954SOL    HW224762   3.877   4.065   6.713
 7955SOL     OW24763   2.267   1.719   5.963
 7955SOL    HW124764   2.316   1.786   6.020
 7955SOL    HW224765   2.208   1.663   6.021
 7956SOL     OW24766   5.887   1.291   1.760
 7956SOL    HW124767   5.891   1.387   1.732
 7956SOL    HW224768   5.800   1.274   1.806
 7957SOL     OW24769   4.140   0.417   5.638
 7957SOL    HW124770   4.053   0.368   5.645
 7957SOL    HW224771   4.199   0.371   5.572
 7958SOL     OW24772   5.823   3.706   6.599
 7958SOL    HW124773   5.757   3.746   6.662
 7958SOL    HW224774   5.784   3.700   6.507
 7959SOL     OW24775   4.902   0.571   6.365
 7959SOL    HW124776   4.909   0.631   6.286
 7959SOL    HW224777   4.918   0.624   6.449
 7960SOL     OW24778   0.405   0.846   6.322
 7960SOL    HW124779   0.426   0.900   6.404
 7960SOL    HW224780   0.317   0.875   6.285
 7961SOL     OW24781   6.610   6.686   0.454
 7961SOL    HW124782   6.684   6.703   0.390
 7961SOL    HW224783   6.547   6.764   0.455
 7962SOL     OW24784   6.986   0.610   6.307
 7962SOL    HW124785   0.040   0.646   6.357
 7962SOL    HW224786   7.017   0.548   6.235
 7963SOL     OW24787   6.319   4.339   4.316
 7963SOL    HW124788   6.419   4.338   4.326
 7963SOL    HW224789   6.296   4.351   4.220
 7964SOL     OW24790   6.770   3.078   1.445
 7964SOL    HW124791   6.789   2.997   1.501
 7964SOL    HW224792   6.697   3.132   1.487
 7965SOL     OW24793   4.682   2.616   6.978
 7965SOL    HW124794   4.703   2.525   7.013
 7965SOL    HW224795   4.667   2.679   0.029
 7966SOL     OW24796   4.131   4.029   5.850
 7966SOL    HW124797   4.043   4.070   5.828
 7966SOL    HW224798   4.199   4.100   5.865
 7967SOL     OW24799   1.461   5.136   2.340
 7967SOL    HW124800   1.434   5.232   2.334
 7967SOL    HW224801   1.550   5.129   2.384
 7968SOL     OW24802   6.590   1.783   4.949
 7968SOL    HW124803   6.538   1.812   4.869
 7968SOL    HW224804   6.541   1.710   4.996
 7969SOL     OW24805   4.814   5.830   0.363
 7969SOL    HW124806   4.905   5.853   0.400
 7969SOL    HW224807   4.779   5.749   0.411
 7970SOL     OW24808   6.156   2.737   2.541
 7970SOL    HW124809   6.094   2.742   2.462
 7970SOL    HW224810   6.225   2.809   2.534
 7971SOL     OW24811   3.314   1.703   1.580
 7971SOL    HW124812   3.257   1.773   1.537
 7971SOL    HW224813   3.277   1.613   1.559
 7972SOL     OW24814   3.819   3.345   1.882
 7972SOL    HW124815   3.747   3.339   1.951
 7972SOL    HW224816   3.908   3.333   1.925
 7973SOL     OW24817   5.916   3.879   3.901
 7973SOL    HW124818   6.006   3.836   3.902
 7973SOL    HW224819   5.915   3.955   3.836
 7974SOL     OW24820   6.352   1.390   4.850
 7974SOL    HW124821   6.278   1.353   4.793
 7974SOL    HW224822   6.440   1.369   4.807
 7975SOL     OW24823   4.147   0.941   0.473
 7975SOL    HW124824   4.112   0.863   0.422
 7975SOL    HW224825   4.184   1.008   0.408
 7976SOL     OW24826   0.796   6.936   6.007
 7976SOL    HW124827   0.869   6.971   5.948
 7976SOL    HW224828   0.822   6.949   6.103
 7977SOL     OW24829   5.777   6.177   2.457
 7977SOL    HW124830   5.858   6.175   2.398
 7977SOL    HW224831   5.698   6.209   2.404
 7978SOL     OW24832   0.467   3.844   0.903
 7978SOL    HW124833   0.487   3.926   0.851
 7978SOL    HW224834   0.537   3.831   0.974
 7979SOL     OW24835   1.680   3.737   5.117
 7979SOL    HW124836   1.692   3.666   5.047
 7979SOL    HW224837   1.752   3.728   5.185
 7980SOL     OW24838   3.548   4.721   5.889
 7980SOL    HW124839   3.541   4.705   5.790
 7980SOL    HW224840   3.485   4.795   5.914
 7981SOL     OW24841   1.420   5.202   3.309
 7981SOL    HW124842   1.497   5.187   3.370
 7981SOL    HW224843   1.335   5.208   3.362
 7982SOL     OW24844   1.039   1.138   6.159
 7982SOL    HW124845   0.994   1.212   6.109
 7982SOL    HW224846   1.137   1.157   6.166
 7983SOL     OW24847   5.779   1.540   1.249
 7983SOL    HW124848   5.731   1.532   1.336
 7983SOL    HW224849   5.847   1.467   1.241
 7984SOL     OW24850   0.725   1.553   1.556
 7984SOL    HW124851   0.812   1.516   1.524
 7984SOL    HW224852   0.740   1.618   1.630
 7985SOL     OW24853   2.335   2.127   5.283
 7985SOL    HW124854   2.421   2.150   5.328
 7985SOL    HW224855   2.309   2.201   5.221
 7986SOL     OW24856   3.913   1.868   5.100
 7986SOL    HW124857   3.846   1.829   5.164
 7986SOL    HW224858   3.900   1.827   5.010
 7987SOL     OW24859   1.639   4.077   0.855
 7987SOL    HW124860   1.547   4.039   0.847
 7987SOL    HW224861   1.706   4.004   0.847
 7988SOL     OW24862   0.078   0.753   1.769
 7988SOL    HW124863   0.129   0.826   1.815
 7988SOL    HW224864   0.107   0.747   1.674
 7989SOL     OW24865   1.585   3.915   0.080
 7989SOL    HW124866   1.493   3.879   0.096
 7989SOL    HW224867   1.640   3.846   0.034
 7990SOL     OW24868   2.550   6.310   4.575
 7990SOL    HW124869   2.558   6.285   4.478
 7990SOL    HW224870   2.458   6.345   4.592
 7991SOL     OW24871   5.572   1.649   4.589
 7991SOL    HW124872   5.552   1.747   4.585
 7991SOL    HW224873   5.602   1.625   4.682
 7992SOL     OW24874   2.488   0.406   0.592
 7992SOL    HW124875   2.573   0.393   0.541
 7992SOL    HW224876   2.508   0.406   0.690
 7993SOL     OW24877   0.049   0.211   2.207
 7993SOL    HW124878   0.021   0.144   2.139
 7993SOL    HW224879   0.148   0.225   2.201
 7994SOL     OW24880   5.036   0.492   3.212
 7994SOL    HW124881   5.063   0.585   3.234
 7994SOL    HW224882   4.940   0.491   3.184
 7995SOL     OW24883   6.004   4.651   2.653
 7995SOL    HW124884   5.909   4.664   2.682
 7995SOL    HW224885   6.045   4.577   2.707
 7996SOL     OW24886   3.967   0.622   3.882
 7996SOL    HW124887   3.899   0.586   3.945
 7996SOL    HW224888   3.988   0.554   3.812
 7997SOL     OW24889   0.324   1.873   6.933
 7997SOL    HW124890   0.258   1.921   6.991
 7997SOL    HW224891   0.277   1.835   6.854
 7998SOL     OW24892   3.152   0.411   7.019
 7998SOL    HW124893   3.180   0.316   0.011
 7998SOL    HW224894   3.104   0.417   6.932
 7999SOL     OW24895   1.028   1.986   6.068
 7999SOL    HW124896   0.992   1.917   6.130
 7999SOL    HW224897   1.124   1.965   6.048
 8000SOL     OW24898   6.362   6.954   6.672
 8000SOL    HW124899   6.291   6.890   6.643
 8000SOL    HW224900   6.385   6.938   6.768
 8001SOL     OW24901   4.694   0.020   0.988
 8001SOL    HW124902   4.747   0.101   1.013
 8001SOL    HW224903   4.641   0.038   0.906
 8002SOL     OW24904   0.475   1.059   5.216
 8002SOL    HW124905   0.494   1.119   5.294
 8002SOL    HW224906   0.377   1.037   5.214
 8003SOL     OW24907   2.065   6.751   2.051
 8003SOL    HW124908   2.090   6.794   2.138
 8003SOL    HW224909   1.969   6.725   2.053
 8004SOL     OW24910   2.124   3.089   3.459
 8004SOL    HW124911   2.107   3.133   3.371
 8004SOL    HW224912   2.135   2.990   3.445
 8005SOL     OW24913   2.845   0.141   3.860
 8005SOL    HW124914   2.781   0.118   3.786
 8005SOL    HW224915   2.880   0.233   3.846
 8006SOL     OW24916   3.462   5.627   5.064
 8006SOL    HW124917   3.500   5.577   5.142
 8006SOL    HW224918   3.370   5.659   5.087
 8007SOL     OW24919   5.471   1.945   6.420
 8007SOL    HW124920   5.442   1.875   6.484
 8007SOL    HW224921   5.410   1.945   6.340
 8008SOL     OW24922   3.273   6.609   0.243
 8008SOL    HW124923   3.333   6.600   0.323
 8008SOL    HW224924   3.328   6.613   0.160
 8009SOL     OW24925   5.094   1.287   0.850
 8009SOL    HW124926   5.080   1.330   0.939
 8009SOL    HW224927   5.125   1.355   0.784
 8010SOL     OW24928   3.113   2.755   5.507
 8010SOL    HW124929   3.137   2.761   5.604
 8010SOL    HW224930   3.077   2.842   5.475
 8011SOL     OW24931   3.798   1.969   1.936
 8011SOL    HW124932   3.770   2.060   1.965
 8011SOL    HW224933   3.724   1.926   1.885
 8012SOL     OW24934   0.465   2.854   5.787
 8012SOL    HW124935   0.462   2.786   5.714
 8012SOL    HW224936   0.546   2.838   5.844
 8013SOL     OW24937   1.066   2.516   3.270
 8013SOL    HW124938   1.100   2.457   3.343
 8013SOL    HW224939   1.101   2.483   3.182
 8014SOL     OW24940   1.752   0.021   3.704
 8014SOL    HW124941   1.737   6.966   3.645
 8014SOL    HW224942   1.671   0.079   3.701
 8015SOL     OW24943   1.795   0.249   5.743
 8015SOL    HW124944   1.860   0.200   5.801
 8015SOL    HW224945   1.710   0.263   5.792
 8016SOL     OW24946   3.656   1.906   4.703
 8016SOL    HW124947   3.700   1.832   4.754
 8016SOL    HW224948   3.726   1.962   4.659
 8017SOL     OW24949   6.822   6.920   7.016
 8017SOL    HW124950   6.872   6.843   0.029
 8017SOL    HW224951   6.725   6.913   0.017
 8018SOL     OW24952   3.767   2.270   6.758
 8018SOL    HW124953   3.777   2.309   6.850
 8018SOL    HW224954   3.824   2.189   6.750
 8019SOL     OW24955   2.381   3.799   0.580
 8019SOL    HW124956   2.417   3.712   0.548
 8019SOL    HW224957   2.457   3.862   0.598
 8020SOL     OW24958   6.061   6.702   5.920
 8020SOL    HW124959   6.048   6.610   5.958
 8020SOL    HW224960   6.002   6.714   5.841
 8021SOL     OW24961   2.522   2.543   1.816
 8021SOL    HW124962   2.533   2.616   1.748
 8021SOL    HW224963   2.476   2.580   1.897
 8022SOL     OW24964   5.923   0.273   1.282
 8022SOL    HW124965   5.887   0.181   1.298
 8022SOL    HW224966   5.958   0.311   1.367
 8023SOL     OW24967   5.942   5.547   2.833
 8023SOL    HW124968   6.008   5.475   2.810
 8023SOL    HW224969   5.875   5.511   2.898
 8024SOL     OW24970   1.646   5.887   6.366
 8024SOL    HW124971   1.654   5.844   6.276
 8024SOL    HW224972   1.674   5.823   6.437
 8025SOL     OW24973   1.800   4.760   1.594
 8025SOL    HW124974   1.756   4.761   1.684
 8025SOL    HW224975   1.834   4.852   1.573
 8026SOL     OW24976   0.086   4.498   0.893
 8026SOL    HW124977   0.120   4.476   0.801
 8026SOL    HW224978   0.160   4.538   0.947
 8027SOL     OW24979   3.706   6.581   5.131
 8027SOL    HW124980   3.636   6.642   5.094
 8027SOL    HW224981   3.682   6.486   5.110
 8028SOL     OW24982   2.296   6.082   4.233
 8028SOL    HW124983   2.305   6.158   4.296
 8028SOL    HW224984   2.342   6.002   4.271
 8029SOL     OW24985   4.949   1.949   1.746
 8029SOL    HW124986   4.967   1.883   1.673
 8029SOL    HW224987   4.968   2.042   1.712
 8030SOL     OW24988   6.304   5.059   0.870
 8030SOL    HW124989   6.331   4.980   0.815
 8030SOL    HW224990   6.287   5.137   0.809
 8031SOL     OW24991   5.750   0.044   3.438
 8031SOL    HW124992   5.797   6.981   3.436
 8031SOL    HW224993   5.749   0.079   3.532
 8032SOL     OW24994   4.886   3.633   1.697
 8032SOL    HW124995   4.896   3.637   1.597
 8032SOL    HW224996   4.803   3.681   1.724
 8033SOL     OW24997   4.153   3.656   0.244
 8033SOL    HW124998   4.230   3.703   0.287
 8033SOL    HW224999   4.068   3.685   0.288
 8034SOL     OW25000   5.642   0.628   5.260
 8034SOL    HW125001   5.577   0.690   5.303
 8034SOL    HW225002   5.632   0.633   5.160
 8035SOL     OW25003   4.385   0.864   2.715
 8035SOL    HW125004   4.388   0.963   2.727
 8035SOL    HW225005   4.317   0.841   2.646
 8036SOL     OW25006   6.643   2.878   3.777
 8036SOL    HW125007   6.570   2.945   3.768
 8036SOL    HW225008   6.682   2.858   3.687
 8037SOL     OW25009   1.393   3.055   7.007
 8037SOL    HW125010   1.325   3.034   0.052
 8037SOL    HW225011   1.479   3.082   0.027
 8038SOL     OW25012   5.895   6.264   2.076
 8038SOL    HW125013   5.842   6.252   1.992
 8038SOL    HW225014   5.872   6.352   2.117
 8039SOL     OW25015   0.367   2.556   5.092
 8039SOL    HW125016   0.274   2.593   5.098
 8039SOL    HW225017   0.424   2.598   5.162
 8040SOL     OW25018   2.221   6.144   6.217
 8040SOL    HW125019   2.172   6.114   6.136
 8040SOL    HW225020   2.188   6.094   6.297
 8041SOL     OW25021   3.167   1.457   2.815
 8041SOL    HW125022   3.171   1.378   2.754
 8041SOL    HW225023   3.140   1.427   2.906
 8042SOL     OW25024   4.347   4.445   5.688
 8042SOL    HW125025   4.363   4.476   5.781
 8042SOL    HW225026   4.260   4.396   5.684
 8043SOL     OW25027   4.335   5.348   1.228
 8043SOL    HW125028   4.306   5.367   1.135
 8043SOL    HW225029   4.386   5.426   1.264
 8044SOL     OW25030   4.147   3.701   1.249
 8044SOL    HW125031   4.203   3.778   1.219
 8044SOL    HW225032   4.072   3.688   1.185
 8045SOL     OW25033   0.161   1.510   2.966
 8045SOL    HW125034   0.140   1.430   2.909
 8045SOL    HW225035   0.151   1.485   3.062
 8046SOL     OW25036   0.366   4.891   1.687
 8046SOL    HW125037   0.295   4.958   1.709
 8046SOL    HW225038   0.441   4.901   1.753
 8047SOL     OW25039   3.678   6.813   6.527
 8047SOL    HW125040   3.644   6.861   6.608
 8047SOL    HW225041   3.693   6.880   6.454
 8048SOL     OW25042   3.907   2.697   0.453
 8048SOL    HW125043   3.896   2.659   0.544
 8048SOL    HW225044   3.994   2.747   0.448
 8049SOL     OW25045   1.247   6.446   0.239
 8049SOL    HW125046   1.293   6.475   0.323
 8049SOL    HW225047   1.311   6.396   0.181
 8050SOL     OW25048   1.921   4.094   4.466
 8050SOL    HW125049   2.006   4.104   4.414
 8050SOL    HW225050   1.941   4.089   4.563
 8051SOL     OW25051   4.892   5.682   4.521
 8051SOL    HW125052   4.796   5.686   4.491
 8051SOL    HW225053   4.896   5.642   4.613
 8052SOL     OW25054   2.595   1.236   1.933
 8052SOL    HW125055   2.542   1.257   1.851
 8052SOL    HW225056   2.542   1.173   1.991
 8053SOL     OW25057   2.857   3.076   5.574
 8053SOL    HW125058   2.826   3.073   5.669
 8053SOL    HW225059   2.778   3.061   5.513
 8054SOL     OW25060   6.098   4.265   5.358
 8054SOL    HW125061   6.159   4.219   5.294
 8054SOL    HW225062   6.103   4.364   5.344
 8055SOL     OW25063   0.042   0.626   5.541
 8055SOL    HW125064   6.984   0.588   5.499
 8055SOL    HW225065   0.017   0.695   5.609
 8056SOL     OW25066   2.695   6.532   3.437
 8056SOL    HW125067   2.615   6.511   3.494
 8056SOL    HW225068   2.672   6.517   3.341
 8057SOL     OW25069   2.713   1.877   1.904
 8057SOL    HW125070   2.751   1.954   1.954
 8057SOL    HW225071   2.773   1.798   1.914
 8058SOL     OW25072   2.686   6.472   3.090
 8058SOL    HW125073   2.761   6.528   3.127
 8058SOL    HW225074   2.599   6.519   3.105
 8059SOL     OW25075   3.398   1.361   5.398
 8059SOL    HW125076   3.314   1.313   5.423
 8059SOL    HW225077   3.381   1.417   5.317
 8060SOL     OW25078   6.683   0.860   5.932
 8060SOL    HW125079   6.633   0.826   6.012
 8060SOL    HW225080   6.618   0.895   5.864
 8061SOL     OW25081   0.377   0.799   2.774
 8061SOL    HW125082   0.388   0.710   2.729
 8061SOL    HW225083   0.318   0.857   2.719
 8062SOL     OW25084   3.897   5.236   4.611
 8062SOL    HW125085   3.945   5.157   4.649
 8062SOL    HW225086   3.959   5.286   4.549
 8063SOL     OW25087   3.398   0.745   2.934
 8063SOL    HW125088   3.447   0.706   3.012
 8063SOL    HW225089   3.313   0.693   2.919
 8064SOL     OW25090   6.518   3.017   0.462
 8064SOL    HW125091   6.462   3.093   0.497
 8064SOL    HW225092   6.513   2.940   0.525
 8065SOL     OW25093   3.628   0.122   4.474
 8065SOL    HW125094   3.538   0.160   4.494
 8065SOL    HW225095   3.669   0.086   4.558
 8066SOL     OW25096   6.885   1.116   4.643
 8066SOL    HW125097   6.940   1.033   4.637
 8066SOL    HW225098   6.944   1.196   4.637
 8067SOL     OW25099   5.353   3.024   3.746
 8067SOL    HW125100   5.302   2.970   3.813
 8067SOL    HW225101   5.290   3.059   3.676
 8068SOL     OW25102   0.734   4.972   1.025
 8068SOL    HW125103   0.659   4.907   1.039
 8068SOL    HW225104   0.719   5.024   0.941
 8069SOL     OW25105   2.926   5.082   2.033
 8069SOL    HW125106   2.836   5.046   2.058
 8069SOL    HW225107   2.988   5.007   2.012
 8070SOL     OW25108   4.055   4.076   0.789
 8070SOL    HW125109   4.038   4.051   0.693
 8070SOL    HW225110   4.133   4.026   0.823
 8071SOL     OW25111   4.137   6.942   5.215
 8071SOL    HW125112   4.047   6.969   5.251
 8071SOL    HW225113   4.156   6.995   5.132
 8072SOL     OW25114   3.407   2.758   0.313
 8072SOL    HW125115   3.325   2.806   0.344
 8072SOL    HW225116   3.445   2.806   0.234
 8073SOL     OW25117   3.118   6.930   5.608
 8073SOL    HW125118   3.152   6.999   5.544
 8073SOL    HW225119   3.119   6.840   5.564
 8074SOL     OW25120   1.949   1.077   1.159
 8074SOL    HW125121   1.878   1.069   1.229
 8074SOL    HW225122   1.977   1.172   1.150
 8075SOL     OW25123   0.549   6.609   0.666
 8075SOL    HW125124   0.552   6.708   0.676
 8075SOL    HW225125   0.595   6.583   0.581
 8076SOL     OW25126   0.103   0.199   6.430
 8076SOL    HW125127   0.053   0.127   6.382
 8076SOL    HW225128   0.130   0.166   6.521
 8077SOL     OW25129   4.058   6.108   1.974
 8077SOL    HW125130   3.995   6.078   1.902
 8077SOL    HW225131   4.148   6.067   1.958
 8078SOL     OW25132   0.833   1.739   1.131
 8078SOL    HW125133   0.829   1.691   1.044
 8078SOL    HW225134   0.747   1.728   1.180
 8079SOL     OW25135   0.255   1.771   4.445
 8079SOL    HW125136   0.259   1.792   4.347
 8079SOL    HW225137   0.176   1.817   4.486
 8080SOL     OW25138   1.447   2.763   2.221
 8080SOL    HW125139   1.397   2.679   2.205
 8080SOL    HW225140   1.542   2.751   2.191
 8081SOL     OW25141   6.069   4.569   5.535
 8081SOL    HW125142   6.069   4.665   5.563
 8081SOL    HW225143   6.159   4.529   5.550
 8082SOL     OW25144   3.419   0.444   2.001
 8082SOL    HW125145   3.453   0.353   2.025
 8082SOL    HW225146   3.389   0.491   2.084
 8083SOL     OW25147   5.424   3.015   4.054
 8083SOL    HW125148   5.440   3.083   3.984
 8083SOL    HW225149   5.508   2.963   4.071
 8084SOL     OW25150   2.665   0.690   5.222
 8084SOL    HW125151   2.674   0.669   5.319
 8084SOL    HW225152   2.755   0.685   5.178
 8085SOL     OW25153   6.613   6.638   2.829
 8085SOL    HW125154   6.537   6.596   2.778
 8085SOL    HW225155   6.685   6.571   2.843
 8086SOL     OW25156   7.021   0.846   1.244
 8086SOL    HW125157   0.016   0.781   1.171
 8086SOL    HW225158   6.931   0.887   1.230
 8087SOL     OW25159   1.552   0.778   6.074
 8087SOL    HW125160   1.646   0.800   6.099
 8087SOL    HW225161   1.490   0.848   6.112
 8088SOL     OW25162   5.966   6.934   6.654
 8088SOL    HW125163   5.962   6.843   6.613
 8088SOL    HW225164   5.992   6.925   6.750
 8089SOL     OW25165   5.866   2.767   6.501
 8089SOL    HW125166   5.923   2.737   6.425
 8089SOL    HW225167   5.922   2.780   6.583
 8090SOL     OW25168   3.682   1.377   6.175
 8090SOL    HW125169   3.706   1.406   6.082
 8090SOL    HW225170   3.763   1.382   6.233
 8091SOL     OW25171   1.343   4.072   4.314
 8091SOL    HW125172   1.392   3.995   4.274
 8091SOL    HW225173   1.375   4.087   4.408
 8092SOL     OW25174   4.707   2.238   5.253
 8092SOL    HW125175   4.742   2.147   5.277
 8092SOL    HW225176   4.748   2.267   5.166
 8093SOL     OW25177   3.274   5.652   2.994
 8093SOL    HW125178   3.313   5.722   3.053
 8093SOL    HW225179   3.347   5.612   2.938
 8094SOL     OW25180   0.396   3.758   5.692
 8094SOL    HW125181   0.484   3.716   5.717
 8094SOL    HW225182   0.326   3.686   5.688
 8095SOL     OW25183   0.787   5.234   4.602
 8095SOL    HW125184   0.755   5.185   4.521
 8095SOL    HW225185   0.873   5.280   4.582
 8096SOL     OW25186   1.415   0.594   2.544
 8096SOL    HW125187   1.477   0.657   2.590
 8096SOL    HW225188   1.456   0.503   2.542
 8097SOL     OW25189   4.226   0.385   4.707
 8097SOL    HW125190   4.214   0.389   4.608
 8097SOL    HW225191   4.253   0.475   4.741
 8098SOL     OW25192   1.737   6.806   3.563
 8098SOL    HW125193   1.713   6.720   3.608
 8098SOL    HW225194   1.728   6.796   3.464
 8099SOL     OW25195   4.348   6.089   4.153
 8099SOL    HW125196   4.302   6.048   4.075
 8099SOL    HW225197   4.376   6.183   4.131
 8100SOL     OW25198   6.480   1.501   0.015
 8100SOL    HW125199   6.381   1.494   0.018
 8100SOL    HW225200   6.519   1.412   7.016
 8101SOL     OW25201   1.769   5.006   1.019
 8101SOL    HW125202   1.673   5.036   1.017
 8101SOL    HW225203   1.801   4.988   0.926
 8102SOL     OW25204   0.810   3.712   3.951
 8102SOL    HW125205   0.830   3.803   3.915
 8102SOL    HW225206   0.791   3.650   3.875
 8103SOL     OW25207   3.793   0.425   2.118
 8103SOL    HW125208   3.789   0.325   2.107
 8103SOL    HW225209   3.739   0.451   2.198
 8104SOL     OW25210   1.938   0.108   5.116
 8104SOL    HW125211   2.000   0.137   5.190
 8104SOL    HW225212   1.862   0.172   5.110
 8105SOL     OW25213   0.117   2.288   2.600
 8105SOL    HW125214   0.021   2.290   2.573
 8105SOL    HW225215   0.136   2.363   2.663
 8106SOL     OW25216   2.270   6.400   3.318
 8106SOL    HW125217   2.274   6.325   3.252
 8106SOL    HW225218   2.341   6.467   3.296
 8107SOL     OW25219   1.155   5.991   4.418
 8107SOL    HW125220   1.210   5.945   4.488
 8107SOL    HW225221   1.215   6.027   4.347
 8108SOL     OW25222   6.664   1.715   6.991
 8108SOL    HW125223   6.660   1.771   6.908
 8108SOL    HW225224   6.606   1.634   6.979
 8109SOL     OW25225   0.238   4.203   6.619
 8109SOL    HW125226   0.168   4.134   6.600
 8109SOL    HW225227   0.320   4.159   6.655
 8110SOL     OW25228   4.194   4.561   1.817
 8110SOL    HW125229   4.268   4.533   1.878
 8110SOL    HW225230   4.209   4.522   1.726
 8111SOL     OW25231   4.913   0.956   4.388
 8111SOL    HW125232   5.001   0.973   4.343
 8111SOL    HW225233   4.930   0.931   4.484
 8112SOL     OW25234   1.440   2.971   4.251
 8112SOL    HW125235   1.515   3.009   4.305
 8112SOL    HW225236   1.473   2.945   4.160
 8113SOL     OW25237   6.390   3.580   0.625
 8113SOL    HW125238   6.338   3.565   0.709
 8113SOL    HW225239   6.335   3.634   0.561
 8114SOL     OW25240   1.423   3.442   1.742
 8114SOL    HW125241   1.334   3.474   1.709
 8114SOL    HW225242   1.450   3.360   1.691
 8115SOL     OW25243   3.099   6.279   5.681
 8115SOL    HW125244   3.035   6.266   5.605
 8115SOL    HW225245   3.192   6.290   5.644
 8116SOL     OW25246   4.488   5.019   0.258
 8116SOL    HW125247   4.580   5.024   0.297
 8116SOL    HW225248   4.422   5.005   0.331
 8117SOL     OW25249   2.457   6.844   3.351
 8117SOL    HW125250   2.433   6.846   3.448
 8117SOL    HW225251   2.428   6.929   3.307
 8118SOL     OW25252   6.082   4.090   6.527
 8118SOL    HW125253   6.177   4.090   6.559
 8118SOL    HW225254   6.079   4.069   6.429
 8119SOL     OW25255   4.861   6.321   6.105
 8119SOL    HW125256   4.769   6.344   6.135
 8119SOL    HW225257   4.869   6.333   6.006
 8120SOL     OW25258   2.753   4.498   0.797
 8120SOL    HW125259   2.851   4.520   0.799
 8120SOL    HW225260   2.740   4.400   0.810
 8121SOL     OW25261   0.719   4.944   2.073
 8121SOL    HW125262   0.741   5.030   2.027
 8121SOL    HW225263   0.772   4.870   2.032
 8122SOL     OW25264   0.579   4.471   3.119
 8122SOL    HW125265   0.572   4.409   3.041
 8122SOL    HW225266   0.546   4.425   3.201
 8123SOL     OW25267   6.940   1.258   0.242
 8123SOL    HW125268   6.881   1.177   0.247
 8123SOL    HW225269   6.890   1.332   0.198
 8124SOL     OW25270   5.078   6.332   3.568
 8124SOL    HW125271   5.003   6.308   3.507
 8124SOL    HW225272   5.161   6.284   3.540
 8125SOL     OW25273   1.351   1.123   2.683
 8125SOL    HW125274   1.359   1.191   2.610
 8125SOL    HW225275   1.255   1.106   2.703
 8126SOL     OW25276   5.049   4.796   3.518
 8126SOL    HW125277   5.019   4.752   3.433
 8126SOL    HW225278   5.108   4.874   3.496
 8127SOL     OW25279   2.980   2.998   6.436
 8127SOL    HW125280   2.883   3.016   6.419
 8127SOL    HW225281   2.990   2.910   6.481
 8128SOL     OW25282   3.220   2.102   2.201
 8128SOL    HW125283   3.168   2.173   2.155
 8128SOL    HW225284   3.309   2.091   2.155
 8129SOL     OW25285   2.963   1.976   6.808
 8129SOL    HW125286   2.876   1.978   6.759
 8129SOL    HW225287   3.008   2.064   6.798
 8130SOL     OW25288   1.280   6.337   6.750
 8130SOL    HW125289   1.245   6.284   6.828
 8130SOL    HW225290   1.339   6.279   6.695
 8131SOL     OW25291   2.752   1.887   1.559
 8131SOL    HW125292   2.821   1.954   1.530
 8131SOL    HW225293   2.673   1.935   1.597
 8132SOL     OW25294   5.579   6.427   4.580
 8132SOL    HW125295   5.608   6.341   4.623
 8132SOL    HW225296   5.495   6.412   4.528
 8133SOL     OW25297   3.617   5.600   1.997
 8133SOL    HW125298   3.559   5.663   2.049
 8133SOL    HW225299   3.594   5.506   2.020
 8134SOL     OW25300   6.996   1.393   6.218
 8134SOL    HW125301   0.037   1.424   6.288
 8134SOL    HW225302   0.019   1.375   6.133
 8135SOL     OW25303   1.757   0.767   1.374
 8135SOL    HW125304   1.714   0.679   1.391
 8135SOL    HW225305   1.691   0.840   1.391
 8136SOL     OW25306   5.625   5.457   2.357
 8136SOL    HW125307   5.619   5.541   2.412
 8136SOL    HW225308   5.718   5.448   2.322
 8137SOL     OW25309   2.969   1.104   5.746
 8137SOL    HW125310   2.885   1.109   5.801
 8137SOL    HW225311   2.959   1.032   5.677
 8138SOL     OW25312   5.589   1.004   1.446
 8138SOL    HW125313   5.588   1.004   1.346
 8138SOL    HW225314   5.495   1.002   1.480
 8139SOL     OW25315   0.361   0.994   2.232
 8139SOL    HW125316   0.285   1.052   2.262
 8139SOL    HW225317   0.433   1.052   2.193
 8140SOL     OW25318   4.878   1.142   4.821
 8140SOL    HW125319   4.795   1.196   4.810
 8140SOL    HW225320   4.940   1.160   4.744
 8141SOL     OW25321   4.744   5.647   5.899
 8141SOL    HW125322   4.801   5.581   5.849
 8141SOL    HW225323   4.680   5.690   5.835
 8142SOL     OW25324   6.496   5.268   6.901
 8142SOL    HW125325   6.436   5.255   6.822
 8142SOL    HW225326   6.526   5.363   6.905
 8143SOL     OW25327   6.494   4.863   0.125
 8143SOL    HW125328   6.550   4.883   0.045
 8143SOL    HW225329   6.402   4.901   0.112
 8144SOL     OW25330   5.710   7.004   6.680
 8144SOL    HW125331   5.800   6.979   6.643
 8144SOL    HW225332   5.643   6.934   6.653
 8145SOL     OW25333   6.005   5.428   2.523
 8145SOL    HW125334   6.104   5.435   2.510
 8145SOL    HW225335   5.963   5.389   2.441
 8146SOL     OW25336   3.778   1.482   4.938
 8146SOL    HW125337   3.837   1.409   4.973
 8146SOL    HW225338   3.747   1.538   5.015
 8147SOL     OW25339   5.734   2.209   3.032
 8147SOL    HW125340   5.756   2.126   3.084
 8147SOL    HW225341   5.671   2.265   3.085
 8148SOL     OW25342   5.549   3.923   2.479
 8148SOL    HW125343   5.624   3.962   2.533
 8148SOL    HW225344   5.462   3.959   2.513
 8149SOL     OW25345   2.916   5.758   2.410
 8149SOL    HW125346   2.902   5.681   2.472
 8149SOL    HW225347   2.997   5.741   2.353
 8150SOL     OW25348   6.890   5.022   0.293
 8150SOL    HW125349   6.802   5.065   0.272
 8150SOL    HW225350   6.911   5.036   0.390
 8151SOL     OW25351   0.175   2.403   2.839
 8151SOL    HW125352   0.221   2.362   2.917
 8151SOL    HW225353   0.182   2.503   2.844
 8152SOL     OW25354   1.101   1.413   2.772
 8152SOL    HW125355   1.112   1.426   2.673
 8152SOL    HW225356   1.033   1.341   2.788
 8153SOL     OW25357   3.170   0.014   3.012
 8153SOL    HW125358   3.268   7.021   3.016
 8153SOL    HW225359   3.138   0.043   3.103
 8154SOL     OW25360   2.008   5.972   4.244
 8154SOL    HW125361   2.068   5.896   4.269
 8154SOL    HW225362   2.052   6.028   4.174
 8155SOL     OW25363   2.832   3.412   1.847
 8155SOL    HW125364   2.746   3.368   1.824
 8155SOL    HW225365   2.828   3.509   1.824
 8156SOL     OW25366   6.093   0.100   5.804
 8156SOL    HW125367   6.003   0.066   5.830
 8156SOL    HW225368   6.090   0.200   5.797
 8157SOL     OW25369   5.811   6.026   5.777
 8157SOL    HW125370   5.866   6.045   5.859
 8157SOL    HW225371   5.728   5.977   5.803
 8158SOL     OW25372   1.028   5.731   0.573
 8158SOL    HW125373   1.055   5.662   0.505
 8158SOL    HW225374   1.057   5.821   0.541
 8159SOL     OW25375   2.275   5.572   1.888
 8159SOL    HW125376   2.213   5.647   1.870
 8159SOL    HW225377   2.363   5.608   1.919
 8160SOL     OW25378   4.547   1.507   1.208
 8160SOL    HW125379   4.606   1.426   1.217
 8160SOL    HW225380   4.453   1.477   1.191
 8161SOL     OW25381   5.169   0.981   1.309
 8161SOL    HW125382   5.126   0.894   1.287
 8161SOL    HW225383   5.245   0.999   1.246
 8162SOL     OW25384   6.147   6.626   0.039
 8162SOL    HW125385   6.160   6.564   0.117
 8162SOL    HW225386   6.114   6.714   0.072
 8163SOL     OW25387   2.639   4.569   5.708
 8163SOL    HW125388   2.541   4.571   5.727
 8163SOL    HW225389   2.673   4.662   5.696
 8164SOL     OW25390   5.765   3.433   1.084
 8164SOL    HW125391   5.763   3.400   1.178
 8164SOL    HW225392   5.717   3.520   1.078
 8165SOL     OW25393   1.939   4.363   0.984
 8165SOL    HW125394   1.936   4.268   1.015
 8165SOL    HW225395   2.023   4.379   0.932
 8166SOL     OW25396   2.203   1.076   1.711
 8166SOL    HW125397   2.191   1.121   1.800
 8166SOL    HW225398   2.139   1.000   1.703
 8167SOL     OW25399   5.435   2.134   4.017
 8167SOL    HW125400   5.463   2.230   4.015
 8167SOL    HW225401   5.510   2.079   4.056
 8168SOL     OW25402   3.611   1.969   2.418
 8168SOL    HW125403   3.695   1.933   2.459
 8168SOL    HW225404   3.546   1.993   2.490
 8169SOL     OW25405   4.529   3.305   0.900
 8169SOL    HW125406   4.527   3.205   0.907
 8169SOL    HW225407   4.496   3.345   0.986
 8170SOL     OW25408   1.417   5.750   3.536
 8170SOL    HW125409   1.506   5.789   3.560
 8170SOL    HW225410   1.347   5.821   3.538
 8171SOL     OW25411   0.294   2.235   6.592
 8171SOL    HW125412   0.394   2.236   6.592
 8171SOL    HW225413   0.261   2.193   6.677
 8172SOL     OW25414   6.899   0.865   0.739
 8172SOL    HW125415   6.918   0.767   0.735
 8172SOL    HW225416   6.889   0.901   0.646
 8173SOL     OW25417   3.392   2.565   0.028
 8173SOL    HW125418   3.380   2.542   6.956
 8173SOL    HW225419   3.312   2.615   0.060
 8174SOL     OW25420   5.349   1.976   1.023
 8174SOL    HW125421   5.251   1.959   1.036
 8174SOL    HW225422   5.363   2.071   0.997
 8175SOL     OW25423   6.681   2.459   6.787
 8175SOL    HW125424   6.705   2.504   6.873
 8175SOL    HW225425   6.757   2.466   6.723
 8176SOL     OW25426   3.438   5.764   2.111
 8176SOL    HW125427   3.362   5.790   2.051
 8176SOL    HW225428   3.401   5.738   2.201
 8177SOL     OW25429   1.659   6.312   3.569
 8177SOL    HW125430   1.709   6.341   3.488
 8177SOL    HW225431   1.696   6.225   3.601
 8178SOL     OW25432   1.848   0.049   6.240
 8178SOL    HW125433   1.812   0.138   6.211
 8178SOL    HW225434   1.772   7.008   6.247
 8179SOL     OW25435   3.323   3.235   6.991
 8179SOL    HW125436   3.381   3.292   0.025
 8179SOL    HW225437   3.241   3.287   6.965
 8180SOL     OW25438   6.842   0.305   3.926
 8180SOL    HW125439   6.809   0.394   3.895
 8180SOL    HW225440   6.771   0.258   3.978
 8181SOL     OW25441   2.492   2.160   2.916
 8181SOL    HW125442   2.420   2.108   2.871
 8181SOL    HW225443   2.456   2.202   2.999
 8182SOL     OW25444   3.239   1.861   5.577
 8182SOL    HW125445   3.205   1.768   5.589
 8182SOL    HW225446   3.337   1.864   5.596
 8183SOL     OW25447   0.759   3.211   5.380
 8183SOL    HW125448   0.785   3.138   5.317
 8183SOL    HW225449   0.678   3.258   5.344
 8184SOL     OW25450   6.327   0.773   5.661
 8184SOL    HW125451   6.374   0.712   5.726
 8184SOL    HW225452   6.319   0.727   5.573
 8185SOL     OW25453   3.044   0.584   0.576
 8185SOL    HW125454   3.132   0.589   0.528
 8185SOL    HW225455   2.971   0.565   0.509
 8186SOL     OW25456   3.250   5.872   5.507
 8186SOL    HW125457   3.282   5.842   5.597
 8186SOL    HW225458   3.196   5.799   5.465
 8187SOL     OW25459   1.359   1.517   5.431
 8187SOL    HW125460   1.297   1.524   5.510
 8187SOL    HW225461   1.392   1.608   5.407
 8188SOL     OW25462   5.156   1.741   2.532
 8188SOL    HW125463   5.212   1.790   2.466
 8188SOL    HW225464   5.114   1.806   2.596
 8189SOL     OW25465   5.035   4.402   2.639
 8189SOL    HW125466   4.957   4.464   2.653
 8189SOL    HW225467   5.042   4.380   2.542
 8190SOL     OW25468   5.570   4.227   4.092
 8190SOL    HW125469   5.618   4.186   4.170
 8190SOL    HW225470   5.484   4.267   4.123
 8191SOL     OW25471   1.064   5.406   3.843
 8191SOL    HW125472   1.028   5.498   3.831
 8191SOL    HW225473   1.141   5.391   3.781
 8192SOL     OW25474   2.687   5.550   1.249
 8192SOL    HW125475   2.701   5.576   1.345
 8192SOL    HW225476   2.776   5.533   1.207
 8193SOL     OW25477   6.012   6.040   4.780
 8193SOL    HW125478   5.946   6.099   4.827
 8193SOL    HW225479   5.983   5.945   4.786
 8194SOL     OW25480   6.317   2.055   0.165
 8194SOL    HW125481   6.274   2.139   0.196
 8194SOL    HW225482   6.302   2.045   0.067
 8195SOL     OW25483   0.101   0.589   0.806
 8195SOL    HW125484   0.127   0.493   0.799
 8195SOL    HW225485   0.157   0.644   0.745
 8196SOL     OW25486   3.833   6.377   5.848
 8196SOL    HW125487   3.832   6.376   5.748
 8196SOL    HW225488   3.762   6.315   5.883
 8197SOL     OW25489   6.438   1.122   6.334
 8197SOL    HW125490   6.502   1.054   6.370
 8197SOL    HW225491   6.488   1.202   6.303
 8198SOL     OW25492   2.733   6.724   2.685
 8198SOL    HW125493   2.786   6.641   2.701
 8198SOL    HW225494   2.666   6.736   2.759
 8199SOL     OW25495   0.378   3.755   0.423
 8199SOL    HW125496   0.325   3.776   0.506
 8199SOL    HW225497   0.324   3.781   0.342
 8200SOL     OW25498   4.502   4.596   1.663
 8200SOL    HW125499   4.527   4.593   1.760
 8200SOL    HW225500   4.583   4.576   1.607
 8201SOL     OW25501   5.193   1.244   4.924
 8201SOL    HW125502   5.144   1.236   4.837
 8201SOL    HW225503   5.198   1.340   4.951
 8202SOL     OW25504   1.607   5.078   3.752
 8202SOL    HW125505   1.568   5.124   3.832
 8202SOL    HW225506   1.706   5.091   3.751
 8203SOL     OW25507   4.765   3.406   1.186
 8203SOL    HW125508   4.745   3.473   1.257
 8203SOL    HW225509   4.857   3.369   1.198
 8204SOL     OW25510   3.661   6.786   1.971
 8204SOL    HW125511   3.641   6.743   2.059
 8204SOL    HW225512   3.621   6.731   1.897
 8205SOL     OW25513   5.302   5.283   1.757
 8205SOL    HW125514   5.342   5.315   1.843
 8205SOL    HW225515   5.333   5.190   1.738
 8206SOL     OW25516   3.782   2.343   6.128
 8206SOL    HW125517   3.772   2.442   6.127
 8206SOL    HW225518   3.794   2.311   6.223
 8207SOL     OW25519   3.094   4.684   5.713
 8207SOL    HW125520   3.060   4.709   5.803
 8207SOL    HW225521   3.025   4.705   5.644
 8208SOL     OW25522   2.175   5.785   1.758
 8208SOL    HW125523   2.250   5.757   1.697
 8208SOL    HW225524   2.101   5.718   1.753
 8209SOL     OW25525   1.837   1.025   5.453
 8209SOL    HW125526   1.757   0.967   5.467
 8209SOL    HW225527   1.807   1.118   5.431
 8210SOL     OW25528   1.907   1.067   0.587
 8210SOL    HW125529   1.985   1.109   0.540
 8210SOL    HW225530   1.882   0.982   0.540
 8211SOL     OW25531   3.308   3.485   4.131
 8211SOL    HW125532   3.270   3.486   4.038
 8211SOL    HW225533   3.395   3.534   4.132
 8212SOL     OW25534   2.229   6.912   0.747
 8212SOL    HW125535   2.232   6.946   0.842
 8212SOL    HW225536   2.287   6.830   0.740
 8213SOL     OW25537   4.080   4.756   2.599
 8213SOL    HW125538   4.063   4.721   2.507
 8213SOL    HW225539   4.178   4.774   2.609
 8214SOL     OW25540   2.690   5.704   3.959
 8214SOL    HW125541   2.762   5.676   3.896
 8214SOL    HW225542   2.602   5.670   3.928
 8215SOL     OW25543   3.926   6.309   6.967
 8215SOL    HW125544   3.909   6.402   6.937
 8215SOL    HW225545   3.966   6.310   0.034
 8216SOL     OW25546   4.720   6.280   2.771
 8216SOL    HW125547   4.800   6.221   2.763
 8216SOL    HW225548   4.691   6.309   2.679
 8217SOL     OW25549   2.334   4.206   3.009
 8217SOL    HW125550   2.370   4.155   3.088
 8217SOL    HW225551   2.240   4.179   2.991
 8218SOL     OW25552   1.897   0.279   4.387
 8218SOL    HW125553   1.876   0.376   4.401
 8218SOL    HW225554   1.822   0.235   4.339
 8219SOL     OW25555   3.412   3.766   1.847
 8219SOL    HW125556   3.321   3.800   1.821
 8219SOL    HW225557   3.401   3.684   1.903
 8220SOL     OW25558   3.168   3.869   5.038
 8220SOL    HW125559   3.120   3.951   5.072
 8220SOL    HW225560   3.101   3.807   4.997
 8221SOL     OW25561   6.006   3.601   3.334
 8221SOL    HW125562   6.098   3.576   3.305
 8221SOL    HW225563   5.953   3.631   3.255
 8222SOL     OW25564   6.353   2.897   1.342
 8222SOL    HW125565   6.433   2.852   1.383
 8222SOL    HW225566   6.383   2.977   1.290
 8223SOL     OW25567   6.969   5.731   5.529
 8223SOL    HW125568   7.014   5.665   5.469
 8223SOL    HW225569   6.875   5.745   5.500
 8224SOL     OW25570   4.326   2.043   0.701
 8224SOL    HW125571   4.314   2.131   0.655
 8224SOL    HW225572   4.321   2.057   0.800
 8225SOL     OW25573   4.213   0.941   6.875
 8225SOL    HW125574   4.241   0.866   6.935
 8225SOL    HW225575   4.156   1.005   6.926
 8226SOL     OW25576   3.474   0.729   6.624
 8226SOL    HW125577   3.469   0.766   6.532
 8226SOL    HW225578   3.567   0.738   6.659
 8227SOL     OW25579   5.758   1.620   2.776
 8227SOL    HW125580   5.777   1.574   2.689
 8227SOL    HW225581   5.687   1.688   2.762
 8228SOL     OW25582   0.880   1.162   5.619
 8228SOL    HW125583   0.795   1.112   5.631
 8228SOL    HW225584   0.859   1.259   5.604
 8229SOL     OW25585   3.935   4.702   1.388
 8229SOL    HW125586   3.869   4.657   1.327
 8229SOL    HW225587   4.025   4.659   1.377
 8230SOL     OW25588   4.101   0.264   5.886
 8230SOL    HW125589   4.186   0.273   5.834
 8230SOL    HW225590   4.050   0.350   5.881
 8231SOL     OW25591   3.227   0.926   1.682
 8231SOL    HW125592   3.257   0.968   1.768
 8231SOL    HW225593   3.128   0.912   1.686
 8232SOL     OW25594   4.309   0.665   2.145
 8232SOL    HW125595   4.280   0.754   2.110
 8232SOL    HW225596   4.382   0.677   2.212
 8233SOL     OW25597   0.722   0.744   5.227
 8233SOL    HW125598   0.739   0.842   5.232
 8233SOL    HW225599   0.808   0.694   5.240
 8234SOL     OW25600   2.467   3.580   0.150
 8234SOL    HW125601   2.376   3.612   0.176
 8234SOL    HW225602   2.517   3.655   0.106
 8235SOL     OW25603   6.976   5.128   6.907
 8235SOL    HW125604   7.024   5.216   6.912
 8235SOL    HW225605   6.887   5.142   6.865
 8236SOL     OW25606   0.647   6.406   6.189
 8236SOL    HW125607   0.573   6.451   6.240
 8236SOL    HW225608   0.650   6.443   6.096
 8237SOL     OW25609   4.774   5.557   6.148
 8237SOL    HW125610   4.744   5.462   6.153
 8237SOL    HW225611   4.761   5.592   6.055
 8238SOL     OW25612   2.698   4.795   0.718
 8238SOL    HW125613   2.744   4.752   0.797
 8238SOL    HW225614   2.662   4.884   0.745
 8239SOL     OW25615   0.652   1.507   5.387
 8239SOL    HW125616   0.632   1.490   5.483
 8239SOL    HW225617   0.653   1.606   5.370
 8240SOL     OW25618   3.803   3.387   4.369
 8240SOL    HW125619   3.891   3.366   4.328
 8240SOL    HW225620   3.801   3.484   4.395
 8241SOL     OW25621   0.730   3.853   6.834
 8241SOL    HW125622   0.817   3.875   6.791
 8241SOL    HW225623   0.659   3.913   6.797
 8242SOL     OW25624   1.248   3.643   4.721
 8242SOL    HW125625   1.190   3.713   4.678
 8242SOL    HW225626   1.192   3.588   4.783
 8243SOL     OW25627   0.591   4.444   5.339
 8243SOL    HW125628   0.515   4.430   5.403
 8243SOL    HW225629   0.573   4.523   5.282
 8244SOL     OW25630   0.875   0.456   3.890
 8244SOL    HW125631   0.912   0.397   3.818
 8244SOL    HW225632   0.907   0.549   3.877
 8245SOL     OW25633   5.283   1.521   4.171
 8245SOL    HW125634   5.245   1.613   4.175
 8245SOL    HW225635   5.383   1.525   4.175
 8246SOL     OW25636   0.924   4.401   6.565
 8246SOL    HW125637   0.850   4.459   6.530
 8246SOL    HW225638   0.996   4.393   6.496
 8247SOL     OW25639   3.076   5.025   3.451
 8247SOL    HW125640   3.046   4.930   3.457
 8247SOL    HW225641   3.001   5.086   3.477
 8248SOL     OW25642   0.522   5.874   2.676
 8248SOL    HW125643   0.619   5.884   2.655
 8248SOL    HW225644   0.474   5.834   2.598
 8249SOL     OW25645   1.951   1.827   6.010
 8249SOL    HW125646   1.984   1.865   5.924
 8249SOL    HW225647   1.966   1.894   6.083
 8250SOL     OW25648   1.877   1.875   6.449
 8250SOL    HW125649   1.937   1.855   6.371
 8250SOL    HW225650   1.847   1.790   6.492
 8251SOL     OW25651   0.067   2.881   4.969
 8251SOL    HW125652   0.000   2.953   4.987
 8251SOL    HW225653   0.101   2.889   4.876
 8252SOL     OW25654   2.237   2.437   6.241
 8252SOL    HW125655   2.298   2.515   6.225
 8252SOL    HW225656   2.165   2.435   6.171
 8253SOL     OW25657   3.496   5.851   6.954
 8253SOL    HW125658   3.561   5.907   6.904
 8253SOL    HW225659   3.544   5.779   7.005
 8254SOL     OW25660   5.577   5.197   0.777
 8254SOL    HW125661   5.551   5.180   0.682
 8254SOL    HW225662   5.654   5.261   0.780
 8255SOL     OW25663   7.013   0.073   5.733
 8255SOL    HW125664   0.032   0.156   5.699
 8255SOL    HW225665   0.011   7.021   5.673
 8256SOL     OW25666   1.491   6.316   2.717
 8256SOL    HW125667   1.467   6.242   2.655
 8256SOL    HW225668   1.424   6.321   2.791
 8257SOL     OW25669   5.126   4.304   4.301
 8257SOL    HW125670   5.168   4.277   4.214
 8257SOL    HW225671   5.028   4.318   4.289
 8258SOL     OW25672   6.096   3.310   1.886
 8258SOL    HW125673   6.184   3.307   1.932
 8258SOL    HW225674   6.079   3.403   1.852
 8259SOL     OW25675   4.555   2.577   4.570
 8259SOL    HW125676   4.609   2.656   4.599
 8259SOL    HW225677   4.497   2.547   4.645
 8260SOL     OW25678   2.773   0.149   0.677
 8260SOL    HW125679   2.806   0.205   0.753
 8260SOL    HW225680   2.771   0.053   0.705
 8261SOL     OW25681   5.016   6.990   3.485
 8261SOL    HW125682   5.085   6.930   3.525
 8261SOL    HW225683   5.046   0.060   3.491
 8262SOL     OW25684   0.337   3.834   1.372
 8262SOL    HW125685   0.407   3.880   1.318
 8262SOL    HW225686   0.363   3.739   1.388
 8263SOL     OW25687   6.736   2.354   0.176
 8263SOL    HW125688   6.750   2.267   0.223
 8263SOL    HW225689   6.650   2.351   0.125
 8264SOL     OW25690   1.847   6.898   2.683
 8264SOL    HW125691   1.760   6.876   2.727
 8264SOL    HW225692   1.830   6.943   2.595
 8265SOL     OW25693   5.126   0.917   0.477
 8265SOL    HW125694   5.031   0.910   0.445
 8265SOL    HW225695   5.175   0.834   0.453
 8266SOL     OW25696   2.356   6.603   3.776
 8266SOL    HW125697   2.419   6.560   3.711
 8266SOL    HW225698   2.407   6.669   3.832
 8267SOL     OW25699   0.778   4.049   2.985
 8267SOL    HW125700   0.839   4.057   3.064
 8267SOL    HW225701   0.791   4.128   2.924
 8268SOL     OW25702   3.196   3.692   6.528
 8268SOL    HW125703   3.253   3.763   6.487
 8268SOL    HW225704   3.254   3.629   6.579
 8269SOL     OW25705   4.410   2.192   2.760
 8269SOL    HW125706   4.390   2.240   2.846
 8269SOL    HW225707   4.431   2.259   2.689
 8270SOL     OW25708   3.915   0.040   5.327
 8270SOL    HW125709   3.915   0.140   5.333
 8270SOL    HW225710   3.829   0.004   5.362
 8271SOL     OW25711   4.634   6.516   4.610
 8271SOL    HW125712   4.664   6.572   4.533
 8271SOL    HW225713   4.711   6.499   4.671
 8272SOL     OW25714   0.639   6.993   1.996
 8272SOL    HW125715   0.663   6.992   1.899
 8272SOL    HW225716   0.708   0.020   2.047
 8273SOL     OW25717   2.758   6.817   0.190
 8273SOL    HW125718   2.745   6.915   0.173
 8273SOL    HW225719   2.708   6.791   0.273
 8274SOL     OW25720   4.980   5.573   6.909
 8274SOL    HW125721   4.898   5.519   6.929
 8274SOL    HW225722   5.033   5.527   6.838
 8275SOL     OW25723   6.764   0.790   4.249
 8275SOL    HW125724   6.705   0.791   4.330
 8275SOL    HW225725   6.749   0.706   4.198
 8276SOL     OW25726   7.016   3.054   6.869
 8276SOL    HW125727   0.040   3.052   6.782
 8276SOL    HW225728   0.006   2.967   6.917
 8277SOL     OW25729   0.894   6.135   5.925
 8277SOL    HW125730   0.832   6.157   5.849
 8277SOL    HW225731   0.842   6.134   6.011
 8278SOL     OW25732   3.442   1.953   6.531
 8278SOL    HW125733   3.504   1.957   6.609
 8278SOL    HW225734   3.363   2.012   6.547
 8279SOL     OW25735   4.566   5.941   6.346
 8279SOL    HW125736   4.619   6.020   6.377
 8279SOL    HW225737   4.567   5.937   6.246
 8280SOL     OW25738   5.165   2.659   0.633
 8280SOL    HW125739   5.196   2.734   0.692
 8280SOL    HW225740   5.073   2.632   0.659
 8281SOL     OW25741   2.059   5.311   0.129
 8281SOL    HW125742   2.151   5.285   0.157
 8281SOL    HW225743   1.997   5.235   0.146
 8282SOL     OW25744   2.949   2.934   1.247
 8282SOL    HW125745   2.983   3.024   1.275
 8282SOL    HW225746   2.878   2.946   1.178
 8283SOL     OW25747   0.268   5.049   3.691
 8283SOL    HW125748   0.231   4.979   3.630
 8283SOL    HW225749   0.291   5.131   3.638
 8284SOL     OW25750   2.404   1.957   2.295
 8284SOL    HW125751   2.318   1.979   2.247
 8284SOL    HW225752   2.389   1.962   2.393
 8285SOL     OW25753   3.545   4.429   5.949
 8285SOL    HW125754   3.540   4.521   5.912
 8285SOL    HW225755   3.490   4.423   6.032
 8286SOL     OW25756   5.282   0.977   4.523
 8286SOL    HW125757   5.311   1.046   4.457
 8286SOL    HW225758   5.359   0.919   4.547
 8287SOL     OW25759   1.199   0.393   3.460
 8287SOL    HW125760   1.157   0.358   3.377
 8287SOL    HW225761   1.269   0.461   3.437
 8288SOL     OW25762   1.502   1.360   2.417
 8288SOL    HW125763   1.570   1.339   2.488
 8288SOL    HW225764   1.537   1.331   2.328
 8289SOL     OW25765   6.514   2.170   5.847
 8289SOL    HW125766   6.461   2.085   5.855
 8289SOL    HW225767   6.607   2.147   5.818
 8290SOL     OW25768   3.586   2.512   1.742
 8290SOL    HW125769   3.581   2.432   1.803
 8290SOL    HW225770   3.585   2.481   1.647
 8291SOL     OW25771   5.787   6.703   6.215
 8291SOL    HW125772   5.817   6.750   6.133
 8291SOL    HW225773   5.688   6.691   6.213
 8292SOL     OW25774   1.491   4.168   4.822
 8292SOL    HW125775   1.420   4.128   4.879
 8292SOL    HW225776   1.580   4.129   4.848
 8293SOL     OW25777   2.611   5.121   2.578
 8293SOL    HW125778   2.570   5.211   2.561
 8293SOL    HW225779   2.581   5.088   2.668
 8294SOL     OW25780   6.706   3.541   6.423
 8294SOL    HW125781   6.615   3.563   6.458
 8294SOL    HW225782   6.760   3.500   6.497
 8295SOL     OW25783   5.090   4.097   2.779
 8295SOL    HW125784   5.064   4.029   2.711
 8295SOL    HW225785   5.011   4.154   2.802
 8296SOL     OW25786   3.454   6.002   0.729
 8296SOL    HW125787   3.387   5.937   0.765
 8296SOL    HW225788   3.425   6.095   0.752
 8297SOL     OW25789   6.529   4.446   2.974
 8297SOL    HW125790   6.445   4.416   2.928
 8297SOL    HW225791   6.608   4.408   2.927
 8298SOL     OW25792   0.008   0.687   6.675
 8298SOL    HW125793   0.056   0.759   6.725
 8298SOL    HW225794   0.046   0.679   6.583
 8299SOL     OW25795   0.660   3.967   1.840
 8299SOL    HW125796   0.579   3.987   1.786
 8299SOL    HW225797   0.740   4.008   1.796
 8300SOL     OW25798   6.184   4.945   3.369
 8300SOL    HW125799   6.253   4.974   3.303
 8300SOL    HW225800   6.226   4.935   3.459
 8301SOL     OW25801   4.306   6.532   0.812
 8301SOL    HW125802   4.258   6.494   0.891
 8301SOL    HW225803   4.328   6.628   0.829
 8302SOL     OW25804   3.486   6.185   4.566
 8302SOL    HW125805   3.541   6.160   4.486
 8302SOL    HW225806   3.520   6.271   4.603
 8303SOL     OW25807   6.489   0.048   2.413
 8303SOL    HW125808   6.443   0.125   2.455
 8303SOL    HW225809   6.466   6.989   2.462
 8304SOL     OW25810   6.167   3.801   3.852
 8304SOL    HW125811   6.216   3.887   3.860
 8304SOL    HW225812   6.231   3.725   3.856
 8305SOL     OW25813   4.674   5.620   4.336
 8305SOL    HW125814   4.591   5.632   4.390
 8305SOL    HW225815   4.704   5.524   4.342
 8306SOL     OW25816   5.918   1.083   2.212
 8306SOL    HW125817   5.899   1.009   2.147
 8306SOL    HW225818   5.848   1.083   2.284
 8307SOL     OW25819   1.655   4.701   2.290
 8307SOL    HW125820   1.679   4.798   2.288
 8307SOL    HW225821   1.738   4.645   2.286
 8308SOL     OW25822   0.717   5.139   0.177
 8308SOL    HW125823   0.666   5.179   0.253
 8308SOL    HW225824   0.714   5.039   0.182
 8309SOL     OW25825   6.856   4.452   4.877
 8309SOL    HW125826   6.858   4.470   4.779
 8309SOL    HW225827   6.918   4.516   4.923
 8310SOL     OW25828   0.672   6.805   0.402
 8310SOL    HW125829   0.613   6.849   0.470
 8310SOL    HW225830   0.657   6.706   0.405
 8311SOL     OW25831   5.712   6.702   4.140
 8311SOL    HW125832   5.656   6.620   4.152
 8311SOL    HW225833   5.693   6.767   4.213
 8312SOL     OW25834   4.976   0.690   6.585
 8312SOL    HW125835   5.045   0.620   6.599
 8312SOL    HW225836   5.019   0.780   6.587
 8313SOL     OW25837   4.621   0.956   4.542
 8313SOL    HW125838   4.651   1.043   4.503
 8313SOL    HW225839   4.697   0.915   4.593
 8314SOL     OW25840   4.928   6.115   5.740
 8314SOL    HW125841   4.925   6.215   5.735
 8314SOL    HW225842   4.940   6.087   5.835
 8315SOL     OW25843   3.368   2.937   4.662
 8315SOL    HW125844   3.272   2.951   4.687
 8315SOL    HW225845   3.423   2.924   4.744
 8316SOL     OW25846   1.070   2.755   0.005
 8316SOL    HW125847   1.086   2.663   0.041
 8316SOL    HW225848   1.021   2.749   6.943
 8317SOL     OW25849   1.735   1.978   4.202
 8317SOL    HW125850   1.806   2.039   4.238
 8317SOL    HW225851   1.774   1.921   4.129
 8318SOL     OW25852   3.579   6.918   6.770
 8318SOL    HW125853   3.512   6.991   6.783
 8318SOL    HW225854   3.661   6.939   6.823
 8319SOL     OW25855   2.081   0.381   6.178
 8319SOL    HW125856   2.056   0.348   6.269
 8319SOL    HW225857   2.004   0.432   6.139
 8320SOL     OW25858   3.445   3.469   4.580
 8320SOL    HW125859   3.366   3.530   4.578
 8320SOL    HW225860   3.528   3.522   4.596
 8321SOL     OW25861   6.811   6.950   0.376
 8321SOL    HW125862   6.813   6.887   0.299
 8321SOL    HW225863   6.817   6.898   0.461
 8322SOL     OW25864   6.795   1.016   0.182
 8322SOL    HW125865   6.873   0.968   0.142
 8322SOL    HW225866   6.726   0.949   0.211
 8323SOL     OW25867   4.710   4.336   0.887
 8323SOL    HW125868   4.650   4.414   0.908
 8323SOL    HW225869   4.655   4.261   0.850
 8324SOL     OW25870   6.410   6.576   6.684
 8324SOL    HW125871   6.460   6.663   6.691
 8324SOL    HW225872   6.467   6.510   6.634
 8325SOL     OW25873   1.387   5.643   5.401
 8325SOL    HW125874   1.380   5.691   5.489
 8325SOL    HW225875   1.334   5.558   5.406
 8326SOL     OW25876   1.753   3.695   1.539
 8326SOL    HW125877   1.725   3.599   1.543
 8326SOL    HW225878   1.853   3.700   1.544
 8327SOL     OW25879   0.959   0.574   5.313
 8327SOL    HW125880   1.037   0.538   5.364
 8327SOL    HW225881   0.984   0.584   5.217
 8328SOL     OW25882   1.031   6.859   6.324
 8328SOL    HW125883   1.050   6.882   6.419
 8328SOL    HW225884   0.952   6.797   6.319
 8329SOL     OW25885   1.050   2.846   5.275
 8329SOL    HW125886   1.106   2.896   5.342
 8329SOL    HW225887   1.070   2.879   5.183
 8330SOL     OW25888   3.778   0.694   6.708
 8330SOL    HW125889   3.790   0.771   6.771
 8330SOL    HW225890   3.860   0.685   6.652
 8331SOL     OW25891   1.668   2.215   0.051
 8331SOL    HW125892   1.630   2.150   0.116
 8331SOL    HW225893   1.626   2.305   0.064
 8332SOL     OW25894   5.536   4.819   2.202
 8332SOL    HW125895   5.585   4.731   2.200
 8332SOL    HW225896   5.488   4.831   2.115
 8333SOL     OW25897   2.890   4.960   1.421
 8333SOL    HW125898   2.935   4.870   1.412
 8333SOL    HW225899   2.875   4.980   1.518
 8334SOL     OW25900   3.180   2.124   6.181
 8334SOL    HW125901   3.241   2.175   6.121
 8334SOL    HW225902   3.165   2.032   6.143
 8335SOL     OW25903   5.290   3.029   6.060
 8335SOL    HW125904   5.267   2.966   5.986
 8335SOL    HW225905   5.359   3.094   6.028
 8336SOL     OW25906   0.885   3.545   2.917
 8336SOL    HW125907   0.872   3.517   3.012
 8336SOL    HW225908   0.891   3.645   2.913
 8337SOL     OW25909   0.756   0.985   4.694
 8337SOL    HW125910   0.782   1.066   4.642
 8337SOL    HW225911   0.665   0.955   4.667
 8338SOL     OW25912   3.748   4.874   2.341
 8338SOL    HW125913   3.662   4.822   2.350
 8338SOL    HW225914   3.729   4.965   2.304
 8339SOL     OW25915   6.612   0.558   0.386
 8339SOL    HW125916   6.600   0.518   0.295
 8339SOL    HW225917   6.690   0.516   0.431
 8340SOL     OW25918   5.178   2.307   0.507
 8340SOL    HW125919   5.118   2.321   0.428
 8340SOL    HW225920   5.123   2.314   0.591
 8341SOL     OW25921   3.849   0.354   0.235
 8341SOL    HW125922   3.848   0.364   0.335
 8341SOL    HW225923   3.769   0.301   0.206
 8342SOL     OW25924   4.145   6.478   6.935
 8342SOL    HW125925   4.120   6.546   6.867
 8342SOL    HW225926   4.122   6.387   6.901
 8343SOL     OW25927   6.871   4.065   3.832
 8343SOL    HW125928   6.856   3.966   3.841
 8343SOL    HW225929   6.879   4.089   3.735
 8344SOL     OW25930   1.050   5.378   4.692
 8344SOL    HW125931   1.089   5.339   4.775
 8344SOL    HW225932   1.090   5.468   4.675
 8345SOL     OW25933   4.601   0.716   2.594
 8345SOL    HW125934   4.517   0.724   2.647
 8345SOL    HW225935   4.661   0.794   2.612
 8346SOL     OW25936   4.415   2.997   5.610
 8346SOL    HW125937   4.319   3.024   5.622
 8346SOL    HW225938   4.461   3.000   5.699
 8347SOL     OW25939   2.264   0.339   5.954
 8347SOL    HW125940   2.346   0.290   5.983
 8347SOL    HW225941   2.201   0.348   6.032
 8348SOL     OW25942   3.800   6.435   1.830
 8348SOL    HW125943   3.853   6.468   1.751
 8348SOL    HW225944   3.863   6.413   1.904
 8349SOL     OW25945   1.071   6.545   2.130
 8349SOL    HW125946   1.085   6.500   2.042
 8349SOL    HW225947   0.990   6.603   2.126
 8350SOL     OW25948   2.666   0.397   6.502
 8350SOL    HW125949   2.593   0.335   6.474
 8350SOL    HW225950   2.731   0.408   6.426
 8351SOL     OW25951   0.190   4.600   4.035
 8351SOL    HW125952   0.167   4.641   4.124
 8351SOL    HW225953   0.107   4.563   3.993
 8352SOL     OW25954   2.595   5.584   1.683
 8352SOL    HW125955   2.510   5.625   1.648
 8352SOL    HW225956   2.572   5.520   1.756
 8353SOL     OW25957   1.039   3.859   1.979
 8353SOL    HW125958   1.050   3.958   1.992
 8353SOL    HW225959   1.037   3.814   2.068
 8354SOL     OW25960   3.348   6.978   4.308
 8354SOL    HW125961   3.368   0.045   4.343
 8354SOL    HW225962   3.354   6.912   4.383
 8355SOL     OW25963   1.723   6.253   5.384
 8355SOL    HW125964   1.732   6.222   5.479
 8355SOL    HW225965   1.735   6.352   5.379
 8356SOL     OW25966   1.731   5.847   1.353
 8356SOL    HW125967   1.828   5.823   1.356
 8356SOL    HW225968   1.707   5.899   1.434
 8357SOL     OW25969   3.712   5.615   5.602
 8357SOL    HW125970   3.795   5.563   5.579
 8357SOL    HW225971   3.674   5.655   5.519
 8358SOL     OW25972   0.999   2.478   5.334
 8358SOL    HW125973   1.052   2.499   5.416
 8358SOL    HW225974   0.926   2.545   5.323
 8359SOL     OW25975   3.470   1.808   4.925
 8359SOL    HW125976   3.535   1.883   4.937
 8359SOL    HW225977   3.517   1.730   4.883
 8360SOL     OW25978   5.146   6.173   0.413
 8360SOL    HW125979   5.158   6.178   0.314
 8360SOL    HW225980   5.233   6.192   0.459
 8361SOL     OW25981   2.778   0.163   0.261
 8361SOL    HW125982   2.810   0.189   0.170
 8361SOL    HW225983   2.853   0.118   0.310
 8362SOL     OW25984   6.722   3.284   0.849
 8362SOL    HW125985   6.691   3.207   0.905
 8362SOL    HW225986   6.722   3.257   0.753
 8363SOL     OW25987   3.358   1.947   0.257
 8363SOL    HW125988   3.360   1.933   0.356
 8363SOL    HW225989   3.395   2.037   0.235
 8364SOL     OW25990   0.716   3.180   3.640
 8364SOL    HW125991   0.722   3.081   3.634
 8364SOL    HW225992   0.791   3.215   3.696
 8365SOL     OW25993   2.439   2.448   2.228
 8365SOL    HW125994   2.356   2.393   2.235
 8365SOL    HW225995   2.506   2.400   2.170
 8366SOL     OW25996   4.790   5.693   1.124
 8366SOL    HW125997   4.780   5.602   1.163
 8366SOL    HW225998   4.700   5.731   1.103
 8367SOL     OW25999   4.438   4.998   4.999
 8367SOL    HW126000   4.478   5.072   4.946
 8367SOL    HW226001   4.348   5.025   5.033
 8368SOL     OW26002   1.186   6.152   6.935
 8368SOL    HW126003   1.226   6.111   7.017
 8368SOL    HW226004   1.151   6.080   6.876
 8369SOL     OW26005   1.448   1.492   0.554
 8369SOL    HW126006   1.433   1.546   0.471
 8369SOL    HW226007   1.501   1.546   0.619
 8370SOL     OW26008   2.923   2.037   0.390
 8370SOL    HW126009   2.958   1.948   0.420
 8370SOL    HW226010   2.902   2.033   0.292
 8371SOL     OW26011   1.495   3.685   5.899
 8371SOL    HW126012   1.567   3.617   5.911
 8371SOL    HW226013   1.497   3.720   5.806
 8372SOL     OW26014   1.957   6.400   2.228
 8372SOL    HW126015   1.933   6.307   2.257
 8372SOL    HW226016   1.888   6.435   2.166
 8373SOL     OW26017   0.517   0.912   4.542
 8373SOL    HW126018   0.493   1.008   4.524
 8373SOL    HW226019   0.486   0.856   4.466
 8374SOL     OW26020   1.464   1.050   4.608
 8374SOL    HW126021   1.497   1.140   4.636
 8374SOL    HW226022   1.523   0.979   4.648
 8375SOL     OW26023   4.124   1.214   5.617
 8375SOL    HW126024   4.206   1.175   5.577
 8375SOL    HW226025   4.140   1.310   5.640
 8376SOL     OW26026   1.940   0.881   3.155
 8376SOL    HW126027   2.011   0.949   3.168
 8376SOL    HW226028   1.852   0.919   3.183
 8377SOL     OW26029   5.748   5.430   6.720
 8377SOL    HW126030   5.664   5.382   6.695
 8377SOL    HW226031   5.771   5.498   6.650
 8378SOL     OW26032   5.436   5.757   3.504
 8378SOL    HW126033   5.466   5.670   3.464
 8378SOL    HW226034   5.488   5.832   3.463
 8379SOL     OW26035   5.621   1.617   1.946
 8379SOL    HW126036   5.593   1.525   1.975
 8379SOL    HW226037   5.561   1.685   1.989
 8380SOL     OW26038   6.509   5.561   6.884
 8380SOL    HW126039   6.424   5.570   6.936
 8380SOL    HW226040   6.535   5.651   6.849
 8381SOL     OW26041   0.123   1.791   2.836
 8381SOL    HW126042   0.048   1.725   2.831
 8381SOL    HW226043   0.091   1.880   2.805
 8382SOL     OW26044   2.845   0.196   7.000
 8382SOL    HW126045   2.771   0.209   6.934
 8382SOL    HW226046   2.921   0.258   6.979
 8383SOL     OW26047   2.965   6.670   4.534
 8383SOL    HW126048   3.046   6.614   4.548
 8383SOL    HW226049   2.921   6.646   4.448
 8384SOL     OW26050   0.015   2.066   0.922
 8384SOL    HW126051   6.967   2.017   0.873
 8384SOL    HW226052   0.035   2.017   1.007
 8385SOL     OW26053   4.770   3.316   0.742
 8385SOL    HW126054   4.704   3.251   0.704
 8385SOL    HW226055   4.747   3.335   0.837
 8386SOL     OW26056   2.172   6.260   1.540
 8386SOL    HW126057   2.247   6.319   1.569
 8386SOL    HW226058   2.194   6.165   1.563
 8387SOL     OW26059   2.289   1.532   0.811
 8387SOL    HW126060   2.225   1.465   0.848
 8387SOL    HW226061   2.278   1.538   0.712
 8388SOL     OW26062   3.120   6.642   0.545
 8388SOL    HW126063   3.146   6.593   0.628
 8388SOL    HW226064   3.039   6.599   0.506
 8389SOL     OW26065   0.969   2.860   4.482
 8389SOL    HW126066   0.943   2.776   4.436
 8389SOL    HW226067   0.975   2.935   4.416
 8390SOL     OW26068   2.346   0.755   6.090
 8390SOL    HW126069   2.294   0.830   6.130
 8390SOL    HW226070   2.398   0.789   6.011
 8391SOL     OW26071   5.182   5.729   2.177
 8391SOL    HW126072   5.174   5.807   2.240
 8391SOL    HW226073   5.263   5.675   2.200
 8392SOL     OW26074   5.850   5.742   5.006
 8392SOL    HW126075   5.830   5.645   5.022
 8392SOL    HW226076   5.857   5.758   4.907
 8393SOL     OW26077   6.717   6.515   3.134
 8393SOL    HW126078   6.746   6.478   3.046
 8393SOL    HW226079   6.628   6.477   3.159
 8394SOL     OW26080   0.733   1.538   2.753
 8394SOL    HW126081   0.705   1.504   2.843
 8394SOL    HW226082   0.816   1.592   2.762
 8395SOL     OW26083   0.439   6.116   4.556
 8395SOL    HW126084   0.425   6.213   4.535
 8395SOL    HW226085   0.536   6.099   4.568
 8396SOL     OW26086   4.845   4.231   2.805
 8396SOL    HW126087   4.853   4.315   2.858
 8396SOL    HW226088   4.876   4.247   2.711
 8397SOL     OW26089   1.808   6.348   2.571
 8397SOL    HW126090   1.764   6.415   2.631
 8397SOL    HW226091   1.898   6.382   2.545
 8398SOL     OW26092   3.847   1.561   6.731
 8398SOL    HW126093   3.808   1.529   6.645
 8398SOL    HW226094   3.783   1.625   6.774
 8399SOL     OW26095   5.740   5.769   0.479
 8399SOL    HW126096   5.813   5.700   0.483
 8399SOL    HW226097   5.731   5.803   0.386
 8400SOL     OW26098   0.286   0.775   3.065
 8400SOL    HW126099   0.279   0.871   3.037
 8400SOL    HW226100   0.348   0.727   3.003
 8401SOL     OW26101   4.069   3.768   6.054
 8401SOL    HW126102   4.031   3.764   5.961
 8401SOL    HW226103   4.082   3.863   6.080
 8402SOL     OW26104   3.846   2.210   6.352
 8402SOL    HW126105   3.926   2.155   6.327
 8402SOL    HW226106   3.778   2.153   6.397
 8403SOL     OW26107   1.177   1.490   3.877
 8403SOL    HW126108   1.167   1.405   3.825
 8403SOL    HW226109   1.185   1.567   3.814
 8404SOL     OW26110   4.830   6.212   5.485
 8404SOL    HW126111   4.820   6.311   5.493
 8404SOL    HW226112   4.865   6.175   5.571
 8405SOL     OW26113   0.843   2.319   6.581
 8405SOL    HW126114   0.801   2.383   6.646
 8405SOL    HW226115   0.937   2.301   6.608
 8406SOL     OW26116   4.332   1.773   0.832
 8406SOL    HW126117   4.316   1.871   0.818
 8406SOL    HW226118   4.422   1.760   0.874
 8407SOL     OW26119   5.772   4.410   3.982
 8407SOL    HW126120   5.805   4.454   3.899
 8407SOL    HW226121   5.682   4.446   4.006
 8408SOL     OW26122   5.031   0.505   3.836
 8408SOL    HW126123   4.946   0.485   3.787
 8408SOL    HW226124   5.010   0.524   3.932
 8409SOL     OW26125   0.939   2.049   4.129
 8409SOL    HW126126   0.901   1.958   4.111
 8409SOL    HW226127   1.034   2.040   4.158
 8410SOL     OW26128   5.336   0.085   1.839
 8410SOL    HW126129   5.287   0.000   1.822
 8410SOL    HW226130   5.295   0.159   1.786
 8411SOL     OW26131   1.505   5.139   4.022
 8411SOL    HW126132   1.529   5.235   4.012
 8411SOL    HW226133   1.576   5.092   4.073
 8412SOL     OW26134   4.474   2.318   1.317
 8412SOL    HW126135   4.571   2.295   1.325
 8412SOL    HW226136   4.462   2.417   1.325
 8413SOL     OW26137   3.848   4.983   0.728
 8413SOL    HW126138   3.776   4.973   0.796
 8413SOL    HW226139   3.829   4.922   0.650
 8414SOL     OW26140   3.727   6.748   2.500
 8414SOL    HW126141   3.777   6.726   2.583
 8414SOL    HW226142   3.632   6.771   2.523
 8415SOL     OW26143   0.312   4.567   3.688
 8415SOL    HW126144   0.283   4.661   3.675
 8415SOL    HW226145   0.403   4.565   3.730
 8416SOL     OW26146   5.573   4.339   2.376
 8416SOL    HW126147   5.601   4.259   2.323
 8416SOL    HW226148   5.512   4.396   2.321
 8417SOL     OW26149   2.714   6.496   5.656
 8417SOL    HW126150   2.669   6.414   5.621
 8417SOL    HW226151   2.727   6.562   5.582
 8418SOL     OW26152   5.741   5.914   2.836
 8418SOL    HW126153   5.803   5.858   2.890
 8418SOL    HW226154   5.730   5.873   2.745
 8419SOL     OW26155   5.024   0.050   1.904
 8419SOL    HW126156   4.968   0.132   1.886
 8419SOL    HW226157   5.014   0.023   1.999
 8420SOL     OW26158   4.460   0.430   0.183
 8420SOL    HW126159   4.373   0.417   0.135
 8420SOL    HW226160   4.525   0.361   0.153
 8421SOL     OW26161   1.951   0.408   1.678
 8421SOL    HW126162   2.048   0.417   1.657
 8421SOL    HW226163   1.936   0.328   1.736
 8422SOL     OW26164   5.430   6.255   0.294
 8422SOL    HW126165   5.477   6.337   0.262
 8422SOL    HW226166   5.386   6.275   0.382
 8423SOL     OW26167   3.681   4.952   7.019
 8423SOL    HW126168   3.632   4.916   6.940
 8423SOL    HW226169   3.696   5.050   7.008
 8424SOL     OW26170   3.790   2.183   2.476
 8424SOL    HW126171   3.718   2.118   2.449
 8424SOL    HW226172   3.749   2.272   2.495
 8425SOL     OW26173   6.712   5.234   1.349
 8425SOL    HW126174   6.794   5.267   1.303
 8425SOL    HW226175   6.719   5.250   1.447
 8426SOL     OW26176   3.415   3.112   3.645
 8426SOL    HW126177   3.400   3.139   3.550
 8426SOL    HW226178   3.488   3.044   3.649
 8427SOL     OW26179   1.837   4.406   6.448
 8427SOL    HW126180   1.895   4.387   6.527
 8427SOL    HW226181   1.840   4.328   6.385
 8428SOL     OW26182   6.931   4.357   2.047
 8428SOL    HW126183   7.024   4.387   2.023
 8428SOL    HW226184   6.875   4.353   1.964
 8429SOL     OW26185   2.724   4.804   4.360
 8429SOL    HW126186   2.678   4.719   4.333
 8429SOL    HW226187   2.735   4.805   4.460
 8430SOL     OW26188   4.806   5.068   2.632
 8430SOL    HW126189   4.891   5.115   2.609
 8430SOL    HW226190   4.812   4.972   2.604
 8431SOL     OW26191   3.297   4.814   1.395
 8431SOL    HW126192   3.270   4.754   1.470
 8431SOL    HW226193   3.277   4.770   1.308
 8432SOL     OW26194   4.407   5.630   5.962
 8432SOL    HW126195   4.356   5.709   5.996
 8432SOL    HW226196   4.427   5.642   5.865
 8433SOL     OW26197   1.142   2.572   6.633
 8433SOL    HW126198   1.085   2.534   6.561
 8433SOL    HW226199   1.102   2.657   6.667
 8434SOL     OW26200   3.815   6.636   5.366
 8434SOL    HW126201   3.773   6.606   5.281
 8434SOL    HW226202   3.913   6.647   5.353
 8435SOL     OW26203   4.491   2.024   1.206
 8435SOL    HW126204   4.463   1.953   1.271
 8435SOL    HW226205   4.497   2.112   1.253
 8436SOL     OW26206   3.797   4.909   3.084
 8436SOL    HW126207   3.861   4.983   3.106
 8436SOL    HW226208   3.725   4.944   3.024
 8437SOL     OW26209   0.509   0.797   1.402
 8437SOL    HW126210   0.449   0.719   1.416
 8437SOL    HW226211   0.602   0.765   1.385
 8438SOL     OW26212   2.939   4.813   2.446
 8438SOL    HW126213   2.916   4.909   2.427
 8438SOL    HW226214   2.887   4.754   2.384
 8439SOL     OW26215   6.433   5.669   2.013
 8439SOL    HW126216   6.490   5.596   1.976
 8439SOL    HW226217   6.479   5.713   2.089
 8440SOL     OW26218   0.216   0.751   2.230
 8440SOL    HW126219   0.290   0.684   2.228
 8440SOL    HW226220   0.252   0.841   2.207
 8441SOL     OW26221   5.643   6.141   6.549
 8441SOL    HW126222   5.595   6.107   6.631
 8441SOL    HW226223   5.724   6.192   6.577
 8442SOL     OW26224   3.113   3.691   6.971
 8442SOL    HW126225   3.210   3.703   6.949
 8442SOL    HW226226   3.057   3.718   6.892
 8443SOL     OW26227   0.957   0.358   3.327
 8443SOL    HW126228   0.899   0.431   3.363
 8443SOL    HW226229   0.943   0.350   3.228
 8444SOL     OW26230   3.427   6.149   3.886
 8444SOL    HW126231   3.381   6.214   3.824
 8444SOL    HW226232   3.405   6.172   3.980
 8445SOL     OW26233   3.415   5.016   2.490
 8445SOL    HW126234   3.334   4.959   2.502
 8445SOL    HW226235   3.407   5.068   2.405
 8446SOL     OW26236   5.248   6.125   2.840
 8446SOL    HW126237   5.224   6.218   2.869
 8446SOL    HW226238   5.300   6.079   2.913
 8447SOL     OW26239   5.513   2.385   1.920
 8447SOL    HW126240   5.536   2.415   1.827
 8447SOL    HW226241   5.576   2.312   1.948
 8448SOL     OW26242   0.200   3.745   6.121
 8448SOL    HW126243   0.226   3.692   6.201
 8448SOL    HW226244   0.106   3.779   6.132
 8449SOL     OW26245   0.423   3.321   4.763
 8449SOL    HW126246   0.455   3.303   4.671
 8449SOL    HW226247   0.339   3.270   4.780
 8450SOL     OW26248   1.937   6.649   2.750
 8450SOL    HW126249   1.910   6.743   2.733
 8450SOL    HW226250   1.855   6.592   2.759
 8451SOL     OW26251   3.910   2.629   0.783
 8451SOL    HW126252   3.828   2.686   0.778
 8451SOL    HW226253   3.930   2.609   0.879
 8452SOL     OW26254   0.152   6.905   1.702
 8452SOL    HW126255   0.108   6.886   1.790
 8452SOL    HW226256   0.194   6.996   1.705
 8453SOL     OW26257   6.838   4.802   6.395
 8453SOL    HW126258   6.905   4.820   6.467
 8453SOL    HW226259   6.776   4.881   6.387
 8454SOL     OW26260   1.970   6.736   2.413
 8454SOL    HW126261   1.954   6.654   2.467
 8454SOL    HW226262   1.951   6.817   2.468
 8455SOL     OW26263   4.992   1.417   1.091
 8455SOL    HW126264   4.981   1.513   1.065
 8455SOL    HW226265   4.905   1.382   1.126
 8456SOL     OW26266   5.917   5.818   3.886
 8456SOL    HW126267   5.913   5.890   3.955
 8456SOL    HW226268   6.012   5.800   3.861
 8457SOL     OW26269   6.650   6.800   5.423
 8457SOL    HW126270   6.620   6.823   5.330
 8457SOL    HW226271   6.694   6.880   5.465
 8458SOL     OW26272   1.768   1.291   7.012
 8458SOL    HW126273   1.724   1.336   6.934
 8458SOL    HW226274   1.865   1.316   7.014
 8459SOL     OW26275   3.754   6.430   2.274
 8459SOL    HW126276   3.716   6.519   2.248
 8459SOL    HW226277   3.729   6.362   2.205
 8460SOL     OW26278   4.421   2.878   6.688
 8460SOL    HW126279   4.345   2.879   6.753
 8460SOL    HW226280   4.471   2.791   6.696
 8461SOL     OW26281   0.790   3.720   1.598
 8461SOL    HW126282   0.871   3.755   1.646
 8461SOL    HW226283   0.805   3.727   1.499
 8462SOL     OW26284   4.013   3.384   0.676
 8462SOL    HW126285   3.919   3.383   0.709
 8462SOL    HW226286   4.069   3.322   0.732
 8463SOL     OW26287   6.388   2.427   0.422
 8463SOL    HW126288   6.407   2.400   0.328
 8463SOL    HW226289   6.438   2.511   0.444
 8464SOL     OW26290   6.939   3.305   6.132
 8464SOL    HW126291   6.961   3.230   6.194
 8464SOL    HW226292   7.010   3.376   6.140
 8465SOL     OW26293   2.982   2.749   0.880
 8465SOL    HW126294   3.032   2.667   0.906
 8465SOL    HW226295   2.885   2.728   0.870
 8466SOL     OW26296   5.877   0.473   5.331
 8466SOL    HW126297   5.903   0.393   5.277
 8466SOL    HW226298   5.797   0.516   5.290
 8467SOL     OW26299   3.932   0.665   0.561
 8467SOL    HW126300   3.927   0.751   0.511
 8467SOL    HW226301   3.840   0.636   0.587
 8468SOL     OW26302   6.230   3.473   6.300
 8468SOL    HW126303   6.138   3.504   6.276
 8468SOL    HW226304   6.225   3.417   6.383
 8469SOL     OW26305   3.753   2.935   6.547
 8469SOL    HW126306   3.711   2.935   6.638
 8469SOL    HW226307   3.817   2.859   6.540
 8470SOL     OW26308   1.060   4.904   0.415
 8470SOL    HW126309   0.961   4.897   0.428
 8470SOL    HW226310   1.081   4.911   0.318
 8471SOL     OW26311   3.383   0.577   5.258
 8471SOL    HW126312   3.421   0.503   5.203
 8471SOL    HW226313   3.458   0.626   5.303
 8472SOL     OW26314   6.237   1.727   5.714
 8472SOL    HW126315   6.162   1.791   5.701
 8472SOL    HW226316   6.296   1.760   5.788
 8473SOL     OW26317   4.354   4.491   6.847
 8473SOL    HW126318   4.295   4.463   6.922
 8473SOL    HW226319   4.376   4.412   6.790
 8474SOL     OW26320   2.948   3.808   2.911
 8474SOL    HW126321   2.941   3.711   2.935
 8474SOL    HW226322   2.882   3.830   2.840
 8475SOL     OW26323   0.431   3.236   1.320
 8475SOL    HW126324   0.410   3.260   1.225
 8475SOL    HW226325   0.397   3.144   1.340
 8476SOL     OW26326   6.454   0.731   1.051
 8476SOL    HW126327   6.368   0.773   1.082
 8476SOL    HW226328   6.513   0.802   1.012
 8477SOL     OW26329   5.609   5.705   1.956
 8477SOL    HW126330   5.562   5.752   1.881
 8477SOL    HW226331   5.654   5.623   1.922
 8478SOL     OW26332   0.836   0.749   5.784
 8478SOL    HW126333   0.820   0.712   5.692
 8478SOL    HW226334   0.752   0.793   5.816
 8479SOL     OW26335   1.725   2.474   1.318
 8479SOL    HW126336   1.670   2.525   1.252
 8479SOL    HW226337   1.818   2.465   1.284
 8480SOL     OW26338   5.115   2.918   6.582
 8480SOL    HW126339   5.131   2.850   6.654
 8480SOL    HW226340   5.017   2.928   6.567
 8481SOL     OW26341   3.809   2.108   4.596
 8481SOL    HW126342   3.900   2.151   4.595
 8481SOL    HW226343   3.760   2.133   4.513
 8482SOL     OW26344   4.273   1.095   0.291
 8482SOL    HW126345   4.338   1.152   0.341
 8482SOL    HW226346   4.323   1.035   0.228
 8483SOL     OW26347   3.059   6.296   3.796
 8483SOL    HW126348   3.037   6.247   3.880
 8483SOL    HW226349   3.001   6.377   3.788
 8484SOL     OW26350   6.276   5.976   4.939
 8484SOL    HW126351   6.228   5.980   4.851
 8484SOL    HW226352   6.211   5.952   5.011
 8485SOL     OW26353   3.959   2.607   0.173
 8485SOL    HW126354   4.058   2.591   0.169
 8485SOL    HW226355   3.929   2.602   0.268
 8486SOL     OW26356   1.931   1.420   2.364
 8486SOL    HW126357   1.941   1.428   2.463
 8486SOL    HW226358   2.020   1.400   2.323
 8487SOL     OW26359   4.885   1.499   5.908
 8487SOL    HW126360   4.962   1.440   5.932
 8487SOL    HW226361   4.866   1.490   5.810
 8488SOL     OW26362   5.825   5.535   3.530
 8488SOL    HW126363   5.828   5.622   3.580
 8488SOL    HW226364   5.770   5.469   3.582
 8489SOL     OW26365   6.005   0.287   1.521
 8489SOL    HW126366   5.955   0.205   1.546
 8489SOL    HW226367   5.984   0.360   1.586
 8490SOL     OW26368   3.556   6.717   5.669
 8490SOL    HW126369   3.530   6.671   5.584
 8490SOL    HW226370   3.545   6.655   5.746
 8491SOL     OW26371   2.275   5.970   2.724
 8491SOL    HW126372   2.320   6.059   2.734
 8491SOL    HW226373   2.203   5.977   2.655
 8492SOL     OW26374   6.098   4.859   3.725
 8492SOL    HW126375   6.073   4.953   3.748
 8492SOL    HW226376   6.015   4.806   3.704
 8493SOL     OW26377   2.516   1.272   0.245
 8493SOL    HW126378   2.606   1.259   0.204
 8493SOL    HW226379   2.477   1.182   0.266
 8494SOL     OW26380   5.375   4.561   1.937
 8494SOL    HW126381   5.387   4.661   1.942
 8494SOL    HW226382   5.282   4.540   1.908
 8495SOL     OW26383   0.061   5.764   0.541
 8495SOL    HW126384   0.132   5.698   0.567
 8495SOL    HW226385   0.057   5.837   0.609
 8496SOL     OW26386   5.094   1.035   2.349
 8496SOL    HW126387   5.124   1.062   2.258
 8496SOL    HW226388   5.119   1.107   2.415
 8497SOL     OW26389   0.659   0.270   3.676
 8497SOL    HW126390   0.644   0.276   3.775
 8497SOL    HW226391   0.616   0.187   3.641
 8498SOL     OW26392   5.781   0.392   3.673
 8498SOL    HW126393   5.733   0.447   3.605
 8498SOL    HW226394   5.745   0.412   3.764
 8499SOL     OW26395   0.784   5.390   0.677
 8499SOL    HW126396   0.815   5.324   0.745
 8499SOL    HW226397   0.844   5.386   0.597
 8500SOL     OW26398   1.821   6.742   6.001
 8500SOL    HW126399   1.866   6.681   6.065
 8500SOL    HW226400   1.722   6.740   6.017
 8501SOL     OW26401   0.380   2.211   0.333
 8501SOL    HW126402   0.392   2.289   0.394
 8501SOL    HW226403   0.328   2.241   0.252
 8502SOL     OW26404   0.737   2.628   0.240
 8502SOL    HW126405   0.652   2.622   0.292
 8502SOL    HW226406   0.754   2.723   0.213
 8503SOL     OW26407   6.601   5.232   4.813
 8503SOL    HW126408   6.690   5.256   4.851
 8503SOL    HW226409   6.528   5.272   4.869
 8504SOL     OW26410   1.608   5.641   2.239
 8504SOL    HW126411   1.616   5.598   2.329
 8504SOL    HW226412   1.667   5.721   2.235
 8505SOL     OW26413   5.229   3.913   2.432
 8505SOL    HW126414   5.267   3.887   2.343
 8505SOL    HW226415   5.135   3.945   2.420
 8506SOL     OW26416   1.609   1.371   6.795
 8506SOL    HW126417   1.670   1.441   6.759
 8506SOL    HW226418   1.576   1.313   6.720
 8507SOL     OW26419   4.517   0.369   4.772
 8507SOL    HW126420   4.423   0.348   4.748
 8507SOL    HW226421   4.578   0.303   4.728
 8508SOL     OW26422   3.964   1.782   6.041
 8508SOL    HW126423   3.865   1.772   6.040
 8508SOL    HW226424   4.002   1.731   6.118
 8509SOL     OW26425   5.242   6.832   3.531
 8509SOL    HW126426   5.313   6.855   3.464
 8509SOL    HW226427   5.285   6.789   3.610
 8510SOL     OW26428   5.511   2.817   3.670
 8510SOL    HW126429   5.492   2.779   3.579
 8510SOL    HW226430   5.459   2.902   3.682
 8511SOL     OW26431   5.985   3.549   2.199
 8511SOL    HW126432   6.080   3.565   2.172
 8511SOL    HW226433   5.974   3.571   2.296
 8512SOL     OW26434   2.041   0.432   2.933
 8512SOL    HW126435   2.021   0.334   2.926
 8512SOL    HW226436   2.107   0.458   2.863
 8513SOL     OW26437   6.224   6.460   0.235
 8513SOL    HW126438   6.298   6.526   0.240
 8513SOL    HW226439   6.260   6.368   0.249
 8514SOL     OW26440   3.308   6.363   3.094
 8514SOL    HW126441   3.230   6.424   3.077
 8514SOL    HW226442   3.282   6.295   3.163
 8515SOL     OW26443   5.517   2.874   1.104
 8515SOL    HW126444   5.579   2.850   1.030
 8515SOL    HW226445   5.531   2.970   1.130
 8516SOL     OW26446   6.416   1.804   3.013
 8516SOL    HW126447   6.437   1.776   2.919
 8516SOL    HW226448   6.356   1.884   3.010
 8517SOL     OW26449   0.655   2.205   6.917
 8517SOL    HW126450   0.619   2.122   6.960
 8517SOL    HW226451   0.667   2.275   6.986
 8518SOL     OW26452   4.150   5.252   0.568
 8518SOL    HW126453   4.134   5.234   0.665
 8518SOL    HW226454   4.246   5.274   0.554
 8519SOL     OW26455   2.186   5.729   2.196
 8519SOL    HW126456   2.207   5.750   2.291
 8519SOL    HW226457   2.240   5.788   2.136
 8520SOL     OW26458   3.887   1.049   0.828
 8520SOL    HW126459   3.788   1.040   0.820
 8520SOL    HW226460   3.909   1.110   0.905
 8521SOL     OW26461   0.758   6.166   6.163
 8521SOL    HW126462   0.732   6.261   6.177
 8521SOL    HW226463   0.771   6.121   6.252
 8522SOL     OW26464   1.593   6.802   2.713
 8522SOL    HW126465   1.595   6.896   2.678
 8522SOL    HW226466   1.498   6.774   2.729
 8523SOL     OW26467   2.280   0.158   5.508
 8523SOL    HW126468   2.295   0.091   5.582
 8523SOL    HW226469   2.351   0.146   5.439
 8524SOL     OW26470   1.447   3.206   4.767
 8524SOL    HW126471   1.447   3.301   4.798
 8524SOL    HW226472   1.529   3.160   4.801
 8525SOL     OW26473   6.061   3.160   3.064
 8525SOL    HW126474   6.063   3.096   2.987
 8525SOL    HW226475   6.126   3.130   3.133
 8526SOL     OW26476   2.529   2.769   1.588
 8526SOL    HW126477   2.470   2.808   1.658
 8526SOL    HW226478   2.484   2.776   1.499
 8527SOL     OW26479   4.522   0.582   4.010
 8527SOL    HW126480   4.532   0.621   4.101
 8527SOL    HW226481   4.531   0.482   4.015
 8528SOL     OW26482   5.017   3.358   6.482
 8528SOL    HW126483   4.949   3.308   6.536
 8528SOL    HW226484   5.094   3.298   6.461
 8529SOL     OW26485   1.877   5.862   0.157
 8529SOL    HW126486   1.802   5.863   0.091
 8529SOL    HW226487   1.964   5.866   0.109
 8530SOL     OW26488   1.596   4.810   5.281
 8530SOL    HW126489   1.606   4.719   5.321
 8530SOL    HW226490   1.578   4.802   5.183
 8531SOL     OW26491   5.392   3.977   3.084
 8531SOL    HW126492   5.294   3.960   3.076
 8531SOL    HW226493   5.439   3.940   3.004
 8532SOL     OW26494   3.861   4.855   5.254
 8532SOL    HW126495   3.831   4.891   5.166
 8532SOL    HW226496   3.947   4.805   5.242
 8533SOL     OW26497   2.524   1.241   4.547
 8533SOL    HW126498   2.604   1.297   4.574
 8533SOL    HW226499   2.452   1.301   4.512
 8534SOL     OW26500   0.884   3.790   2.914
 8534SOL    HW126501   0.967   3.833   2.878
 8534SOL    HW226502   0.816   3.861   2.932
 8535SOL     OW26503   0.929   2.217   4.838
 8535SOL    HW126504   0.930   2.157   4.758
 8535SOL    HW226505   0.930   2.161   4.921
 8536SOL     OW26506   6.712   2.335   5.236
 8536SOL    HW126507   6.769   2.354   5.316
 8536SOL    HW226508   6.762   2.362   5.153
 8537SOL     OW26509   5.733   0.599   0.830
 8537SOL    HW126510   5.810   0.627   0.887
 8537SOL    HW226511   5.742   0.640   0.740
 8538SOL     OW26512   0.148   0.337   5.281
 8538SOL    HW126513   0.214   0.353   5.354
 8538SOL    HW226514   0.196   0.324   5.194
 8539SOL     OW26515   0.050   2.140   1.958
 8539SOL    HW126516   0.089   2.055   1.923
 8539SOL    HW226517   0.050   2.138   2.058
 8540SOL     OW26518   2.808   0.971   0.471
 8540SOL    HW126519   2.816   1.060   0.515
 8540SOL    HW226520   2.824   0.899   0.539
 8541SOL     OW26521   2.734   1.180   5.257
 8541SOL    HW126522   2.667   1.247   5.288
 8541SOL    HW226523   2.763   1.202   5.163
 8542SOL     OW26524   2.861   4.484   6.854
 8542SOL    HW126525   2.814   4.399   6.876
 8542SOL    HW226526   2.796   4.550   6.817
 8543SOL     OW26527   2.885   1.997   5.506
 8543SOL    HW126528   2.954   1.930   5.478
 8543SOL    HW226529   2.896   2.080   5.452
 8544SOL     OW26530   4.752   3.977   5.230
 8544SOL    HW126531   4.776   4.029   5.312
 8544SOL    HW226532   4.741   4.040   5.153
 8545SOL     OW26533   3.559   6.953   4.763
 8545SOL    HW126534   3.624   6.880   4.741
 8545SOL    HW226535   3.607   0.016   4.762
 8546SOL     OW26536   5.791   0.142   1.607
 8546SOL    HW126537   5.752   0.232   1.586
 8546SOL    HW226538   5.732   0.096   1.674
 8547SOL     OW26539   6.636   6.843   6.039
 8547SOL    HW126540   6.644   6.897   5.955
 8547SOL    HW226541   6.574   6.890   6.102
 8548SOL     OW26542   0.360   2.838   6.242
 8548SOL    HW126543   0.439   2.899   6.231
 8548SOL    HW226544   0.373   2.781   6.324
 8549SOL     OW26545   1.636   1.056   3.717
 8549SOL    HW126546   1.651   0.961   3.692
 8549SOL    HW226547   1.722   1.107   3.712
 8550SOL     OW26548   0.703   4.676   6.814
 8550SOL    HW126549   0.629   4.709   6.871
 8550SOL    HW226550   0.666   4.615   6.743
 8551SOL     OW26551   1.589   2.220   6.331
 8551SOL    HW126552   1.570   2.318   6.344
 8551SOL    HW226553   1.644   2.186   6.407
 8552SOL     OW26554   3.020   1.017   2.440
 8552SOL    HW126555   2.992   1.097   2.494
 8552SOL    HW226556   3.100   0.975   2.482
 8553SOL     OW26557   4.429   2.887   1.286
 8553SOL    HW126558   4.424   2.954   1.211
 8553SOL    HW226559   4.368   2.915   1.360
 8554SOL     OW26560   0.893   6.851   0.960
 8554SOL    HW126561   0.914   6.756   0.984
 8554SOL    HW226562   0.967   6.888   0.904
 8555SOL     OW26563   4.277   1.563   3.731
 8555SOL    HW126564   4.197   1.553   3.672
 8555SOL    HW226565   4.352   1.606   3.680
 8556SOL     OW26566   2.116   5.994   6.429
 8556SOL    HW126567   2.171   6.032   6.504
 8556SOL    HW226568   2.085   5.903   6.454
 8557SOL     OW26569   6.605   0.828   0.295
 8557SOL    HW126570   6.518   0.852   0.253
 8557SOL    HW226571   6.600   0.736   0.334
 8558SOL     OW26572   2.594   4.657   3.179
 8558SOL    HW126573   2.512   4.601   3.169
 8558SOL    HW226574   2.650   4.651   3.096
 8559SOL     OW26575   0.869   5.302   2.083
 8559SOL    HW126576   0.967   5.296   2.104
 8559SOL    HW226577   0.846   5.237   2.010
 8560SOL     OW26578   2.250   5.055   1.445
 8560SOL    HW126579   2.173   5.116   1.464
 8560SOL    HW226580   2.334   5.095   1.482
 8561SOL     OW26581   3.506   0.415   3.049
 8561SOL    HW126582   3.599   0.451   3.055
 8561SOL    HW226583   3.495   0.364   2.963
 8562SOL     OW26584   3.773   1.237   0.123
 8562SOL    HW126585   3.746   1.329   0.093
 8562SOL    HW226586   3.707   1.170   0.090
 8563SOL     OW26587   1.698   5.635   2.857
 8563SOL    HW126588   1.606   5.623   2.818
 8563SOL    HW226589   1.715   5.732   2.873
 8564SOL     OW26590   3.678   6.429   0.063
 8564SOL    HW126591   3.774   6.425   0.089
 8564SOL    HW226592   3.652   6.344   0.017
 8565SOL     OW26593   3.393   5.678   1.263
 8565SOL    HW126594   3.408   5.654   1.359
 8565SOL    HW226595   3.357   5.599   1.214
 8566SOL     OW26596   2.836   1.097   3.149
 8566SOL    HW126597   2.827   1.187   3.108
 8566SOL    HW226598   2.932   1.080   3.173
 8567SOL     OW26599   1.639   1.768   1.532
 8567SOL    HW126600   1.581   1.845   1.503
 8567SOL    HW226601   1.735   1.795   1.527
 8568SOL     OW26602   0.104   1.450   0.468
 8568SOL    HW126603   0.026   1.408   0.514
 8568SOL    HW226604   0.154   1.381   0.416
 8569SOL     OW26605   5.366   2.567   5.963
 8569SOL    HW126606   5.358   2.648   6.020
 8569SOL    HW226607   5.341   2.590   5.869
 8570SOL     OW26608   1.233   2.325   5.295
 8570SOL    HW126609   1.144   2.369   5.294
 8570SOL    HW226610   1.282   2.348   5.379
 8571SOL     OW26611   1.525   1.058   4.326
 8571SOL    HW126612   1.510   1.039   4.423
 8571SOL    HW226613   1.563   1.150   4.315
 8572SOL     OW26614   3.278   4.018   5.773
 8572SOL    HW126615   3.363   3.967   5.763
 8572SOL    HW226616   3.252   4.056   5.684
 8573SOL     OW26617   3.140   5.937   0.621
 8573SOL    HW126618   3.116   6.034   0.626
 8573SOL    HW226619   3.105   5.890   0.702
 8574SOL     OW26620   6.964   6.327   5.888
 8574SOL    HW126621   6.918   6.241   5.868
 8574SOL    HW226622   7.024   6.315   5.967
 8575SOL     OW26623   3.723   6.958   2.796
 8575SOL    HW126624   3.708   0.016   2.741
 8575SOL    HW226625   3.679   6.970   2.885
 8576SOL     OW26626   1.005   3.841   4.318
 8576SOL    HW126627   1.046   3.783   4.248
 8576SOL    HW226628   1.049   3.824   4.406
 8577SOL     OW26629   1.794   0.844   6.129
 8577SOL    HW126630   1.849   0.807   6.205
 8577SOL    HW226631   1.854   0.859   6.050
 8578SOL     OW26632   6.174   6.245   5.167
 8578SOL    HW126633   6.130   6.156   5.152
 8578SOL    HW226634   6.187   6.260   5.264
 8579SOL     OW26635   2.778   5.943   2.209
 8579SOL    HW126636   2.805   5.889   2.289
 8579SOL    HW226637   2.859   5.964   2.154
 8580SOL     OW26638   1.215   6.158   1.366
 8580SOL    HW126639   1.215   6.151   1.266
 8580SOL    HW226640   1.293   6.107   1.402
 8581SOL     OW26641   3.636   5.078   1.306
 8581SOL    HW126642   3.659   5.171   1.333
 8581SOL    HW226643   3.604   5.027   1.386
 8582SOL     OW26644   4.200   4.657   5.594
 8582SOL    HW126645   4.106   4.651   5.628
 8582SOL    HW226646   4.254   4.581   5.631
 8583SOL     OW26647   4.175   0.776   3.273
 8583SOL    HW126648   4.168   0.872   3.245
 8583SOL    HW226649   4.139   0.766   3.366
 8584SOL     OW26650   6.151   1.512   4.548
 8584SOL    HW126651   6.100   1.450   4.608
 8584SOL    HW226652   6.174   1.595   4.598
 8585SOL     OW26653   5.778   2.081   1.240
 8585SOL    HW126654   5.723   2.085   1.324
 8585SOL    HW226655   5.847   2.009   1.249
 8586SOL     OW26656   5.787   5.799   1.047
 8586SOL    HW126657   5.751   5.885   1.010
 8586SOL    HW226658   5.734   5.723   1.011
 8587SOL     OW26659   1.161   1.511   5.635
 8587SOL    HW126660   1.168   1.411   5.642
 8587SOL    HW226661   1.071   1.536   5.600
 8588SOL     OW26662   3.683   1.525   6.478
 8588SOL    HW126663   3.605   1.582   6.452
 8588SOL    HW226664   3.657   1.428   6.471
 8589SOL     OW26665   6.742   3.553   5.435
 8589SOL    HW126666   6.832   3.513   5.423
 8589SOL    HW226667   6.679   3.485   5.472
 8590SOL     OW26668   6.740   1.421   2.849
 8590SOL    HW126669   6.646   1.440   2.878
 8590SOL    HW226670   6.795   1.398   2.930
 8591SOL     OW26671   6.634   5.089   0.242
 8591SOL    HW126672   6.616   5.000   0.199
 8591SOL    HW226673   6.563   5.109   0.309
 8592SOL     OW26674   0.508   2.459   6.723
 8592SOL    HW126675   0.452   2.457   6.806
 8592SOL    HW226676   0.526   2.365   6.693
 8593SOL     OW26677   2.979   0.754   6.614
 8593SOL    HW126678   2.993   0.727   6.519
 8593SOL    HW226679   3.066   0.749   6.663
 8594SOL     OW26680   6.038   2.757   6.298
 8594SOL    HW126681   6.130   2.736   6.266
 8594SOL    HW226682   5.981   2.783   6.220
 8595SOL     OW26683   5.318   7.015   2.850
 8595SOL    HW126684   5.222   6.989   2.861
 8595SOL    HW226685   5.326   0.054   2.774
 8596SOL     OW26686   0.935   3.231   3.287
 8596SOL    HW126687   0.977   3.219   3.377
 8596SOL    HW226688   0.984   3.175   3.220
 8597SOL     OW26689   6.709   3.020   0.921
 8597SOL    HW126690   6.662   2.936   0.894
 8597SOL    HW226691   6.735   3.015   1.017
 8598SOL     OW26692   5.871   0.936   4.790
 8598SOL    HW126693   5.937   0.873   4.831
 8598SOL    HW226694   5.781   0.920   4.830
 8599SOL     OW26695   1.389   3.532   3.134
 8599SOL    HW126696   1.434   3.461   3.080
 8599SOL    HW226697   1.441   3.617   3.127
 8600SOL     OW26698   4.578   3.898   1.003
 8600SOL    HW126699   4.657   3.879   1.062
 8600SOL    HW226700   4.537   3.811   0.973
 8601SOL     OW26701   0.627   1.295   4.024
 8601SOL    HW126702   0.656   1.204   4.053
 8601SOL    HW226703   0.679   1.322   3.943
 8602SOL     OW26704   2.788   6.815   3.752
 8602SOL    HW126705   2.838   6.849   3.832
 8602SOL    HW226706   2.691   6.835   3.763
 8603SOL     OW26707   6.374   0.904   0.129
 8603SOL    HW126708   6.318   0.827   0.160
 8603SOL    HW226709   6.316   0.970   0.081
 8604SOL     OW26710   0.559   3.541   6.244
 8604SOL    HW126711   0.470   3.556   6.287
 8604SOL    HW226712   0.609   3.628   6.241
 8605SOL     OW26713   0.505   4.570   4.441
 8605SOL    HW126714   0.589   4.581   4.387
 8605SOL    HW226715   0.511   4.486   4.495
 8606SOL     OW26716   2.721   1.910   6.639
 8606SOL    HW126717   2.632   1.951   6.660
 8606SOL    HW226718   2.707   1.824   6.590
 8607SOL     OW26719   2.221   4.813   1.369
 8607SOL    HW126720   2.304   4.769   1.335
 8607SOL    HW226721   2.242   4.905   1.402
 8608SOL     OW26722   2.405   4.498   2.528
 8608SOL    HW126723   2.446   4.537   2.446
 8608SOL    HW226724   2.384   4.402   2.513
 8609SOL     OW26725   4.879   1.225   3.901
 8609SOL    HW126726   4.958   1.271   3.944
 8609SOL    HW226727   4.795   1.262   3.940
 8610SOL     OW26728   6.932   0.155   3.086
 8610SOL    HW126729   6.980   0.101   3.017
 8610SOL    HW226730   6.885   0.093   3.150
 8611SOL     OW26731   3.029   1.400   3.726
 8611SOL    HW126732   3.018   1.421   3.823
 8611SOL    HW226733   3.106   1.337   3.714
 8612SOL     OW26734   3.192   2.946   2.629
 8612SOL    HW126735   3.142   2.924   2.546
 8612SOL    HW226736   3.136   3.004   2.688
 8613SOL     OW26737   2.989   2.845   1.648
 8613SOL    HW126738   2.991   2.753   1.688
 8613SOL    HW226739   3.025   2.842   1.555
 8614SOL     OW26740   1.486   2.322   2.066
 8614SOL    HW126741   1.506   2.249   2.132
 8614SOL    HW226742   1.572   2.359   2.031
 8615SOL     OW26743   4.937   2.272   4.416
 8615SOL    HW126744   4.855   2.330   4.422
 8615SOL    HW226745   4.922   2.200   4.348
 8616SOL     OW26746   3.782   5.172   2.495
 8616SOL    HW126747   3.759   5.167   2.398
 8616SOL    HW226748   3.752   5.089   2.542
 8617SOL     OW26749   5.421   7.007   3.773
 8617SOL    HW126750   5.429   6.916   3.732
 8617SOL    HW226751   5.494   7.020   3.840
 8618SOL     OW26752   6.572   3.681   1.020
 8618SOL    HW126753   6.654   3.638   0.982
 8618SOL    HW226754   6.567   3.665   1.118
 8619SOL     OW26755   5.066   5.019   2.210
 8619SOL    HW126756   4.984   4.962   2.216
 8619SOL    HW226757   5.077   5.052   2.116
 8620SOL     OW26758   2.032   0.590   4.611
 8620SOL    HW126759   2.047   0.514   4.674
 8620SOL    HW226760   2.118   0.639   4.596
 8621SOL     OW26761   4.732   2.736   2.020
 8621SOL    HW126762   4.674   2.724   1.939
 8621SOL    HW226763   4.721   2.829   2.056
 8622SOL     OW26764   6.444   5.357   2.298
 8622SOL    HW126765   6.493   5.281   2.342
 8622SOL    HW226766   6.503   5.437   2.295
 8623SOL     OW26767   6.909   3.367   4.862
 8623SOL    HW126768   6.940   3.445   4.916
 8623SOL    HW226769   6.949   3.372   4.770
 8624SOL     OW26770   3.197   3.616   5.834
 8624SOL    HW126771   3.149   3.554   5.897
 8624SOL    HW226772   3.138   3.636   5.756
 8625SOL     OW26773   3.698   1.637   5.168
 8625SOL    HW126774   3.610   1.666   5.130
 8625SOL    HW226775   3.721   1.695   5.246
 8626SOL     OW26776   4.399   2.813   0.534
 8626SOL    HW126777   4.402   2.867   0.618
 8626SOL    HW226778   4.483   2.760   0.525
 8627SOL     OW26779   1.792   1.652   2.285
 8627SOL    HW126780   1.694   1.661   2.267
 8627SOL    HW226781   1.815   1.555   2.296
 8628SOL     OW26782   6.855   6.728   0.225
 8628SOL    HW126783   6.941   6.694   0.262
 8628SOL    HW226784   6.810   6.656   0.172
 8629SOL     OW26785   1.007   6.916   4.579
 8629SOL    HW126786   1.089   6.947   4.532
 8629SOL    HW226787   0.984   6.824   4.549
 8630SOL     OW26788   5.066   3.526   3.753
 8630SOL    HW126789   5.126   3.575   3.690
 8630SOL    HW226790   5.003   3.468   3.701
 8631SOL     OW26791   2.490   5.667   0.425
 8631SOL    HW126792   2.538   5.595   0.375
 8631SOL    HW226793   2.533   5.755   0.407
 8632SOL     OW26794   4.125   4.384   5.324
 8632SOL    HW126795   4.150   4.411   5.417
 8632SOL    HW226796   4.185   4.430   5.258
 8633SOL     OW26797   5.398   4.164   5.648
 8633SOL    HW126798   5.452   4.235   5.604
 8633SOL    HW226799   5.407   4.078   5.597
 8634SOL     OW26800   5.375   4.939   0.497
 8634SOL    HW126801   5.346   4.865   0.437
 8634SOL    HW226802   5.410   4.901   0.583
 8635SOL     OW26803   6.175   3.045   6.932
 8635SOL    HW126804   6.164   3.087   7.022
 8635SOL    HW226805   6.248   2.977   6.934
 8636SOL     OW26806   4.283   5.913   0.615
 8636SOL    HW126807   4.263   5.956   0.527
 8636SOL    HW226808   4.381   5.919   0.633
 8637SOL     OW26809   1.472   1.629   6.676
 8637SOL    HW126810   1.437   1.656   6.766
 8637SOL    HW226811   1.400   1.584   6.624
 8638SOL     OW26812   4.038   2.956   5.351
 8638SOL    HW126813   3.991   3.038   5.318
 8638SOL    HW226814   4.055   2.965   5.450
 8639SOL     OW26815   5.365   3.349   0.074
 8639SOL    HW126816   5.331   3.423   0.132
 8639SOL    HW226817   5.320   3.354   7.009
 8640SOL     OW26818   3.604   2.940   1.113
 8640SOL    HW126819   3.611   2.841   1.107
 8640SOL    HW226820   3.693   2.982   1.096
 8641SOL     OW26821   4.084   5.653   3.168
 8641SOL    HW126822   4.140   5.733   3.148
 8641SOL    HW226823   4.054   5.612   3.082
 8642SOL     OW26824   1.204   6.611   3.677
 8642SOL    HW126825   1.248   6.521   3.681
 8642SOL    HW226826   1.274   6.682   3.689
 8643SOL     OW26827   2.699   0.299   0.468
 8643SOL    HW126828   2.721   0.245   0.387
 8643SOL    HW226829   2.723   0.249   0.550
 8644SOL     OW26830   6.028   1.938   6.713
 8644SOL    HW126831   5.938   1.932   6.668
 8644SOL    HW226832   6.093   1.878   6.667
 8645SOL     OW26833   5.440   4.529   1.223
 8645SOL    HW126834   5.352   4.508   1.180
 8645SOL    HW226835   5.453   4.628   1.224
 8646SOL     OW26836   0.181   2.431   5.890
 8646SOL    HW126837   0.085   2.407   5.880
 8646SOL    HW226838   0.193   2.492   5.968
 8647SOL     OW26839   2.922   5.489   1.130
 8647SOL    HW126840   2.987   5.513   1.202
 8647SOL    HW226841   2.969   5.484   1.042
 8648SOL     OW26842   5.465   6.761   1.248
 8648SOL    HW126843   5.472   6.835   1.182
 8648SOL    HW226844   5.438   6.677   1.201
 8649SOL     OW26845   4.396   6.248   6.979
 8649SOL    HW126846   4.432   6.324   6.926
 8649SOL    HW226847   4.402   6.164   6.925
 8650SOL     OW26848   1.930   0.275   3.960
 8650SOL    HW126849   1.889   0.199   4.010
 8650SOL    HW226850   1.932   0.253   3.862
 8651SOL     OW26851   2.908   1.438   0.896
 8651SOL    HW126852   2.957   1.378   0.833
 8651SOL    HW226853   2.819   1.460   0.858
 8652SOL     OW26854   0.683   4.881   4.005
 8652SOL    HW126855   0.598   4.895   3.953
 8652SOL    HW226856   0.761   4.906   3.948
 8653SOL     OW26857   6.999   1.688   6.193
 8653SOL    HW126858   0.005   1.681   6.098
 8653SOL    HW226859   6.955   1.603   6.221
 8654SOL     OW26860   0.931   4.709   2.050
 8654SOL    HW126861   0.948   4.679   2.143
 8654SOL    HW226862   1.013   4.752   2.012
 8655SOL     OW26863   6.632   1.451   5.140
 8655SOL    HW126864   6.557   1.509   5.108
 8655SOL    HW226865   6.634   1.450   5.240
 8656SOL     OW26866   5.870   6.996   1.897
 8656SOL    HW126867   5.889   6.905   1.862
 8656SOL    HW226868   5.785   0.006   1.857
 8657SOL     OW26869   5.487   6.832   0.876
 8657SOL    HW126870   5.495   6.915   0.931
 8657SOL    HW226871   5.548   6.839   0.797
 8658SOL     OW26872   6.146   5.604   1.217
 8658SOL    HW126873   6.121   5.693   1.178
 8658SOL    HW226874   6.064   5.556   1.248
 8659SOL     OW26875   4.636   2.595   2.710
 8659SOL    HW126876   4.697   2.520   2.685
 8659SOL    HW226877   4.662   2.678   2.660
 8660SOL     OW26878   0.674   2.508   1.767
 8660SOL    HW126879   0.635   2.592   1.731
 8660SOL    HW226880   0.769   2.499   1.735
 8661SOL     OW26881   6.228   3.077   3.281
 8661SOL    HW126882   6.156   3.016   3.313
 8661SOL    HW226883   6.270   3.123   3.359
 8662SOL     OW26884   3.363   5.935   2.505
 8662SOL    HW126885   3.367   5.835   2.494
 8662SOL    HW226886   3.413   5.979   2.431
 8663SOL     OW26887   3.211   5.371   3.046
 8663SOL    HW126888   3.204   5.470   3.052
 8663SOL    HW226889   3.297   5.341   3.087
 8664SOL     OW26890   2.157   5.718   2.844
 8664SOL    HW126891   2.220   5.779   2.796
 8664SOL    HW226892   2.101   5.770   2.907
 8665SOL     OW26893   6.263   4.866   5.776
 8665SOL    HW126894   6.288   4.962   5.771
 8665SOL    HW226895   6.201   4.844   5.701
 8666SOL     OW26896   5.445   0.430   4.151
 8666SOL    HW126897   5.530   0.483   4.164
 8666SOL    HW226898   5.369   0.493   4.136
 8667SOL     OW26899   5.147   1.514   4.577
 8667SOL    HW126900   5.212   1.483   4.646
 8667SOL    HW226901   5.178   1.600   4.537
 8668SOL     OW26902   5.200   2.936   4.501
 8668SOL    HW126903   5.248   2.849   4.510
 8668SOL    HW226904   5.129   2.943   4.571
 8669SOL     OW26905   6.896   6.087   6.365
 8669SOL    HW126906   6.873   6.133   6.279
 8669SOL    HW226907   6.821   6.097   6.429
 8670SOL     OW26908   5.390   4.685   5.903
 8670SOL    HW126909   5.459   4.757   5.898
 8670SOL    HW226910   5.429   4.604   5.947
 8671SOL     OW26911   0.257   1.892   2.393
 8671SOL    HW126912   0.258   1.982   2.436
 8671SOL    HW226913   0.165   1.855   2.394
 8672SOL     OW26914   0.069   0.484   3.754
 8672SOL    HW126915   0.075   0.580   3.781
 8672SOL    HW226916   7.010   0.468   3.702
 8673SOL     OW26917   0.260   1.684   0.547
 8673SOL    HW126918   0.213   1.599   0.523
 8673SOL    HW226919   0.313   1.716   0.468
 8674SOL     OW26920   0.288   4.487   3.436
 8674SOL    HW126921   0.223   4.411   3.434
 8674SOL    HW226922   0.305   4.515   3.530
 8675SOL     OW26923   3.502   1.395   5.856
 8675SOL    HW126924   3.560   1.416   5.777
 8675SOL    HW226925   3.481   1.297   5.857
 8676SOL     OW26926   5.853   0.931   1.509
 8676SOL    HW126927   5.894   0.986   1.436
 8676SOL    HW226928   5.754   0.946   1.510
 8677SOL     OW26929   1.741   6.155   5.665
 8677SOL    HW126930   1.806   6.080   5.679
 8677SOL    HW226931   1.648   6.119   5.664
 8678SOL     OW26932   1.080   0.218   0.387
 8678SOL    HW126933   1.029   0.223   0.473
 8678SOL    HW226934   1.018   0.198   0.312
 8679SOL     OW26935   2.297   1.067   3.842
 8679SOL    HW126936   2.225   0.999   3.833
 8679SOL    HW226937   2.356   1.064   3.762
 8680SOL     OW26938   6.270   2.769   6.163
 8680SOL    HW126939   6.359   2.753   6.206
 8680SOL    HW226940   6.284   2.797   6.067
 8681SOL     OW26941   4.910   6.018   1.370
 8681SOL    HW126942   4.951   5.986   1.285
 8681SOL    HW226943   4.915   5.946   1.439
 8682SOL     OW26944   0.005   0.327   1.087
 8682SOL    HW126945   0.007   0.426   1.097
 8682SOL    HW226946   6.954   0.290   1.141
 8683SOL     OW26947   1.792   3.520   4.977
 8683SOL    HW126948   1.815   3.437   5.027
 8683SOL    HW226949   1.765   3.497   4.883
 8684SOL     OW26950   0.461   3.663   4.536
 8684SOL    HW126951   0.534   3.598   4.557
 8684SOL    HW226952   0.501   3.752   4.515
 8685SOL     OW26953   5.579   2.151   6.074
 8685SOL    HW126954   5.580   2.239   6.025
 8685SOL    HW226955   5.561   2.167   6.170
 8686SOL     OW26956   6.506   6.823   2.994
 8686SOL    HW126957   6.558   6.743   2.964
 8686SOL    HW226958   6.557   6.906   2.971
 8687SOL     OW26959   6.308   3.594   3.272
 8687SOL    HW126960   6.326   3.682   3.227
 8687SOL    HW226961   6.321   3.520   3.207
 8688SOL     OW26962   1.564   3.782   6.528
 8688SOL    HW126963   1.600   3.723   6.600
 8688SOL    HW226964   1.464   3.780   6.528
 8689SOL     OW26965   4.582   3.126   0.565
 8689SOL    HW126966   4.640   3.118   0.484
 8689SOL    HW226967   4.486   3.130   0.537
 8690SOL     OW26968   1.090   1.994   2.684
 8690SOL    HW126969   1.113   2.066   2.619
 8690SOL    HW226970   1.167   1.931   2.694
 8691SOL     OW26971   3.152   1.652   4.654
 8691SOL    HW126972   3.093   1.679   4.731
 8691SOL    HW226973   3.114   1.688   4.569
 8692SOL     OW26974   4.210   1.950   5.691
 8692SOL    HW126975   4.275   1.980   5.621
 8692SOL    HW226976   4.130   2.011   5.690
 8693SOL     OW26977   6.698   1.010   6.333
 8693SOL    HW126978   6.744   0.921   6.333
 8693SOL    HW226979   6.742   1.070   6.266
 8694SOL     OW26980   6.273   2.889   4.451
 8694SOL    HW126981   6.204   2.959   4.469
 8694SOL    HW226982   6.229   2.805   4.421
 8695SOL     OW26983   3.904   3.605   6.459
 8695SOL    HW126984   3.922   3.680   6.522
 8695SOL    HW226985   3.975   3.601   6.389
 8696SOL     OW26986   2.611   5.960   5.325
 8696SOL    HW126987   2.535   5.991   5.382
 8696SOL    HW226988   2.641   6.036   5.267
 8697SOL     OW26989   1.782   4.240   5.687
 8697SOL    HW126990   1.816   4.331   5.666
 8697SOL    HW226991   1.707   4.217   5.624
 8698SOL     OW26992   4.970   5.870   6.305
 8698SOL    HW126993   4.954   5.969   6.298
 8698SOL    HW226994   4.888   5.826   6.341
 8699SOL     OW26995   2.664   2.914   6.180
 8699SOL    HW126996   2.665   2.827   6.130
 8699SOL    HW226997   2.697   2.900   6.273
 8700SOL     OW26998   1.204   0.382   5.346
 8700SOL    HW126999   1.243   0.313   5.284
 8700SOL    HW227000   1.277   0.429   5.394
 8701SOL     OW27001   1.258   1.849   0.187
 8701SOL    HW127002   1.162   1.861   0.212
 8701SOL    HW227003   1.310   1.822   0.268
 8702SOL     OW27004   5.147   4.648   1.543
 8702SOL    HW127005   5.071   4.682   1.598
 8702SOL    HW227006   5.145   4.548   1.541
 8703SOL     OW27007   2.739   4.579   0.132
 8703SOL    HW127008   2.671   4.577   0.205
 8703SOL    HW227009   2.707   4.526   0.054
 8704SOL     OW27010   0.452   2.553   4.125
 8704SOL    HW127011   0.529   2.490   4.122
 8704SOL    HW227012   0.411   2.551   4.217
 8705SOL     OW27013   4.539   2.646   6.719
 8705SOL    HW127014   4.571   2.629   6.813
 8705SOL    HW227015   4.618   2.669   6.662
 8706SOL     OW27016   5.608   2.914   0.108
 8706SOL    HW127017   5.529   2.973   0.123
 8706SOL    HW227018   5.673   2.960   0.047
 8707SOL     OW27019   1.228   1.827   4.399
 8707SOL    HW127020   1.183   1.916   4.399
 8707SOL    HW227021   1.193   1.772   4.323
 8708SOL     OW27022   4.975   2.408   3.927
 8708SOL    HW127023   4.933   2.473   3.991
 8708SOL    HW227024   4.915   2.394   3.849
 8709SOL     OW27025   6.958   0.128   0.074
 8709SOL    HW127026   6.901   0.046   0.072
 8709SOL    HW227027   6.909   0.201   0.122
 8710SOL     OW27028   2.065   1.460   4.162
 8710SOL    HW127029   1.990   1.439   4.100
 8710SOL    HW227030   2.152   1.437   4.118
 8711SOL     OW27031   0.770   1.226   1.978
 8711SOL    HW127032   0.825   1.277   2.044
 8711SOL    HW227033   0.804   1.244   1.886
 8712SOL     OW27034   2.504   2.406   5.406
 8712SOL    HW127035   2.489   2.313   5.438
 8712SOL    HW227036   2.439   2.468   5.452
 8713SOL     OW27037   1.297   4.128   2.198
 8713SOL    HW127038   1.212   4.122   2.251
 8713SOL    HW227039   1.366   4.068   2.238
 8714SOL     OW27040   0.104   6.298   0.356
 8714SOL    HW127041   0.191   6.251   0.367
 8714SOL    HW227042   0.040   6.239   0.307
 8715SOL     OW27043   2.420   1.644   0.256
 8715SOL    HW127044   2.432   1.581   0.179
 8715SOL    HW227045   2.323   1.666   0.266
 8716SOL     OW27046   6.913   6.293   1.617
 8716SOL    HW127047   6.874   6.339   1.697
 8716SOL    HW227048   6.875   6.333   1.533
 8717SOL     OW27049   2.582   3.868   6.504
 8717SOL    HW127050   2.514   3.904   6.440
 8717SOL    HW227051   2.656   3.823   6.453
 8718SOL     OW27052   1.343   3.621   6.282
 8718SOL    HW127053   1.307   3.641   6.373
 8718SOL    HW227054   1.441   3.603   6.288
 8719SOL     OW27055   3.871   1.031   6.660
 8719SOL    HW127056   3.839   0.976   6.583
 8719SOL    HW227057   3.887   0.972   6.739
 8720SOL     OW27058   6.204   4.701   4.917
 8720SOL    HW127059   6.290   4.752   4.907
 8720SOL    HW227060   6.224   4.603   4.917
 8721SOL     OW27061   0.117   6.095   6.766
 8721SOL    HW127062   0.094   6.192   6.765
 8721SOL    HW227063   0.085   6.053   6.681
 8722SOL     OW27064   3.382   0.414   1.018
 8722SOL    HW127065   3.350   0.431   0.924
 8722SOL    HW227066   3.345   0.484   1.079
 8723SOL     OW27067   5.461   0.107   2.293
 8723SOL    HW127068   5.532   0.178   2.292
 8723SOL    HW227069   5.400   0.120   2.214
 8724SOL     OW27070   4.276   0.219   4.378
 8724SOL    HW127071   4.192   0.253   4.421
 8724SOL    HW227072   4.277   0.246   4.282
 8725SOL     OW27073   0.377   6.431   4.516
 8725SOL    HW127074   0.437   6.505   4.545
 8725SOL    HW227075   0.309   6.466   4.450
 8726SOL     OW27076   0.185   1.252   0.282
 8726SOL    HW127077   0.217   1.296   0.198
 8726SOL    HW227078   0.086   1.243   0.279
 8727SOL     OW27079   5.901   6.502   6.826
 8727SOL    HW127080   5.971   6.531   6.761
 8727SOL    HW227081   5.943   6.487   6.916
 8728SOL     OW27082   5.352   1.053   3.086
 8728SOL    HW127083   5.440   1.019   3.053
 8728SOL    HW227084   5.288   0.977   3.096
 8729SOL     OW27085   3.555   5.232   5.734
 8729SOL    HW127086   3.511   5.172   5.668
 8729SOL    HW227087   3.617   5.179   5.791
 8730SOL     OW27088   5.611   4.241   3.394
 8730SOL    HW127089   5.661   4.171   3.445
 8730SOL    HW227090   5.677   4.301   3.349
 8731SOL     OW27091   0.333   2.295   3.037
 8731SOL    HW127092   0.279   2.210   3.039
 8731SOL    HW227093   0.340   2.332   3.130
 8732SOL     OW27094   5.471   4.788   1.157
 8732SOL    HW127095   5.513   4.749   1.075
 8732SOL    HW227096   5.497   4.885   1.165
 8733SOL     OW27097   0.991   5.282   0.850
 8733SOL    HW127098   1.040   5.198   0.826
 8733SOL    HW227099   1.050   5.361   0.835
 8734SOL     OW27100   6.843   3.555   2.314
 8734SOL    HW127101   6.785   3.636   2.311
 8734SOL    HW227102   6.917   3.569   2.380
 8735SOL     OW27103   1.865   3.515   5.397
 8735SOL    HW127104   1.960   3.486   5.405
 8735SOL    HW227105   1.805   3.436   5.409
 8736SOL     OW27106   0.660   5.751   2.099
 8736SOL    HW127107   0.681   5.835   2.049
 8736SOL    HW227108   0.745   5.712   2.135
 8737SOL     OW27109   2.165   5.493   6.644
 8737SOL    HW127110   2.194   5.400   6.666
 8737SOL    HW227111   2.113   5.492   6.558
 8738SOL     OW27112   0.919   3.316   3.794
 8738SOL    HW127113   0.938   3.280   3.885
 8738SOL    HW227114   0.859   3.396   3.802
 8739SOL     OW27115   5.372   4.121   5.313
 8739SOL    HW127116   5.382   4.065   5.230
 8739SOL    HW227117   5.432   4.085   5.384
 8740SOL     OW27118   4.010   2.153   3.377
 8740SOL    HW127119   4.024   2.054   3.383
 8740SOL    HW227120   4.088   2.201   3.418
 8741SOL     OW27121   2.178   6.941   2.239
 8741SOL    HW127122   2.151   6.940   2.335
 8741SOL    HW227123   2.187   0.010   2.207
 8742SOL     OW27124   3.719   0.578   2.756
 8742SOL    HW127125   3.682   0.560   2.848
 8742SOL    HW227126   3.682   0.665   2.722
 8743SOL     OW27127   1.322   0.872   1.761
 8743SOL    HW127128   1.227   0.857   1.789
 8743SOL    HW227129   1.330   0.861   1.661
 8744SOL     OW27130   4.525   3.227   6.661
 8744SOL    HW127131   4.551   3.167   6.585
 8744SOL    HW227132   4.426   3.225   6.673
 8745SOL     OW27133   6.364   2.082   6.645
 8745SOL    HW127134   6.396   1.991   6.619
 8745SOL    HW227135   6.295   2.113   6.579
 8746SOL     OW27136   5.017   4.901   3.902
 8746SOL    HW127137   4.953   4.941   3.968
 8746SOL    HW227138   5.073   4.974   3.863
 8747SOL     OW27139   6.445   1.031   2.243
 8747SOL    HW127140   6.349   1.053   2.260
 8747SOL    HW227141   6.452   0.978   2.158
 8748SOL     OW27142   0.842   1.772   4.140
 8748SOL    HW127143   0.845   1.756   4.042
 8748SOL    HW227144   0.893   1.700   4.187
 8749SOL     OW27145   2.437   1.002   5.544
 8749SOL    HW127146   2.471   1.017   5.451
 8749SOL    HW227147   2.496   1.050   5.609
 8750SOL     OW27148   4.335   2.598   5.797
 8750SOL    HW127149   4.403   2.596   5.724
 8750SOL    HW227150   4.306   2.505   5.817
 8751SOL     OW27151   0.022   6.903   1.037
 8751SOL    HW127152   6.961   6.856   1.059
 8751SOL    HW227153   0.099   6.848   1.069
 8752SOL     OW27154   4.967   3.004   0.323
 8752SOL    HW127155   5.065   3.020   0.334
 8752SOL    HW227156   4.951   2.910   0.294
 8753SOL     OW27157   1.617   3.333   0.079
 8753SOL    HW127158   1.557   3.267   0.125
 8753SOL    HW227159   1.611   3.422   0.125
 8754SOL     OW27160   2.752   4.840   6.282
 8754SOL    HW127161   2.797   4.838   6.193
 8754SOL    HW227162   2.727   4.935   6.305
 8755SOL     OW27163   0.794   1.266   1.436
 8755SOL    HW127164   0.855   1.342   1.413
 8755SOL    HW227165   0.699   1.293   1.421
 8756SOL     OW27166   2.147   2.778   3.833
 8756SOL    HW127167   2.114   2.873   3.825
 8756SOL    HW227168   2.204   2.770   3.914
 8757SOL     OW27169   5.285   6.188   5.221
 8757SOL    HW127170   5.326   6.098   5.206
 8757SOL    HW227171   5.186   6.178   5.228
 8758SOL     OW27172   3.666   6.970   3.174
 8758SOL    HW127173   3.616   7.010   3.252
 8758SOL    HW227174   3.728   6.899   3.207
 8759SOL     OW27175   6.615   1.032   6.590
 8759SOL    HW127176   6.640   0.965   6.660
 8759SOL    HW227177   6.670   1.017   6.508
 8760SOL     OW27178   1.894   1.827   3.964
 8760SOL    HW127179   1.840   1.748   3.935
 8760SOL    HW227180   1.970   1.840   3.901
 8761SOL     OW27181   5.334   1.217   1.839
 8761SOL    HW127182   5.432   1.198   1.836
 8761SOL    HW227183   5.306   1.259   1.752
 8762SOL     OW27184   1.870   5.499   3.997
 8762SOL    HW127185   1.797   5.449   3.950
 8762SOL    HW227186   1.837   5.588   4.026
 8763SOL     OW27187   6.807   0.583   5.400
 8763SOL    HW127188   6.743   0.553   5.330
 8763SOL    HW227189   6.791   0.680   5.420
 8764SOL     OW27190   4.103   5.257   5.952
 8764SOL    HW127191   4.180   5.311   5.986
 8764SOL    HW227192   4.065   5.202   6.026
 8765SOL     OW27193   5.441   0.324   5.197
 8765SOL    HW127194   5.499   0.273   5.133
 8765SOL    HW227195   5.384   0.389   5.147
 8766SOL     OW27196   4.666   4.282   6.134
 8766SOL    HW127197   4.665   4.187   6.103
 8766SOL    HW227198   4.744   4.296   6.196
 8767SOL     OW27199   2.958   0.463   3.400
 8767SOL    HW127200   2.964   0.366   3.424
 8767SOL    HW227201   2.871   0.500   3.433
 8768SOL     OW27202   0.169   2.163   6.859
 8768SOL    HW127203   0.070   2.179   6.852
 8768SOL    HW227204   0.188   2.113   6.943
 8769SOL     OW27205   6.293   1.003   1.578
 8769SOL    HW127206   6.318   0.927   1.637
 8769SOL    HW227207   6.230   1.063   1.627
 8770SOL     OW27208   5.481   3.966   1.926
 8770SOL    HW127209   5.440   3.920   2.005
 8770SOL    HW227210   5.476   3.906   1.846
 8771SOL     OW27211   0.391   3.733   6.580
 8771SOL    HW127212   0.462   3.768   6.519
 8771SOL    HW227213   0.338   3.810   6.616
 8772SOL     OW27214   5.873   0.376   4.502
 8772SOL    HW127215   5.958   0.336   4.467
 8772SOL    HW227216   5.859   0.466   4.461
 8773SOL     OW27217   6.682   2.435   4.144
 8773SOL    HW127218   6.631   2.448   4.059
 8773SOL    HW227219   6.730   2.347   4.141
 8774SOL     OW27220   1.217   6.808   6.939
 8774SOL    HW127221   1.207   6.907   6.944
 8774SOL    HW227222   1.249   6.774   0.003
 8775SOL     OW27223   5.699   2.105   4.664
 8775SOL    HW127224   5.612   2.066   4.693
 8775SOL    HW227225   5.694   2.132   4.568
 8776SOL     OW27226   4.548   3.036   1.028
 8776SOL    HW127227   4.572   3.076   1.117
 8776SOL    HW227228   4.624   2.980   0.995
 8777SOL     OW27229   1.252   3.605   2.779
 8777SOL    HW127230   1.295   3.535   2.722
 8777SOL    HW227231   1.188   3.563   2.843
 8778SOL     OW27232   4.118   4.335   5.617
 8778SOL    HW127233   4.149   4.240   5.603
 8778SOL    HW227234   4.018   4.337   5.618
 8779SOL     OW27235   3.120   5.156   2.730
 8779SOL    HW127236   3.023   5.142   2.748
 8779SOL    HW227237   3.173   5.079   2.765
 8780SOL     OW27238   0.311   5.829   2.448
 8780SOL    HW127239   0.212   5.814   2.447
 8780SOL    HW227240   0.358   5.741   2.444
 8781SOL     OW27241   4.365   0.037   2.462
 8781SOL    HW127242   4.377   0.053   2.364
 8781SOL    HW227243   4.293   6.994   2.476
 8782SOL     OW27244   5.370   0.767   1.918
 8782SOL    HW127245   5.372   0.846   1.979
 8782SOL    HW227246   5.311   0.787   1.840
 8783SOL     OW27247   5.314   3.389   4.622
 8783SOL    HW127248   5.333   3.456   4.694
 8783SOL    HW227249   5.396   3.373   4.568
 8784SOL     OW27250   6.170   6.383   0.798
 8784SOL    HW127251   6.083   6.380   0.748
 8784SOL    HW227252   6.245   6.382   0.732
 8785SOL     OW27253   0.345   5.623   6.151
 8785SOL    HW127254   0.318   5.718   6.164
 8785SOL    HW227255   0.386   5.613   6.060
 8786SOL     OW27256   4.299   2.411   1.906
 8786SOL    HW127257   4.315   2.396   1.808
 8786SOL    HW227258   4.223   2.355   1.937
 8787SOL     OW27259   3.452   0.501   1.618
 8787SOL    HW127260   3.449   0.541   1.710
 8787SOL    HW227261   3.401   0.559   1.555
 8788SOL     OW27262   0.348   0.243   5.472
 8788SOL    HW127263   0.436   0.288   5.458
 8788SOL    HW227264   0.350   0.152   5.431
 8789SOL     OW27265   0.115   3.897   5.475
 8789SOL    HW127266   0.116   3.983   5.526
 8789SOL    HW227267   0.136   3.915   5.379
 8790SOL     OW27268   6.127   2.277   0.201
 8790SOL    HW127269   6.056   2.281   0.130
 8790SOL    HW227270   6.095   2.222   0.278
 8791SOL     OW27271   4.644   6.315   5.221
 8791SOL    HW127272   4.668   6.338   5.127
 8791SOL    HW227273   4.727   6.315   5.278
 8792SOL     OW27274   4.243   4.949   1.405
 8792SOL    HW127275   4.203   4.977   1.492
 8792SOL    HW227276   4.214   5.013   1.333
 8793SOL     OW27277   1.138   5.469   4.123
 8793SOL    HW127278   1.099   5.470   4.031
 8793SOL    HW227279   1.159   5.375   4.149
 8794SOL     OW27280   6.126   1.031   2.920
 8794SOL    HW127281   6.226   1.034   2.929
 8794SOL    HW227282   6.088   1.121   2.943
 8795SOL     OW27283   1.273   5.209   5.265
 8795SOL    HW127284   1.365   5.171   5.277
 8795SOL    HW227285   1.214   5.140   5.224
 8796SOL     OW27286   6.376   3.450   3.520
 8796SOL    HW127287   6.369   3.508   3.438
 8796SOL    HW227288   6.470   3.453   3.555
 8797SOL     OW27289   6.818   6.968   3.240
 8797SOL    HW127290   6.822   6.954   3.141
 8797SOL    HW227291   6.748   6.909   3.279
 8798SOL     OW27292   4.443   6.797   5.071
 8798SOL    HW127293   4.431   6.822   5.167
 8798SOL    HW227294   4.477   6.876   5.019
 8799SOL     OW27295   2.193   5.149   2.125
 8799SOL    HW127296   2.108   5.110   2.089
 8799SOL    HW227297   2.218   5.229   2.072
 8800SOL     OW27298   6.728   6.283   5.635
 8800SOL    HW127299   6.761   6.189   5.633
 8800SOL    HW227300   6.802   6.346   5.611
 8801SOL     OW27301   6.118   2.096   5.155
 8801SOL    HW127302   6.170   2.039   5.218
 8801SOL    HW227303   6.066   2.164   5.207
 8802SOL     OW27304   1.426   5.874   6.006
 8802SOL    HW127305   1.379   5.814   6.071
 8802SOL    HW227306   1.388   5.966   6.011
 8803SOL     OW27307   6.290   0.696   6.797
 8803SOL    HW127308   6.224   0.769   6.778
 8803SOL    HW227309   6.313   0.648   6.713
 8804SOL     OW27310   1.646   6.104   0.854
 8804SOL    HW127311   1.736   6.137   0.882
 8804SOL    HW227312   1.613   6.035   0.919
 8805SOL     OW27313   4.615   5.646   3.142
 8805SOL    HW127314   4.641   5.572   3.204
 8805SOL    HW227315   4.540   5.699   3.183
 8806SOL     OW27316   2.582   6.199   0.326
 8806SOL    HW127317   2.571   6.299   0.328
 8806SOL    HW227318   2.492   6.156   0.325
 8807SOL     OW27319   4.701   2.211   0.515
 8807SOL    HW127320   4.688   2.149   0.593
 8807SOL    HW227321   4.785   2.186   0.467
 8808SOL     OW27322   2.033   2.748   0.470
 8808SOL    HW127323   2.087   2.676   0.513
 8808SOL    HW227324   1.936   2.725   0.474
 8809SOL     OW27325   2.155   3.948   3.466
 8809SOL    HW127326   2.125   3.914   3.555
 8809SOL    HW227327   2.117   3.889   3.394
 8810SOL     OW27328   6.553   1.462   5.670
 8810SOL    HW127329   6.629   1.497   5.725
 8810SOL    HW227330   6.514   1.381   5.715
 8811SOL     OW27331   4.699   6.972   2.799
 8811SOL    HW127332   4.709   0.034   2.849
 8811SOL    HW227333   4.772   6.965   2.731
 8812SOL     OW27334   3.458   0.824   6.355
 8812SOL    HW127335   3.383   0.859   6.300
 8812SOL    HW227336   3.533   0.795   6.296
 8813SOL     OW27337   2.179   4.080   2.757
 8813SOL    HW127338   2.229   4.027   2.687
 8813SOL    HW227339   2.198   4.177   2.745
 8814SOL     OW27340   5.565   6.945   0.142
 8814SOL    HW127341   5.516   7.003   0.207
 8814SOL    HW227342   5.652   6.916   0.182
 8815SOL     OW27343   5.404   0.899   0.855
 8815SOL    HW127344   5.445   0.856   0.775
 8815SOL    HW227345   5.305   0.904   0.843
 8816SOL     OW27346   0.080   6.217   6.108
 8816SOL    HW127347   0.174   6.248   6.095
 8816SOL    HW227348   0.076   6.118   6.104
 8817SOL     OW27349   1.090   3.226   4.878
 8817SOL    HW127350   1.189   3.234   4.894
 8817SOL    HW227351   1.074   3.201   4.783
 8818SOL     OW27352   1.799   6.559   3.939
 8818SOL    HW127353   1.818   6.655   3.959
 8818SOL    HW227354   1.771   6.550   3.844
 8819SOL     OW27355   5.606   4.329   5.835
 8819SOL    HW127356   5.635   4.416   5.797
 8819SOL    HW227357   5.667   4.256   5.803
 8820SOL     OW27358   3.816   1.089   5.028
 8820SOL    HW127359   3.844   1.000   5.063
 8820SOL    HW227360   3.879   1.159   5.061
 8821SOL     OW27361   1.191   4.918   1.141
 8821SOL    HW127362   1.152   5.008   1.161
 8821SOL    HW227363   1.202   4.867   1.227
 8822SOL     OW27364   6.824   6.983   4.015
 8822SOL    HW127365   6.761   0.032   3.993
 8822SOL    HW227366   6.904   7.020   4.061
 8823SOL     OW27367   2.695   1.323   3.032
 8823SOL    HW127368   2.728   1.398   2.974
 8823SOL    HW227369   2.650   1.255   2.975
 8824SOL     OW27370   1.625   0.371   0.763
 8824SOL    HW127371   1.581   0.456   0.793
 8824SOL    HW227372   1.558   0.315   0.715
 8825SOL     OW27373   0.199   0.327   0.837
 8825SOL    HW127374   0.293   0.318   0.869
 8825SOL    HW227375   0.136   0.292   0.907
 8826SOL     OW27376   0.817   3.722   0.868
 8826SOL    HW127377   0.849   3.628   0.885
 8826SOL    HW227378   0.744   3.744   0.932
 8827SOL     OW27379   3.918   0.230   2.544
 8827SOL    HW127380   3.985   0.202   2.613
 8827SOL    HW227381   3.918   0.163   2.469
 8828SOL     OW27382   4.600   3.802   6.147
 8828SOL    HW127383   4.521   3.764   6.099
 8828SOL    HW227384   4.645   3.729   6.198
 8829SOL     OW27385   0.218   1.173   2.391
 8829SOL    HW127386   0.121   1.148   2.394
 8829SOL    HW227387   0.227   1.266   2.356
 8830SOL     OW27388   2.596   1.640   2.838
 8830SOL    HW127389   2.597   1.639   2.738
 8830SOL    HW227390   2.689   1.631   2.872
 8831SOL     OW27391   0.189   2.063   2.736
 8831SOL    HW127392   0.267   2.017   2.695
 8831SOL    HW227393   0.169   2.148   2.686
 8832SOL     OW27394   6.442   0.042   3.888
 8832SOL    HW127395   6.409   6.997   3.952
 8832SOL    HW227396   6.487   7.023   3.810
 8833SOL     OW27397   4.062   2.038   1.043
 8833SOL    HW127398   4.072   2.124   1.093
 8833SOL    HW227399   4.008   1.974   1.097
 8834SOL     OW27400   5.623   3.648   5.685
 8834SOL    HW127401   5.566   3.651   5.603
 8834SOL    HW227402   5.627   3.740   5.725
 8835SOL     OW27403   5.500   0.501   6.006
 8835SOL    HW127404   5.472   0.597   6.018
 8835SOL    HW227405   5.563   0.495   5.928
 8836SOL     OW27406   5.368   2.514   6.899
 8836SOL    HW127407   5.421   2.598   6.914
 8836SOL    HW227408   5.410   2.439   6.950
 8837SOL     OW27409   0.103   6.564   2.106
 8837SOL    HW127410   0.200   6.580   2.125
 8837SOL    HW227411   0.048   6.629   2.158
 8838SOL     OW27412   0.469   4.074   2.887
 8838SOL    HW127413   0.454   4.067   2.789
 8838SOL    HW227414   0.550   4.020   2.913
 8839SOL     OW27415   5.537   5.683   2.474
 8839SOL    HW127416   5.538   5.769   2.423
 8839SOL    HW227417   5.547   5.702   2.572
 8840SOL     OW27418   0.283   0.579   1.467
 8840SOL    HW127419   0.320   0.490   1.493
 8840SOL    HW227420   0.298   0.595   1.370
 8841SOL     OW27421   4.050   0.703   1.978
 8841SOL    HW127422   4.019   0.693   2.073
 8841SOL    HW227423   4.133   0.648   1.965
 8842SOL     OW27424   3.767   3.719   3.966
 8842SOL    HW127425   3.855   3.766   3.960
 8842SOL    HW227426   3.782   3.626   4.000
 8843SOL     OW27427   1.947   3.369   5.734
 8843SOL    HW127428   2.008   3.348   5.811
 8843SOL    HW227429   1.927   3.466   5.732
 8844SOL     OW27430   6.125   1.790   4.976
 8844SOL    HW127431   6.034   1.749   4.992
 8844SOL    HW227432   6.175   1.794   5.062
 8845SOL     OW27433   1.986   5.477   1.268
 8845SOL    HW127434   1.994   5.510   1.174
 8845SOL    HW227435   2.058   5.410   1.286
 8846SOL     OW27436   5.252   4.244   4.041
 8846SOL    HW127437   5.229   4.324   3.985
 8846SOL    HW227438   5.268   4.166   3.982
 8847SOL     OW27439   1.949   1.944   2.705
 8847SOL    HW127440   1.916   1.898   2.623
 8847SOL    HW227441   1.884   1.931   2.780
 8848SOL     OW27442   3.223   1.975   1.485
 8848SOL    HW127443   3.176   2.058   1.515
 8848SOL    HW227444   3.181   1.941   1.401
 8849SOL     OW27445   2.911   5.647   4.398
 8849SOL    HW127446   2.866   5.683   4.317
 8849SOL    HW227447   2.956   5.560   4.377
 8850SOL     OW27448   2.711   1.843   0.544
 8850SOL    HW127449   2.653   1.825   0.464
 8850SOL    HW227450   2.764   1.762   0.565
 8851SOL     OW27451   1.050   4.254   3.178
 8851SOL    HW127452   0.998   4.176   3.212
 8851SOL    HW227453   0.987   4.330   3.159
 8852SOL     OW27454   5.384   2.797   6.151
 8852SOL    HW127455   5.356   2.758   6.239
 8852SOL    HW227456   5.350   2.891   6.144
 8853SOL     OW27457   3.713   1.800   5.432
 8853SOL    HW127458   3.788   1.802   5.498
 8853SOL    HW227459   3.711   1.885   5.381
 8854SOL     OW27460   1.692   0.598   5.903
 8854SOL    HW127461   1.653   0.532   5.840
 8854SOL    HW227462   1.619   0.640   5.958
 8855SOL     OW27463   5.980   5.817   6.571
 8855SOL    HW127464   6.008   5.902   6.614
 8855SOL    HW227465   6.056   5.778   6.519
 8856SOL     OW27466   6.706   0.745   4.511
 8856SOL    HW127467   6.730   0.806   4.586
 8856SOL    HW227468   6.695   0.652   4.546
 8857SOL     OW27469   6.743   1.948   3.294
 8857SOL    HW127470   6.685   1.992   3.226
 8857SOL    HW227471   6.701   1.862   3.322
 8858SOL     OW27472   0.843   4.123   5.746
 8858SOL    HW127473   0.852   4.116   5.646
 8858SOL    HW227474   0.932   4.109   5.788
 8859SOL     OW27475   0.761   6.666   5.289
 8859SOL    HW127476   0.669   6.644   5.322
 8859SOL    HW227477   0.820   6.686   5.367
 8860SOL     OW27478   1.110   2.849   2.503
 8860SOL    HW127479   1.031   2.816   2.451
 8860SOL    HW227480   1.133   2.941   2.472
 8861SOL     OW27481   3.176   3.000   0.102
 8861SOL    HW127482   3.195   2.963   0.011
 8861SOL    HW227483   3.230   3.082   0.117
 8862SOL     OW27484   5.899   1.586   4.753
 8862SOL    HW127485   5.876   1.640   4.833
 8862SOL    HW227486   5.978   1.529   4.773
 8863SOL     OW27487   1.827   5.713   4.663
 8863SOL    HW127488   1.880   5.633   4.635
 8863SOL    HW227489   1.862   5.747   4.751
 8864SOL     OW27490   2.327   3.444   6.670
 8864SOL    HW127491   2.298   3.435   6.575
 8864SOL    HW227492   2.405   3.507   6.676
 8865SOL     OW27493   2.716   1.517   4.582
 8865SOL    HW127494   2.728   1.602   4.634
 8865SOL    HW227495   2.639   1.527   4.519
 8866SOL     OW27496   3.975   6.126   3.395
 8866SOL    HW127497   3.922   6.054   3.442
 8866SOL    HW227498   3.973   6.209   3.450
 8867SOL     OW27499   6.052   2.289   2.588
 8867SOL    HW127500   6.136   2.333   2.556
 8867SOL    HW227501   5.989   2.278   2.511
 8868SOL     OW27502   5.012   3.808   0.385
 8868SOL    HW127503   4.997   3.758   0.300
 8868SOL    HW227504   5.107   3.838   0.390
 8869SOL     OW27505   5.030   4.205   3.208
 8869SOL    HW127506   5.016   4.270   3.283
 8869SOL    HW227507   4.942   4.170   3.178
 8870SOL     OW27508   3.893   1.030   1.186
 8870SOL    HW127509   3.883   0.937   1.151
 8870SOL    HW227510   3.956   1.081   1.126
 8871SOL     OW27511   1.860   1.355   3.967
 8871SOL    HW127512   1.790   1.426   3.962
 8871SOL    HW227513   1.834   1.288   4.036
 8872SOL     OW27514   1.970   4.397   3.820
 8872SOL    HW127515   1.901   4.350   3.875
 8872SOL    HW227516   1.976   4.493   3.849
 8873SOL     OW27517   0.410   6.083   3.128
 8873SOL    HW127518   0.485   6.055   3.068
 8873SOL    HW227519   0.334   6.020   3.118
 8874SOL     OW27520   1.807   6.775   0.944
 8874SOL    HW127521   1.816   6.862   0.992
 8874SOL    HW227522   1.805   6.792   0.845
 8875SOL     OW27523   1.313   2.499   4.908
 8875SOL    HW127524   1.407   2.527   4.891
 8875SOL    HW227525   1.266   2.570   4.960
 8876SOL     OW27526   7.012   0.870   4.617
 8876SOL    HW127527   0.062   0.851   4.681
 8876SOL    HW227528   0.004   0.821   4.531
 8877SOL     OW27529   2.957   0.647   4.157
 8877SOL    HW127530   3.016   0.607   4.086
 8877SOL    HW227531   2.873   0.595   4.164
 8878SOL     OW27532   0.043   4.924   0.747
 8878SOL    HW127533   6.977   4.885   0.759
 8878SOL    HW227534   0.044   5.019   0.778
 8879SOL     OW27535   5.042   5.522   0.468
 8879SOL    HW127536   5.005   5.439   0.426
 8879SOL    HW227537   5.089   5.577   0.399
 8880SOL     OW27538   0.057   5.440   4.702
 8880SOL    HW127539   0.106   5.517   4.663
 8880SOL    HW227540   0.053   5.366   4.635
 8881SOL     OW27541   6.384   0.930   3.181
 8881SOL    HW127542   6.411   0.944   3.085
 8881SOL    HW227543   6.453   0.874   3.227
 8882SOL     OW27544   5.268   0.965   6.774
 8882SOL    HW127545   5.354   1.013   6.791
 8882SOL    HW227546   5.209   0.971   6.854
 8883SOL     OW27547   0.579   1.169   5.955
 8883SOL    HW127548   0.531   1.089   5.990
 8883SOL    HW227549   0.513   1.241   5.934
 8884SOL     OW27550   5.904   6.420   6.306
 8884SOL    HW127551   5.848   6.489   6.260
 8884SOL    HW227552   5.987   6.463   6.342
 8885SOL     OW27553   6.539   3.724   1.305
 8885SOL    HW127554   6.442   3.750   1.309
 8885SOL    HW227555   6.596   3.806   1.309
 8886SOL     OW27556   2.715   6.315   5.332
 8886SOL    HW127557   2.692   6.267   5.246
 8886SOL    HW227558   2.660   6.277   5.406
 8887SOL     OW27559   2.855   0.985   0.958
 8887SOL    HW127560   2.780   1.031   0.911
 8887SOL    HW227561   2.940   1.002   0.910
 8888SOL     OW27562   0.880   2.210   1.292
 8888SOL    HW127563   0.934   2.127   1.306
 8888SOL    HW227564   0.871   2.229   1.194
 8889SOL     OW27565   5.682   6.843   4.896
 8889SOL    HW127566   5.600   6.786   4.903
 8889SOL    HW227567   5.708   6.876   4.986
 8890SOL     OW27568   6.462   6.230   4.421
 8890SOL    HW127569   6.500   6.149   4.375
 8890SOL    HW227570   6.459   6.213   4.520
 8891SOL     OW27571   5.992   2.995   6.742
 8891SOL    HW127572   6.056   2.971   6.815
 8891SOL    HW227573   6.034   2.972   6.654
 8892SOL     OW27574   2.935   6.806   2.911
 8892SOL    HW127575   2.935   6.870   2.834
 8892SOL    HW227576   2.843   6.772   2.926
 8893SOL     OW27577   0.246   0.920   1.959
 8893SOL    HW127578   0.279   0.934   2.052
 8893SOL    HW227579   0.312   0.958   1.894
 8894SOL     OW27580   4.294   3.118   5.864
 8894SOL    HW127581   4.206   3.148   5.826
 8894SOL    HW227582   4.285   3.105   5.963
 8895SOL     OW27583   0.618   7.012   1.711
 8895SOL    HW127584   0.655   6.970   1.628
 8895SOL    HW227585   0.537   6.960   1.740
 8896SOL     OW27586   1.469   3.513   5.450
 8896SOL    HW127587   1.379   3.470   5.465
 8896SOL    HW227588   1.503   3.486   5.360
 8897SOL     OW27589   1.703   1.025   2.293
 8897SOL    HW127590   1.626   1.082   2.263
 8897SOL    HW227591   1.683   0.929   2.273
 8898SOL     OW27592   6.526   3.370   4.636
 8898SOL    HW127593   6.499   3.307   4.710
 8898SOL    HW227594   6.593   3.435   4.671
 8899SOL     OW27595   2.181   4.311   6.855
 8899SOL    HW127596   2.133   4.285   6.939
 8899SOL    HW227597   2.260   4.367   6.877
 8900SOL     OW27598   5.180   2.964   3.313
 8900SOL    HW127599   5.189   2.952   3.411
 8900SOL    HW227600   5.260   3.013   3.278
 8901SOL     OW27601   1.713   0.623   2.780
 8901SOL    HW127602   1.774   0.561   2.730
 8901SOL    HW227603   1.762   0.659   2.860
 8902SOL     OW27604   2.905   5.597   6.512
 8902SOL    HW127605   2.902   5.662   6.588
 8902SOL    HW227606   2.822   5.605   6.457
 8903SOL     OW27607   2.270   1.353   3.958
 8903SOL    HW127608   2.204   1.356   3.883
 8903SOL    HW227609   2.272   1.261   3.998
 8904SOL     OW27610   0.052   5.469   3.409
 8904SOL    HW127611   0.097   5.524   3.338
 8904SOL    HW227612   0.015   5.530   3.479
 8905SOL     OW27613   2.187   3.428   5.117
 8905SOL    HW127614   2.158   3.520   5.142
 8905SOL    HW227615   2.228   3.383   5.196
 8906SOL     OW27616   6.804   6.634   6.835
 8906SOL    HW127617   6.825   6.591   6.747
 8906SOL    HW227618   6.885   6.681   6.869
 8907SOL     OW27619   3.229   2.733   5.256
 8907SOL    HW127620   3.207   2.646   5.211
 8907SOL    HW227621   3.179   2.739   5.343
 8908SOL     OW27622   1.448   2.518   0.550
 8908SOL    HW127623   1.428   2.431   0.596
 8908SOL    HW227624   1.424   2.511   0.453
 8909SOL     OW27625   2.930   0.177   5.529
 8909SOL    HW127626   2.897   0.109   5.464
 8909SOL    HW227627   2.932   0.137   5.621
 8910SOL     OW27628   2.771   3.324   6.014
 8910SOL    HW127629   2.769   3.359   6.108
 8910SOL    HW227630   2.690   3.269   5.997
 8911SOL     OW27631   2.947   2.190   4.276
 8911SOL    HW127632   3.047   2.181   4.282
 8911SOL    HW227633   2.911   2.214   4.366
 8912SOL     OW27634   4.052   1.620   6.265
 8912SOL    HW127635   4.080   1.557   6.192
 8912SOL    HW227636   3.953   1.614   6.279
 8913SOL     OW27637   5.382   4.172   1.511
 8913SOL    HW127638   5.393   4.269   1.490
 8913SOL    HW227639   5.344   4.161   1.603
 8914SOL     OW27640   4.630   1.346   5.030
 8914SOL    HW127641   4.556   1.280   5.040
 8914SOL    HW227642   4.676   1.359   5.118
 8915SOL     OW27643   1.689   3.012   3.668
 8915SOL    HW127644   1.756   3.069   3.621
 8915SOL    HW227645   1.668   3.052   3.757
 8916SOL     OW27646   0.571   4.035   2.132
 8916SOL    HW127647   0.635   3.985   2.190
 8916SOL    HW227648   0.591   4.015   2.036
 8917SOL     OW27649   6.220   5.209   6.780
 8917SOL    HW127650   6.165   5.140   6.827
 8917SOL    HW227651   6.177   5.299   6.791
 8918SOL     OW27652   5.878   6.325   0.283
 8918SOL    HW127653   5.917   6.404   0.330
 8918SOL    HW227654   5.904   6.241   0.331
 8919SOL     OW27655   3.578   3.618   0.649
 8919SOL    HW127656   3.607   3.623   0.554
 8919SOL    HW227657   3.478   3.615   0.653
 8920SOL     OW27658   6.312   5.819   6.296
 8920SOL    HW127659   6.309   5.809   6.197
 8920SOL    HW227660   6.294   5.915   6.321
 8921SOL     OW27661   1.546   1.256   3.273
 8921SOL    HW127662   1.538   1.216   3.364
 8921SOL    HW227663   1.485   1.207   3.210
 8922SOL     OW27664   2.690   4.825   1.247
 8922SOL    HW127665   2.711   4.783   1.158
 8922SOL    HW227666   2.767   4.811   1.309
 8923SOL     OW27667   1.665   3.621   6.695
 8923SOL    HW127668   1.636   3.561   6.769
 8923SOL    HW227669   1.765   3.624   6.691
 8924SOL     OW27670   2.669   5.251   5.862
 8924SOL    HW127671   2.624   5.213   5.944
 8924SOL    HW227672   2.765   5.268   5.881
 8925SOL     OW27673   0.819   0.138   2.114
 8925SOL    HW127674   0.808   0.234   2.140
 8925SOL    HW227675   0.897   0.130   2.051
 8926SOL     OW27676   5.656   2.331   1.697
 8926SOL    HW127677   5.620   2.338   1.604
 8926SOL    HW227678   5.620   2.248   1.741
 8927SOL     OW27679   2.592   2.543   4.944
 8927SOL    HW127680   2.621   2.557   5.038
 8927SOL    HW227681   2.647   2.471   4.902
 8928SOL     OW27682   0.133   0.983   5.327
 8928SOL    HW127683   0.190   0.905   5.353
 8928SOL    HW227684   0.116   0.979   5.228
 8929SOL     OW27685   0.103   3.386   3.732
 8929SOL    HW127686   0.074   3.481   3.746
 8929SOL    HW227687   0.202   3.380   3.741
 8930SOL     OW27688   1.507   5.076   5.352
 8930SOL    HW127689   1.554   5.087   5.439
 8930SOL    HW227690   1.509   4.980   5.325
 8931SOL     OW27691   4.662   2.436   1.061
 8931SOL    HW127692   4.579   2.478   1.024
 8931SOL    HW227693   4.672   2.461   1.157
 8932SOL     OW27694   5.509   6.642   6.186
 8932SOL    HW127695   5.452   6.723   6.204
 8932SOL    HW227696   5.495   6.612   6.091
 8933SOL     OW27697   1.203   0.814   5.271
 8933SOL    HW127698   1.127   0.843   5.212
 8933SOL    HW227699   1.268   0.890   5.281
 8934SOL     OW27700   3.240   5.391   2.775
 8934SOL    HW127701   3.249   5.376   2.873
 8934SOL    HW227702   3.236   5.304   2.728
 8935SOL     OW27703   4.963   3.241   2.408
 8935SOL    HW127704   5.027   3.211   2.338
 8935SOL    HW227705   4.926   3.330   2.384
 8936SOL     OW27706   0.650   3.788   1.087
 8936SOL    HW127707   0.708   3.845   1.145
 8936SOL    HW227708   0.620   3.707   1.138
 8937SOL     OW27709   0.438   0.197   4.323
 8937SOL    HW127710   0.420   0.215   4.227
 8937SOL    HW227711   0.418   0.279   4.377
 8938SOL     OW27712   5.662   0.735   0.215
 8938SOL    HW127713   5.701   0.827   0.221
 8938SOL    HW227714   5.703   0.686   0.137
 8939SOL     OW27715   6.464   3.116   4.817
 8939SOL    HW127716   6.551   3.127   4.865
 8939SOL    HW227717   6.475   3.051   4.742
 8940SOL     OW27718   6.392   2.757   0.282
 8940SOL    HW127719   6.448   2.717   0.354
 8940SOL    HW227720   6.448   2.815   0.223
 8941SOL     OW27721   5.258   2.049   2.065
 8941SOL    HW127722   5.275   2.147   2.069
 8941SOL    HW227723   5.161   2.031   2.081
 8942SOL     OW27724   6.829   5.307   3.866
 8942SOL    HW127725   6.922   5.272   3.852
 8942SOL    HW227726   6.788   5.330   3.778
 8943SOL     OW27727   4.506   3.693   6.968
 8943SOL    HW127728   4.551   3.765   6.916
 8943SOL    HW227729   4.511   3.713   0.041
 8944SOL     OW27730   4.597   5.216   4.440
 8944SOL    HW127731   4.647   5.253   4.361
 8944SOL    HW227732   4.646   5.238   4.524
 8945SOL     OW27733   5.945   3.553   5.341
 8945SOL    HW127734   6.043   3.573   5.333
 8945SOL    HW227735   5.926   3.523   5.435
 8946SOL     OW27736   4.811   0.793   4.218
 8946SOL    HW127737   4.722   0.760   4.251
 8946SOL    HW227738   4.853   0.850   4.289
 8947SOL     OW27739   1.298   4.838   6.737
 8947SOL    HW127740   1.221   4.790   6.694
 8947SOL    HW227741   1.380   4.825   6.682
 8948SOL     OW27742   6.358   6.908   4.075
 8948SOL    HW127743   6.319   6.906   4.167
 8948SOL    HW227744   6.377   6.815   4.045
 8949SOL     OW27745   3.671   6.167   0.184
 8949SOL    HW127746   3.645   6.236   0.252
 8949SOL    HW227747   3.589   6.118   0.154
 8950SOL     OW27748   4.454   3.804   1.364
 8950SOL    HW127749   4.525   3.873   1.381
 8950SOL    HW227750   4.382   3.844   1.307
 8951SOL     OW27751   2.230   1.219   4.238
 8951SOL    HW127752   2.328   1.238   4.248
 8951SOL    HW227753   2.215   1.121   4.234
 8952SOL     OW27754   2.208   4.927   3.446
 8952SOL    HW127755   2.152   4.996   3.400
 8952SOL    HW227756   2.212   4.947   3.543
 8953SOL     OW27757   2.464   5.137   2.242
 8953SOL    HW127758   2.395   5.068   2.265
 8953SOL    HW227759   2.420   5.227   2.239
 8954SOL     OW27760   1.077   5.620   4.351
 8954SOL    HW127761   1.085   5.564   4.268
 8954SOL    HW227762   1.005   5.688   4.339
 8955SOL     OW27763   6.243   3.073   2.765
 8955SOL    HW127764   6.236   3.039   2.672
 8955SOL    HW227765   6.222   2.999   2.829
 8956SOL     OW27766   0.633   6.687   6.585
 8956SOL    HW127767   0.718   6.650   6.546
 8956SOL    HW227768   0.609   6.772   6.538
 8957SOL     OW27769   1.407   5.694   2.049
 8957SOL    HW127770   1.471   5.668   2.122
 8957SOL    HW227771   1.418   5.791   2.028
 8958SOL     OW27772   1.632   3.664   5.616
 8958SOL    HW127773   1.730   3.647   5.610
 8958SOL    HW227774   1.582   3.593   5.566
 8959SOL     OW27775   0.714   3.219   1.955
 8959SOL    HW127776   0.675   3.267   2.033
 8959SOL    HW227777   0.798   3.266   1.926
 8960SOL     OW27778   6.647   3.697   4.170
 8960SOL    HW127779   6.568   3.755   4.154
 8960SOL    HW227780   6.629   3.604   4.136
 8961SOL     OW27781   2.859   6.630   4.274
 8961SOL    HW127782   2.862   6.536   4.240
 8961SOL    HW227783   2.764   6.661   4.278
 8962SOL     OW27784   1.272   5.744   1.243
 8962SOL    HW127785   1.370   5.736   1.259
 8962SOL    HW227786   1.222   5.700   1.318
 8963SOL     OW27787   3.379   5.959   4.223
 8963SOL    HW127788   3.307   5.897   4.252
 8963SOL    HW227789   3.429   5.918   4.146
 8964SOL     OW27790   6.184   3.909   3.302
 8964SOL    HW127791   6.222   3.985   3.354
 8964SOL    HW227792   6.115   3.862   3.357
 8965SOL     OW27793   4.284   5.024   0.467
 8965SOL    HW127794   4.228   5.106   0.469
 8965SOL    HW227795   4.238   4.951   0.518
 8966SOL     OW27796   5.121   4.973   6.204
 8966SOL    HW127797   5.119   4.920   6.119
 8966SOL    HW227798   5.205   5.027   6.207
 8967SOL     OW27799   3.445   0.925   2.738
 8967SOL    HW127800   3.417   0.873   2.819
 8967SOL    HW227801   3.529   0.886   2.701
 8968SOL     OW27802   2.803   4.963   1.675
 8968SOL    HW127803   2.858   4.887   1.709
 8968SOL    HW227804   2.706   4.945   1.696
 8969SOL     OW27805   6.780   0.384   3.305
 8969SOL    HW127806   6.812   0.425   3.391
 8969SOL    HW227807   6.723   0.305   3.325
 8970SOL     OW27808   1.304   1.543   6.130
 8970SOL    HW127809   1.217   1.498   6.148
 8970SOL    HW227810   1.374   1.475   6.109
 8971SOL     OW27811   4.355   6.152   0.953
 8971SOL    HW127812   4.304   6.119   1.033
 8971SOL    HW227813   4.292   6.200   0.892
 8972SOL     OW27814   5.764   5.353   0.122
 8972SOL    HW127815   5.693   5.408   0.167
 8972SOL    HW227816   5.773   5.265   0.169
 8973SOL     OW27817   1.230   2.240   1.933
 8973SOL    HW127818   1.172   2.169   1.972
 8973SOL    HW227819   1.321   2.234   1.974
 8974SOL     OW27820   2.254   4.259   4.595
 8974SOL    HW127821   2.303   4.340   4.561
 8974SOL    HW227822   2.291   4.233   4.684
 8975SOL     OW27823   0.524   0.302   6.573
 8975SOL    HW127824   0.517   0.340   6.665
 8975SOL    HW227825   0.618   0.314   6.539
 8976SOL     OW27826   6.264   6.867   1.469
 8976SOL    HW127827   6.302   6.798   1.407
 8976SOL    HW227828   6.272   6.957   1.427
 8977SOL     OW27829   0.005   5.025   6.196
 8977SOL    HW127830   0.057   5.035   6.281
 8977SOL    HW227831   7.022   5.115   6.152
 8978SOL     OW27832   6.114   6.033   5.477
 8978SOL    HW127833   6.142   6.125   5.451
 8978SOL    HW227834   6.190   5.987   5.525
 8979SOL     OW27835   0.735   5.623   6.247
 8979SOL    HW127836   0.748   5.722   6.256
 8979SOL    HW227837   0.639   5.601   6.263
 8980SOL     OW27838   4.158   1.834   5.187
 8980SOL    HW127839   4.064   1.852   5.160
 8980SOL    HW227840   4.217   1.907   5.153
 8981SOL     OW27841   4.358   2.098   6.325
 8981SOL    HW127842   4.361   2.004   6.292
 8981SOL    HW227843   4.394   2.101   6.419
 8982SOL     OW27844   6.191   0.887   1.977
 8982SOL    HW127845   6.135   0.952   1.926
 8982SOL    HW227846   6.287   0.916   1.975
 8983SOL     OW27847   1.026   4.877   2.546
 8983SOL    HW127848   0.943   4.929   2.526
 8983SOL    HW227849   1.098   4.902   2.481
 8984SOL     OW27850   6.272   0.644   4.502
 8984SOL    HW127851   6.268   0.545   4.512
 8984SOL    HW227852   6.183   0.683   4.528
 8985SOL     OW27853   4.494   1.711   0.516
 8985SOL    HW127854   4.444   1.793   0.491
 8985SOL    HW227855   4.554   1.731   0.594
 8986SOL     OW27856   6.353   4.348   1.951
 8986SOL    HW127857   6.396   4.262   1.978
 8986SOL    HW227858   6.409   4.392   1.880
 8987SOL     OW27859   2.533   6.990   1.258
 8987SOL    HW127860   2.439   6.973   1.288
 8987SOL    HW227861   2.535   0.049   1.204
 8988SOL     OW27862   2.479   5.339   0.924
 8988SOL    HW127863   2.409   5.404   0.896
 8988SOL    HW227864   2.564   5.356   0.874
 8989SOL     OW27865   5.003   2.619   2.763
 8989SOL    HW127866   4.941   2.693   2.738
 8989SOL    HW227867   4.963   2.565   2.837
 8990SOL     OW27868   3.762   6.305   1.025
 8990SOL    HW127869   3.671   6.335   0.996
 8990SOL    HW227870   3.761   6.207   1.044
 8991SOL     OW27871   2.336   2.533   0.808
 8991SOL    HW127872   2.293   2.559   0.722
 8991SOL    HW227873   2.345   2.434   0.813
 8992SOL     OW27874   0.675   2.988   0.055
 8992SOL    HW127875   0.700   3.013   6.986
 8992SOL    HW227876   0.579   2.958   0.057
 8993SOL     OW27877   5.303   2.032   3.438
 8993SOL    HW127878   5.335   1.969   3.509
 8993SOL    HW227879   5.359   2.021   3.356
 8994SOL     OW27880   1.615   5.412   3.961
 8994SOL    HW127881   1.568   5.444   3.879
 8994SOL    HW227882   1.572   5.452   4.042
 8995SOL     OW27883   1.575   3.201   5.440
 8995SOL    HW127884   1.478   3.192   5.414
 8995SOL    HW227885   1.581   3.238   5.532
 8996SOL     OW27886   0.588   3.672   1.786
 8996SOL    HW127887   0.663   3.696   1.723
 8996SOL    HW227888   0.531   3.753   1.801
 8997SOL     OW27889   4.419   1.130   6.313
 8997SOL    HW127890   4.516   1.106   6.320
 8997SOL    HW227891   4.410   1.216   6.262
 8998SOL     OW27892   1.231   2.976   5.437
 8998SOL    HW127893   1.266   3.048   5.377
 8998SOL    HW227894   1.247   3.001   5.533
 8999SOL     OW27895   5.037   1.700   6.049
 8999SOL    HW127896   4.963   1.642   6.014
 8999SOL    HW227897   5.005   1.795   6.052
 9000SOL     OW27898   3.098   3.637   0.243
 9000SOL    HW127899   3.082   3.653   0.145
 9000SOL    HW227900   3.164   3.562   0.254
 9001SOL     OW27901   1.926   4.956   3.552
 9001SOL    HW127902   1.988   4.900   3.498
 9001SOL    HW227903   1.865   5.007   3.491
 9002SOL     OW27904   6.054   4.820   5.592
 9002SOL    HW127905   6.065   4.903   5.537
 9002SOL    HW227906   5.957   4.805   5.611
 9003SOL     OW27907   6.096   2.755   0.365
 9003SOL    HW127908   6.195   2.754   0.352
 9003SOL    HW227909   6.053   2.814   0.297
 9004SOL     OW27910   4.988   6.749   1.209
 9004SOL    HW127911   4.981   6.833   1.264
 9004SOL    HW227912   5.008   6.672   1.269
 9005SOL     OW27913   4.587   2.346   3.382
 9005SOL    HW127914   4.676   2.325   3.423
 9005SOL    HW227915   4.528   2.265   3.387
 9006SOL     OW27916   1.480   4.880   1.035
 9006SOL    HW127917   1.526   4.794   1.058
 9006SOL    HW227918   1.381   4.869   1.043
 9007SOL     OW27919   3.082   5.551   3.937
 9007SOL    HW127920   3.103   5.637   3.984
 9007SOL    HW227921   3.005   5.566   3.874
 9008SOL     OW27922   0.335   4.143   2.008
 9008SOL    HW127923   0.393   4.109   2.082
 9008SOL    HW227924   0.289   4.227   2.039
 9009SOL     OW27925   2.332   6.669   0.670
 9009SOL    HW127926   2.272   6.692   0.593
 9009SOL    HW227927   2.288   6.600   0.727
 9010SOL     OW27928   0.808   6.374   4.801
 9010SOL    HW127929   0.790   6.297   4.863
 9010SOL    HW227930   0.742   6.371   4.725
 9011SOL     OW27931   3.944   1.863   1.199
 9011SOL    HW127932   3.993   1.776   1.187
 9011SOL    HW227933   3.846   1.848   1.185
 9012SOL     OW27934   0.988   4.826   1.370
 9012SOL    HW127935   0.989   4.747   1.431
 9012SOL    HW227936   1.064   4.887   1.393
 9013SOL     OW27937   6.160   6.412   4.564
 9013SOL    HW127938   6.172   6.392   4.662
 9013SOL    HW227939   6.192   6.505   4.545
 9014SOL     OW27940   1.118   0.830   0.819
 9014SOL    HW127941   1.037   0.834   0.877
 9014SOL    HW227942   1.104   0.763   0.746
 9015SOL     OW27943   0.258   1.116   5.792
 9015SOL    HW127944   0.309   1.202   5.793
 9015SOL    HW227945   0.207   1.107   5.707
 9016SOL     OW27946   6.520   6.036   5.949
 9016SOL    HW127947   6.520   6.109   6.017
 9016SOL    HW227948   6.612   6.024   5.913
 9017SOL     OW27949   5.779   2.234   3.952
 9017SOL    HW127950   5.836   2.306   3.988
 9017SOL    HW227951   5.826   2.146   3.959
 9018SOL     OW27952   3.580   1.229   5.048
 9018SOL    HW127953   3.674   1.199   5.033
 9018SOL    HW227954   3.529   1.226   4.962
 9019SOL     OW27955   2.991   6.217   0.534
 9019SOL    HW127956   3.023   6.219   0.629
 9019SOL    HW227957   3.055   6.266   0.476
 9020SOL     OW27958   1.948   4.616   2.949
 9020SOL    HW127959   1.878   4.674   2.989
 9020SOL    HW227960   2.037   4.661   2.955
 9021SOL     OW27961   6.877   6.131   4.242
 9021SOL    HW127962   6.955   6.069   4.244
 9021SOL    HW227963   6.858   6.157   4.147
 9022SOL     OW27964   2.748   0.674   0.216
 9022SOL    HW127965   2.686   0.637   0.147
 9022SOL    HW227966   2.724   0.769   0.235
 9023SOL     OW27967   3.581   3.570   3.566
 9023SOL    HW127968   3.621   3.594   3.477
 9023SOL    HW227969   3.608   3.476   3.590
 9024SOL     OW27970   1.632   6.180   5.974
 9024SOL    HW127971   1.621   6.105   5.909
 9024SOL    HW227972   1.648   6.143   6.065
 9025SOL     OW27973   6.301   5.097   1.798
 9025SOL    HW127974   6.336   5.009   1.767
 9025SOL    HW227975   6.378   5.159   1.815
 9026SOL     OW27976   3.551   2.941   4.471
 9026SOL    HW127977   3.477   2.902   4.526
 9026SOL    HW227978   3.632   2.952   4.528
 9027SOL     OW27979   2.105   1.785   2.909
 9027SOL    HW127980   2.020   1.836   2.901
 9027SOL    HW227981   2.126   1.742   2.821
 9028SOL     OW27982   2.459   4.365   6.085
 9028SOL    HW127983   2.491   4.453   6.120
 9028SOL    HW227984   2.517   4.335   6.010
 9029SOL     OW27985   4.701   5.399   3.720
 9029SOL    HW127986   4.622   5.378   3.776
 9029SOL    HW227987   4.746   5.314   3.691
 9030SOL     OW27988   2.181   0.972   2.511
 9030SOL    HW127989   2.118   1.047   2.530
 9030SOL    HW227990   2.250   0.967   2.583
 9031SOL     OW27991   2.537   6.060   5.821
 9031SOL    HW127992   2.544   6.094   5.915
 9031SOL    HW227993   2.593   6.118   5.761
 9032SOL     OW27994   2.669   2.343   1.746
 9032SOL    HW127995   2.602   2.412   1.772
 9032SOL    HW227996   2.747   2.347   1.807
 9033SOL     OW27997   1.930   3.501   4.103
 9033SOL    HW127998   1.966   3.415   4.067
 9033SOL    HW227999   2.006   3.565   4.118
 9034SOL     OW28000   2.394   6.251   5.080
 9034SOL    HW128001   2.372   6.269   4.984
 9034SOL    HW228002   2.311   6.256   5.135
 9035SOL     OW28003   6.794   0.192   4.436
 9035SOL    HW128004   6.885   0.174   4.399
 9035SOL    HW228005   6.761   0.280   4.401
 9036SOL     OW28006   1.821   2.420   5.619
 9036SOL    HW128007   1.896   2.485   5.611
 9036SOL    HW228008   1.737   2.462   5.585
 9037SOL     OW28009   2.341   3.938   6.359
 9037SOL    HW128010   2.292   3.852   6.349
 9037SOL    HW228011   2.383   3.963   6.272
 9038SOL     OW28012   5.371   0.430   5.472
 9038SOL    HW128013   5.281   0.473   5.469
 9038SOL    HW228014   5.406   0.418   5.379
 9039SOL     OW28015   2.304   4.674   5.413
 9039SOL    HW128016   2.395   4.709   5.435
 9039SOL    HW228017   2.289   4.680   5.314
 9040SOL     OW28018   2.842   1.525   2.488
 9040SOL    HW128019   2.781   1.579   2.429
 9040SOL    HW228020   2.861   1.576   2.572
 9041SOL     OW28021   1.078   2.320   1.710
 9041SOL    HW128022   0.988   2.279   1.723
 9041SOL    HW228023   1.129   2.318   1.796
 9042SOL     OW28024   2.966   5.272   2.952
 9042SOL    HW128025   2.938   5.347   3.012
 9042SOL    HW228026   3.066   5.269   2.947
 9043SOL     OW28027   0.963   2.583   5.991
 9043SOL    HW128028   0.880   2.566   6.045
 9043SOL    HW228029   1.028   2.508   6.005
 9044SOL     OW28030   5.797   0.343   0.543
 9044SOL    HW128031   5.714   0.368   0.594
 9044SOL    HW228032   5.863   0.417   0.548
 9045SOL     OW28033   3.723   0.566   3.313
 9045SOL    HW128034   3.693   0.472   3.298
 9045SOL    HW228035   3.822   0.572   3.301
 9046SOL     OW28036   3.273   4.307   5.528
 9046SOL    HW128037   3.243   4.213   5.510
 9046SOL    HW228038   3.307   4.348   5.443
 9047SOL     OW28039   1.753   4.131   4.180
 9047SOL    HW128040   1.700   4.132   4.264
 9047SOL    HW228041   1.725   4.053   4.123
 9048SOL     OW28042   1.673   3.917   5.509
 9048SOL    HW128043   1.656   3.819   5.498
 9048SOL    HW228044   1.766   3.931   5.544
 9049SOL     OW28045   5.355   5.965   6.043
 9049SOL    HW128046   5.276   6.023   6.025
 9049SOL    HW228047   5.385   5.979   6.138
 9050SOL     OW28048   0.173   5.314   6.939
 9050SOL    HW128049   0.243   5.381   6.963
 9050SOL    HW228050   0.208   5.222   6.953
 9051SOL     OW28051   4.860   6.530   0.594
 9051SOL    HW128052   4.775   6.501   0.551
 9051SOL    HW228053   4.841   6.606   0.657
 9052SOL     OW28054   2.793   4.795   4.623
 9052SOL    HW128055   2.890   4.815   4.638
 9052SOL    HW228056   2.750   4.775   4.711
 9053SOL     OW28057   1.862   3.183   3.553
 9053SOL    HW128058   1.940   3.126   3.529
 9053SOL    HW228059   1.891   3.254   3.618
 9054SOL     OW28060   1.967   0.682   1.203
 9054SOL    HW128061   2.034   0.643   1.265
 9054SOL    HW228062   1.901   0.737   1.255
 9055SOL     OW28063   0.971   2.943   3.997
 9055SOL    HW128064   1.059   2.916   4.035
 9055SOL    HW228065   0.935   2.870   3.940
 9056SOL     OW28066   5.306   0.353   1.651
 9056SOL    HW128067   5.295   0.285   1.578
 9056SOL    HW228068   5.257   0.436   1.626
 9057SOL     OW28069   6.074   5.428   6.849
 9057SOL    HW128070   6.068   5.406   6.947
 9057SOL    HW228071   6.043   5.522   6.835
 9058SOL     OW28072   2.080   2.765   4.912
 9058SOL    HW128073   2.154   2.802   4.855
 9058SOL    HW228074   2.093   2.796   5.006
 9059SOL     OW28075   6.724   1.023   3.567
 9059SOL    HW128076   6.791   1.028   3.493
 9059SOL    HW228077   6.757   1.078   3.645
 9060SOL     OW28078   6.502   3.483   2.139
 9060SOL    HW128079   6.538   3.498   2.047
 9060SOL    HW228080   6.576   3.499   2.206
 9061SOL     OW28081   4.760   5.904   3.211
 9061SOL    HW128082   4.732   5.984   3.264
 9061SOL    HW228083   4.679   5.857   3.176
 9062SOL     OW28084   1.196   4.592   2.892
 9062SOL    HW128085   1.121   4.653   2.868
 9062SOL    HW228086   1.257   4.581   2.813
 9063SOL     OW28087   2.967   1.690   2.681
 9063SOL    HW128088   3.056   1.694   2.725
 9063SOL    HW228089   2.922   1.780   2.688
 9064SOL     OW28090   0.173   4.359   3.809
 9064SOL    HW128091   0.235   4.281   3.802
 9064SOL    HW228092   0.220   4.442   3.780
 9065SOL     OW28093   2.834   5.985   4.957
 9065SOL    HW128094   2.893   5.921   5.006
 9065SOL    HW228095   2.779   5.935   4.890
 9066SOL     OW28096   6.537   6.352   6.602
 9066SOL    HW128097   6.507   6.285   6.670
 9066SOL    HW228098   6.619   6.318   6.555
 9067SOL     OW28099   6.764   6.695   4.404
 9067SOL    HW128100   6.684   6.638   4.425
 9067SOL    HW228101   6.758   6.780   4.455
 9068SOL     OW28102   5.090   0.468   5.555
 9068SOL    HW128103   5.028   0.469   5.476
 9068SOL    HW228104   5.037   0.455   5.639
 9069SOL     OW28105   4.507   2.516   2.297
 9069SOL    HW128106   4.421   2.560   2.322
 9069SOL    HW228107   4.582   2.581   2.307
 9070SOL     OW28108   1.478   1.941   6.564
 9070SOL    HW128109   1.471   1.842   6.573
 9070SOL    HW228110   1.400   1.975   6.511
 9071SOL     OW28111   4.215   1.465   5.705
 9071SOL    HW128112   4.177   1.557   5.696
 9071SOL    HW228113   4.220   1.440   5.802
 9072SOL     OW28114   5.339   6.864   1.702
 9072SOL    HW128115   5.368   6.886   1.609
 9072SOL    HW228116   5.408   6.805   1.745
 9073SOL     OW28117   4.614   0.165   0.173
 9073SOL    HW128118   4.682   0.146   0.243
 9073SOL    HW228119   4.658   0.170   0.083
 9074SOL     OW28120   1.377   0.214   1.122
 9074SOL    HW128121   1.393   0.152   1.045
 9074SOL    HW228122   1.457   0.272   1.135
 9075SOL     OW28123   6.840   0.880   2.437
 9075SOL    HW128124   6.772   0.918   2.374
 9075SOL    HW228125   6.914   0.838   2.384
 9076SOL     OW28126   4.691   1.532   2.908
 9076SOL    HW128127   4.741   1.555   2.991
 9076SOL    HW228128   4.631   1.608   2.883
 9077SOL     OW28129   4.927   1.116   5.958
 9077SOL    HW128130   4.975   1.200   5.985
 9077SOL    HW228131   4.951   1.094   5.863
 9078SOL     OW28132   5.284   5.136   6.491
 9078SOL    HW128133   5.309   5.114   6.585
 9078SOL    HW228134   5.186   5.118   6.478
 9079SOL     OW28135   1.539   0.621   4.979
 9079SOL    HW128136   1.589   0.707   4.970
 9079SOL    HW228137   1.500   0.615   5.071
 9080SOL     OW28138   6.218   3.260   0.224
 9080SOL    HW128139   6.194   3.318   0.302
 9080SOL    HW228140   6.225   3.165   0.254
 9081SOL     OW28141   4.043   1.608   1.484
 9081SOL    HW128142   4.124   1.623   1.540
 9081SOL    HW228143   3.985   1.540   1.528
 9082SOL     OW28144   2.624   6.821   5.455
 9082SOL    HW128145   2.613   6.786   5.362
 9082SOL    HW228146   2.695   6.768   5.502
 9083SOL     OW28147   4.713   4.591   5.996
 9083SOL    HW128148   4.641   4.530   5.962
 9083SOL    HW228149   4.694   4.684   5.965
 9084SOL     OW28150   0.270   2.534   5.413
 9084SOL    HW128151   0.354   2.557   5.364
 9084SOL    HW228152   0.222   2.618   5.438
 9085SOL     OW28153   2.939   5.198   0.496
 9085SOL    HW128154   3.027   5.233   0.466
 9085SOL    HW228155   2.945   5.172   0.593
 9086SOL     OW28156   6.085   4.377   1.007
 9086SOL    HW128157   6.090   4.357   1.104
 9086SOL    HW228158   6.024   4.312   0.962
 9087SOL     OW28159   5.677   3.050   2.891
 9087SOL    HW128160   5.602   3.105   2.928
 9087SOL    HW228161   5.730   3.105   2.827
 9088SOL     OW28162   6.226   0.305   2.022
 9088SOL    HW128163   6.325   0.301   2.013
 9088SOL    HW228164   6.185   0.222   1.985
 9089SOL     OW28165   4.135   5.367   4.062
 9089SOL    HW128166   4.227   5.407   4.060
 9089SOL    HW228167   4.068   5.438   4.042
 9090SOL     OW28168   4.900   6.425   4.691
 9090SOL    HW128169   4.925   6.398   4.784
 9090SOL    HW228170   4.935   6.357   4.627
 9091SOL     OW28171   3.359   2.161   0.552
 9091SOL    HW128172   3.346   2.240   0.612
 9091SOL    HW228173   3.434   2.179   0.489
 9092SOL     OW28174   1.257   0.376   5.762
 9092SOL    HW128175   1.230   0.282   5.739
 9092SOL    HW228176   1.176   0.430   5.780
 9093SOL     OW28177   1.647   6.449   6.713
 9093SOL    HW128178   1.708   6.517   6.754
 9093SOL    HW228179   1.682   6.357   6.733
 9094SOL     OW28180   0.292   6.144   2.079
 9094SOL    HW128181   0.313   6.100   1.992
 9094SOL    HW228182   0.222   6.214   2.065
 9095SOL     OW28183   5.645   3.637   6.413
 9095SOL    HW128184   5.578   3.691   6.363
 9095SOL    HW228185   5.598   3.577   6.478
 9096SOL     OW28186   5.272   3.516   2.401
 9096SOL    HW128187   5.268   3.425   2.443
 9096SOL    HW228188   5.335   3.514   2.324
 9097SOL     OW28189   0.727   3.813   0.127
 9097SOL    HW128190   0.693   3.904   0.104
 9097SOL    HW228191   0.767   3.770   0.046
 9098SOL     OW28192   4.225   3.392   0.958
 9098SOL    HW128193   4.185   3.463   0.901
 9098SOL    HW228194   4.185   3.304   0.935
 9099SOL     OW28195   3.315   3.559   0.790
 9099SOL    HW128196   3.398   3.526   0.834
 9099SOL    HW228197   3.235   3.526   0.840
 9100SOL     OW28198   1.048   2.509   2.199
 9100SOL    HW128199   0.998   2.460   2.127
 9100SOL    HW228200   0.993   2.511   2.283
 9101SOL     OW28201   2.029   3.144   2.601
 9101SOL    HW128202   2.035   3.140   2.501
 9101SOL    HW228203   2.029   3.051   2.638
 9102SOL     OW28204   3.665   6.244   2.077
 9102SOL    HW128205   3.696   6.251   1.983
 9102SOL    HW228206   3.638   6.149   2.096
 9103SOL     OW28207   0.115   3.403   0.565
 9103SOL    HW128208   0.033   3.357   0.529
 9103SOL    HW228209   0.195   3.371   0.514
 9104SOL     OW28210   4.330   6.362   2.024
 9104SOL    HW128211   4.383   6.416   2.089
 9104SOL    HW228212   4.379   6.277   2.002
 9105SOL     OW28213   1.754   0.668   0.079
 9105SOL    HW128214   1.682   0.715   0.028
 9105SOL    HW228215   1.836   0.660   0.022
 9106SOL     OW28216   6.219   3.691   0.425
 9106SOL    HW128217   6.230   3.745   0.342
 9106SOL    HW228218   6.134   3.716   0.471
 9107SOL     OW28219   4.167   6.780   6.486
 9107SOL    HW128220   4.136   6.873   6.503
 9107SOL    HW228221   4.183   6.768   6.388
 9108SOL     OW28222   5.065   4.459   5.251
 9108SOL    HW128223   5.124   4.462   5.331
 9108SOL    HW228224   5.069   4.368   5.210
 9109SOL     OW28225   1.752   2.470   2.646
 9109SOL    HW128226   1.786   2.453   2.738
 9109SOL    HW228227   1.816   2.529   2.596
 9110SOL     OW28228   2.392   4.453   4.159
 9110SOL    HW128229   2.379   4.461   4.060
 9110SOL    HW228230   2.317   4.399   4.198
 9111SOL     OW28231   4.407   3.395   0.658
 9111SOL    HW128232   4.458   3.381   0.743
 9111SOL    HW228233   4.362   3.310   0.632
 9112SOL     OW28234   0.402   4.314   4.565
 9112SOL    HW128235   0.420   4.242   4.632
 9112SOL    HW228236   0.389   4.401   4.613
 9113SOL     OW28237   4.564   0.363   0.458
 9113SOL    HW128238   4.629   0.287   0.462
 9113SOL    HW228239   4.517   0.362   0.370
 9114SOL     OW28240   1.214   4.991   2.739
 9114SOL    HW128241   1.308   4.988   2.706
 9114SOL    HW228242   1.157   4.933   2.682
 9115SOL     OW28243   0.399   5.794   5.180
 9115SOL    HW128244   0.424   5.774   5.085
 9115SOL    HW228245   0.470   5.760   5.242
 9116SOL     OW28246   6.451   1.818   0.547
 9116SOL    HW128247   6.400   1.797   0.464
 9116SOL    HW228248   6.536   1.765   0.549
 9117SOL     OW28249   6.083   2.665   0.011
 9117SOL    HW128250   6.008   2.600   0.020
 9117SOL    HW228251   6.164   2.630   0.057
 9118SOL     OW28252   5.772   5.972   0.641
 9118SOL    HW128253   5.711   6.036   0.593
 9118SOL    HW228254   5.779   5.887   0.588
 9119SOL     OW28255   5.458   1.340   2.739
 9119SOL    HW128256   5.435   1.415   2.677
 9119SOL    HW228257   5.556   1.321   2.733
 9120SOL     OW28258   5.390   3.149   5.437
 9120SOL    HW128259   5.347   3.221   5.384
 9120SOL    HW228260   5.335   3.065   5.430
 9121SOL     OW28261   0.813   2.827   6.273
 9121SOL    HW128262   0.740   2.895   6.284
 9121SOL    HW228263   0.781   2.754   6.214
 9122SOL     OW28264   1.676   2.595   1.553
 9122SOL    HW128265   1.649   2.526   1.619
 9122SOL    HW228266   1.687   2.553   1.463
 9123SOL     OW28267   3.713   0.556   4.362
 9123SOL    HW128268   3.784   0.552   4.432
 9123SOL    HW228269   3.631   0.599   4.401
 9124SOL     OW28270   5.840   6.466   5.364
 9124SOL    HW128271   5.900   6.521   5.422
 9124SOL    HW228272   5.799   6.524   5.293
 9125SOL     OW28273   4.776   4.020   3.246
 9125SOL    HW128274   4.808   3.937   3.291
 9125SOL    HW228275   4.757   4.090   3.315
 9126SOL     OW28276   5.913   1.697   1.952
 9126SOL    HW128277   5.822   1.655   1.958
 9126SOL    HW228278   5.904   1.790   1.916
 9127SOL     OW28279   6.199   0.865   6.462
 9127SOL    HW128280   6.243   0.779   6.487
 9127SOL    HW228281   6.267   0.938   6.460
 9128SOL     OW28282   3.436   2.121   5.139
 9128SOL    HW128283   3.363   2.189   5.129
 9128SOL    HW228284   3.499   2.129   5.062
 9129SOL     OW28285   1.763   2.961   1.200
 9129SOL    HW128286   1.787   2.926   1.109
 9129SOL    HW228287   1.821   2.916   1.268
 9130SOL     OW28288   6.956   3.302   0.397
 9130SOL    HW128289   0.006   3.251   0.356
 9130SOL    HW228290   6.888   3.324   0.327
 9131SOL     OW28291   0.131   4.137   5.596
 9131SOL    HW128292   0.110   4.139   5.694
 9131SOL    HW228293   0.129   4.231   5.561
 9132SOL     OW28294   0.417   4.845   4.378
 9132SOL    HW128295   0.482   4.912   4.342
 9132SOL    HW228296   0.462   4.757   4.391
 9133SOL     OW28297   3.132   5.533   1.290
 9133SOL    HW128298   3.187   5.478   1.226
 9133SOL    HW228299   3.116   5.481   1.374
 9134SOL     OW28300   3.416   6.263   0.789
 9134SOL    HW128301   3.479   6.303   0.723
 9134SOL    HW228302   3.438   6.298   0.880
 9135SOL     OW28303   6.629   6.411   2.042
 9135SOL    HW128304   6.567   6.487   2.021
 9135SOL    HW228305   6.646   6.358   1.959
 9136SOL     OW28306   4.824   5.436   5.241
 9136SOL    HW128307   4.876   5.351   5.237
 9136SOL    HW228308   4.744   5.428   5.181
 9137SOL     OW28309   4.768   1.839   1.151
 9137SOL    HW128310   4.777   1.939   1.155
 9137SOL    HW228311   4.857   1.798   1.136
 9138SOL     OW28312   6.297   5.061   5.554
 9138SOL    HW128313   6.258   5.112   5.630
 9138SOL    HW228314   6.224   5.010   5.507
 9139SOL     OW28315   2.209   1.390   4.658
 9139SOL    HW128316   2.225   1.413   4.562
 9139SOL    HW228317   2.152   1.308   4.664
 9140SOL     OW28318   6.092   3.291   2.711
 9140SOL    HW128319   6.143   3.210   2.739
 9140SOL    HW228320   6.119   3.370   2.767
 9141SOL     OW28321   5.418   0.364   6.558
 9141SOL    HW128322   5.508   0.355   6.599
 9141SOL    HW228323   5.371   0.275   6.560
 9142SOL     OW28324   0.673   2.220   0.444
 9142SOL    HW128325   0.736   2.298   0.430
 9142SOL    HW228326   0.579   2.252   0.435
 9143SOL     OW28327   5.035   3.731   1.117
 9143SOL    HW128328   5.126   3.730   1.159
 9143SOL    HW228329   5.043   3.743   1.019
 9144SOL     OW28330   2.388   5.431   5.570
 9144SOL    HW128331   2.372   5.347   5.621
 9144SOL    HW228332   2.321   5.500   5.597
 9145SOL     OW28333   6.555   5.396   0.210
 9145SOL    HW128334   6.496   5.337   0.265
 9145SOL    HW228335   6.623   5.340   0.163
 9146SOL     OW28336   5.107   2.155   2.509
 9146SOL    HW128337   5.051   2.187   2.585
 9146SOL    HW228338   5.156   2.232   2.468
 9147SOL     OW28339   5.621   6.986   3.964
 9147SOL    HW128340   5.597   6.905   4.017
 9147SOL    HW228341   5.681   0.021   4.017
 9148SOL     OW28342   4.899   6.778   0.705
 9148SOL    HW128343   4.999   6.781   0.714
 9148SOL    HW228344   4.858   6.766   0.795
 9149SOL     OW28345   5.195   3.158   3.554
 9149SOL    HW128346   5.112   3.189   3.599
 9149SOL    HW228347   5.271   3.217   3.579
 9150SOL     OW28348   3.290   5.034   3.668
 9150SOL    HW128349   3.211   5.032   3.607
 9150SOL    HW228350   3.292   5.122   3.716
 9151SOL     OW28351   1.556   4.260   3.561
 9151SOL    HW128352   1.616   4.307   3.625
 9151SOL    HW228353   1.581   4.285   3.467
 9152SOL     OW28354   2.605   5.032   4.955
 9152SOL    HW128355   2.511   5.028   4.920
 9152SOL    HW228356   2.662   5.084   4.891
 9153SOL     OW28357   0.996   3.094   1.037
 9153SOL    HW128358   1.035   3.038   1.110
 9153SOL    HW228359   1.062   3.106   0.964
 9154SOL     OW28360   4.563   5.284   6.488
 9154SOL    HW128361   4.467   5.256   6.479
 9154SOL    HW228362   4.579   5.320   6.580
 9155SOL     OW28363   0.777   2.979   1.195
 9155SOL    HW128364   0.867   3.021   1.191
 9155SOL    HW228365   0.745   2.959   1.102
 9156SOL     OW28366   2.084   2.463   0.107
 9156SOL    HW128367   2.018   2.391   0.127
 9156SOL    HW228368   2.089   2.478   0.008
 9157SOL     OW28369   6.257   4.547   6.625
 9157SOL    HW128370   6.226   4.461   6.664
 9157SOL    HW228371   6.197   4.574   6.550
 9158SOL     OW28372   5.896   3.349   4.585
 9158SOL    HW128373   5.885   3.255   4.616
 9158SOL    HW228374   5.831   3.408   4.633
 9159SOL     OW28375   1.640   0.188   2.977
 9159SOL    HW128376   1.602   0.274   2.942
 9159SOL    HW228377   1.584   0.112   2.945
 9160SOL     OW28378   6.515   0.163   4.781
 9160SOL    HW128379   6.464   0.188   4.699
 9160SOL    HW228380   6.611   0.188   4.770
 9161SOL     OW28381   4.823   4.235   4.756
 9161SOL    HW128382   4.802   4.278   4.669
 9161SOL    HW228383   4.891   4.163   4.743
 9162SOL     OW28384   4.673   1.352   4.037
 9162SOL    HW128385   4.701   1.390   4.125
 9162SOL    HW228386   4.578   1.375   4.019
 9163SOL     OW28387   2.125   3.313   4.766
 9163SOL    HW128388   2.209   3.366   4.781
 9163SOL    HW228389   2.111   3.251   4.843
 9164SOL     OW28390   2.376   0.579   6.873
 9164SOL    HW128391   2.454   0.558   6.814
 9164SOL    HW228392   2.314   0.501   6.876
 9165SOL     OW28393   6.051   1.704   5.440
 9165SOL    HW128394   5.999   1.734   5.519
 9165SOL    HW228395   6.125   1.644   5.470
 9166SOL     OW28396   4.492   6.008   0.758
 9166SOL    HW128397   4.453   6.077   0.818
 9166SOL    HW228398   4.581   5.979   0.793
 9167SOL     OW28399   1.860   2.730   6.465
 9167SOL    HW128400   1.853   2.713   6.367
 9167SOL    HW228401   1.950   2.770   6.485
 9168SOL     OW28402   0.830   0.458   0.054
 9168SOL    HW128403   0.779   0.506   7.007
 9168SOL    HW228404   0.917   0.505   0.070
 9169SOL     OW28405   5.905   1.258   5.528
 9169SOL    HW128406   5.988   1.288   5.576
 9169SOL    HW228407   5.916   1.161   5.503
 9170SOL     OW28408   1.336   5.108   0.343
 9170SOL    HW128409   1.401   5.169   0.298
 9170SOL    HW228410   1.385   5.030   0.383
 9171SOL     OW28411   3.619   4.751   0.545
 9171SOL    HW128412   3.643   4.686   0.473
 9171SOL    HW228413   3.607   4.842   0.505
 9172SOL     OW28414   3.436   0.602   4.473
 9172SOL    HW128415   3.467   0.541   4.546
 9172SOL    HW228416   3.343   0.577   4.445
 9173SOL     OW28417   6.442   3.932   5.021
 9173SOL    HW128418   6.408   3.910   4.929
 9173SOL    HW228419   6.504   4.010   5.016
 9174SOL     OW28420   5.879   4.448   1.393
 9174SOL    HW128421   5.822   4.386   1.340
 9174SOL    HW228422   5.917   4.518   1.333
 9175SOL     OW28423   0.415   6.918   3.921
 9175SOL    HW128424   0.337   6.959   3.875
 9175SOL    HW228425   0.420   6.950   4.016
 9176SOL     OW28426   3.096   1.190   5.096
 9176SOL    HW128427   3.129   1.275   5.056
 9176SOL    HW228428   3.001   1.175   5.070
 9177SOL     OW28429   0.891   5.139   4.847
 9177SOL    HW128430   0.843   5.207   4.791
 9177SOL    HW228431   0.980   5.175   4.873
 9178SOL     OW28432   2.328   5.280   0.242
 9178SOL    HW128433   2.349   5.207   0.176
 9178SOL    HW228434   2.401   5.348   0.241
 9179SOL     OW28435   2.613   5.578   4.391
 9179SOL    HW128436   2.609   5.635   4.473
 9179SOL    HW228437   2.706   5.545   4.377
 9180SOL     OW28438   5.958   2.469   2.774
 9180SOL    HW128439   5.970   2.392   2.712
 9180SOL    HW228440   5.936   2.436   2.865
 9181SOL     OW28441   3.975   2.208   4.358
 9181SOL    HW128442   3.999   2.112   4.344
 9181SOL    HW228443   4.058   2.262   4.368
 9182SOL     OW28444   2.216   6.463   2.181
 9182SOL    HW128445   2.225   6.562   2.186
 9182SOL    HW228446   2.120   6.437   2.190
 9183SOL     OW28447   5.071   5.921   0.470
 9183SOL    HW128448   5.110   5.866   0.397
 9183SOL    HW228449   5.075   6.018   0.445
 9184SOL     OW28450   4.946   2.107   0.731
 9184SOL    HW128451   4.848   2.114   0.747
 9184SOL    HW228452   4.989   2.196   0.744
 9185SOL     OW28453   4.381   6.506   4.437
 9185SOL    HW128454   4.287   6.487   4.408
 9185SOL    HW228455   4.403   6.449   4.517
 9186SOL     OW28456   5.735   0.117   4.183
 9186SOL    HW128457   5.710   0.123   4.280
 9186SOL    HW228458   5.778   0.202   4.155
 9187SOL     OW28459   2.594   1.499   1.145
 9187SOL    HW128460   2.681   1.548   1.161
 9187SOL    HW228461   2.593   1.416   1.202
 9188SOL     OW28462   1.535   6.398   1.991
 9188SOL    HW128463   1.524   6.409   1.892
 9188SOL    HW228464   1.482   6.318   2.021
 9189SOL     OW28465   4.771   6.477   1.406
 9189SOL    HW128466   4.866   6.507   1.404
 9189SOL    HW228467   4.763   6.387   1.363
 9190SOL     OW28468   2.438   4.370   6.879
 9190SOL    HW128469   2.507   4.358   6.807
 9190SOL    HW228470   2.468   4.323   6.962
 9191SOL     OW28471   6.438   1.844   5.512
 9191SOL    HW128472   6.399   1.763   5.557
 9191SOL    HW228473   6.483   1.817   5.427
 9192SOL     OW28474   0.311   3.612   6.346
 9192SOL    HW128475   0.300   3.650   6.438
 9192SOL    HW228476   0.255   3.529   6.337
 9193SOL     OW28477   4.925   4.185   0.039
 9193SOL    HW128478   4.958   4.183   0.134
 9193SOL    HW228479   4.928   4.092   0.001
 9194SOL     OW28480   3.063   0.032   3.447
 9194SOL    HW128481   3.123   6.986   3.410
 9194SOL    HW228482   2.972   7.019   3.462
 9195SOL     OW28483   1.374   1.504   4.118
 9195SOL    HW128484   1.375   1.413   4.160
 9195SOL    HW228485   1.341   1.498   4.024
 9196SOL     OW28486   4.261   6.598   3.305
 9196SOL    HW128487   4.185   6.654   3.339
 9196SOL    HW228488   4.225   6.515   3.263
 9197SOL     OW28489   1.785   4.946   2.250
 9197SOL    HW128490   1.772   5.039   2.286
 9197SOL    HW228491   1.775   4.947   2.151
 9198SOL     OW28492   6.507   5.098   6.609
 9198SOL    HW128493   6.434   5.165   6.599
 9198SOL    HW228494   6.548   5.080   6.519
 9199SOL     OW28495   1.208   4.252   5.718
 9199SOL    HW128496   1.191   4.161   5.755
 9199SOL    HW228497   1.216   4.246   5.618
 9200SOL     OW28498   2.343   0.201   0.483
 9200SOL    HW128499   2.394   0.258   0.547
 9200SOL    HW228500   2.307   0.258   0.409
 9201SOL     OW28501   0.910   2.514   0.866
 9201SOL    HW128502   0.934   2.464   0.949
 9201SOL    HW228503   0.927   2.612   0.880
 9202SOL     OW28504   1.440   6.774   2.384
 9202SOL    HW128505   1.521   6.722   2.357
 9202SOL    HW228506   1.363   6.711   2.394
 9203SOL     OW28507   0.852   4.406   6.847
 9203SOL    HW128508   0.905   4.397   6.762
 9203SOL    HW228509   0.799   4.490   6.844
 9204SOL     OW28510   4.951   3.343   6.118
 9204SOL    HW128511   4.857   3.363   6.144
 9204SOL    HW228512   4.962   3.245   6.105
 9205SOL     OW28513   6.561   4.554   3.213
 9205SOL    HW128514   6.560   4.520   3.119
 9205SOL    HW228515   6.518   4.644   3.216
 9206SOL     OW28516   4.278   5.404   2.169
 9206SOL    HW128517   4.214   5.375   2.241
 9206SOL    HW228518   4.262   5.349   2.087
 9207SOL     OW28519   4.881   4.281   6.312
 9207SOL    HW128520   4.917   4.205   6.258
 9207SOL    HW228521   4.954   4.347   6.329
 9208SOL     OW28522   6.118   4.083   3.797
 9208SOL    HW128523   6.109   4.154   3.728
 9208SOL    HW228524   6.096   4.121   3.887
 9209SOL     OW28525   3.421   0.333   6.625
 9209SOL    HW128526   3.504   0.381   6.655
 9209SOL    HW228527   3.342   0.392   6.637
 9210SOL     OW28528   0.205   1.060   3.008
 9210SOL    HW128529   0.201   1.160   3.006
 9210SOL    HW228530   0.141   1.023   2.941
 9211SOL     OW28531   0.126   2.319   5.320
 9211SOL    HW128532   0.202   2.302   5.257
 9211SOL    HW228533   0.131   2.413   5.355
 9212SOL     OW28534   4.991   5.217   4.148
 9212SOL    HW128535   4.914   5.207   4.085
 9212SOL    HW228536   5.026   5.126   4.173
 9213SOL     OW28537   5.358   3.505   5.987
 9213SOL    HW128538   5.407   3.591   5.981
 9213SOL    HW228539   5.421   3.433   6.016
 9214SOL     OW28540   6.886   3.874   6.852
 9214SOL    HW128541   6.799   3.912   6.823
 9214SOL    HW228542   6.876   3.775   6.866
 9215SOL     OW28543   0.771   2.314   1.519
 9215SOL    HW128544   0.672   2.323   1.507
 9215SOL    HW228545   0.814   2.294   1.431
 9216SOL     OW28546   3.012   0.485   2.144
 9216SOL    HW128547   2.975   0.578   2.136
 9216SOL    HW228548   2.956   0.433   2.208
 9217SOL     OW28549   0.533   2.004   0.030
 9217SOL    HW128550   0.447   1.961   0.005
 9217SOL    HW228551   0.564   1.968   0.118
 9218SOL     OW28552   2.590   6.760   0.393
 9218SOL    HW128553   2.505   6.706   0.392
 9218SOL    HW228554   2.568   6.856   0.411
 9219SOL     OW28555   0.017   2.563   1.620
 9219SOL    HW128556   0.025   2.501   1.699
 9219SOL    HW228557   0.063   2.522   1.541
 9220SOL     OW28558   1.733   6.366   1.035
 9220SOL    HW128559   1.662   6.396   0.971
 9220SOL    HW228560   1.692   6.308   1.105
 9221SOL     OW28561   2.985   0.863   3.543
 9221SOL    HW128562   3.011   0.790   3.480
 9221SOL    HW228563   3.053   0.870   3.616
 9222SOL     OW28564   1.740   0.413   6.462
 9222SOL    HW128565   1.816   0.349   6.449
 9222SOL    HW228566   1.758   0.497   6.410
 9223SOL     OW28567   0.887   0.959   4.390
 9223SOL    HW128568   0.820   0.906   4.338
 9223SOL    HW228569   0.914   0.908   4.472
 9224SOL     OW28570   1.971   4.967   4.729
 9224SOL    HW128571   1.934   4.875   4.722
 9224SOL    HW228572   1.898   5.032   4.749
 9225SOL     OW28573   3.117   6.512   5.865
 9225SOL    HW128574   3.089   6.437   5.805
 9225SOL    HW228575   3.072   6.501   5.954
 9226SOL     OW28576   6.142   6.804   1.066
 9226SOL    HW128577   6.055   6.761   1.093
 9226SOL    HW228578   6.179   6.758   0.986
 9227SOL     OW28579   1.043   5.025   0.757
 9227SOL    HW128580   1.027   4.958   0.830
 9227SOL    HW228581   1.119   4.993   0.699
 9228SOL     OW28582   1.459   1.196   5.714
 9228SOL    HW128583   1.492   1.103   5.732
 9228SOL    HW228584   1.467   1.251   5.797
 9229SOL     OW28585   0.508   5.567   4.485
 9229SOL    HW128586   0.581   5.629   4.456
 9229SOL    HW228587   0.546   5.495   4.543
 9230SOL     OW28588   4.768   1.623   3.150
 9230SOL    HW128589   4.825   1.597   3.229
 9230SOL    HW228590   4.748   1.720   3.154
 9231SOL     OW28591   0.727   4.418   4.571
 9231SOL    HW128592   0.723   4.506   4.618
 9231SOL    HW228593   0.808   4.415   4.513
 9232SOL     OW28594   3.961   5.645   0.317
 9232SOL    HW128595   3.912   5.731   0.334
 9232SOL    HW228596   3.969   5.630   0.219
 9233SOL     OW28597   5.427   5.276   2.211
 9233SOL    HW128598   5.427   5.319   2.120
 9233SOL    HW228599   5.493   5.322   2.270
 9234SOL     OW28600   3.937   5.294   5.717
 9234SOL    HW128601   4.004   5.311   5.789
 9234SOL    HW228602   3.956   5.355   5.640
 9235SOL     OW28603   1.622   3.098   3.190
 9235SOL    HW128604   1.565   3.131   3.265
 9235SOL    HW228605   1.704   3.155   3.183
 9236SOL     OW28606   2.900   4.178   5.492
 9236SOL    HW128607   2.864   4.252   5.550
 9236SOL    HW228608   2.945   4.217   5.412
 9237SOL     OW28609   1.988   5.329   4.961
 9237SOL    HW128610   2.046   5.405   4.931
 9237SOL    HW228611   1.906   5.367   5.005
 9238SOL     OW28612   3.843   1.982   6.759
 9238SOL    HW128613   3.911   1.963   6.830
 9238SOL    HW228614   3.886   1.976   6.669
 9239SOL     OW28615   0.034   4.505   0.557
 9239SOL    HW128616   0.129   4.474   0.559
 9239SOL    HW228617   6.998   4.431   0.584
 9240SOL     OW28618   4.602   1.669   1.006
 9240SOL    HW128619   4.572   1.604   1.076
 9240SOL    HW228620   4.648   1.746   1.050
 9241SOL     OW28621   0.544   5.461   5.699
 9241SOL    HW128622   0.611   5.494   5.632
 9241SOL    HW228623   0.563   5.365   5.720
 9242SOL     OW28624   0.130   5.506   0.760
 9242SOL    HW128625   0.209   5.566   0.750
 9242SOL    HW228626   0.127   5.442   0.684
 9243SOL     OW28627   6.305   6.895   2.006
 9243SOL    HW128628   6.317   6.898   1.907
 9243SOL    HW228629   6.221   6.844   2.027
 9244SOL     OW28630   4.706   4.666   6.250
 9244SOL    HW128631   4.622   4.642   6.297
 9244SOL    HW228632   4.701   4.635   6.155
 9245SOL     OW28633   1.537   4.979   3.517
 9245SOL    HW128634   1.584   4.891   3.520
 9245SOL    HW228635   1.560   5.032   3.598
 9246SOL     OW28636   0.205   4.177   3.027
 9246SOL    HW128637   0.282   4.120   2.997
 9246SOL    HW228638   0.137   4.121   3.073
 9247SOL     OW28639   1.188   0.128   3.031
 9247SOL    HW128640   1.118   0.125   2.960
 9247SOL    HW228641   1.150   0.092   3.116
 9248SOL     OW28642   1.641   2.531   5.419
 9248SOL    HW128643   1.600   2.501   5.333
 9248SOL    HW228644   1.582   2.599   5.463
 9249SOL     OW28645   4.950   3.467   6.873
 9249SOL    HW128646   4.888   3.450   6.949
 9249SOL    HW228647   4.995   3.382   6.847
 9250SOL     OW28648   5.362   3.100   4.819
 9250SOL    HW128649   5.281   3.159   4.817
 9250SOL    HW228650   5.439   3.152   4.858
 9251SOL     OW28651   4.218   2.252   3.512
 9251SOL    HW128652   4.258   2.341   3.533
 9251SOL    HW228653   4.292   2.186   3.495
 9252SOL     OW28654   5.668   0.596   4.147
 9252SOL    HW128655   5.647   0.643   4.061
 9252SOL    HW228656   5.716   0.658   4.208
 9253SOL     OW28657   5.814   6.298   5.611
 9253SOL    HW128658   5.745   6.229   5.587
 9253SOL    HW228659   5.804   6.378   5.551
 9254SOL     OW28660   6.300   4.070   2.902
 9254SOL    HW128661   6.234   4.092   2.975
 9254SOL    HW228662   6.306   4.148   2.839
 9255SOL     OW28663   5.046   4.221   0.289
 9255SOL    HW128664   4.971   4.255   0.346
 9255SOL    HW228665   5.093   4.147   0.335
 9256SOL     OW28666   3.815   6.365   2.528
 9256SOL    HW128667   3.794   6.376   2.431
 9256SOL    HW228668   3.899   6.311   2.538
 9257SOL     OW28669   0.584   3.605   3.110
 9257SOL    HW128670   0.651   3.533   3.130
 9257SOL    HW228671   0.502   3.564   3.071
 9258SOL     OW28672   3.243   3.364   3.571
 9258SOL    HW128673   3.293   3.331   3.491
 9258SOL    HW228674   3.298   3.350   3.653
 9259SOL     OW28675   1.187   2.186   0.546
 9259SOL    HW128676   1.209   2.106   0.491
 9259SOL    HW228677   1.137   2.252   0.489
 9260SOL     OW28678   4.926   1.662   5.545
 9260SOL    HW128679   4.968   1.644   5.456
 9260SOL    HW228680   4.899   1.758   5.551
 9261SOL     OW28681   4.288   0.385   7.008
 9261SOL    HW128682   4.313   0.288   7.010
 9261SOL    HW228683   4.215   0.400   6.941
 9262SOL     OW28684   6.457   3.304   5.365
 9262SOL    HW128685   6.362   3.312   5.397
 9262SOL    HW228686   6.460   3.244   5.285
 9263SOL     OW28687   5.532   5.090   1.778
 9263SOL    HW128688   5.606   5.137   1.825
 9263SOL    HW228689   5.569   5.017   1.722
 9264SOL     OW28690   5.519   4.261   0.133
 9264SOL    HW128691   5.539   4.199   0.056
 9264SOL    HW228692   5.550   4.353   0.110
 9265SOL     OW28693   3.164   1.804   6.867
 9265SOL    HW128694   3.099   1.880   6.870
 9265SOL    HW228695   3.165   1.764   6.775
 9266SOL     OW28696   1.860   6.219   1.939
 9266SOL    HW128697   1.854   6.140   1.878
 9266SOL    HW228698   1.938   6.276   1.912
 9267SOL     OW28699   0.125   4.138   6.099
 9267SOL    HW128700   0.214   4.177   6.124
 9267SOL    HW228701   0.095   4.075   6.171
 9268SOL     OW28702   1.898   4.975   1.427
 9268SOL    HW128703   1.931   4.929   1.345
 9268SOL    HW228704   1.815   5.027   1.405
 9269SOL     OW28705   3.422   2.215   5.932
 9269SOL    HW128706   3.491   2.281   5.903
 9269SOL    HW228707   3.462   2.123   5.930
 9270SOL     OW28708   4.722   0.006   5.752
 9270SOL    HW128709   4.747   0.063   5.829
 9270SOL    HW228710   4.762   0.043   5.668
 9271SOL     OW28711   2.372   5.689   6.708
 9271SOL    HW128712   2.310   5.616   6.680
 9271SOL    HW228713   2.318   5.764   6.747
 9272SOL     OW28714   2.071   5.946   5.705
 9272SOL    HW128715   2.012   5.866   5.693
 9272SOL    HW228716   2.074   5.998   5.619
 9273SOL     OW28717   5.399   5.888   4.053
 9273SOL    HW128718   5.339   5.915   3.977
 9273SOL    HW228719   5.489   5.863   4.016
 9274SOL     OW28720   6.841   2.595   0.274
 9274SOL    HW128721   6.884   2.585   0.364
 9274SOL    HW228722   6.798   2.509   0.248
 9275SOL     OW28723   6.737   2.103   0.257
 9275SOL    HW128724   6.679   2.044   0.201
 9275SOL    HW228725   6.720   2.085   0.354
 9276SOL     OW28726   2.273   4.935   3.154
 9276SOL    HW128727   2.281   4.941   3.254
 9276SOL    HW228728   2.280   4.840   3.126
 9277SOL     OW28729   5.600   3.481   0.299
 9277SOL    HW128730   5.685   3.445   0.337
 9277SOL    HW228731   5.526   3.470   0.365
 9278SOL     OW28732   1.168   0.676   4.536
 9278SOL    HW128733   1.132   0.641   4.622
 9278SOL    HW228734   1.210   0.602   4.484
 9279SOL     OW28735   4.591   0.672   2.104
 9279SOL    HW128736   4.568   0.638   2.195
 9279SOL    HW228737   4.595   0.772   2.105
 9280SOL     OW28738   1.713   1.210   2.853
 9280SOL    HW128739   1.752   1.230   2.943
 9280SOL    HW228740   1.669   1.120   2.854
 9281SOL     OW28741   3.187   4.275   1.195
 9281SOL    HW128742   3.138   4.358   1.165
 9281SOL    HW228743   3.138   4.194   1.163
 9282SOL     OW28744   4.756   1.601   4.915
 9282SOL    HW128745   4.820   1.567   4.846
 9282SOL    HW228746   4.716   1.523   4.964
 9283SOL     OW28747   5.378   0.780   4.014
 9283SOL    HW128748   5.302   0.823   3.965
 9283SOL    HW228749   5.433   0.726   3.950
 9284SOL     OW28750   3.316   4.748   5.583
 9284SOL    HW128751   3.230   4.705   5.611
 9284SOL    HW228752   3.391   4.684   5.601
 9285SOL     OW28753   5.474   3.169   1.091
 9285SOL    HW128754   5.416   3.243   1.055
 9285SOL    HW228755   5.532   3.205   1.163
 9286SOL     OW28756   5.272   6.776   6.354
 9286SOL    HW128757   5.211   6.698   6.342
 9286SOL    HW228758   5.224   6.860   6.329
 9287SOL     OW28759   3.671   5.516   0.723
 9287SOL    HW128760   3.731   5.438   0.707
 9287SOL    HW228761   3.608   5.495   0.798
 9288SOL     OW28762   3.938   1.140   4.725
 9288SOL    HW128763   3.856   1.161   4.777
 9288SOL    HW228764   3.963   1.219   4.668
 9289SOL     OW28765   3.412   2.055   2.699
 9289SOL    HW128766   3.433   2.026   2.792
 9289SOL    HW228767   3.392   1.974   2.643
 9290SOL     OW28768   4.540   1.917   3.636
 9290SOL    HW128769   4.633   1.952   3.644
 9290SOL    HW228770   4.543   1.817   3.628
 9291SOL     OW28771   2.453   0.008   4.790
 9291SOL    HW128772   2.422   6.938   4.781
 9291SOL    HW228773   2.375   0.067   4.810
 9292SOL     OW28774   0.164   3.013   6.666
 9292SOL    HW128775   0.242   3.076   6.661
 9292SOL    HW228776   0.164   2.953   6.587
 9293SOL     OW28777   5.493   3.712   0.178
 9293SOL    HW128778   5.546   3.639   0.222
 9293SOL    HW228779   5.494   3.699   0.079
 9294SOL     OW28780   3.307   6.492   5.165
 9294SOL    HW128781   3.210   6.478   5.182
 9294SOL    HW228782   3.321   6.523   5.071
 9295SOL     OW28783   5.136   2.450   4.455
 9295SOL    HW128784   5.058   2.394   4.427
 9295SOL    HW228785   5.111   2.506   4.534
 9296SOL     OW28786   0.396   6.697   6.026
 9296SOL    HW128787   0.300   6.702   5.998
 9296SOL    HW228788   0.448   6.771   5.982
 9297SOL     OW28789   6.274   1.267   0.515
 9297SOL    HW128790   6.198   1.210   0.484
 9297SOL    HW228791   6.311   1.230   0.600
 9298SOL     OW28792   1.561   0.814   4.698
 9298SOL    HW128793   1.522   0.773   4.616
 9298SOL    HW228794   1.656   0.782   4.709
 9299SOL     OW28795   0.705   2.660   4.585
 9299SOL    HW128796   0.710   2.703   4.675
 9299SOL    HW228797   0.745   2.568   4.590
 9300SOL     OW28798   0.208   4.295   4.923
 9300SOL    HW128799   0.198   4.393   4.936
 9300SOL    HW228800   0.118   4.252   4.919
 9301SOL     OW28801   4.919   4.272   3.746
 9301SOL    HW128802   4.956   4.180   3.734
 9301SOL    HW228803   4.993   4.333   3.776
 9302SOL     OW28804   2.044   3.356   4.402
 9302SOL    HW128805   2.054   3.262   4.371
 9302SOL    HW228806   2.101   3.371   4.483
 9303SOL     OW28807   4.158   6.041   0.415
 9303SOL    HW128808   4.110   6.055   0.328
 9303SOL    HW228809   4.229   6.111   0.425
 9304SOL     OW28810   4.678   3.971   1.434
 9304SOL    HW128811   4.701   4.016   1.520
 9304SOL    HW228812   4.762   3.948   1.385
 9305SOL     OW28813   3.444   1.281   2.242
 9305SOL    HW128814   3.501   1.230   2.306
 9305SOL    HW228815   3.373   1.330   2.293
 9306SOL     OW28816   0.454   4.166   4.774
 9306SOL    HW128817   0.382   4.210   4.829
 9306SOL    HW228818   0.497   4.093   4.828
 9307SOL     OW28819   1.285   3.367   0.946
 9307SOL    HW128820   1.331   3.414   1.021
 9307SOL    HW228821   1.280   3.428   0.867
 9308SOL     OW28822   1.141   4.408   1.158
 9308SOL    HW128823   1.161   4.327   1.102
 9308SOL    HW228824   1.075   4.466   1.110
 9309SOL     OW28825   3.630   4.979   5.567
 9309SOL    HW128826   3.693   4.906   5.540
 9309SOL    HW228827   3.608   5.035   5.488
 9310SOL     OW28828   4.425   5.185   5.677
 9310SOL    HW128829   4.502   5.190   5.613
 9310SOL    HW228830   4.339   5.189   5.626
 9311SOL     OW28831   5.075   5.162   1.982
 9311SOL    HW128832   4.986   5.206   1.977
 9311SOL    HW228833   5.109   5.144   1.890
 9312SOL     OW28834   1.364   3.600   1.448
 9312SOL    HW128835   1.268   3.617   1.470
 9312SOL    HW228836   1.421   3.624   1.527
 9313SOL     OW28837   6.702   0.540   1.067
 9313SOL    HW128838   6.704   0.475   0.990
 9313SOL    HW228839   6.628   0.606   1.053
 9314SOL     OW28840   4.719   5.706   6.379
 9314SOL    HW128841   4.740   5.649   6.300
 9314SOL    HW228842   4.667   5.786   6.351
 9315SOL     OW28843   6.338   0.641   5.424
 9315SOL    HW128844   6.396   0.651   5.343
 9315SOL    HW228845   6.310   0.545   5.433
 9316SOL     OW28846   4.626   6.015   5.123
 9316SOL    HW128847   4.601   5.987   5.216
 9316SOL    HW228848   4.669   6.105   5.126
 9317SOL     OW28849   6.460   5.144   3.243
 9317SOL    HW128850   6.371   5.137   3.198
 9317SOL    HW228851   6.527   5.180   3.178
 9318SOL     OW28852   6.094   0.381   5.771
 9318SOL    HW128853   6.008   0.400   5.725
 9318SOL    HW228854   6.137   0.467   5.799
 9319SOL     OW28855   1.104   2.418   6.859
 9319SOL    HW128856   1.118   2.454   6.767
 9319SOL    HW228857   1.056   2.330   6.853
 9320SOL     OW28858   3.764   1.094   6.214
 9320SOL    HW128859   3.675   1.094   6.260
 9320SOL    HW228860   3.751   1.117   6.117
 9321SOL     OW28861   6.392   0.210   3.492
 9321SOL    HW128862   6.348   0.147   3.555
 9321SOL    HW228863   6.338   0.294   3.486
 9322SOL     OW28864   1.171   4.872   6.425
 9322SOL    HW128865   1.157   4.962   6.465
 9322SOL    HW228866   1.101   4.809   6.458
 9323SOL     OW28867   1.583   0.164   5.372
 9323SOL    HW128868   1.512   0.109   5.329
 9323SOL    HW228869   1.555   0.190   5.464
 9324SOL     OW28870   1.669   4.877   0.648
 9324SOL    HW128871   1.754   4.894   0.698
 9324SOL    HW228872   1.597   4.937   0.682
 9325SOL     OW28873   5.083   0.937   6.536
 9325SOL    HW128874   5.111   0.976   6.448
 9325SOL    HW228875   5.154   0.955   6.605
 9326SOL     OW28876   2.049   6.439   0.745
 9326SOL    HW128877   1.969   6.459   0.689
 9326SOL    HW228878   2.024   6.442   0.842
 9327SOL     OW28879   5.050   6.881   2.874
 9327SOL    HW128880   5.033   6.848   2.967
 9327SOL    HW228881   5.011   6.816   2.809
 9328SOL     OW28882   3.372   0.690   5.536
 9328SOL    HW128883   3.290   0.719   5.485
 9328SOL    HW228884   3.454   0.725   5.491
 9329SOL     OW28885   6.725   4.381   2.495
 9329SOL    HW128886   6.654   4.327   2.448
 9329SOL    HW228887   6.815   4.354   2.461
 9330SOL     OW28888   6.920   6.286   6.774
 9330SOL    HW128889   6.926   6.353   6.848
 9330SOL    HW228890   6.911   6.334   6.686
 9331SOL     OW28891   1.307   1.270   6.558
 9331SOL    HW128892   1.395   1.229   6.580
 9331SOL    HW228893   1.317   1.370   6.554
 9332SOL     OW28894   3.876   3.918   1.977
 9332SOL    HW128895   3.951   3.959   1.926
 9332SOL    HW228896   3.818   3.865   1.915
 9333SOL     OW28897   4.251   3.496   1.398
 9333SOL    HW128898   4.241   3.528   1.492
 9333SOL    HW228899   4.204   3.559   1.337
 9334SOL     OW28900   5.015   5.770   3.876
 9334SOL    HW128901   4.993   5.714   3.797
 9334SOL    HW228902   4.988   5.722   3.960
 9335SOL     OW28903   0.962   1.713   6.158
 9335SOL    HW128904   1.018   1.707   6.075
 9335SOL    HW228905   0.986   1.638   6.220
 9336SOL     OW28906   3.043   5.086   5.326
 9336SOL    HW128907   2.968   5.042   5.376
 9336SOL    HW228908   3.077   5.023   5.256
 9337SOL     OW28909   5.436   1.821   3.600
 9337SOL    HW128910   5.504   1.752   3.623
 9337SOL    HW228911   5.355   1.778   3.561
 9338SOL     OW28912   3.843   0.219   1.853
 9338SOL    HW128913   3.869   0.305   1.810
 9338SOL    HW228914   3.840   0.146   1.784
 9339SOL     OW28915   5.620   0.328   1.055
 9339SOL    HW128916   5.635   0.427   1.063
 9339SOL    HW228917   5.523   0.311   1.038
 9340SOL     OW28918   5.738   3.660   4.241
 9340SOL    HW128919   5.759   3.747   4.196
 9340SOL    HW228920   5.639   3.643   4.234
 9341SOL     OW28921   0.335   6.180   0.387
 9341SOL    HW128922   0.395   6.165   0.308
 9341SOL    HW228923   0.378   6.143   0.469
 9342SOL     OW28924   1.842   0.076   3.394
 9342SOL    HW128925   1.786   0.158   3.410
 9342SOL    HW228926   1.794   0.015   3.331
 9343SOL     OW28927   5.858   4.533   2.963
 9343SOL    HW128928   5.795   4.481   2.905
 9343SOL    HW228929   5.831   4.630   2.961
 9344SOL     OW28930   4.644   6.346   1.776
 9344SOL    HW128931   4.612   6.396   1.696
 9344SOL    HW228932   4.741   6.365   1.790
 9345SOL     OW28933   6.593   4.597   2.586
 9345SOL    HW128934   6.499   4.576   2.560
 9345SOL    HW228935   6.655   4.531   2.544
 9346SOL     OW28936   5.896   0.754   0.994
 9346SOL    HW128937   5.937   0.705   1.071
 9346SOL    HW228938   5.864   0.843   1.024
 9347SOL     OW28939   1.061   4.378   0.645
 9347SOL    HW128940   1.045   4.280   0.645
 9347SOL    HW228941   1.157   4.397   0.667
 9348SOL     OW28942   4.050   5.738   1.741
 9348SOL    HW128943   4.030   5.834   1.718
 9348SOL    HW228944   4.029   5.721   1.837
 9349SOL     OW28945   1.165   6.306   2.603
 9349SOL    HW128946   1.165   6.252   2.519
 9349SOL    HW228947   1.111   6.259   2.673
 9350SOL     OW28948   0.247   3.261   5.167
 9350SOL    HW128949   0.187   3.257   5.247
 9350SOL    HW228950   0.309   3.182   5.168
 9351SOL     OW28951   2.906   0.276   6.584
 9351SOL    HW128952   2.931   0.206   6.517
 9351SOL    HW228953   2.815   0.311   6.563
 9352SOL     OW28954   3.305   2.217   0.113
 9352SOL    HW128955   3.342   2.262   0.032
 9352SOL    HW228956   3.207   2.201   0.101
 9353SOL     OW28957   0.733   5.042   0.760
 9353SOL    HW128958   0.686   4.972   0.706
 9353SOL    HW228959   0.832   5.034   0.745
 9354SOL     OW28960   6.462   1.851   6.522
 9354SOL    HW128961   6.458   1.758   6.488
 9354SOL    HW228962   6.533   1.902   6.473
 9355SOL     OW28963   0.545   2.444   4.912
 9355SOL    HW128964   0.479   2.481   4.977
 9355SOL    HW228965   0.638   2.453   4.949
 9356SOL     OW28966   4.441   0.065   1.515
 9356SOL    HW128967   4.449   0.157   1.476
 9356SOL    HW228968   4.517   0.048   1.577
 9357SOL     OW28969   1.054   3.681   6.424
 9357SOL    HW128970   1.113   3.727   6.490
 9357SOL    HW228971   1.032   3.589   6.457
 9358SOL     OW28972   7.016   3.997   2.501
 9358SOL    HW128973   6.951   3.924   2.521
 9358SOL    HW228974   7.021   4.059   2.579
 9359SOL     OW28975   1.714   4.881   0.042
 9359SOL    HW128976   1.754   4.836   6.987
 9359SOL    HW228977   1.660   4.815   0.095
 9360SOL     OW28978   1.817   5.289   6.374
 9360SOL    HW128979   1.794   5.198   6.340
 9360SOL    HW228980   1.772   5.304   6.462
 9361SOL     OW28981   1.745   5.346   3.174
 9361SOL    HW128982   1.771   5.441   3.159
 9361SOL    HW228983   1.773   5.291   3.096
 9362SOL     OW28984   1.137   1.288   2.460
 9362SOL    HW128985   1.052   1.335   2.436
 9362SOL    HW228986   1.116   1.203   2.509
 9363SOL     OW28987   3.908   5.343   1.775
 9363SOL    HW128988   3.931   5.379   1.866
 9363SOL    HW228989   3.890   5.420   1.714
 9364SOL     OW28990   2.162   1.917   0.718
 9364SOL    HW128991   2.063   1.903   0.731
 9364SOL    HW228992   2.211   1.889   0.800
 9365SOL     OW28993   2.986   2.032   3.791
 9365SOL    HW128994   3.074   2.044   3.745
 9365SOL    HW228995   2.937   1.955   3.749
 9366SOL     OW28996   3.395   5.351   0.489
 9366SOL    HW128997   3.485   5.332   0.449
 9366SOL    HW228998   3.383   5.450   0.499
 9367SOL     OW28999   6.306   0.227   1.634
 9367SOL    HW129000   6.281   0.168   1.556
 9367SOL    HW229001   6.234   0.296   1.647
 9368SOL     OW29002   3.548   6.485   2.011
 9368SOL    HW129003   3.561   6.398   2.059
 9368SOL    HW229004   3.609   6.489   1.932
 9369SOL     OW29005   0.248   6.019   5.116
 9369SOL    HW129006   0.167   5.965   5.093
 9369SOL    HW229007   0.303   5.969   5.183
 9370SOL     OW29008   5.023   0.303   3.520
 9370SOL    HW129009   5.089   0.348   3.460
 9370SOL    HW229010   5.039   0.332   3.614
 9371SOL     OW29011   2.529   5.738   1.175
 9371SOL    HW129012   2.572   5.655   1.213
 9371SOL    HW229013   2.504   5.722   1.080
 9372SOL     OW29014   5.083   7.013   1.609
 9372SOL    HW129015   5.177   6.984   1.595
 9372SOL    HW229016   5.065   7.021   1.708
 9373SOL     OW29017   5.399   2.151   0.424
 9373SOL    HW129018   5.446   2.197   0.498
 9373SOL    HW229019   5.307   2.189   0.414
 9374SOL     OW29020   6.594   3.140   5.600
 9374SOL    HW129021   6.612   3.236   5.621
 9374SOL    HW229022   6.500   3.129   5.568
 9375SOL     OW29023   6.910   1.709   1.078
 9375SOL    HW129024   6.970   1.676   1.151
 9375SOL    HW229025   6.851   1.782   1.113
 9376SOL     OW29026   2.018   3.484   1.801
 9376SOL    HW129027   2.013   3.578   1.769
 9376SOL    HW229028   2.104   3.469   1.849
 9377SOL     OW29029   2.356   5.353   3.308
 9377SOL    HW129030   2.290   5.423   3.280
 9377SOL    HW229031   2.438   5.361   3.250
 9378SOL     OW29032   3.261   1.225   3.789
 9378SOL    HW129033   3.300   1.313   3.817
 9378SOL    HW229034   3.332   1.155   3.789
 9379SOL     OW29035   5.455   0.047   4.758
 9379SOL    HW129036   5.493   0.123   4.705
 9379SOL    HW229037   5.414   7.005   4.695
 9380SOL     OW29038   3.458   5.650   5.798
 9380SOL    HW129039   3.547   5.618   5.765
 9380SOL    HW229040   3.386   5.595   5.756
 9381SOL     OW29041   5.078   2.720   4.931
 9381SOL    HW129042   5.140   2.777   4.877
 9381SOL    HW229043   5.128   2.643   4.970
 9382SOL     OW29044   3.944   1.024   4.051
 9382SOL    HW129045   3.908   0.985   3.967
 9382SOL    HW229046   4.042   1.042   4.041
 9383SOL     OW29047   4.835   4.348   4.485
 9383SOL    HW129048   4.929   4.323   4.507
 9383SOL    HW229049   4.831   4.383   4.391
 9384SOL     OW29050   2.898   6.628   2.096
 9384SOL    HW129051   2.810   6.584   2.115
 9384SOL    HW229052   2.891   6.725   2.117
 9385SOL     OW29053   4.314   1.796   4.234
 9385SOL    HW129054   4.412   1.802   4.213
 9385SOL    HW229055   4.268   1.879   4.201
 9386SOL     OW29056   2.776   5.710   5.340
 9386SOL    HW129057   2.737   5.632   5.388
 9386SOL    HW229058   2.709   5.784   5.338
 9387SOL     OW29059   3.635   1.921   0.210
 9387SOL    HW129060   3.665   1.919   0.305
 9387SOL    HW229061   3.638   2.014   0.175
 9388SOL     OW29062   2.094   6.741   3.204
 9388SOL    HW129063   2.074   6.826   3.155
 9388SOL    HW229064   2.029   6.671   3.176
 9389SOL     OW29065   3.181   6.092   2.615
 9389SOL    HW129066   3.250   6.035   2.569
 9389SOL    HW229067   3.218   6.184   2.629
 9390SOL     OW29068   5.939   5.033   5.882
 9390SOL    HW129069   5.936   5.056   5.785
 9390SOL    HW229070   5.860   5.074   5.928
 9391SOL     OW29071   0.880   0.037   4.781
 9391SOL    HW129072   0.931   0.003   4.702
 9391SOL    HW229073   0.871   6.988   4.849
 9392SOL     OW29074   4.665   4.252   4.023
 9392SOL    HW129075   4.629   4.239   3.931
 9392SOL    HW229076   4.732   4.180   4.043
 9393SOL     OW29077   2.684   6.753   5.935
 9393SOL    HW129078   2.610   6.745   6.003
 9393SOL    HW229079   2.704   6.663   5.897
 9394SOL     OW29080   5.897   0.561   1.244
 9394SOL    HW129081   5.913   0.591   1.338
 9394SOL    HW229082   5.926   0.466   1.234
 9395SOL     OW29083   2.531   1.392   0.897
 9395SOL    HW129084   2.567   1.408   0.989
 9395SOL    HW229085   2.456   1.456   0.880
 9396SOL     OW29086   2.025   4.987   5.298
 9396SOL    HW129087   2.044   5.019   5.205
 9396SOL    HW229088   2.078   5.041   5.363
 9397SOL     OW29089   3.166   6.682   5.471
 9397SOL    HW129090   3.184   6.618   5.545
 9397SOL    HW229091   3.252   6.712   5.430
 9398SOL     OW29092   6.147   0.964   5.731
 9398SOL    HW129093   6.099   0.993   5.648
 9398SOL    HW229094   6.201   0.882   5.712
 9399SOL     OW29095   1.000   2.378   4.615
 9399SOL    HW129096   0.993   2.352   4.712
 9399SOL    HW229097   0.909   2.378   4.575
 9400SOL     OW29098   4.878   0.519   0.196
 9400SOL    HW129099   4.803   0.585   0.193
 9400SOL    HW229100   4.888   0.476   0.106
 9401SOL     OW29101   0.213   2.724   1.702
 9401SOL    HW129102   0.143   2.661   1.669
 9401SOL    HW229103   0.206   2.733   1.802
 9402SOL     OW29104   1.984   5.315   3.503
 9402SOL    HW129105   1.989   5.283   3.597
 9402SOL    HW229106   1.924   5.255   3.450
 9403SOL     OW29107   0.329   1.271   2.656
 9403SOL    HW129108   0.383   1.355   2.644
 9403SOL    HW229109   0.321   1.224   2.568
 9404SOL     OW29110   0.355   2.157   1.355
 9404SOL    HW129111   0.258   2.170   1.331
 9404SOL    HW229112   0.364   2.080   1.418
 9405SOL     OW29113   0.960   4.506   4.758
 9405SOL    HW129114   0.994   4.475   4.669
 9405SOL    HW229115   0.896   4.582   4.745
 9406SOL     OW29116   0.933   3.410   6.548
 9406SOL    HW129117   0.927   3.314   6.574
 9406SOL    HW229118   0.938   3.467   6.630
 9407SOL     OW29119   2.846   5.106   4.761
 9407SOL    HW129120   2.830   5.195   4.803
 9407SOL    HW229121   2.809   5.105   4.668
 9408SOL     OW29122   6.881   3.101   5.749
 9408SOL    HW129123   6.977   3.121   5.767
 9408SOL    HW229124   6.874   3.033   5.676
 9409SOL     OW29125   6.608   5.560   2.331
 9409SOL    HW129126   6.650   5.596   2.248
 9409SOL    HW229127   6.659   5.590   2.411
 9410SOL     OW29128   5.045   1.082   1.632
 9410SOL    HW129129   5.078   1.138   1.556
 9410SOL    HW229130   4.963   1.124   1.671
 9411SOL     OW29131   2.984   3.280   3.003
 9411SOL    HW129132   3.020   3.229   2.924
 9411SOL    HW229133   3.013   3.235   3.087
 9412SOL     OW29134   0.988   0.705   1.169
 9412SOL    HW129135   0.894   0.686   1.138
 9412SOL    HW229136   1.030   0.772   1.108
 9413SOL     OW29137   4.894   4.756   4.654
 9413SOL    HW129138   4.978   4.702   4.652
 9413SOL    HW229139   4.844   4.736   4.738
 9414SOL     OW29140   2.452   2.150   4.814
 9414SOL    HW129141   2.543   2.174   4.849
 9414SOL    HW229142   2.442   2.184   4.721
 9415SOL     OW29143   2.882   0.235   1.821
 9415SOL    HW129144   2.827   0.171   1.874
 9415SOL    HW229145   2.973   0.196   1.806
 9416SOL     OW29146   0.578   0.150   5.075
 9416SOL    HW129147   0.494   0.186   5.035
 9416SOL    HW229148   0.644   0.224   5.086
 9417SOL     OW29149   3.230   6.583   1.617
 9417SOL    HW129150   3.329   6.588   1.606
 9417SOL    HW229151   3.192   6.675   1.611
 9418SOL     OW29152   3.023   1.477   3.088
 9418SOL    HW129153   2.970   1.432   3.160
 9418SOL    HW229154   3.058   1.564   3.123
 9419SOL     OW29155   2.488   2.683   6.282
 9419SOL    HW129156   2.394   2.717   6.288
 9419SOL    HW229157   2.551   2.761   6.280
 9420SOL     OW29158   5.926   4.484   0.633
 9420SOL    HW129159   5.940   4.510   0.537
 9420SOL    HW229160   5.959   4.557   0.693
 9421SOL     OW29161   3.211   5.492   4.364
 9421SOL    HW129162   3.178   5.579   4.400
 9421SOL    HW229163   3.164   5.417   4.410
 9422SOL     OW29164   2.591   6.403   4.019
 9422SOL    HW129165   2.637   6.362   3.941
 9422SOL    HW229166   2.552   6.491   3.992
 9423SOL     OW29167   3.773   5.892   2.731
 9423SOL    HW129168   3.810   5.859   2.644
 9423SOL    HW229169   3.674   5.882   2.731
 9424SOL     OW29170   5.152   1.748   4.862
 9424SOL    HW129171   5.199   1.771   4.947
 9424SOL    HW229172   5.204   1.678   4.813
 9425SOL     OW29173   6.095   4.736   1.549
 9425SOL    HW129174   6.032   4.811   1.528
 9425SOL    HW229175   6.121   4.689   1.465
 9426SOL     OW29176   1.274   1.956   6.363
 9426SOL    HW129177   1.182   1.988   6.384
 9426SOL    HW229178   1.274   1.856   6.358
 9427SOL     OW29179   2.486   5.879   2.952
 9427SOL    HW129180   2.402   5.876   3.006
 9427SOL    HW229181   2.470   5.933   2.869
 9428SOL     OW29182   6.266   6.202   0.274
 9428SOL    HW129183   6.334   6.146   0.321
 9428SOL    HW229184   6.176   6.158   0.281
 9429SOL     OW29185   1.380   2.132   4.446
 9429SOL    HW129186   1.430   2.132   4.359
 9429SOL    HW229187   1.417   2.061   4.506
 9430SOL     OW29188   0.139   2.403   4.557
 9430SOL    HW129189   0.068   2.368   4.618
 9430SOL    HW229190   0.221   2.425   4.611
 9431SOL     OW29191   6.861   4.622   0.927
 9431SOL    HW129192   6.806   4.543   0.955
 9431SOL    HW229193   6.949   4.591   0.892
 9432SOL     OW29194   6.875   1.620   4.115
 9432SOL    HW129195   6.798   1.559   4.099
 9432SOL    HW229196   6.844   1.701   4.165
 9433SOL     OW29197   4.122   5.853   2.624
 9433SOL    HW129198   4.186   5.815   2.557
 9433SOL    HW229199   4.041   5.796   2.629
 9434SOL     OW29200   5.769   5.546   3.822
 9434SOL    HW129201   5.677   5.585   3.834
 9434SOL    HW229202   5.837   5.619   3.826
 9435SOL     OW29203   0.191   2.590   2.425
 9435SOL    HW129204   0.169   2.669   2.481
 9435SOL    HW229205   0.274   2.546   2.459
 9436SOL     OW29206   1.127   0.859   2.117
 9436SOL    HW129207   1.072   0.780   2.146
 9436SOL    HW229208   1.082   0.943   2.146
 9437SOL     OW29209   0.709   5.322   3.023
 9437SOL    HW129210   0.737   5.302   2.929
 9437SOL    HW229211   0.775   5.282   3.086
 9438SOL     OW29212   1.688   0.065   1.678
 9438SOL    HW129213   1.752   0.121   1.626
 9438SOL    HW229214   1.629   0.124   1.734
 9439SOL     OW29215   0.600   3.012   0.964
 9439SOL    HW129216   0.626   2.982   0.872
 9439SOL    HW229217   0.558   3.103   0.958
 9440SOL     OW29218   2.672   4.815   3.384
 9440SOL    HW129219   2.608   4.884   3.417
 9440SOL    HW229220   2.639   4.778   3.297
 9441SOL     OW29221   6.775   5.732   5.074
 9441SOL    HW129222   6.875   5.733   5.079
 9441SOL    HW229223   6.746   5.704   4.983
 9442SOL     OW29224   4.658   3.590   1.411
 9442SOL    HW129225   4.570   3.636   1.410
 9442SOL    HW229226   4.732   3.657   1.403
 9443SOL     OW29227   2.788   5.753   1.786
 9443SOL    HW129228   2.739   5.839   1.801
 9443SOL    HW229229   2.723   5.682   1.761
 9444SOL     OW29230   1.906   3.712   0.560
 9444SOL    HW129231   1.994   3.739   0.599
 9444SOL    HW229232   1.900   3.746   0.466
 9445SOL     OW29233   0.469   1.953   3.739
 9445SOL    HW129234   0.501   1.875   3.793
 9445SOL    HW229235   0.393   1.923   3.680
 9446SOL     OW29236   6.241   5.266   4.338
 9446SOL    HW129237   6.148   5.229   4.329
 9446SOL    HW229238   6.305   5.190   4.349
 9447SOL     OW29239   5.003   5.258   2.827
 9447SOL    HW129240   5.010   5.349   2.785
 9447SOL    HW229241   5.019   5.188   2.758
 9448SOL     OW29242   5.973   6.625   5.536
 9448SOL    HW129243   6.042   6.686   5.495
 9448SOL    HW229244   5.932   6.670   5.615
 9449SOL     OW29245   5.436   6.608   6.597
 9449SOL    HW129246   5.516   6.667   6.603
 9449SOL    HW229247   5.442   6.551   6.515
 9450SOL     OW29248   1.834   5.478   4.307
 9450SOL    HW129249   1.832   5.505   4.211
 9450SOL    HW229250   1.926   5.445   4.330
 9451SOL     OW29251   3.471   5.709   6.402
 9451SOL    HW129252   3.395   5.774   6.409
 9451SOL    HW229253   3.434   5.616   6.400
 9452SOL     OW29254   0.545   4.262   1.082
 9452SOL    HW129255   0.550   4.344   1.139
 9452SOL    HW229256   0.607   4.273   1.004
 9453SOL     OW29257   2.964   4.778   3.252
 9453SOL    HW129258   2.936   4.774   3.348
 9453SOL    HW229259   2.905   4.719   3.197
 9454SOL     OW29260   4.468   4.130   1.195
 9454SOL    HW129261   4.399   4.061   1.172
 9454SOL    HW229262   4.549   4.086   1.233
 9455SOL     OW29263   2.483   2.362   2.714
 9455SOL    HW129264   2.466   2.308   2.632
 9455SOL    HW229265   2.493   2.301   2.793
 9456SOL     OW29266   6.377   3.890   2.464
 9456SOL    HW129267   6.335   3.875   2.375
 9456SOL    HW229268   6.307   3.920   2.529
 9457SOL     OW29269   0.862   5.130   4.335
 9457SOL    HW129270   0.932   5.118   4.405
 9457SOL    HW229271   0.860   5.226   4.306
 9458SOL     OW29272   6.850   4.310   0.658
 9458SOL    HW129273   6.776   4.331   0.594
 9458SOL    HW229274   6.923   4.263   0.610
 9459SOL     OW29275   5.314   4.227   4.505
 9459SOL    HW129276   5.351   4.159   4.568
 9459SOL    HW229277   5.334   4.200   4.410
 9460SOL     OW29278   1.798   3.127   4.641
 9460SOL    HW129279   1.741   3.099   4.718
 9460SOL    HW229280   1.892   3.097   4.656
 9461SOL     OW29281   1.081   1.685   1.258
 9461SOL    HW129282   1.005   1.688   1.193
 9461SOL    HW229283   1.166   1.667   1.208
 9462SOL     OW29284   1.423   3.179   3.381
 9462SOL    HW129285   1.489   3.221   3.443
 9462SOL    HW229286   1.335   3.226   3.388
 9463SOL     OW29287   5.052   6.537   1.384
 9463SOL    HW129288   5.104   6.547   1.468
 9463SOL    HW229289   5.100   6.474   1.323
 9464SOL     OW29290   6.447   0.526   1.614
 9464SOL    HW129291   6.376   0.469   1.574
 9464SOL    HW229292   6.485   0.587   1.544
 9465SOL     OW29293   0.365   3.843   1.724
 9465SOL    HW129294   0.294   3.856   1.655
 9465SOL    HW229295   0.325   3.847   1.815
 9466SOL     OW29296   4.349   5.816   6.465
 9466SOL    HW129297   4.398   5.882   6.408
 9466SOL    HW229298   4.409   5.739   6.487
 9467SOL     OW29299   1.879   2.792   0.966
 9467SOL    HW129300   1.932   2.707   0.972
 9467SOL    HW229301   1.805   2.781   0.900
 9468SOL     OW29302   6.507   3.689   6.617
 9468SOL    HW129303   6.562   3.690   6.700
 9468SOL    HW229304   6.411   3.703   6.640
 9469SOL     OW29305   6.713   6.329   0.223
 9469SOL    HW129306   6.717   6.396   0.149
 9469SOL    HW229307   6.785   6.260   0.209
 9470SOL     OW29308   4.763   3.959   0.078
 9470SOL    HW129309   4.719   3.923   7.020
 9470SOL    HW229310   4.693   3.991   0.141
 9471SOL     OW29311   6.343   2.369   5.503
 9471SOL    HW129312   6.358   2.371   5.404
 9471SOL    HW229313   6.359   2.277   5.537
 9472SOL     OW29314   1.348   4.576   6.498
 9472SOL    HW129315   1.308   4.587   6.406
 9472SOL    HW229316   1.447   4.567   6.490
 9473SOL     OW29317   3.481   4.013   6.637
 9473SOL    HW129318   3.505   3.982   6.545
 9473SOL    HW229319   3.444   3.936   6.689
 9474SOL     OW29320   6.032   3.605   1.800
 9474SOL    HW129321   6.118   3.613   1.850
 9474SOL    HW229322   5.964   3.665   1.841
 9475SOL     OW29323   4.327   3.647   6.411
 9475SOL    HW129324   4.404   3.589   6.382
 9475SOL    HW229325   4.287   3.611   6.495
 9476SOL     OW29326   3.836   4.354   5.702
 9476SOL    HW129327   3.746   4.355   5.657
 9476SOL    HW229328   3.824   4.368   5.800
 9477SOL     OW29329   1.651   3.295   0.804
 9477SOL    HW129330   1.667   3.234   0.882
 9477SOL    HW229331   1.728   3.291   0.741
 9478SOL     OW29332   4.192   2.606   1.312
 9478SOL    HW129333   4.289   2.597   1.289
 9478SOL    HW229334   4.173   2.556   1.397
 9479SOL     OW29335   4.294   0.683   1.325
 9479SOL    HW129336   4.393   0.691   1.310
 9479SOL    HW229337   4.275   0.598   1.374
 9480SOL     OW29338   5.677   5.998   6.990
 9480SOL    HW129339   5.743   6.072   6.978
 9480SOL    HW229340   5.586   6.036   7.007
 9481SOL     OW29341   4.982   2.050   3.054
 9481SOL    HW129342   5.037   2.129   3.079
 9481SOL    HW229343   4.892   2.081   3.022
 9482SOL     OW29344   5.813   0.020   1.272
 9482SOL    HW129345   5.767   0.029   1.183
 9482SOL    HW229346   5.790   6.956   1.313
 9483SOL     OW29347   1.350   0.672   6.907
 9483SOL    HW129348   1.275   0.721   6.861
 9483SOL    HW229349   1.393   0.732   6.974
 9484SOL     OW29350   2.859   0.124   4.261
 9484SOL    HW129351   2.917   0.158   4.186
 9484SOL    HW229352   2.896   0.038   4.296
 9485SOL     OW29353   6.108   1.660   1.266
 9485SOL    HW129354   6.186   1.598   1.280
 9485SOL    HW229355   6.046   1.653   1.344
 9486SOL     OW29356   4.845   5.631   0.831
 9486SOL    HW129357   4.823   5.668   0.920
 9486SOL    HW229358   4.866   5.533   0.840
 9487SOL     OW29359   3.239   3.764   4.645
 9487SOL    HW129360   3.289   3.773   4.559
 9487SOL    HW229361   3.143   3.787   4.631
 9488SOL     OW29362   1.797   1.240   1.766
 9488SOL    HW129363   1.876   1.219   1.708
 9488SOL    HW229364   1.721   1.269   1.708
 9489SOL     OW29365   5.266   4.481   0.976
 9489SOL    HW129366   5.181   4.443   0.940
 9489SOL    HW229367   5.344   4.427   0.944
 9490SOL     OW29368   6.608   5.837   3.861
 9490SOL    HW129369   6.570   5.924   3.831
 9490SOL    HW229370   6.686   5.853   3.922
 9491SOL     OW29371   5.637   5.861   3.908
 9491SOL    HW129372   5.720   5.811   3.882
 9491SOL    HW229373   5.647   5.958   3.882
 9492SOL     OW29374   4.675   3.063   5.227
 9492SOL    HW129375   4.702   3.053   5.131
 9492SOL    HW229376   4.741   3.121   5.274
 9493SOL     OW29377   3.078   6.209   4.077
 9493SOL    HW129378   3.158   6.189   4.134
 9493SOL    HW229379   3.072   6.307   4.061
 9494SOL     OW29380   5.707   2.901   2.104
 9494SOL    HW129381   5.762   2.983   2.091
 9494SOL    HW229382   5.698   2.881   2.201
 9495SOL     OW29383   6.665   1.146   2.356
 9495SOL    HW129384   6.602   1.097   2.295
 9495SOL    HW229385   6.749   1.168   2.306
 9496SOL     OW29386   4.792   2.025   2.221
 9496SOL    HW129387   4.836   2.114   2.212
 9496SOL    HW229388   4.735   2.008   2.140
 9497SOL     OW29389   5.524   5.804   5.405
 9497SOL    HW129390   5.471   5.805   5.321
 9497SOL    HW229391   5.621   5.806   5.384
 9498SOL     OW29392   0.358   4.864   4.652
 9498SOL    HW129393   0.324   4.772   4.674
 9498SOL    HW229394   0.358   4.877   4.553
 9499SOL     OW29395   0.148   5.134   5.256
 9499SOL    HW129396   0.073   5.197   5.231
 9499SOL    HW229397   0.117   5.040   5.244
 9500SOL     OW29398   4.166   6.481   1.036
 9500SOL    HW129399   4.246   6.474   1.096
 9500SOL    HW229400   4.085   6.450   1.085
 9501SOL     OW29401   1.414   1.502   4.576
 9501SOL    HW129402   1.448   1.581   4.525
 9501SOL    HW229403   1.319   1.484   4.550
 9502SOL     OW29404   5.603   4.221   4.908
 9502SOL    HW129405   5.633   4.215   4.813
 9502SOL    HW229406   5.673   4.269   4.962
 9503SOL     OW29407   0.712   2.361   0.749
 9503SOL    HW129408   0.717   2.314   0.661
 9503SOL    HW229409   0.796   2.412   0.765
 9504SOL     OW29410   6.594   3.773   1.999
 9504SOL    HW129411   6.541   3.755   1.916
 9504SOL    HW229412   6.641   3.861   1.991
 9505SOL     OW29413   4.920   4.943   5.636
 9505SOL    HW129414   4.891   5.002   5.711
 9505SOL    HW229415   4.887   4.980   5.549
 9506SOL     OW29416   2.314   2.413   0.239
 9506SOL    HW129417   2.386   2.440   0.175
 9506SOL    HW229418   2.225   2.439   0.202
 9507SOL     OW29419   6.466   0.395   0.689
 9507SOL    HW129420   6.517   0.455   0.626
 9507SOL    HW229421   6.428   0.450   0.764
 9508SOL     OW29422   5.374   1.683   2.309
 9508SOL    HW129423   5.355   1.727   2.221
 9508SOL    HW229424   5.344   1.588   2.305
 9509SOL     OW29425   6.256   0.486   3.453
 9509SOL    HW129426   6.327   0.476   3.383
 9509SOL    HW229427   6.182   0.544   3.417
 9510SOL     OW29428   0.809   3.518   3.374
 9510SOL    HW129429   0.769   3.452   3.310
 9510SOL    HW229430   0.908   3.520   3.363
 9511SOL     OW29431   1.087   1.123   1.697
 9511SOL    HW129432   1.116   1.050   1.758
 9511SOL    HW229433   1.043   1.084   1.617
 9512SOL     OW29434   6.960   2.861   1.098
 9512SOL    HW129435   0.017   2.804   1.094
 9512SOL    HW229436   6.879   2.804   1.090
 9513SOL     OW29437   3.431   4.963   5.924
 9513SOL    HW129438   3.360   5.006   5.868
 9513SOL    HW229439   3.452   5.023   6.002
 9514SOL     OW29440   2.904   3.259   6.617
 9514SOL    HW129441   2.964   3.250   6.537
 9514SOL    HW229442   2.953   3.228   6.699
 9515SOL     OW29443   2.522   5.033   3.473
 9515SOL    HW129444   2.491   5.026   3.567
 9515SOL    HW229445   2.516   5.129   3.443
 9516SOL     OW29446   5.951   4.742   0.726
 9516SOL    HW129447   5.976   4.749   0.823
 9516SOL    HW229448   5.880   4.809   0.705
 9517SOL     OW29449   1.067   4.420   1.426
 9517SOL    HW129450   1.117   4.340   1.461
 9517SOL    HW229451   1.091   4.435   1.330
 9518SOL     OW29452   2.826   1.215   0.592
 9518SOL    HW129453   2.836   1.151   0.668
 9518SOL    HW229454   2.738   1.262   0.600
 9519SOL     OW29455   1.066   2.377   5.755
 9519SOL    HW129456   1.098   2.383   5.849
 9519SOL    HW229457   1.094   2.290   5.715
 9520SOL     OW29458   2.865   0.396   2.366
 9520SOL    HW129459   2.947   0.362   2.412
 9520SOL    HW229460   2.784   0.366   2.417
 9521SOL     OW29461   5.713   6.044   3.589
 9521SOL    HW129462   5.619   6.066   3.614
 9521SOL    HW229463   5.773   6.119   3.615
 9522SOL     OW29464   3.353   5.740   0.921
 9522SOL    HW129465   3.402   5.724   0.835
 9522SOL    HW229466   3.417   5.775   0.990
 9523SOL     OW29467   3.290   5.550   4.124
 9523SOL    HW129468   3.280   5.539   4.223
 9523SOL    HW229469   3.230   5.485   4.078
 9524SOL     OW29470   3.671   2.651   1.376
 9524SOL    HW129471   3.658   2.558   1.410
 9524SOL    HW229472   3.697   2.649   1.280
 9525SOL     OW29473   2.356   1.169   5.987
 9525SOL    HW129474   2.262   1.146   5.961
 9525SOL    HW229475   2.362   1.175   6.087
 9526SOL     OW29476   5.545   5.977   3.360
 9526SOL    HW129477   5.586   5.962   3.270
 9526SOL    HW229478   5.608   6.027   3.418
 9527SOL     OW29479   0.843   0.724   1.847
 9527SOL    HW129480   0.748   0.751   1.863
 9527SOL    HW229481   0.850   0.625   1.852
 9528SOL     OW29482   6.561   0.145   0.793
 9528SOL    HW129483   6.535   0.071   0.732
 9528SOL    HW229484   6.543   0.233   0.749
 9529SOL     OW29485   1.152   3.513   6.123
 9529SOL    HW129486   1.055   3.524   6.142
 9529SOL    HW229487   1.206   3.557   6.195
 9530SOL     OW29488   1.484   2.897   3.038
 9530SOL    HW129489   1.540   2.932   3.113
 9530SOL    HW229490   1.457   2.973   2.979
 9531SOL     OW29491   4.131   6.083   2.781
 9531SOL    HW129492   4.120   5.986   2.763
 9531SOL    HW229493   4.218   6.099   2.829
 9532SOL     OW29494   1.669   6.156   1.206
 9532SOL    HW129495   1.765   6.127   1.207
 9532SOL    HW229496   1.616   6.090   1.153
 9533SOL     OW29497   0.261   1.337   5.312
 9533SOL    HW129498   0.350   1.367   5.277
 9533SOL    HW229499   0.194   1.410   5.301
 9534SOL     OW29500   5.495   2.286   5.405
 9534SOL    HW129501   5.491   2.362   5.470
 9534SOL    HW229502   5.586   2.246   5.407
 9535SOL     OW29503   2.733   0.675   5.666
 9535SOL    HW129504   2.795   0.597   5.670
 9535SOL    HW229505   2.666   0.660   5.593
 9536SOL     OW29506   2.065   6.074   5.471
 9536SOL    HW129507   2.075   6.166   5.435
 9536SOL    HW229508   1.977   6.036   5.443
 9537SOL     OW29509   3.422   0.275   2.324
 9537SOL    HW129510   3.465   0.207   2.383
 9537SOL    HW229511   3.483   0.353   2.312
 9538SOL     OW29512   6.600   1.876   4.650
 9538SOL    HW129513   6.585   1.805   4.581
 9538SOL    HW229514   6.512   1.916   4.676
 9539SOL     OW29515   2.212   4.771   6.307
 9539SOL    HW129516   2.186   4.765   6.211
 9539SOL    HW229517   2.312   4.772   6.314
 9540SOL     OW29518   4.721   4.769   5.331
 9540SOL    HW129519   4.622   4.765   5.319
 9540SOL    HW229520   4.746   4.731   5.420
 9541SOL     OW29521   1.566   2.512   5.161
 9541SOL    HW129522   1.588   2.441   5.095
 9541SOL    HW229523   1.478   2.554   5.137
 9542SOL     OW29524   5.017   3.456   5.014
 9542SOL    HW129525   5.054   3.430   5.103
 9542SOL    HW229526   4.927   3.498   5.027
 9543SOL     OW29527   4.526   0.724   4.254
 9543SOL    HW129528   4.463   0.797   4.226
 9543SOL    HW229529   4.484   0.672   4.328
 9544SOL     OW29530   5.907   7.024   2.203
 9544SOL    HW129531   5.868   7.000   2.114
 9544SOL    HW229532   5.922   0.098   2.207
 9545SOL     OW29533   6.821   6.767   3.038
 9545SOL    HW129534   6.804   6.778   2.940
 9545SOL    HW229535   6.784   6.679   3.068
 9546SOL     OW29536   2.984   3.761   6.711
 9546SOL    HW129537   2.911   3.822   6.680
 9546SOL    HW229538   3.058   3.760   6.644
 9547SOL     OW29539   1.774   6.266   4.222
 9547SOL    HW129540   1.854   6.291   4.167
 9547SOL    HW229541   1.800   6.264   4.318
 9548SOL     OW29542   6.170   5.662   4.575
 9548SOL    HW129543   6.233   5.723   4.624
 9548SOL    HW229544   6.222   5.590   4.530
 9549SOL     OW29545   3.804   5.253   0.655
 9549SOL    HW129546   3.880   5.290   0.603
 9549SOL    HW229547   3.832   5.167   0.699
 9550SOL     OW29548   0.470   1.574   0.315
 9550SOL    HW129549   0.428   1.662   0.295
 9550SOL    HW229550   0.528   1.546   0.238
 9551SOL     OW29551   0.321   0.259   4.992
 9551SOL    HW129552   0.248   0.191   4.999
 9551SOL    HW229553   0.342   0.276   4.896
 9552SOL     OW29554   1.135   0.012   3.250
 9552SOL    HW129555   1.035   0.005   3.257
 9552SOL    HW229556   1.177   6.998   3.332
 9553SOL     OW29557   6.144   4.660   6.869
 9553SOL    HW129558   6.051   4.627   6.854
 9553SOL    HW229559   6.196   4.652   6.784
 9554SOL     OW29560   2.603   0.860   1.916
 9554SOL    HW129561   2.577   0.790   1.850
 9554SOL    HW229562   2.675   0.918   1.877
 9555SOL     OW29563   6.655   2.278   1.294
 9555SOL    HW129564   6.601   2.361   1.285
 9555SOL    HW229565   6.617   2.206   1.237
 9556SOL     OW29566   2.526   0.975   1.134
 9556SOL    HW129567   2.582   1.053   1.161
 9556SOL    HW229568   2.449   1.006   1.079
 9557SOL     OW29569   6.357   0.671   2.955
 9557SOL    HW129570   6.262   0.653   2.931
 9557SOL    HW229571   6.417   0.639   2.882
 9558SOL     OW29572   0.074   4.787   3.073
 9558SOL    HW129573   0.132   4.745   3.143
 9558SOL    HW229574   0.015   4.857   3.116
 9559SOL     OW29575   0.445   3.462   1.903
 9559SOL    HW129576   0.504   3.543   1.901
 9559SOL    HW229577   0.477   3.396   1.835
 9560SOL     OW29578   2.384   1.565   3.539
 9560SOL    HW129579   2.480   1.536   3.548
 9560SOL    HW229580   2.326   1.484   3.530
 9561SOL     OW29581   3.476   6.402   1.021
 9561SOL    HW129582   3.446   6.493   0.990
 9561SOL    HW229583   3.473   6.398   1.120
 9562SOL     OW29584   4.458   5.819   3.264
 9562SOL    HW129585   4.368   5.864   3.258
 9562SOL    HW229586   4.490   5.820   3.358
 9563SOL     OW29587   0.051   6.414   6.285
 9563SOL    HW129588   6.999   6.478   6.276
 9563SOL    HW229589   0.036   6.335   6.225
 9564SOL     OW29590   2.838   6.540   6.511
 9564SOL    HW129591   2.877   6.627   6.479
 9564SOL    HW229592   2.899   6.465   6.484
 9565SOL     OW29593   3.829   6.042   4.222
 9565SOL    HW129594   3.828   5.981   4.143
 9565SOL    HW229595   3.921   6.081   4.233
 9566SOL     OW29596   3.135   4.600   6.011
 9566SOL    HW129597   3.136   4.517   5.955
 9566SOL    HW229598   3.196   4.587   6.089
 9567SOL     OW29599   6.071   6.084   6.651
 9567SOL    HW129600   5.979   6.118   6.668
 9567SOL    HW229601   6.124   6.156   6.604
 9568SOL     OW29602   5.454   3.892   6.406
 9568SOL    HW129603   5.424   3.812   6.354
 9568SOL    HW229604   5.500   3.956   6.345
 9569SOL     OW29605   6.526   1.612   0.269
 9569SOL    HW129606   6.514   1.607   0.169
 9569SOL    HW229607   6.487   1.698   0.303
 9570SOL     OW29608   6.925   1.359   0.639
 9570SOL    HW129609   6.881   1.404   0.717
 9570SOL    HW229610   6.937   1.262   0.659
 9571SOL     OW29611   2.201   3.854   0.391
 9571SOL    HW129612   2.232   3.934   0.341
 9571SOL    HW229613   2.259   3.841   0.472
 9572SOL     OW29614   0.863   4.623   0.841
 9572SOL    HW129615   0.921   4.704   0.845
 9572SOL    HW229616   0.892   4.565   0.764
 9573SOL     OW29617   1.417   1.249   0.198
 9573SOL    HW129618   1.496   1.294   0.239
 9573SOL    HW229619   1.406   1.280   0.104
 9574SOL     OW29620   3.583   3.638   5.635
 9574SOL    HW129621   3.568   3.592   5.547
 9574SOL    HW229622   3.680   3.635   5.658
 9575SOL     OW29623   5.607   0.595   1.974
 9575SOL    HW129624   5.691   0.649   1.965
 9575SOL    HW229625   5.529   0.656   1.987
 9576SOL     OW29626   2.935   1.596   4.321
 9576SOL    HW129627   2.997   1.613   4.245
 9576SOL    HW229628   2.929   1.679   4.378
 9577SOL     OW29629   6.986   6.951   2.411
 9577SOL    HW129630   6.889   6.934   2.430
 9577SOL    HW229631   0.013   6.953   2.496
 9578SOL     OW29632   6.639   2.777   2.582
 9578SOL    HW129633   6.633   2.741   2.675
 9578SOL    HW229634   6.693   2.862   2.583
 9579SOL     OW29635   1.803   6.737   1.442
 9579SOL    HW129636   1.710   6.771   1.455
 9579SOL    HW229637   1.800   6.658   1.381
 9580SOL     OW29638   4.583   3.689   0.204
 9580SOL    HW129639   4.655   3.622   0.188
 9580SOL    HW229640   4.622   3.771   0.247
 9581SOL     OW29641   1.382   4.834   6.248
 9581SOL    HW129642   1.380   4.916   6.191
 9581SOL    HW229643   1.302   4.833   6.308
 9582SOL     OW29644   4.324   5.055   4.293
 9582SOL    HW129645   4.329   5.068   4.194
 9582SOL    HW229646   4.280   4.968   4.313
 9583SOL     OW29647   2.107   3.527   2.270
 9583SOL    HW129648   2.046   3.596   2.232
 9583SOL    HW229649   2.170   3.497   2.198
 9584SOL     OW29650   6.203   5.110   6.525
 9584SOL    HW129651   6.159   5.028   6.561
 9584SOL    HW229652   6.202   5.182   6.595
 9585SOL     OW29653   5.952   0.188   3.298
 9585SOL    HW129654   5.918   0.282   3.299
 9585SOL    HW229655   5.881   0.127   3.335
 9586SOL     OW29656   5.078   3.436   2.940
 9586SOL    HW129657   5.149   3.503   2.918
 9586SOL    HW229658   5.101   3.348   2.897
 9587SOL     OW29659   6.081   0.147   1.829
 9587SOL    HW129660   6.136   0.094   1.763
 9587SOL    HW229661   6.004   0.092   1.860
 9588SOL     OW29662   6.933   0.535   1.694
 9588SOL    HW129663   6.985   0.481   1.627
 9588SOL    HW229664   6.993   0.604   1.734
 9589SOL     OW29665   2.519   0.172   5.949
 9589SOL    HW129666   2.595   0.110   5.930
 9589SOL    HW229667   2.433   0.127   5.926
 9590SOL     OW29668   0.016   4.524   3.270
 9590SOL    HW129669   0.005   4.621   3.289
 9590SOL    HW229670   0.097   4.509   3.213
 9591SOL     OW29671   2.433   5.765   0.901
 9591SOL    HW129672   2.513   5.759   0.841
 9591SOL    HW229673   2.372   5.837   0.868
 9592SOL     OW29674   4.363   5.450   2.601
 9592SOL    HW129675   4.446   5.484   2.558
 9592SOL    HW229676   4.320   5.523   2.654
 9593SOL     OW29677   6.260   2.605   4.574
 9593SOL    HW129678   6.254   2.548   4.655
 9593SOL    HW229679   6.354   2.607   4.540
 9594SOL     OW29680   6.484   6.501   2.316
 9594SOL    HW129681   6.403   6.506   2.258
 9594SOL    HW229682   6.564   6.479   2.260
 9595SOL     OW29683   1.976   6.071   4.526
 9595SOL    HW129684   1.972   6.053   4.428
 9595SOL    HW229685   1.995   5.986   4.575
 9596SOL     OW29686   6.300   5.862   5.293
 9596SOL    HW129687   6.322   5.880   5.389
 9596SOL    HW229688   6.352   5.924   5.235
 9597SOL     OW29689   1.276   4.273   1.727
 9597SOL    HW129690   1.231   4.353   1.766
 9597SOL    HW229691   1.313   4.217   1.800
 9598SOL     OW29692   0.067   4.467   6.171
 9598SOL    HW129693   7.016   4.533   6.166
 9598SOL    HW229694   0.136   4.491   6.103
 9599SOL     OW29695   3.797   0.583   5.474
 9599SOL    HW129696   3.796   0.508   5.408
 9599SOL    HW229697   3.879   0.638   5.461
 9600SOL     OW29698   1.541   6.788   5.831
 9600SOL    HW129699   1.559   6.717   5.899
 9600SOL    HW229700   1.443   6.794   5.814
 9601SOL     OW29701   0.554   4.659   5.206
 9601SOL    HW129702   0.573   4.635   5.110
 9601SOL    HW229703   0.490   4.736   5.209
 9602SOL     OW29704   0.882   5.206   6.745
 9602SOL    HW129705   0.886   5.303   6.722
 9602SOL    HW229706   0.903   5.194   6.842
 9603SOL     OW29707   1.599   6.252   4.707
 9603SOL    HW129708   1.627   6.302   4.789
 9603SOL    HW229709   1.556   6.316   4.642
 9604SOL     OW29710   5.046   1.681   6.487
 9604SOL    HW129711   5.023   1.585   6.507
 9604SOL    HW229712   5.100   1.718   6.563
 9605SOL     OW29713   2.486   5.832   6.485
 9605SOL    HW129714   2.432   5.794   6.560
 9605SOL    HW229715   2.426   5.854   6.408
 9606SOL     OW29716   0.181   6.224   3.592
 9606SOL    HW129717   0.226   6.159   3.531
 9606SOL    HW229718   0.249   6.289   3.627
 9607SOL     OW29719   1.136   1.746   2.276
 9607SOL    HW129720   1.207   1.799   2.230
 9607SOL    HW229721   1.171   1.655   2.300
 9608SOL     OW29722   0.300   0.092   2.701
 9608SOL    HW129723   0.378   0.140   2.662
 9608SOL    HW229724   0.221   0.154   2.704
 9609SOL     OW29725   1.899   4.397   4.615
 9609SOL    HW129726   1.916   4.430   4.708
 9609SOL    HW229727   1.931   4.302   4.607
 9610SOL     OW29728   2.188   1.865   6.364
 9610SOL    HW129729   2.139   1.800   6.305
 9610SOL    HW229730   2.256   1.914   6.310
 9611SOL     OW29731   6.355   0.497   0.910
 9611SOL    HW129732   6.387   0.573   0.967
 9611SOL    HW229733   6.288   0.443   0.961
 9612SOL     OW29734   5.830   3.289   1.524
 9612SOL    HW129735   5.839   3.344   1.607
 9612SOL    HW229736   5.831   3.192   1.549
 9613SOL     OW29737   6.648   6.239   5.022
 9613SOL    HW129738   6.743   6.213   5.005
 9613SOL    HW229739   6.643   6.301   5.100
 9614SOL     OW29740   3.485   3.788   2.165
 9614SOL    HW129741   3.523   3.726   2.097
 9614SOL    HW229742   3.407   3.745   2.211
 9615SOL     OW29743   1.427   6.111   2.513
 9615SOL    HW129744   1.488   6.039   2.480
 9615SOL    HW229745   1.415   6.180   2.443
 9616SOL     OW29746   3.598   2.252   0.765
 9616SOL    HW129747   3.558   2.160   0.765
 9616SOL    HW229748   3.584   2.295   0.676
 9617SOL     OW29749   1.295   3.231   3.785
 9617SOL    HW129750   1.295   3.226   3.885
 9617SOL    HW229751   1.324   3.143   3.747
 9618SOL     OW29752   3.388   6.202   6.410
 9618SOL    HW129753   3.432   6.202   6.320
 9618SOL    HW229754   3.363   6.296   6.435
 9619SOL     OW29755   2.572   6.099   0.647
 9619SOL    HW129756   2.534   6.178   0.599
 9619SOL    HW229757   2.497   6.043   0.683
 9620SOL     OW29758   3.252   0.887   0.265
 9620SOL    HW129759   3.191   0.946   0.318
 9620SOL    HW229760   3.220   0.883   0.170
 9621SOL     OW29761   0.555   0.879   2.410
 9621SOL    HW129762   0.603   0.958   2.448
 9621SOL    HW229763   0.486   0.910   2.344
 9622SOL     OW29764   5.702   6.953   6.361
 9622SOL    HW129765   5.776   6.888   6.377
 9622SOL    HW229766   5.633   6.943   6.433
 9623SOL     OW29767   4.705   6.191   6.402
 9623SOL    HW129768   4.648   6.271   6.388
 9623SOL    HW229769   4.799   6.219   6.421
 9624SOL     OW29770   4.618   5.812   4.824
 9624SOL    HW129771   4.596   5.909   4.833
 9624SOL    HW229772   4.584   5.762   4.905
 9625SOL     OW29773   5.146   4.220   6.612
 9625SOL    HW129774   5.201   4.273   6.677
 9625SOL    HW229775   5.104   4.283   6.546
 9626SOL     OW29776   1.719   4.397   5.945
 9626SOL    HW129777   1.810   4.414   5.983
 9626SOL    HW229778   1.714   4.305   5.909
 9627SOL     OW29779   1.175   5.156   6.440
 9627SOL    HW129780   1.083   5.152   6.478
 9627SOL    HW229781   1.241   5.166   6.514
 9628SOL     OW29782   5.657   4.023   6.583
 9628SOL    HW129783   5.602   3.996   6.504
 9628SOL    HW229784   5.642   3.958   6.657
 9629SOL     OW29785   6.968   5.936   2.669
 9629SOL    HW129786   6.892   6.001   2.679
 9629SOL    HW229787   0.024   5.971   2.717
 9630SOL     OW29788   6.315   6.321   5.891
 9630SOL    HW129789   6.281   6.293   5.801
 9630SOL    HW229790   6.386   6.390   5.879
 9631SOL     OW29791   4.513   1.228   0.993
 9631SOL    HW129792   4.452   1.263   0.922
 9631SOL    HW229793   4.459   1.195   1.070
 9632SOL     OW29794   3.322   6.295   1.252
 9632SOL    HW129795   3.363   6.331   1.336
 9632SOL    HW229796   3.240   6.347   1.230
 9633SOL     OW29797   3.864   3.066   2.524
 9633SOL    HW129798   3.857   3.043   2.427
 9633SOL    HW229799   3.955   3.104   2.543
 9634SOL     OW29800   5.334   4.974   2.738
 9634SOL    HW129801   5.335   5.071   2.717
 9634SOL    HW229802   5.423   4.947   2.775
 9635SOL     OW29803   1.520   3.919   4.158
 9635SOL    HW129804   1.519   3.923   4.058
 9635SOL    HW229805   1.520   3.823   4.188
 9636SOL     OW29806   4.220   2.207   4.993
 9636SOL    HW129807   4.295   2.171   5.049
 9636SOL    HW229808   4.231   2.306   4.982
 9637SOL     OW29809   2.320   2.989   0.863
 9637SOL    HW129810   2.388   3.062   0.865
 9637SOL    HW229811   2.339   2.928   0.786
 9638SOL     OW29812   0.339   4.520   5.996
 9638SOL    HW129813   0.342   4.420   5.997
 9638SOL    HW229814   0.274   4.550   5.927
 9639SOL     OW29815   4.607   1.905   1.708
 9639SOL    HW129816   4.675   1.915   1.781
 9639SOL    HW229817   4.553   1.822   1.725
 9640SOL     OW29818   3.765   0.781   2.357
 9640SOL    HW129819   3.847   0.736   2.323
 9640SOL    HW229820   3.697   0.785   2.284
 9641SOL     OW29821   5.753   4.653   2.722
 9641SOL    HW129822   5.698   4.646   2.805
 9641SOL    HW229823   5.693   4.649   2.642
 9642SOL     OW29824   1.214   0.480   3.744
 9642SOL    HW129825   1.168   0.421   3.677
 9642SOL    HW229826   1.305   0.504   3.710
 9643SOL     OW29827   5.299   3.769   4.093
 9643SOL    HW129828   5.268   3.802   4.182
 9643SOL    HW229829   5.228   3.785   4.025
 9644SOL     OW29830   1.331   5.834   5.204
 9644SOL    HW129831   1.355   5.769   5.277
 9644SOL    HW229832   1.313   5.783   5.120
 9645SOL     OW29833   1.441   5.324   6.315
 9645SOL    HW129834   1.361   5.306   6.257
 9645SOL    HW229835   1.459   5.244   6.371
 9646SOL     OW29836   3.043   6.680   4.948
 9646SOL    HW129837   3.062   6.654   5.043
 9646SOL    HW229838   2.946   6.663   4.929
 9647SOL     OW29839   6.347   6.204   3.472
 9647SOL    HW129840   6.326   6.223   3.567
 9647SOL    HW229841   6.420   6.265   3.441
 9648SOL     OW29842   4.993   2.037   1.392
 9648SOL    HW129843   4.970   2.101   1.319
 9648SOL    HW229844   4.910   1.987   1.419
 9649SOL     OW29845   2.220   3.464   0.520
 9649SOL    HW129846   2.132   3.503   0.549
 9649SOL    HW229847   2.206   3.412   0.435
 9650SOL     OW29848   6.687   4.773   4.180
 9650SOL    HW129849   6.651   4.758   4.088
 9650SOL    HW229850   6.614   4.760   4.247
 9651SOL     OW29851   2.402   1.450   0.038
 9651SOL    HW129852   2.321   1.429   7.009
 9651SOL    HW229853   2.411   1.384   0.113
 9652SOL     OW29854   0.117   3.914   1.223
 9652SOL    HW129855   0.180   3.921   1.301
 9652SOL    HW229856   0.157   3.958   1.143
 9653SOL     OW29857   4.676   4.043   6.020
 9653SOL    HW129858   4.667   3.959   6.073
 9653SOL    HW229859   4.660   4.024   5.923
 9654SOL     OW29860   3.699   2.973   3.740
 9654SOL    HW129861   3.765   2.945   3.809
 9654SOL    HW229862   3.740   2.962   3.649
 9655SOL     OW29863   5.825   0.544   1.678
 9655SOL    HW129864   5.746   0.486   1.656
 9655SOL    HW229865   5.887   0.495   1.739
 9656SOL     OW29866   5.933   3.740   0.804
 9656SOL    HW129867   5.933   3.791   0.718
 9656SOL    HW229868   6.026   3.709   0.825
 9657SOL     OW29869   5.838   3.671   3.156
 9657SOL    HW129870   5.816   3.768   3.148
 9657SOL    HW229871   5.810   3.623   3.073
 9658SOL     OW29872   4.292   1.442   2.852
 9658SOL    HW129873   4.216   1.384   2.882
 9658SOL    HW229874   4.297   1.523   2.910
 9659SOL     OW29875   3.434   2.572   0.736
 9659SOL    HW129876   3.521   2.537   0.701
 9659SOL    HW229877   3.377   2.601   0.659
 9660SOL     OW29878   0.677   5.851   0.665
 9660SOL    HW129879   0.637   5.759   0.673
 9660SOL    HW229880   0.636   5.911   0.735
 9661SOL     OW29881   5.355   4.859   1.519
 9661SOL    HW129882   5.335   4.895   1.428
 9661SOL    HW229883   5.276   4.809   1.554
 9662SOL     OW29884   5.332   4.940   0.155
 9662SOL    HW129885   5.381   4.928   0.069
 9662SOL    HW229886   5.328   4.853   0.204
 9663SOL     OW29887   1.200   3.980   3.991
 9663SOL    HW129888   1.270   4.000   4.059
 9663SOL    HW229889   1.193   4.056   3.926
 9664SOL     OW29890   5.346   3.890   3.592
 9664SOL    HW129891   5.354   3.956   3.518
 9664SOL    HW229892   5.279   3.923   3.659
 9665SOL     OW29893   6.629   6.692   6.443
 9665SOL    HW129894   6.719   6.673   6.403
 9665SOL    HW229895   6.616   6.791   6.448
 9666SOL     OW29896   6.394   4.486   1.314
 9666SOL    HW129897   6.385   4.397   1.270
 9666SOL    HW229898   6.436   4.551   1.250
 9667SOL     OW29899   4.367   5.560   0.631
 9667SOL    HW129900   4.433   5.633   0.613
 9667SOL    HW229901   4.289   5.597   0.680
 9668SOL     OW29902   1.438   6.204   5.674
 9668SOL    HW129903   1.486   6.263   5.739
 9668SOL    HW229904   1.357   6.252   5.640
 9669SOL     OW29905   2.535   6.751   1.122
 9669SOL    HW129906   2.561   6.805   1.202
 9669SOL    HW229907   2.597   6.673   1.113
 9670SOL     OW29908   0.440   0.204   5.962
 9670SOL    HW129909   0.519   0.206   6.023
 9670SOL    HW229910   0.464   0.156   5.878
 9671SOL     OW29911   1.062   4.963   6.836
 9671SOL    HW129912   1.136   5.006   6.887
 9671SOL    HW229913   1.093   4.938   6.745
 9672SOL     OW29914   0.545   4.484   3.782
 9672SOL    HW129915   0.549   4.395   3.738
 9672SOL    HW229916   0.518   4.473   3.878
 9673SOL     OW29917   3.216   4.335   1.659
 9673SOL    HW129918   3.310   4.364   1.677
 9673SOL    HW229919   3.208   4.304   1.565
 9674SOL     OW29920   3.561   6.402   2.997
 9674SOL    HW129921   3.571   6.496   2.966
 9674SOL    HW229922   3.472   6.391   3.042
 9675SOL     OW29923   4.549   4.095   0.811
 9675SOL    HW129924   4.572   4.029   0.882
 9675SOL    HW229925   4.450   4.108   0.807
 9676SOL     OW29926   1.120   2.819   6.220
 9676SOL    HW129927   1.171   2.804   6.135
 9676SOL    HW229928   1.030   2.777   6.213
 9677SOL     OW29929   6.154   5.173   0.482
 9677SOL    HW129930   6.150   5.073   0.488
 9677SOL    HW229931   6.211   5.209   0.556
 9678SOL     OW29932   3.308   3.999   4.810
 9678SOL    HW129933   3.371   3.928   4.779
 9678SOL    HW229934   3.267   3.973   4.897
 9679SOL     OW29935   2.453   1.782   4.628
 9679SOL    HW129936   2.461   1.728   4.712
 9679SOL    HW229937   2.442   1.721   4.549
 9680SOL     OW29938   4.521   6.264   3.869
 9680SOL    HW129939   4.502   6.207   3.789
 9680SOL    HW229940   4.449   6.332   3.879
 9681SOL     OW29941   2.298   1.026   0.984
 9681SOL    HW129942   2.258   0.958   0.922
 9681SOL    HW229943   2.234   1.101   0.997
 9682SOL     OW29944   5.412   4.987   4.367
 9682SOL    HW129945   5.418   4.896   4.407
 9682SOL    HW229946   5.325   5.029   4.391
 9683SOL     OW29947   1.653   6.405   0.698
 9683SOL    HW129948   1.704   6.333   0.651
 9683SOL    HW229949   1.684   6.494   0.666
 9684SOL     OW29950   1.666   4.292   5.272
 9684SOL    HW129951   1.765   4.274   5.273
 9684SOL    HW229952   1.618   4.214   5.312
 9685SOL     OW29953   4.506   3.630   0.947
 9685SOL    HW129954   4.496   3.597   1.041
 9685SOL    HW229955   4.494   3.553   0.883
 9686SOL     OW29956   6.612   2.173   6.743
 9686SOL    HW129957   6.530   2.166   6.688
 9686SOL    HW229958   6.643   2.268   6.745
 9687SOL     OW29959   6.359   6.682   1.276
 9687SOL    HW129960   6.430   6.699   1.208
 9687SOL    HW229961   6.271   6.670   1.230
 9688SOL     OW29962   1.638   4.782   1.324
 9688SOL    HW129963   1.679   4.704   1.372
 9688SOL    HW229964   1.669   4.782   1.229
 9689SOL     OW29965   1.555   5.881   6.682
 9689SOL    HW129966   1.525   5.961   6.629
 9689SOL    HW229967   1.654   5.885   6.695
 9690SOL     OW29968   4.709   5.295   4.667
 9690SOL    HW129969   4.808   5.282   4.660
 9690SOL    HW229970   4.676   5.254   4.752
 9691SOL     OW29971   3.256   4.058   2.043
 9691SOL    HW129972   3.206   4.124   1.987
 9691SOL    HW229973   3.194   4.018   2.111
 9692SOL     OW29974   4.363   5.256   6.979
 9692SOL    HW129975   4.353   5.157   6.973
 9692SOL    HW229976   4.353   5.285   0.050
 9693SOL     OW29977   6.015   3.535   4.263
 9693SOL    HW129978   5.930   3.585   4.248
 9693SOL    HW229979   6.050   3.555   4.355
 9694SOL     OW29980   2.765   0.014   1.931
 9694SOL    HW129981   2.744   6.955   1.881
 9694SOL    HW229982   2.804   7.015   2.020
 9695SOL     OW29983   0.171   3.856   3.590
 9695SOL    HW129984   0.124   3.791   3.650
 9695SOL    HW229985   0.254   3.888   3.635
 9696SOL     OW29986   5.915   1.689   3.250
 9696SOL    HW129987   5.874   1.634   3.178
 9696SOL    HW229988   5.987   1.747   3.211
 9697SOL     OW29989   6.914   6.152   0.203
 9697SOL    HW129990   6.904   6.130   0.105
 9697SOL    HW229991   6.940   6.069   0.253
 9698SOL     OW29992   5.757   3.689   7.003
 9698SOL    HW129993   5.731   3.592   7.010
 9698SOL    HW229994   5.857   3.696   7.000
 9699SOL     OW29995   1.237   5.502   0.069
 9699SOL    HW129996   1.146   5.526   0.035
 9699SOL    HW229997   1.243   5.404   0.083
 9700SOL     OW29998   6.077   6.833   3.976
 9700SOL    HW129999   6.155   6.876   4.021
 9700SOL    HW230000   6.025   6.779   4.043
 9701SOL     OW30001   5.027   3.204   6.812
 9701SOL    HW130002   5.013   3.123   6.870
 9701SOL    HW230003   4.938   3.239   6.781
 9702SOL     OW30004   3.527   3.237   0.465
 9702SOL    HW130005   3.623   3.266   0.468
 9702SOL    HW230006   3.506   3.201   0.375
 9703SOL     OW30007   6.316   4.108   4.809
 9703SOL    HW130008   6.386   4.176   4.831
 9703SOL    HW230009   6.358   4.030   4.763
 9704SOL     OW30010   3.213   4.834   2.543
 9704SOL    HW130011   3.120   4.801   2.526
 9704SOL    HW230012   3.219   4.866   2.638
 9705SOL     OW30013   6.044   4.064   5.517
 9705SOL    HW130014   6.056   3.990   5.451
 9705SOL    HW230015   6.052   4.152   5.470
 9706SOL     OW30016   1.820   1.425   1.999
 9706SOL    HW130017   1.752   1.485   1.957
 9706SOL    HW230018   1.814   1.334   1.957
 9707SOL     OW30019   6.072   4.768   2.157
 9707SOL    HW130020   6.075   4.733   2.251
 9707SOL    HW230021   6.144   4.725   2.103
 9708SOL     OW30022   1.933   1.113   2.419
 9708SOL    HW130023   1.947   1.212   2.409
 9708SOL    HW230024   1.868   1.081   2.351
 9709SOL     OW30025   5.851   3.302   2.186
 9709SOL    HW130026   5.909   3.226   2.156
 9709SOL    HW230027   5.900   3.388   2.172
 9710SOL     OW30028   6.286   0.192   6.612
 9710SOL    HW130029   6.320   0.099   6.601
 9710SOL    HW230030   6.225   0.197   6.691
 9711SOL     OW30031   3.798   6.018   6.451
 9711SOL    HW130032   3.878   6.077   6.446
 9711SOL    HW230033   3.722   6.069   6.493
 9712SOL     OW30034   5.980   3.139   1.188
 9712SOL    HW130035   6.046   3.170   1.256
 9712SOL    HW230036   5.926   3.063   1.224
 9713SOL     OW30037   1.763   6.342   3.331
 9713SOL    HW130038   1.735   6.265   3.273
 9713SOL    HW230039   1.768   6.425   3.276
 9714SOL     OW30040   3.486   5.345   4.650
 9714SOL    HW130041   3.508   5.440   4.668
 9714SOL    HW230042   3.571   5.295   4.630
 9715SOL     OW30043   6.120   4.613   1.303
 9715SOL    HW130044   6.178   4.533   1.314
 9715SOL    HW230045   6.176   4.690   1.272
 9716SOL     OW30046   4.100   4.090   6.463
 9716SOL    HW130047   4.105   4.009   6.403
 9716SOL    HW230048   4.152   4.073   6.546
 9717SOL     OW30049   4.182   0.057   6.319
 9717SOL    HW130050   4.175   0.152   6.290
 9717SOL    HW230051   4.272   0.040   6.358
 9718SOL     OW30052   3.671   1.782   0.606
 9718SOL    HW130053   3.577   1.778   0.570
 9718SOL    HW230054   3.733   1.812   0.533
 9719SOL     OW30055   5.002   6.440   4.954
 9719SOL    HW130056   5.088   6.400   4.922
 9719SOL    HW230057   5.018   6.491   5.038
 9720SOL     OW30058   1.510   4.257   2.667
 9720SOL    HW130059   1.504   4.341   2.612
 9720SOL    HW230060   1.547   4.278   2.757
 9721SOL     OW30061   0.350   1.709   1.141
 9721SOL    HW130062   0.324   1.614   1.128
 9721SOL    HW230063   0.274   1.759   1.181
 9722SOL     OW30064   3.649   2.341   5.550
 9722SOL    HW130065   3.643   2.376   5.643
 9722SOL    HW230066   3.624   2.412   5.485
 9723SOL     OW30067   6.025   4.878   4.811
 9723SOL    HW130068   6.098   4.846   4.871
 9723SOL    HW230069   5.958   4.930   4.863
 9724SOL     OW30070   2.024   5.468   6.367
 9724SOL    HW130071   1.951   5.404   6.340
 9724SOL    HW230072   2.108   5.445   6.319
 9725SOL     OW30073   4.035   5.522   4.775
 9725SOL    HW130074   4.011   5.610   4.733
 9725SOL    HW230075   3.955   5.483   4.819
 9726SOL     OW30076   5.174   1.066   4.239
 9726SOL    HW130077   5.230   0.985   4.257
 9726SOL    HW230078   5.228   1.148   4.252
 9727SOL     OW30079   0.342   2.412   6.924
 9727SOL    HW130080   0.347   2.424   7.023
 9727SOL    HW230081   0.318   2.318   6.903
 9728SOL     OW30082   6.000   0.893   5.985
 9728SOL    HW130083   6.026   0.899   5.889
 9728SOL    HW230084   6.071   0.843   6.035
 9729SOL     OW30085   1.645   3.778   3.787
 9729SOL    HW130086   1.596   3.864   3.776
 9729SOL    HW230087   1.650   3.753   3.883
 9730SOL     OW30088   0.504   4.240   4.323
 9730SOL    HW130089   0.453   4.290   4.394
 9730SOL    HW230090   0.578   4.298   4.290
 9731SOL     OW30091   5.035   4.264   2.359
 9731SOL    HW130092   4.950   4.211   2.358
 9731SOL    HW230093   5.096   4.230   2.287
 9732SOL     OW30094   0.952   3.112   1.778
 9732SOL    HW130095   0.966   3.085   1.873
 9732SOL    HW230096   1.001   3.197   1.759
 9733SOL     OW30097   6.353   5.649   2.744
 9733SOL    HW130098   6.323   5.603   2.661
 9733SOL    HW230099   6.440   5.694   2.728
 9734SOL     OW30100   6.277   6.761   6.900
 9734SOL    HW130101   6.330   6.715   6.830
 9734SOL    HW230102   6.231   6.693   6.957
 9735SOL     OW30103   1.520   2.154   3.932
 9735SOL    HW130104   1.601   2.096   3.942
 9735SOL    HW230105   1.547   2.241   3.891
 9736SOL     OW30106   4.965   1.943   5.985
 9736SOL    HW130107   4.918   2.019   6.031
 9736SOL    HW230108   5.061   1.965   5.973
 9737SOL     OW30109   5.827   2.246   2.399
 9737SOL    HW130110   5.833   2.264   2.301
 9737SOL    HW230111   5.731   2.237   2.426
 9738SOL     OW30112   1.782   6.629   0.614
 9738SOL    HW130113   1.845   6.707   0.621
 9738SOL    HW230114   1.756   6.615   0.519
 9739SOL     OW30115   4.399   6.031   6.829
 9739SOL    HW130116   4.372   5.955   6.888
 9739SOL    HW230117   4.476   6.003   6.771
 9740SOL     OW30118   5.720   0.784   2.269
 9740SOL    HW130119   5.768   0.798   2.183
 9740SOL    HW230120   5.786   0.783   2.344
 9741SOL     OW30121   2.796   1.068   4.026
 9741SOL    HW130122   2.701   1.046   4.006
 9741SOL    HW230123   2.842   1.094   3.941
 9742SOL     OW30124   4.326   1.677   6.864
 9742SOL    HW130125   4.237   1.638   6.841
 9742SOL    HW230126   4.398   1.626   6.817
 9743SOL     OW30127   0.340   2.931   3.525
 9743SOL    HW130128   0.269   2.964   3.461
 9743SOL    HW230129   0.379   2.846   3.490
 9744SOL     OW30130   2.392   6.935   2.521
 9744SOL    HW130131   2.341   6.849   2.520
 9744SOL    HW230132   2.380   6.979   2.610
 9745SOL     OW30133   5.563   1.891   6.027
 9745SOL    HW130134   5.467   1.867   6.042
 9745SOL    HW230135   5.576   1.988   6.046
 9746SOL     OW30136   5.069   6.731   6.705
 9746SOL    HW130137   5.064   6.782   6.619
 9746SOL    HW230138   4.993   6.667   6.711
 9747SOL     OW30139   2.466   1.806   1.622
 9747SOL    HW130140   2.561   1.816   1.591
 9747SOL    HW230141   2.430   1.895   1.648
 9748SOL     OW30142   0.218   0.542   3.187
 9748SOL    HW130143   0.227   0.621   3.127
 9748SOL    HW230144   0.143   0.557   3.252
 9749SOL     OW30145   0.533   2.143   2.384
 9749SOL    HW130146   0.606   2.079   2.359
 9749SOL    HW230147   0.468   2.150   2.309
 9750SOL     OW30148   6.328   4.815   3.856
 9750SOL    HW130149   6.248   4.827   3.797
 9750SOL    HW230150   6.345   4.901   3.906
 9751SOL     OW30151   2.766   0.316   1.417
 9751SOL    HW130152   2.712   0.363   1.347
 9751SOL    HW230153   2.839   0.264   1.373
 9752SOL     OW30154   4.295   2.553   6.848
 9752SOL    HW130155   4.370   2.579   6.789
 9752SOL    HW230156   4.210   2.547   6.795
 9753SOL     OW30157   0.778   5.621   5.971
 9753SOL    HW130158   0.718   5.700   5.962
 9753SOL    HW230159   0.800   5.606   6.067
 9754SOL     OW30160   3.832   0.374   0.495
 9754SOL    HW130161   3.756   0.375   0.560
 9754SOL    HW230162   3.900   0.442   0.522
 9755SOL     OW30163   3.028   4.105   5.126
 9755SOL    HW130164   3.017   4.154   5.039
 9755SOL    HW230165   3.026   4.171   5.201
 9756SOL     OW30166   5.554   1.351   5.995
 9756SOL    HW130167   5.564   1.414   6.072
 9756SOL    HW230168   5.466   1.305   6.000
 9757SOL     OW30169   5.823   4.770   3.861
 9757SOL    HW130170   5.855   4.683   3.823
 9757SOL    HW230171   5.849   4.776   3.957
 9758SOL     OW30172   1.243   1.327   0.481
 9758SOL    HW130173   1.246   1.285   0.390
 9758SOL    HW230174   1.332   1.364   0.504
 9759SOL     OW30175   0.935   1.671   0.462
 9759SOL    HW130176   0.932   1.588   0.406
 9759SOL    HW230177   0.842   1.696   0.489
 9760SOL     OW30178   5.029   2.555   6.649
 9760SOL    HW130179   5.051   2.464   6.686
 9760SOL    HW230180   5.055   2.625   6.716
 9761SOL     OW30181   1.504   1.266   1.953
 9761SOL    HW130182   1.514   1.313   1.866
 9761SOL    HW230183   1.505   1.167   1.938
 9762SOL     OW30184   2.830   1.793   4.718
 9762SOL    HW130185   2.788   1.757   4.801
 9762SOL    HW230186   2.761   1.843   4.664
 9763SOL     OW30187   6.314   1.672   2.754
 9763SOL    HW130188   6.221   1.698   2.778
 9763SOL    HW230189   6.318   1.645   2.658
 9764SOL     OW30190   6.248   2.540   2.729
 9764SOL    HW130191   6.167   2.483   2.716
 9764SOL    HW230192   6.244   2.619   2.668
 9765SOL     OW30193   6.245   1.352   2.352
 9765SOL    HW130194   6.245   1.253   2.333
 9765SOL    HW230195   6.176   1.396   2.295
 9766SOL     OW30196   2.372   0.057   3.196
 9766SOL    HW130197   2.278   0.058   3.230
 9766SOL    HW230198   2.401   0.150   3.173
 9767SOL     OW30199   2.255   3.045   5.588
 9767SOL    HW130200   2.334   3.018   5.643
 9767SOL    HW230201   2.177   2.986   5.611
 9768SOL     OW30202   5.614   2.325   0.615
 9768SOL    HW130203   5.571   2.330   0.705
 9768SOL    HW230204   5.713   2.327   0.625
 9769SOL     OW30205   3.414   0.805   5.037
 9769SOL    HW130206   3.412   0.740   5.113
 9769SOL    HW230207   3.346   0.877   5.052
 9770SOL     OW30208   3.467   1.954   5.880
 9770SOL    HW130209   3.506   1.953   5.788
 9770SOL    HW230210   3.436   1.862   5.904
 9771SOL     OW30211   2.090   6.999   1.675
 9771SOL    HW130212   2.157   6.974   1.744
 9771SOL    HW230213   2.078   6.924   1.611
 9772SOL     OW30214   2.067   6.352   1.828
 9772SOL    HW130215   2.073   6.321   1.733
 9772SOL    HW230216   2.145   6.319   1.880
 9773SOL     OW30217   5.596   5.229   3.246
 9773SOL    HW130218   5.576   5.321   3.278
 9773SOL    HW230219   5.685   5.200   3.280
 9774SOL     OW30220   0.855   5.013   3.397
 9774SOL    HW130221   0.879   5.094   3.451
 9774SOL    HW230222   0.860   4.932   3.456
 9775SOL     OW30223   2.724   0.416   3.200
 9775SOL    HW130224   2.719   0.495   3.140
 9775SOL    HW230225   2.734   0.447   3.295
 9776SOL     OW30226   1.871   5.155   6.095
 9776SOL    HW130227   1.788   5.128   6.144
 9776SOL    HW230228   1.950   5.150   6.157
 9777SOL     OW30229   5.045   6.343   6.497
 9777SOL    HW130230   5.117   6.372   6.560
 9777SOL    HW230231   5.028   6.245   6.508
 9778SOL     OW30232   0.209   2.124   4.476
 9778SOL    HW130233   0.180   2.218   4.495
 9778SOL    HW230234   0.236   2.116   4.381
 9779SOL     OW30235   0.564   2.806   4.042
 9779SOL    HW130236   0.554   2.794   3.943
 9779SOL    HW230237   0.520   2.730   4.089
 9780SOL     OW30238   1.842   1.453   1.324
 9780SOL    HW130239   1.878   1.459   1.417
 9780SOL    HW230240   1.823   1.545   1.289
 9781SOL     OW30241   1.797   3.440   4.402
 9781SOL    HW130242   1.794   3.540   4.396
 9781SOL    HW230243   1.891   3.409   4.387
 9782SOL     OW30244   0.531   1.968   0.840
 9782SOL    HW130245   0.607   1.978   0.775
 9782SOL    HW230246   0.461   1.909   0.801
 9783SOL     OW30247   4.358   1.945   3.229
 9783SOL    HW130248   4.409   1.860   3.216
 9783SOL    HW230249   4.272   1.926   3.277
 9784SOL     OW30250   3.487   1.112   6.362
 9784SOL    HW130251   3.461   1.135   6.269
 9784SOL    HW230252   3.469   1.015   6.379
 9785SOL     OW30253   6.421   2.400   5.246
 9785SOL    HW130254   6.477   2.479   5.221
 9785SOL    HW230255   6.472   2.316   5.227
 9786SOL     OW30256   2.719   4.228   0.796
 9786SOL    HW130257   2.627   4.193   0.777
 9786SOL    HW230258   2.785   4.183   0.735
 9787SOL     OW30259   3.948   3.666   4.288
 9787SOL    HW130260   3.955   3.757   4.246
 9787SOL    HW230261   4.019   3.657   4.358
 9788SOL     OW30262   0.966   5.912   2.189
 9788SOL    HW130263   0.969   5.887   2.093
 9788SOL    HW230264   0.929   6.005   2.199
 9789SOL     OW30265   2.916   7.005   6.851
 9789SOL    HW130266   2.825   0.001   6.814
 9789SOL    HW230267   2.921   0.014   6.945
 9790SOL     OW30268   6.483   4.667   5.196
 9790SOL    HW130269   6.487   4.733   5.121
 9790SOL    HW230270   6.512   4.711   5.281
 9791SOL     OW30271   0.508   0.280   0.297
 9791SOL    HW130272   0.409   0.277   0.283
 9791SOL    HW230273   0.553   0.222   0.229
 9792SOL     OW30274   3.907   5.182   1.026
 9792SOL    HW130275   3.872   5.263   0.978
 9792SOL    HW230276   3.961   5.211   1.105
 9793SOL     OW30277   4.287   0.210   1.237
 9793SOL    HW130278   4.195   0.243   1.214
 9793SOL    HW230279   4.355   0.279   1.215
 9794SOL     OW30280   4.972   4.490   4.756
 9794SOL    HW130281   4.921   4.508   4.672
 9794SOL    HW230282   4.941   4.403   4.796
 9795SOL     OW30283   1.025   3.204   4.038
 9795SOL    HW130284   1.122   3.213   4.059
 9795SOL    HW230285   1.006   3.110   4.006
 9796SOL     OW30286   4.075   3.778   3.798
 9796SOL    HW130287   4.073   3.764   3.699
 9796SOL    HW230288   4.127   3.705   3.841
 9797SOL     OW30289   2.434   6.176   7.024
 9797SOL    HW130290   2.473   6.102   0.056
 9797SOL    HW230291   2.373   6.231   0.056
 9798SOL     OW30292   2.050   1.777   1.331
 9798SOL    HW130293   2.148   1.791   1.345
 9798SOL    HW230294   2.005   1.770   1.420
 9799SOL     OW30295   2.870   4.096   6.346
 9799SOL    HW130296   2.866   4.046   6.260
 9799SOL    HW230297   2.852   4.193   6.329
 9800SOL     OW30298   5.561   3.203   4.331
 9800SOL    HW130299   5.627   3.179   4.260
 9800SOL    HW230300   5.471   3.168   4.306
 9801SOL     OW30301   5.031   4.658   0.058
 9801SOL    HW130302   4.969   4.711   0.115
 9801SOL    HW230303   5.063   4.714   7.006
 9802SOL     OW30304   4.225   4.591   0.433
 9802SOL    HW130305   4.283   4.630   0.504
 9802SOL    HW230306   4.201   4.497   0.456
 9803SOL     OW30307   1.860   3.431   6.780
 9803SOL    HW130308   1.927   3.378   6.728
 9803SOL    HW230309   1.876   3.528   6.764
 9804SOL     OW30310   6.820   6.071   3.147
 9804SOL    HW130311   6.906   6.098   3.105
 9804SOL    HW230312   6.796   6.136   3.219
 9805SOL     OW30313   1.451   7.001   2.859
 9805SOL    HW130314   1.433   7.004   2.958
 9805SOL    HW230315   1.366   6.979   2.811
 9806SOL     OW30316   2.878   2.855   6.005
 9806SOL    HW130317   2.826   2.807   5.934
 9806SOL    HW230318   2.819   2.921   6.052
 9807SOL     OW30319   3.354   2.858   2.332
 9807SOL    HW130320   3.314   2.895   2.248
 9807SOL    HW230321   3.316   2.767   2.349
 9808SOL     OW30322   3.896   5.502   3.947
 9808SOL    HW130323   3.879   5.413   3.906
 9808SOL    HW230324   3.828   5.568   3.915
 9809SOL     OW30325   0.765   3.317   0.255
 9809SOL    HW130326   0.841   3.252   0.254
 9809SOL    HW230327   0.731   3.330   0.162
 9810SOL     OW30328   2.721   1.736   4.969
 9810SOL    HW130329   2.669   1.652   4.976
 9810SOL    HW230330   2.685   1.803   5.034
 9811SOL     OW30331   6.081   3.621   3.596
 9811SOL    HW130332   6.055   3.613   3.500
 9811SOL    HW230333   6.128   3.537   3.624
 9812SOL     OW30334   2.685   0.306   4.121
 9812SOL    HW130335   2.620   0.311   4.197
 9812SOL    HW230336   2.760   0.244   4.146
 9813SOL     OW30337   5.948   2.394   0.654
 9813SOL    HW130338   5.985   2.390   0.746
 9813SOL    HW230339   5.977   2.312   0.603
 9814SOL     OW30340   5.029   1.653   6.912
 9814SOL    HW130341   5.077   1.741   6.919
 9814SOL    HW230342   4.940   1.660   6.958
 9815SOL     OW30343   4.903   2.571   4.140
 9815SOL    HW130344   4.954   2.591   4.223
 9815SOL    HW230345   4.806   2.561   4.162
 9816SOL     OW30346   0.996   0.173   6.452
 9816SOL    HW130347   1.083   0.218   6.431
 9816SOL    HW230348   1.013   0.087   6.499
 9817SOL     OW30349   0.813   6.817   2.883
 9817SOL    HW130350   0.843   6.743   2.823
 9817SOL    HW230351   0.767   6.888   2.830
 9818SOL     OW30352   6.140   2.165   4.854
 9818SOL    HW130353   6.114   2.151   4.950
 9818SOL    HW230354   6.104   2.090   4.799
 9819SOL     OW30355   4.633   2.647   3.516
 9819SOL    HW130356   4.683   2.724   3.555
 9819SOL    HW230357   4.644   2.566   3.574
 9820SOL     OW30358   3.690   3.340   6.982
 9820SOL    HW130359   3.611   3.363   6.925
 9820SOL    HW230360   3.772   3.383   6.944
 9821SOL     OW30361   5.754   0.193   6.372
 9821SOL    HW130362   5.820   0.216   6.444
 9821SOL    HW230363   5.735   0.095   6.375
 9822SOL     OW30364   0.644   6.992   2.707
 9822SOL    HW130365   0.608   0.056   2.676
 9822SOL    HW230366   0.708   6.957   2.639
 9823SOL     OW30367   3.483   0.081   1.335
 9823SOL    HW130368   3.441   0.169   1.357
 9823SOL    HW230369   3.462   0.057   1.240
 9824SOL     OW30370   1.720   4.121   5.933
 9824SOL    HW130371   1.622   4.124   5.953
 9824SOL    HW230372   1.735   4.133   5.835
 9825SOL     OW30373   3.516   5.119   5.332
 9825SOL    HW130374   3.607   5.161   5.331
 9825SOL    HW230375   3.486   5.103   5.238
 9826SOL     OW30376   4.279   5.839   6.086
 9826SOL    HW130377   4.240   5.922   6.045
 9826SOL    HW230378   4.216   5.802   6.154
 9827SOL     OW30379   2.098   4.411   4.344
 9827SOL    HW130380   2.091   4.350   4.265
 9827SOL    HW230381   2.100   4.356   4.428
 9828SOL     OW30382   3.120   2.632   6.737
 9828SOL    HW130383   3.104   2.675   6.649
 9828SOL    HW230384   3.032   2.605   6.778
 9829SOL     OW30385   3.113   6.569   1.030
 9829SOL    HW130386   3.088   6.473   1.035
 9829SOL    HW230387   3.140   6.602   1.121
 9830SOL     OW30388   5.581   2.329   1.444
 9830SOL    HW130389   5.576   2.229   1.442
 9830SOL    HW230390   5.534   2.366   1.364
 9831SOL     OW30391   1.925   6.303   0.321
 9831SOL    HW130392   1.988   6.377   0.298
 9831SOL    HW230393   1.976   6.217   0.327
 9832SOL     OW30394   5.043   5.487   2.283
 9832SOL    HW130395   4.990   5.570   2.300
 9832SOL    HW230396   5.133   5.495   2.325
 9833SOL     OW30397   3.256   2.932   5.080
 9833SOL    HW130398   3.244   2.838   5.114
 9833SOL    HW230399   3.252   2.996   5.157
 9834SOL     OW30400   2.530   3.843   5.944
 9834SOL    HW130401   2.576   3.789   6.014
 9834SOL    HW230402   2.569   3.823   5.854
 9835SOL     OW30403   3.621   2.779   5.750
 9835SOL    HW130404   3.537   2.739   5.712
 9835SOL    HW230405   3.597   2.855   5.809
 9836SOL     OW30406   6.434   4.330   3.692
 9836SOL    HW130407   6.531   4.321   3.714
 9836SOL    HW230408   6.395   4.406   3.744
 9837SOL     OW30409   2.121   0.210   2.407
 9837SOL    HW130410   2.173   0.280   2.456
 9837SOL    HW230411   2.165   0.189   2.320
 9838SOL     OW30412   0.551   6.898   5.900
 9838SOL    HW130413   0.646   6.895   5.930
 9838SOL    HW230414   0.543   6.955   5.818
 9839SOL     OW30415   5.987   1.336   2.821
 9839SOL    HW130416   5.972   1.384   2.734
 9839SOL    HW230417   6.027   1.400   2.887
 9840SOL     OW30418   0.228   1.006   1.024
 9840SOL    HW130419   0.132   1.035   1.022
 9840SOL    HW230420   0.261   1.007   1.119
 9841SOL     OW30421   1.186   4.889   4.958
 9841SOL    HW130422   1.196   4.986   4.936
 9841SOL    HW230423   1.152   4.840   4.878
 9842SOL     OW30424   3.393   3.984   3.358
 9842SOL    HW130425   3.386   3.901   3.413
 9842SOL    HW230426   3.316   3.989   3.295
 9843SOL     OW30427   6.891   1.730   1.950
 9843SOL    HW130428   6.905   1.699   2.044
 9843SOL    HW230429   6.879   1.652   1.890
 9844SOL     OW30430   4.899   0.343   2.601
 9844SOL    HW130431   4.960   0.359   2.679
 9844SOL    HW230432   4.953   0.308   2.524
 9845SOL     OW30433   2.585   1.438   5.017
 9845SOL    HW130434   2.646   1.369   4.981
 9845SOL    HW230435   2.551   1.410   5.107
 9846SOL     OW30436   3.714   3.276   2.567
 9846SOL    HW130437   3.710   3.325   2.479
 9846SOL    HW230438   3.762   3.189   2.554
 9847SOL     OW30439   3.604   2.877   6.027
 9847SOL    HW130440   3.608   2.787   6.070
 9847SOL    HW230441   3.617   2.947   6.098
 9848SOL     OW30442   3.421   2.413   6.585
 9848SOL    HW130443   3.494   2.370   6.532
 9848SOL    HW230444   3.343   2.430   6.525
 9849SOL     OW30445   5.981   0.808   0.114
 9849SOL    HW130446   5.900   0.843   0.068
 9849SOL    HW230447   6.062   0.858   0.081
 9850SOL     OW30448   5.400   6.222   2.346
 9850SOL    HW130449   5.347   6.167   2.411
 9850SOL    HW230450   5.415   6.313   2.384
 9851SOL     OW30451   4.445   2.041   5.527
 9851SOL    HW130452   4.503   2.079   5.599
 9851SOL    HW230453   4.391   2.115   5.486
 9852SOL     OW30454   4.435   2.108   3.431
 9852SOL    HW130455   4.426   2.070   3.339
 9852SOL    HW230456   4.458   2.034   3.495
 9853SOL     OW30457   4.743   4.174   3.472
 9853SOL    HW130458   4.700   4.196   3.560
 9853SOL    HW230459   4.831   4.220   3.466
 9854SOL     OW30460   6.100   4.848   5.132
 9854SOL    HW130461   6.067   4.777   5.070
 9854SOL    HW230462   6.185   4.817   5.175
 9855SOL     OW30463   1.871   4.593   1.861
 9855SOL    HW130464   1.776   4.610   1.835
 9855SOL    HW230465   1.895   4.498   1.837
 9856SOL     OW30466   5.186   3.785   6.995
 9856SOL    HW130467   5.220   3.879   6.993
 9856SOL    HW230468   5.096   3.783   0.015
 9857SOL     OW30469   4.701   2.246   3.848
 9857SOL    HW130470   4.605   2.221   3.833
 9857SOL    HW230471   4.741   2.184   3.916
 9858SOL     OW30472   6.531   1.296   1.340
 9858SOL    HW130473   6.618   1.286   1.293
 9858SOL    HW230474   6.544   1.281   1.438
 9859SOL     OW30475   6.418   6.915   1.057
 9859SOL    HW130476   6.483   6.850   1.018
 9859SOL    HW230477   6.326   6.894   1.023
 9860SOL     OW30478   6.806   0.965   2.677
 9860SOL    HW130479   6.818   0.936   2.582
 9860SOL    HW230480   6.791   0.886   2.735
 9861SOL     OW30481   2.761   0.006   3.392
 9861SOL    HW130482   2.710   6.946   3.378
 9861SOL    HW230483   2.783   0.047   3.303
 9862SOL     OW30484   2.412   4.445   0.956
 9862SOL    HW130485   2.403   4.347   0.971
 9862SOL    HW230486   2.487   4.462   0.891
 9863SOL     OW30487   3.083   0.178   3.216
 9863SOL    HW130488   3.145   0.256   3.229
 9863SOL    HW230489   3.072   0.131   3.303
 9864SOL     OW30490   3.986   5.724   4.115
 9864SOL    HW130491   3.957   5.638   4.072
 9864SOL    HW230492   3.995   5.795   4.045
 9865SOL     OW30493   0.981   1.571   4.627
 9865SOL    HW130494   0.969   1.506   4.702
 9865SOL    HW230495   1.070   1.615   4.635
 9866SOL     OW30496   5.391   4.399   4.962
 9866SOL    HW130497   5.346   4.438   4.881
 9866SOL    HW230498   5.477   4.355   4.934
 9867SOL     OW30499   6.152   0.330   0.993
 9867SOL    HW130500   6.102   0.361   1.074
 9867SOL    HW230501   6.087   0.310   0.920
 9868SOL     OW30502   1.624   4.848   5.721
 9868SOL    HW130503   1.561   4.773   5.741
 9868SOL    HW230504   1.579   4.935   5.737
 9869SOL     OW30505   1.775   3.385   2.169
 9869SOL    HW130506   1.692   3.404   2.117
 9869SOL    HW230507   1.794   3.462   2.231
 9870SOL     OW30508   4.285   5.772   2.431
 9870SOL    HW130509   4.371   5.771   2.481
 9870SOL    HW230510   4.295   5.721   2.346
 9871SOL     OW30511   0.997   6.792   5.814
 9871SOL    HW130512   0.921   6.841   5.771
 9871SOL    HW230513   1.077   6.851   5.816
 9872SOL     OW30514   3.011   5.093   4.087
 9872SOL    HW130515   3.065   5.057   4.011
 9872SOL    HW230516   3.032   5.041   4.170
 9873SOL     OW30517   3.032   2.340   1.310
 9873SOL    HW130518   2.961   2.409   1.320
 9873SOL    HW230519   3.062   2.336   1.215
 9874SOL     OW30520   0.744   3.542   4.142
 9874SOL    HW130521   0.773   3.619   4.086
 9874SOL    HW230522   0.666   3.570   4.198
 9875SOL     OW30523   0.374   6.636   2.171
 9875SOL    HW130524   0.400   6.546   2.134
 9875SOL    HW230525   0.397   6.639   2.268
 9876SOL     OW30526   6.534   0.665   2.711
 9876SOL    HW130527   6.525   0.679   2.612
 9876SOL    HW230528   6.617   0.710   2.744
 9877SOL     OW30529   0.241   6.554   3.052
 9877SOL    HW130530   0.162   6.495   3.037
 9877SOL    HW230531   0.312   6.504   3.100
 9878SOL     OW30532   2.428   5.531   4.849
 9878SOL    HW130533   2.470   5.550   4.938
 9878SOL    HW230534   2.487   5.469   4.796
 9879SOL     OW30535   5.699   5.477   4.432
 9879SOL    HW130536   5.788   5.522   4.437
 9879SOL    HW230537   5.648   5.514   4.354
 9880SOL     OW30538   2.663   1.846   5.500
 9880SOL    HW130539   2.574   1.892   5.501
 9880SOL    HW230540   2.734   1.914   5.481
 9881SOL     OW30541   2.016   1.112   4.904
 9881SOL    HW130542   2.058   1.104   4.814
 9881SOL    HW230543   2.087   1.125   4.973
 9882SOL     OW30544   1.017   2.289   4.023
 9882SOL    HW130545   1.115   2.301   4.040
 9882SOL    HW230546   0.989   2.198   4.054
 9883SOL     OW30547   2.101   5.116   6.901
 9883SOL    HW130548   2.044   5.189   6.937
 9883SOL    HW230549   2.156   5.151   6.825
 9884SOL     OW30550   4.116   1.623   3.288
 9884SOL    HW130551   4.169   1.547   3.249
 9884SOL    HW230552   4.084   1.682   3.215
 9885SOL     OW30553   6.782   2.957   5.488
 9885SOL    HW130554   6.810   2.976   5.393
 9885SOL    HW230555   6.719   3.028   5.519
 9886SOL     OW30556   0.708   4.599   1.592
 9886SOL    HW130557   0.694   4.508   1.554
 9886SOL    HW230558   0.717   4.593   1.691
 9887SOL     OW30559   3.509   1.118   5.829
 9887SOL    HW130560   3.410   1.104   5.819
 9887SOL    HW230561   3.546   1.153   5.743
 9888SOL     OW30562   6.318   3.945   1.989
 9888SOL    HW130563   6.302   3.925   2.086
 9888SOL    HW230564   6.397   4.006   1.981
 9889SOL     OW30565   0.126   5.429   1.826
 9889SOL    HW130566   0.097   5.371   1.750
 9889SOL    HW230567   0.225   5.424   1.836
 9890SOL     OW30568   1.548   2.113   0.271
 9890SOL    HW130569   1.453   2.137   0.256
 9890SOL    HW230570   1.561   2.084   0.366
 9891SOL     OW30571   5.416   2.870   1.575
 9891SOL    HW130572   5.457   2.829   1.494
 9891SOL    HW230573   5.319   2.887   1.559
 9892SOL     OW30574   0.028   5.192   0.815
 9892SOL    HW130575   7.020   5.236   0.899
 9892SOL    HW230576   0.123   5.217   0.799
 9893SOL     OW30577   1.410   6.726   1.115
 9893SOL    HW130578   1.356   6.692   1.192
 9893SOL    HW230579   1.349   6.752   1.041
 9894SOL     OW30580   2.331   2.687   2.002
 9894SOL    HW130581   2.280   2.610   1.962
 9894SOL    HW230582   2.348   2.669   2.098
 9895SOL     OW30583   6.643   3.767   5.330
 9895SOL    HW130584   6.653   3.680   5.380
 9895SOL    HW230585   6.714   3.774   5.261
 9896SOL     OW30586   5.949   0.618   6.780
 9896SOL    HW130587   5.976   0.714   6.778
 9896SOL    HW230588   5.997   0.572   6.856
 9897SOL     OW30589   6.421   5.519   3.245
 9897SOL    HW130590   6.353   5.587   3.218
 9897SOL    HW230591   6.386   5.465   3.321
 9898SOL     OW30592   1.673   5.939   4.675
 9898SOL    HW130593   1.605   5.938   4.749
 9898SOL    HW230594   1.704   5.846   4.656
 9899SOL     OW30595   0.639   5.492   6.885
 9899SOL    HW130596   0.644   5.462   6.789
 9899SOL    HW230597   0.601   5.418   6.941
 9900SOL     OW30598   1.645   3.817   3.388
 9900SOL    HW130599   1.547   3.838   3.383
 9900SOL    HW230600   1.673   3.773   3.302
 9901SOL     OW30601   2.810   0.881   6.205
 9901SOL    HW130602   2.722   0.835   6.212
 9901SOL    HW230603   2.845   0.874   6.112
 9902SOL     OW30604   2.935   5.150   0.755
 9902SOL    HW130605   2.874   5.098   0.816
 9902SOL    HW230606   3.025   5.157   0.797
 9903SOL     OW30607   5.198   1.450   2.006
 9903SOL    HW130608   5.233   1.387   1.937
 9903SOL    HW230609   5.196   1.543   1.969
 9904SOL     OW30610   1.495   4.491   6.970
 9904SOL    HW130611   1.519   4.462   6.878
 9904SOL    HW230612   1.424   4.561   6.966
 9905SOL     OW30613   2.499   0.217   6.397
 9905SOL    HW130614   2.421   0.176   6.351
 9905SOL    HW230615   2.552   0.145   6.442
 9906SOL     OW30616   2.600   3.341   1.771
 9906SOL    HW130617   2.530   3.400   1.811
 9906SOL    HW230618   2.570   3.246   1.774
 9907SOL     OW30619   6.456   0.313   1.324
 9907SOL    HW130620   6.437   0.256   1.244
 9907SOL    HW230621   6.535   0.371   1.305
 9908SOL     OW30622   5.441   1.993   4.700
 9908SOL    HW130623   5.352   1.995   4.653
 9908SOL    HW230624   5.428   2.017   4.796
 9909SOL     OW30625   4.103   0.846   3.795
 9909SOL    HW130626   4.197   0.812   3.803
 9909SOL    HW230627   4.042   0.789   3.849
 9910SOL     OW30628   1.459   3.869   3.052
 9910SOL    HW130629   1.448   3.968   3.044
 9910SOL    HW230630   1.537   3.849   3.111
 9911SOL     OW30631   3.291   6.217   2.183
 9911SOL    HW130632   3.201   6.249   2.214
 9911SOL    HW230633   3.283   6.177   2.092
 9912SOL     OW30634   4.229   1.025   1.306
 9912SOL    HW130635   4.187   0.937   1.283
 9912SOL    HW230636   4.273   1.019   1.396
 9913SOL     OW30637   6.302   3.920   1.391
 9913SOL    HW130638   6.351   4.008   1.389
 9913SOL    HW230639   6.209   3.933   1.358
 9914SOL     OW30640   5.823   1.721   4.514
 9914SOL    HW130641   5.724   1.705   4.514
 9914SOL    HW230642   5.868   1.652   4.571
 9915SOL     OW30643   4.792   0.467   3.709
 9915SOL    HW130644   4.770   0.558   3.742
 9915SOL    HW230645   4.844   0.474   3.624
 9916SOL     OW30646   2.178   2.613   3.189
 9916SOL    HW130647   2.178   2.538   3.123
 9916SOL    HW230648   2.175   2.576   3.282
 9917SOL     OW30649   5.553   4.077   6.969
 9917SOL    HW130650   5.629   4.018   6.997
 9917SOL    HW230651   5.585   4.144   6.903
 9918SOL     OW30652   3.317   1.550   3.589
 9918SOL    HW130653   3.257   1.549   3.670
 9918SOL    HW230654   3.348   1.643   3.572
 9919SOL     OW30655   6.519   5.134   1.629
 9919SOL    HW130656   6.561   5.044   1.635
 9919SOL    HW230657   6.588   5.204   1.648
 9920SOL     OW30658   4.899   1.417   1.951
 9920SOL    HW130659   4.831   1.411   2.024
 9920SOL    HW230660   4.986   1.380   1.984
 9921SOL     OW30661   4.016   0.000   5.582
 9921SOL    HW130662   4.102   6.986   5.615
 9921SOL    HW230663   4.008   7.010   5.483
 9922SOL     OW30664   2.692   3.932   0.516
 9922SOL    HW130665   2.677   3.840   0.480
 9922SOL    HW230666   2.789   3.956   0.507
 9923SOL     OW30667   5.109   4.760   6.615
 9923SOL    HW130668   5.122   4.826   6.541
 9923SOL    HW230669   5.042   4.692   6.589
 9924SOL     OW30670   6.603   2.040   5.044
 9924SOL    HW130671   6.668   2.052   5.119
 9924SOL    HW230672   6.625   1.957   4.993
 9925SOL     OW30673   6.888   3.024   4.306
 9925SOL    HW130674   6.844   3.096   4.251
 9925SOL    HW230675   6.818   2.966   4.348
 9926SOL     OW30676   3.957   2.172   0.603
 9926SOL    HW130677   3.944   2.081   0.644
 9926SOL    HW230678   3.996   2.234   0.672
 9927SOL     OW30679   0.037   6.572   0.346
 9927SOL    HW130680   0.079   6.643   0.403
 9927SOL    HW230681   0.063   6.482   0.380
 9928SOL     OW30682   5.304   4.587   2.469
 9928SOL    HW130683   5.301   4.687   2.472
 9928SOL    HW230684   5.230   4.550   2.523
 9929SOL     OW30685   3.064   4.403   5.663
 9929SOL    HW130686   3.115   4.487   5.685
 9929SOL    HW230687   3.110   4.355   5.588
 9930SOL     OW30688   0.009   6.387   4.984
 9930SOL    HW130689   0.058   6.325   5.046
 9930SOL    HW230690   0.031   6.364   4.889
 9931SOL     OW30691   0.272   5.748   4.034
 9931SOL    HW130692   0.184   5.746   3.987
 9931SOL    HW230693   0.263   5.706   4.124
 9932SOL     OW30694   3.138   4.109   0.041
 9932SOL    HW130695   3.131   4.033   7.002
 9932SOL    HW230696   3.192   4.183   0.000
 9933SOL     OW30697   0.345   6.067   3.411
 9933SOL    HW130698   0.334   5.972   3.441
 9933SOL    HW230699   0.369   6.067   3.314
 9934SOL     OW30700   5.698   2.322   5.740
 9934SOL    HW130701   5.760   2.243   5.746
 9934SOL    HW230702   5.657   2.338   5.830
 9935SOL     OW30703   2.335   6.562   6.955
 9935SOL    HW130704   2.313   6.482   6.899
 9935SOL    HW230705   2.412   6.540   7.015
 9936SOL     OW30706   6.466   5.489   6.479
 9936SOL    HW130707   6.561   5.516   6.465
 9936SOL    HW230708   6.449   5.402   6.433
 9937SOL     OW30709   6.367   1.372   0.810
 9937SOL    HW130710   6.366   1.344   0.906
 9937SOL    HW230711   6.304   1.449   0.797
 9938SOL     OW30712   6.767   5.294   2.668
 9938SOL    HW130713   6.778   5.221   2.734
 9938SOL    HW230714   6.710   5.366   2.707
 9939SOL     OW30715   4.124   2.429   0.753
 9939SOL    HW130716   4.030   2.439   0.786
 9939SOL    HW230717   4.176   2.374   0.818
 9940SOL     OW30718   1.102   0.571   1.362
 9940SOL    HW130719   1.198   0.557   1.338
 9940SOL    HW230720   1.053   0.609   1.284
 9941SOL     OW30721   2.884   3.932   5.628
 9941SOL    HW130722   2.874   3.965   5.722
 9941SOL    HW230723   2.881   4.010   5.565
 9942SOL     OW30724   2.766   5.462   2.341
 9942SOL    HW130725   2.793   5.407   2.262
 9942SOL    HW230726   2.740   5.553   2.310
 9943SOL     OW30727   0.189   4.474   5.354
 9943SOL    HW130728   0.275   4.457   5.402
 9943SOL    HW230729   0.114   4.483   5.420
 9944SOL     OW30730   1.682   4.722   6.644
 9944SOL    HW130731   1.757   4.723   6.709
 9944SOL    HW230732   1.667   4.628   6.612
 9945SOL     OW30733   5.813   5.496   6.417
 9945SOL    HW130734   5.912   5.492   6.405
 9945SOL    HW230735   5.790   5.580   6.467
 9946SOL     OW30736   4.888   1.047   3.589
 9946SOL    HW130737   4.792   1.067   3.571
 9946SOL    HW230738   4.936   1.034   3.503
 9947SOL     OW30739   1.680   2.818   5.268
 9947SOL    HW130740   1.761   2.808   5.210
 9947SOL    HW230741   1.615   2.744   5.248
 9948SOL     OW30742   5.292   4.101   4.997
 9948SOL    HW130743   5.364   4.161   4.961
 9948SOL    HW230744   5.320   4.006   4.988
 9949SOL     OW30745   6.946   4.696   4.203
 9949SOL    HW130746   6.974   4.601   4.194
 9949SOL    HW230747   6.847   4.703   4.189
 9950SOL     OW30748   5.798   6.006   4.959
 9950SOL    HW130749   5.709   5.993   4.914
 9950SOL    HW230750   5.833   5.918   4.989
 9951SOL     OW30751   0.040   0.532   4.748
 9951SOL    HW130752   0.098   0.609   4.774
 9951SOL    HW230753   0.025   0.534   4.649
 9952SOL     OW30754   1.419   3.779   1.074
 9952SOL    HW130755   1.329   3.821   1.089
 9952SOL    HW230756   1.413   3.680   1.090
 9953SOL     OW30757   5.619   2.914   4.368
 9953SOL    HW130758   5.702   2.953   4.408
 9953SOL    HW230759   5.581   2.846   4.431
 9954SOL     OW30760   6.305   0.619   6.532
 9954SOL    HW130761   6.390   0.576   6.502
 9954SOL    HW230762   6.239   0.548   6.557
 9955SOL     OW30763   6.217   3.556   5.343
 9955SOL    HW130764   6.296   3.550   5.281
 9955SOL    HW230765   6.238   3.619   5.418
 9956SOL     OW30766   1.778   0.025   2.473
 9956SOL    HW130767   1.813   0.112   2.439
 9956SOL    HW230768   1.679   0.021   2.458
 9957SOL     OW30769   5.314   5.531   2.469
 9957SOL    HW130770   5.378   5.608   2.466
 9957SOL    HW230771   5.364   5.448   2.492
 9958SOL     OW30772   3.939   5.444   0.886
 9958SOL    HW130773   4.020   5.395   0.853
 9958SOL    HW230774   3.909   5.509   0.816
 9959SOL     OW30775   4.064   3.678   5.324
 9959SOL    HW130776   4.037   3.647   5.233
 9959SOL    HW230777   4.151   3.728   5.317
 9960SOL     OW30778   0.147   6.986   2.128
 9960SOL    HW130779   0.121   6.993   2.224
 9960SOL    HW230780   0.227   6.927   2.118
 9961SOL     OW30781   1.328   5.219   4.467
 9961SOL    HW130782   1.403   5.153   4.464
 9961SOL    HW230783   1.330   5.268   4.554
 9962SOL     OW30784   6.185   6.912   2.915
 9962SOL    HW130785   6.210   6.862   2.998
 9962SOL    HW230786   6.113   6.862   2.866
 9963SOL     OW30787   3.048   3.126   6.826
 9963SOL    HW130788   2.982   3.060   6.789
 9963SOL    HW230789   3.024   3.147   6.921
 9964SOL     OW30790   5.195   4.895   5.629
 9964SOL    HW130791   5.096   4.893   5.625
 9964SOL    HW230792   5.232   4.914   5.537
 9965SOL     OW30793   3.609   6.546   6.469
 9965SOL    HW130794   3.649   6.637   6.477
 9965SOL    HW230795   3.679   6.477   6.487
 9966SOL     OW30796   1.787   5.965   1.811
 9966SOL    HW130797   1.838   6.000   1.732
 9966SOL    HW230798   1.841   5.893   1.856
 9967SOL     OW30799   0.393   6.881   2.066
 9967SOL    HW130800   0.394   6.792   2.112
 9967SOL    HW230801   0.486   6.917   2.061
 9968SOL     OW30802   3.773   3.932   1.150
 9968SOL    HW130803   3.718   3.858   1.113
 9968SOL    HW230804   3.784   4.003   1.081
 9969SOL     OW30805   1.680   2.874   2.599
 9969SOL    HW130806   1.585   2.854   2.574
 9969SOL    HW230807   1.706   2.964   2.564
 9970SOL     OW30808   5.383   4.078   2.633
 9970SOL    HW130809   5.283   4.083   2.641
 9970SOL    HW230810   5.422   4.170   2.635
 9971SOL     OW30811   1.962   5.593   1.739
 9971SOL    HW130812   1.961   5.568   1.642
 9971SOL    HW230813   1.924   5.517   1.793
 9972SOL     OW30814   4.916   4.685   1.666
 9972SOL    HW130815   4.912   4.700   1.764
 9972SOL    HW230816   4.842   4.623   1.638
 9973SOL     OW30817   5.273   2.037   3.815
 9973SOL    HW130818   5.337   2.064   3.887
 9973SOL    HW230819   5.298   2.081   3.729
 9974SOL     OW30820   0.445   2.721   2.642
 9974SOL    HW130821   0.349   2.740   2.623
 9974SOL    HW230822   0.481   2.658   2.573
 9975SOL     OW30823   6.050   4.267   7.014
 9975SOL    HW130824   6.029   4.305   0.080
 9975SOL    HW230825   6.130   4.208   7.020
 9976SOL     OW30826   1.079   6.124   5.489
 9976SOL    HW130827   1.012   6.093   5.556
 9976SOL    HW230828   1.124   6.206   5.523
 9977SOL     OW30829   0.196   5.097   5.674
 9977SOL    HW130830   0.261   5.106   5.598
 9977SOL    HW230831   0.239   5.048   5.749
 9978SOL     OW30832   0.359   2.528   4.396
 9978SOL    HW130833   0.393   2.592   4.465
 9978SOL    HW230834   0.267   2.499   4.420
 9979SOL     OW30835   6.053   5.021   5.431
 9979SOL    HW130836   6.056   5.110   5.387
 9979SOL    HW230837   5.988   4.962   5.384
 9980SOL     OW30838   2.108   1.093   5.909
 9980SOL    HW130839   2.143   1.016   5.856
 9980SOL    HW230840   2.008   1.087   5.913
 9981SOL     OW30841   2.841   1.559   2.900
 9981SOL    HW130842   2.894   1.584   2.819
 9981SOL    HW230843   2.902   1.521   2.969
 9982SOL     OW30844   6.449   6.685   4.631
 9982SOL    HW130845   6.432   6.783   4.623
 9982SOL    HW230846   6.524   6.669   4.696
 9983SOL     OW30847   6.623   2.001   2.619
 9983SOL    HW130848   6.534   2.032   2.653
 9983SOL    HW230849   6.644   1.911   2.658
 9984SOL     OW30850   2.027   0.956   0.075
 9984SOL    HW130851   2.108   0.994   0.030
 9984SOL    HW230852   1.953   0.945   0.008
 9985SOL     OW30853   1.015   1.058   1.222
 9985SOL    HW130854   1.028   0.972   1.173
 9985SOL    HW230855   1.038   1.045   1.319
 9986SOL     OW30856   5.467   4.163   6.005
 9986SOL    HW130857   5.508   4.208   5.925
 9986SOL    HW230858   5.369   4.182   6.007
 9987SOL     OW30859   0.428   3.258   4.411
 9987SOL    HW130860   0.443   3.222   4.319
 9987SOL    HW230861   0.513   3.294   4.448
 9988SOL     OW30862   6.740   5.837   4.110
 9988SOL    HW130863   6.705   5.747   4.136
 9988SOL    HW230864   6.675   5.908   4.136
 9989SOL     OW30865   6.580   3.607   3.708
 9989SOL    HW130866   6.630   3.670   3.648
 9989SOL    HW230867   6.639   3.583   3.785
 9990SOL     OW30868   2.346   5.397   2.255
 9990SOL    HW130869   2.403   5.422   2.176
 9990SOL    HW230870   2.284   5.473   2.276
 9991SOL     OW30871   2.000   2.283   3.713
 9991SOL    HW130872   1.940   2.232   3.651
 9991SOL    HW230873   1.974   2.379   3.713
 9992SOL     OW30874   5.477   5.152   7.000
 9992SOL    HW130875   5.503   5.126   0.068
 9992SOL    HW230876   5.560   5.171   6.947
 9993SOL     OW30877   3.048   0.989   0.664
 9993SOL    HW130878   2.984   0.916   0.639
 9993SOL    HW230879   3.127   0.988   0.603
 9994SOL     OW30880   6.005   4.502   3.319
 9994SOL    HW130881   5.916   4.458   3.307
 9994SOL    HW230882   6.074   4.453   3.265
 9995SOL     OW30883   4.495   1.133   3.093
 9995SOL    HW130884   4.539   1.195   3.028
 9995SOL    HW230885   4.561   1.108   3.165
 9996SOL     OW30886   3.093   3.287   0.760
 9996SOL    HW130887   3.162   3.285   0.687
 9996SOL    HW230888   3.026   3.358   0.741
 9997SOL     OW30889   3.409   1.558   6.414
 9997SOL    HW130890   3.387   1.498   6.337
 9997SOL    HW230891   3.434   1.649   6.379
 9998SOL     OW30892   5.713   4.677   6.202
 9998SOL    HW130893   5.761   4.748   6.152
 9998SOL    HW230894   5.745   4.676   6.297
 9999SOL     OW30895   6.126   2.870   5.664
 9999SOL    HW130896   6.030   2.896   5.650
 9999SOL    HW230897   6.183   2.952   5.659
10000SOL     OW30898   0.238   4.593   6.960
10000SOL    HW130899   0.251   4.543   6.874
10000SOL    HW230900   0.187   4.536   7.024
10001SOL     OW30901   5.397   6.800   2.085
10001SOL    HW130902   5.361   6.884   2.124
10001SOL    HW230903   5.370   6.722   2.141
10002SOL     OW30904   0.951   0.104   2.837
10002SOL    HW130905   0.924   0.009   2.824
10002SOL    HW230906   0.988   0.141   2.752
10003SOL     OW30907   3.909   1.458   3.753
10003SOL    HW130908   3.991   1.407   3.728
10003SOL    HW230909   3.842   1.452   3.679
10004SOL     OW30910   6.751   2.684   4.195
10004SOL    HW130911   6.724   2.592   4.169
10004SOL    HW230912   6.806   2.725   4.122
10005SOL     OW30913   5.547   0.256   4.593
10005SOL    HW130914   5.611   0.300   4.656
10005SOL    HW230915   5.596   0.187   4.540
10006SOL     OW30916   4.799   5.364   4.336
10006SOL    HW130917   4.866   5.401   4.400
10006SOL    HW230918   4.846   5.313   4.264
10007SOL     OW30919   6.837   4.512   5.524
10007SOL    HW130920   6.832   4.611   5.517
10007SOL    HW230921   6.755   4.478   5.570
10008SOL     OW30922   3.656   1.296   4.575
10008SOL    HW130923   3.755   1.310   4.584
10008SOL    HW230924   3.619   1.364   4.512
10009SOL     OW30925   1.858   3.814   1.970
10009SOL    HW130926   1.953   3.819   2.001
10009SOL    HW230927   1.845   3.732   1.915
10010SOL     OW30928   2.328   0.745   5.538
10010SOL    HW130929   2.231   0.762   5.554
10010SOL    HW230930   2.382   0.825   5.564
10011SOL     OW30931   6.150   0.638   5.856
10011SOL    HW130932   6.057   0.661   5.828
10011SOL    HW230933   6.154   0.633   5.956
10012SOL     OW30934   5.410   1.239   3.269
10012SOL    HW130935   5.392   1.158   3.214
10012SOL    HW230936   5.461   1.305   3.215
10013SOL     OW30937   0.187   1.305   3.515
10013SOL    HW130938   0.252   1.349   3.453
10013SOL    HW230939   0.209   1.330   3.609
10014SOL     OW30940   0.011   4.187   0.502
10014SOL    HW130941   0.011   4.097   0.545
10014SOL    HW230942   0.105   4.217   0.488
10015SOL     OW30943   2.274   4.841   0.835
10015SOL    HW130944   2.267   4.929   0.788
10015SOL    HW230945   2.363   4.834   0.879
10016SOL     OW30946   1.050   1.490   6.349
10016SOL    HW130947   1.032   1.529   6.439
10016SOL    HW230948   1.058   1.390   6.357
10017SOL     OW30949   2.730   1.978   3.121
10017SOL    HW130950   2.697   2.071   3.106
10017SOL    HW230951   2.655   1.914   3.108
10018SOL     OW30952   4.623   0.423   6.346
10018SOL    HW130953   4.720   0.443   6.360
10018SOL    HW230954   4.595   0.348   6.407
10019SOL     OW30955   0.417   1.591   2.907
10019SOL    HW130956   0.408   1.634   2.817
10019SOL    HW230957   0.331   1.547   2.932
10020SOL     OW30958   1.918   2.136   1.078
10020SOL    HW130959   1.910   2.158   0.981
10020SOL    HW230960   1.989   2.067   1.091
10021SOL     OW30961   0.386   2.593   1.530
10021SOL    HW130962   0.319   2.653   1.574
10021SOL    HW230963   0.478   2.627   1.549
10022SOL     OW30964   2.875   1.484   5.891
10022SOL    HW130965   2.824   1.407   5.852
10022SOL    HW230966   2.859   1.566   5.835
10023SOL     OW30967   6.874   4.864   1.087
10023SOL    HW130968   6.869   4.775   1.043
10023SOL    HW230969   6.787   4.913   1.075
10024SOL     OW30970   2.391   6.435   2.640
10024SOL    HW130971   2.478   6.431   2.691
10024SOL    HW230972   2.323   6.481   2.696
10025SOL     OW30973   1.482   0.614   0.831
10025SOL    HW130974   1.496   0.680   0.905
10025SOL    HW230975   1.450   0.661   0.749
10026SOL     OW30976   4.850   6.690   3.721
10026SOL    HW130977   4.802   6.725   3.640
10026SOL    HW230978   4.835   6.592   3.729
10027SOL     OW30979   6.323   3.628   4.618
10027SOL    HW130980   6.387   3.558   4.649
10027SOL    HW230981   6.244   3.584   4.575
10028SOL     OW30982   1.031   0.258   1.973
10028SOL    HW130983   1.105   0.292   2.031
10028SOL    HW230984   0.977   0.334   1.938
10029SOL     OW30985   4.956   2.074   4.220
10029SOL    HW130986   4.902   2.031   4.148
10029SOL    HW230987   5.018   2.142   4.180
10030SOL     OW30988   2.153   1.062   3.216
10030SOL    HW130989   2.119   1.155   3.229
10030SOL    HW230990   2.241   1.064   3.168
10031SOL     OW30991   5.480   4.641   4.653
10031SOL    HW130992   5.482   4.736   4.684
10031SOL    HW230993   5.392   4.599   4.678
10032SOL     OW30994   3.238   1.427   4.954
10032SOL    HW130995   3.198   1.513   4.921
10032SOL    HW230996   3.232   1.358   4.882
10033SOL     OW30997   6.956   3.424   4.438
10033SOL    HW130998   6.871   3.372   4.427
10033SOL    HW230999   6.943   3.495   4.507
10034SOL     OW31000   3.811   0.297   4.337
10034SOL    HW131001   3.749   0.375   4.322
10034SOL    HW231002   3.759   0.220   4.372
10035SOL     OW31003   6.740   5.312   1.603
10035SOL    HW131004   6.766   5.266   1.688
10035SOL    HW231005   6.771   5.407   1.606
10036SOL     OW31006   6.287   1.866   0.756
10036SOL    HW131007   6.371   1.870   0.701
10036SOL    HW231008   6.274   1.772   0.789
10037SOL     OW31009   6.908   1.489   6.769
10037SOL    HW131010   6.907   1.408   6.711
10037SOL    HW231011   6.823   1.540   6.755
10038SOL     OW31012   5.965   0.184   0.400
10038SOL    HW131013   5.938   0.253   0.467
10038SOL    HW231014   6.006   0.106   0.447
10039SOL     OW31015   3.315   0.698   3.491
10039SOL    HW131016   3.387   0.767   3.482
10039SOL    HW231017   3.339   0.636   3.566
10040SOL     OW31018   5.840   4.806   7.022
10040SOL    HW131019   5.920   4.795   0.056
10040SOL    HW231020   5.846   4.741   6.946
10041SOL     OW31021   3.234   6.087   0.208
10041SOL    HW131022   3.139   6.101   0.179
10041SOL    HW231023   3.237   6.011   0.274
10042SOL     OW31024   6.997   1.909   3.758
10042SOL    HW131025   6.976   1.983   3.694
10042SOL    HW231026   6.921   1.844   3.761
10043SOL     OW31027   6.277   1.500   5.253
10043SOL    HW131028   6.317   1.517   5.344
10043SOL    HW231029   6.212   1.424   5.259
10044SOL     OW31030   2.402   3.367   6.160
10044SOL    HW131031   2.390   3.466   6.150
10044SOL    HW231032   2.338   3.319   6.100
10045SOL     OW31033   4.280   0.998   0.937
10045SOL    HW131034   4.355   0.992   1.002
10045SOL    HW231035   4.262   0.908   0.898
10046SOL     OW31036   1.685   3.631   1.056
10046SOL    HW131037   1.708   3.725   1.079
10046SOL    HW231038   1.630   3.591   1.129
10047SOL     OW31039   0.874   3.425   6.266
10047SOL    HW131040   0.861   3.423   6.365
10047SOL    HW231041   0.788   3.447   6.221
10048SOL     OW31042   0.006   6.930   2.972
10048SOL    HW131043   0.098   6.899   2.995
10048SOL    HW231044   6.964   6.861   3.001
10049SOL     OW31045   0.334   1.987   6.029
10049SOL    HW131046   0.400   2.040   6.082
10049SOL    HW231047   0.297   1.914   6.086
10050SOL     OW31048   5.085   3.932   5.266
10050SOL    HW131049   5.132   3.952   5.352
10050SOL    HW231050   5.144   3.875   5.209
10051SOL     OW31051   0.903   3.816   4.977
10051SOL    HW131052   0.854   3.903   4.975
10051SOL    HW231053   0.848   3.746   4.932
10052SOL     OW31054   1.374   0.778   3.502
10052SOL    HW131055   1.286   0.766   3.455
10052SOL    HW231056   1.410   0.688   3.529
10053SOL     OW31057   4.904   5.187   3.688
10053SOL    HW131058   4.923   5.147   3.778
10053SOL    HW231059   4.977   5.251   3.664
10054SOL     OW31060   5.872   4.412   4.522
10054SOL    HW131061   5.928   4.469   4.582
10054SOL    HW231062   5.783   4.397   4.564
10055SOL     OW31063   6.426   2.476   6.658
10055SOL    HW131064   6.507   2.489   6.716
10055SOL    HW231065   6.363   2.413   6.704
10056SOL     OW31066   5.371   3.458   3.030
10056SOL    HW131067   5.323   3.539   2.997
10056SOL    HW231068   5.383   3.466   3.129
10057SOL     OW31069   5.794   3.934   6.095
10057SOL    HW131070   5.848   4.014   6.069
10057SOL    HW231071   5.845   3.851   6.074
10058SOL     OW31072   6.694   3.321   4.417
10058SOL    HW131073   6.679   3.246   4.353
10058SOL    HW231074   6.628   3.315   4.493
10059SOL     OW31075   5.993   1.519   0.942
10059SOL    HW131076   5.947   1.592   0.992
10059SOL    HW231077   5.942   1.499   0.858
10060SOL     OW31078   2.621   1.996   2.710
10060SOL    HW131079   2.607   2.034   2.801
10060SOL    HW231080   2.716   1.968   2.700
10061SOL     OW31081   4.324   1.301   3.819
10061SOL    HW131082   4.344   1.392   3.781
10061SOL    HW231083   4.321   1.307   3.919
10062SOL     OW31084   0.759   6.951   3.712
10062SOL    HW131085   0.709   6.873   3.751
10062SOL    HW231086   0.695   7.008   3.660
10063SOL     OW31087   1.843   2.279   4.846
10063SOL    HW131088   1.872   2.327   4.929
10063SOL    HW231089   1.900   2.199   4.832
10064SOL     OW31090   3.130   6.366   0.076
10064SOL    HW131091   3.110   6.426   0.153
10064SOL    HW231092   3.067   6.287   0.078
10065SOL     OW31093   1.381   0.488   1.376
10065SOL    HW131094   1.384   0.425   1.454
10065SOL    HW231095   1.455   0.467   1.313
10066SOL     OW31096   0.025   3.540   5.165
10066SOL    HW131097   0.048   3.561   5.260
10066SOL    HW231098   0.108   3.529   5.112
10067SOL     OW31099   0.583   2.958   6.644
10067SOL    HW131100   0.573   2.873   6.696
10067SOL    HW231101   0.520   3.027   6.680
10068SOL     OW31102   1.800   3.132   2.255
10068SOL    HW131103   1.785   3.220   2.210
10068SOL    HW231104   1.740   3.125   2.335
10069SOL     OW31105   3.618   4.983   1.782
10069SOL    HW131106   3.586   4.921   1.854
10069SOL    HW231107   3.555   4.979   1.704
10070SOL     OW31108   2.581   6.202   4.313
10070SOL    HW131109   2.639   6.264   4.260
10070SOL    HW231110   2.626   6.113   4.319
10071SOL     OW31111   0.504   6.710   3.762
10071SOL    HW131112   0.459   6.781   3.816
10071SOL    HW231113   0.453   6.695   3.678
10072SOL     OW31114   6.823   1.085   3.131
10072SOL    HW131115   6.847   1.061   3.225
10072SOL    HW231116   6.726   1.106   3.125
10073SOL     OW31117   6.236   2.941   3.870
10073SOL    HW131118   6.175   2.895   3.805
10073SOL    HW231119   6.199   3.030   3.894
10074SOL     OW31120   1.905   4.914   0.802
10074SOL    HW131121   1.991   4.923   0.753
10074SOL    HW231122   1.912   4.839   0.869
10075SOL     OW31123   2.197   1.795   2.438
10075SOL    HW131124   2.278   1.816   2.492
10075SOL    HW231125   2.224   1.745   2.356
10076SOL     OW31126   4.909   5.475   3.139
10076SOL    HW131127   4.833   5.416   3.112
10076SOL    HW231128   4.925   5.465   3.238
10077SOL     OW31129   6.240   3.295   6.805
10077SOL    HW131130   6.262   3.334   6.715
10077SOL    HW231131   6.220   3.198   6.795
10078SOL     OW31132   0.120   6.307   5.208
10078SOL    HW131133   0.162   6.398   5.215
10078SOL    HW231134   0.191   6.237   5.214
10079SOL     OW31135   5.139   3.142   2.800
10079SOL    HW131136   5.225   3.183   2.770
10079SOL    HW231137   5.155   3.088   2.882
10080SOL     OW31138   5.634   0.748   5.637
10080SOL    HW131139   5.589   0.745   5.726
10080SOL    HW231140   5.574   0.706   5.568
10081SOL     OW31141   1.764   2.221   6.804
10081SOL    HW131142   1.757   2.122   6.788
10081SOL    HW231143   1.738   2.241   6.898
10082SOL     OW31144   1.541   4.582   2.787
10082SOL    HW131145   1.584   4.573   2.697
10082SOL    HW231146   1.557   4.499   2.840
10083SOL     OW31147   3.587   5.207   3.864
10083SOL    HW131148   3.497   5.179   3.899
10083SOL    HW231149   3.618   5.288   3.912
10084SOL     OW31150   1.137   7.023   5.464
10084SOL    HW131151   1.122   7.015   5.366
10084SOL    HW231152   1.209   6.960   5.492
10085SOL     OW31153   3.957   6.712   0.322
10085SOL    HW131154   4.038   6.753   0.364
10085SOL    HW231155   3.939   6.755   0.234
10086SOL     OW31156   6.527   6.694   2.009
10086SOL    HW131157   6.460   6.747   2.061
10086SOL    HW231158   6.481   6.640   1.940
10087SOL     OW31159   1.169   6.402   4.335
10087SOL    HW131160   1.260   6.371   4.308
10087SOL    HW231161   1.170   6.501   4.348
10088SOL     OW31162   7.014   2.812   7.006
10088SOL    HW131163   0.005   2.806   0.079
10088SOL    HW231164   6.959   2.734   6.976
10089SOL     OW31165   4.562   2.027   2.041
10089SOL    HW131166   4.522   2.021   2.133
10089SOL    HW231167   4.547   2.118   2.004
10090SOL     OW31168   1.238   4.944   1.450
10090SOL    HW131169   1.285   4.864   1.413
10090SOL    HW231170   1.304   5.001   1.499
10091SOL     OW31171   6.234   5.200   5.799
10091SOL    HW131172   6.323   5.197   5.845
10091SOL    HW231173   6.162   5.214   5.867
10092SOL     OW31174   0.466   2.957   5.419
10092SOL    HW131175   0.555   2.916   5.438
10092SOL    HW231176   0.446   3.026   5.489
10093SOL     OW31177   5.631   3.919   5.724
10093SOL    HW131178   5.679   3.945   5.640
10093SOL    HW231179   5.673   3.965   5.802
10094SOL     OW31180   3.060   0.396   1.003
10094SOL    HW131181   3.078   0.460   1.077
10094SOL    HW231182   3.122   0.416   0.926
10095SOL     OW31183   5.524   2.906   5.104
10095SOL    HW131184   5.610   2.954   5.086
10095SOL    HW231185   5.450   2.973   5.111
10096SOL     OW31186   4.800   1.137   2.850
10096SOL    HW131187   4.826   1.127   2.946
10096SOL    HW231188   4.720   1.197   2.844
10097SOL     OW31189   1.350   1.699   6.339
10097SOL    HW131190   1.313   1.647   6.262
10097SOL    HW231191   1.447   1.717   6.323
10098SOL     OW31192   3.182   5.713   4.779
10098SOL    HW131193   3.141   5.623   4.796
10098SOL    HW231194   3.200   5.759   4.866
10099SOL     OW31195   0.349   4.246   2.423
10099SOL    HW131196   0.418   4.308   2.461
10099SOL    HW231197   0.301   4.292   2.349
10100SOL     OW31198   5.074   5.096   4.946
10100SOL    HW131199   4.982   5.058   4.950
10100SOL    HW231200   5.129   5.059   5.021
10101SOL     OW31201   1.388   2.077   1.660
10101SOL    HW131202   1.306   2.021   1.676
10101SOL    HW231203   1.372   2.136   1.581
10102SOL     OW31204   6.466   6.478   1.006
10102SOL    HW131205   6.501   6.401   0.953
10102SOL    HW231206   6.482   6.563   0.955
10103SOL     OW31207   0.076   6.882   5.506
10103SOL    HW131208   0.036   6.811   5.448
10103SOL    HW231209   0.175   6.875   5.504
10104SOL     OW31210   2.119   0.606   5.908
10104SOL    HW131211   2.171   0.690   5.891
10104SOL    HW231212   2.183   0.529   5.916
10105SOL     OW31213   2.463   0.765   5.808
10105SOL    HW131214   2.467   0.670   5.777
10105SOL    HW231215   2.554   0.794   5.838
10106SOL     OW31216   5.074   6.331   1.184
10106SOL    HW131217   5.011   6.298   1.254
10106SOL    HW231218   5.135   6.256   1.156
10107SOL     OW31219   5.494   4.454   6.499
10107SOL    HW131220   5.448   4.528   6.548
10107SOL    HW231221   5.432   4.417   6.430
10108SOL     OW31222   1.251   2.704   0.596
10108SOL    HW131223   1.334   2.648   0.594
10108SOL    HW231224   1.185   2.669   0.530
10109SOL     OW31225   0.684   1.757   0.546
10109SOL    HW131226   0.607   1.704   0.581
10109SOL    HW231227   0.686   1.847   0.589
10110SOL     OW31228   4.860   5.849   2.822
10110SOL    HW131229   4.844   5.928   2.763
10110SOL    HW231230   4.804   5.857   2.905
10111SOL     OW31231   1.533   1.631   1.984
10111SOL    HW131232   1.446   1.643   1.935
10111SOL    HW231233   1.604   1.685   1.940
10112SOL     OW31234   6.096   2.810   3.670
10112SOL    HW131235   6.172   2.806   3.605
10112SOL    HW231236   6.013   2.777   3.626
10113SOL     OW31237   5.062   1.408   6.539
10113SOL    HW131238   5.071   1.397   6.638
10113SOL    HW231239   4.981   1.359   6.507
10114SOL     OW31240   3.882   1.517   2.883
10114SOL    HW131241   3.852   1.549   2.973
10114SOL    HW231242   3.907   1.596   2.827
10115SOL     OW31243   3.392   1.887   5.308
10115SOL    HW131244   3.349   1.936   5.384
10115SOL    HW231245   3.445   1.952   5.253
10116SOL     OW31246   6.396   0.676   4.788
10116SOL    HW131247   6.459   0.752   4.808
10116SOL    HW231248   6.381   0.671   4.689
10117SOL     OW31249   6.523   5.248   4.189
10117SOL    HW131250   6.488   5.210   4.275
10117SOL    HW231251   6.449   5.294   4.140
10118SOL     OW31252   3.261   4.895   4.884
10118SOL    HW131253   3.261   4.970   4.818
10118SOL    HW231254   3.298   4.812   4.842
10119SOL     OW31255   0.426   5.157   4.474
10119SOL    HW131256   0.474   5.198   4.397
10119SOL    HW231257   0.488   5.097   4.525
10120SOL     OW31258   2.335   2.825   1.768
10120SOL    HW131259   2.275   2.904   1.778
10120SOL    HW231260   2.319   2.762   1.844
10121SOL     OW31261   6.398   4.311   0.846
10121SOL    HW131262   6.411   4.298   0.944
10121SOL    HW231263   6.311   4.270   0.818
10122SOL     OW31264   0.790   1.382   3.839
10122SOL    HW131265   0.750   1.470   3.812
10122SOL    HW231266   0.868   1.361   3.780
10123SOL     OW31267   5.696   6.041   0.906
10123SOL    HW131268   5.627   6.109   0.882
10123SOL    HW231269   5.742   6.010   0.822
10124SOL     OW31270   0.776   4.278   2.837
10124SOL    HW131271   0.831   4.347   2.885
10124SOL    HW231272   0.679   4.295   2.853
10125SOL     OW31273   1.482   2.222   6.629
10125SOL    HW131274   1.518   2.131   6.607
10125SOL    HW231275   1.527   2.291   6.573
10126SOL     OW31276   6.548   6.949   6.477
10126SOL    HW131277   6.629   7.005   6.496
10126SOL    HW231278   6.471   6.983   6.532
10127SOL     OW31279   2.518   5.151   6.065
10127SOL    HW131280   2.444   5.193   6.013
10127SOL    HW231281   2.516   5.052   6.053
10128SOL     OW31282   3.272   0.709   6.991
10128SOL    HW131283   3.332   0.633   6.970
10128SOL    HW231284   3.187   0.675   0.007
10129SOL     OW31285   6.692   1.212   3.982
10129SOL    HW131286   6.659   1.289   4.037
10129SOL    HW231287   6.744   1.149   4.040
10130SOL     OW31288   1.796   2.276   2.339
10130SOL    HW131289   1.734   2.306   2.412
10130SOL    HW231290   1.862   2.211   2.377
10131SOL     OW31291   1.795   0.810   4.047
10131SOL    HW131292   1.792   0.818   4.147
10131SOL    HW231293   1.836   0.723   4.021
10132SOL     OW31294   6.980   0.858   3.084
10132SOL    HW131295   6.935   0.948   3.085
10132SOL    HW231296   7.022   0.844   2.994
10133SOL     OW31297   5.141   6.341   0.729
10133SOL    HW131298   5.203   6.351   0.806
10133SOL    HW231299   5.059   6.397   0.745
10134SOL     OW31300   5.885   0.839   2.040
10134SOL    HW131301   5.952   0.764   2.041
10134SOL    HW231302   5.844   0.845   1.949
10135SOL     OW31303   5.410   6.852   3.034
10135SOL    HW131304   5.432   6.895   3.121
10135SOL    HW231305   5.390   6.922   2.966
10136SOL     OW31306   4.440   1.508   2.617
10136SOL    HW131307   4.372   1.490   2.688
10136SOL    HW231308   4.435   1.604   2.589
10137SOL     OW31309   6.695   5.795   5.793
10137SOL    HW131310   6.611   5.743   5.809
10137SOL    HW231311   6.702   5.818   5.695
10138SOL     OW31312   5.825   0.962   0.288
10138SOL    HW131313   5.882   1.042   0.269
10138SOL    HW231314   5.797   0.963   0.385
10139SOL     OW31315   3.191   3.492   5.403
10139SOL    HW131316   3.120   3.428   5.434
10139SOL    HW231317   3.181   3.578   5.453
10140SOL     OW31318   6.998   5.182   5.807
10140SOL    HW131319   0.016   5.255   5.860
10140SOL    HW231320   0.026   5.165   5.723
10141SOL     OW31321   2.489   1.602   4.417
10141SOL    HW131322   2.417   1.538   4.391
10141SOL    HW231323   2.504   1.667   4.342
10142SOL     OW31324   6.026   6.431   4.317
10142SOL    HW131325   6.102   6.392   4.265
10142SOL    HW231326   6.046   6.424   4.415
10143SOL     OW31327   5.804   3.016   6.983
10143SOL    HW131328   5.846   3.087   0.015
10143SOL    HW231329   5.831   3.031   6.887
10144SOL     OW31330   3.817   6.443   5.579
10144SOL    HW131331   3.791   6.373   5.514
10144SOL    HW231332   3.830   6.530   5.531
10145SOL     OW31333   5.145   6.011   0.052
10145SOL    HW131334   5.051   5.983   0.029
10145SOL    HW231335   5.150   6.110   0.060
10146SOL     OW31336   0.346   2.446   4.721
10146SOL    HW131337   0.371   2.522   4.661
10146SOL    HW231338   0.412   2.440   4.796
10147SOL     OW31339   5.010   6.058   6.599
10147SOL    HW131340   5.088   6.052   6.536
10147SOL    HW231341   4.990   5.968   6.637
10148SOL     OW31342   0.959   5.018   6.568
10148SOL    HW131343   0.914   5.087   6.626
10148SOL    HW231344   0.925   4.927   6.593
10149SOL     OW31345   4.462   4.376   0.548
10149SOL    HW131346   4.561   4.384   0.564
10149SOL    HW231347   4.415   4.367   0.636
10150SOL     OW31348   4.377   4.187   0.030
10150SOL    HW131349   4.374   4.226   0.122
10150SOL    HW231350   4.286   4.195   7.012
10151SOL     OW31351   6.076   6.794   5.193
10151SOL    HW131352   6.096   6.706   5.150
10151SOL    HW231353   6.141   6.812   5.266
10152SOL     OW31354   5.503   6.680   2.850
10152SOL    HW131355   5.481   6.741   2.926
10152SOL    HW231356   5.594   6.640   2.865
10153SOL     OW31357   5.513   4.340   3.771
10153SOL    HW131358   5.507   4.421   3.830
10153SOL    HW231359   5.545   4.262   3.825
10154SOL     OW31360   4.964   5.288   4.583
10154SOL    HW131361   5.056   5.326   4.598
10154SOL    HW231362   4.972   5.194   4.551
10155SOL     OW31363   4.467   2.180   5.128
10155SOL    HW131364   4.555   2.183   5.175
10155SOL    HW231365   4.459   2.095   5.077
10156SOL     OW31366   5.047   1.186   0.277
10156SOL    HW131367   5.026   1.094   0.309
10156SOL    HW231368   4.965   1.227   0.237
10157SOL     OW31369   0.207   2.974   1.584
10157SOL    HW131370   0.214   2.888   1.634
10157SOL    HW231371   0.256   3.046   1.633
10158SOL     OW31372   5.866   5.760   1.340
10158SOL    HW131373   5.839   5.794   1.250
10158SOL    HW231374   5.906   5.668   1.330
10159SOL     OW31375   3.323   3.291   2.660
10159SOL    HW131376   3.347   3.388   2.669
10159SOL    HW231377   3.378   3.237   2.724
10160SOL     OW31378   1.907   4.737   3.723
10160SOL    HW131379   1.942   4.805   3.659
10160SOL    HW231380   1.980   4.711   3.787
10161SOL     OW31381   4.367   4.136   5.939
10161SOL    HW131382   4.417   4.098   6.016
10161SOL    HW231383   4.419   4.212   5.899
10162SOL     OW31384   1.570   3.855   2.532
10162SOL    HW131385   1.667   3.866   2.553
10162SOL    HW231386   1.520   3.834   2.616
10163SOL     OW31387   1.023   6.202   5.029
10163SOL    HW131388   1.039   6.213   5.127
10163SOL    HW231389   1.107   6.219   4.979
10164SOL     OW31390   0.467   3.080   3.070
10164SOL    HW131391   0.447   3.004   3.008
10164SOL    HW231392   0.383   3.132   3.086
10165SOL     OW31393   6.619   3.432   4.099
10165SOL    HW131394   6.527   3.436   4.138
10165SOL    HW231395   6.658   3.342   4.117
10166SOL     OW31396   1.333   1.844   0.954
10166SOL    HW131397   1.234   1.834   0.952
10166SOL    HW231398   1.376   1.755   0.968
10167SOL     OW31399   1.323   6.953   6.552
10167SOL    HW131400   1.331   7.002   6.465
10167SOL    HW231401   1.401   6.892   6.564
10168SOL     OW31402   5.899   1.336   0.453
10168SOL    HW131403   5.825   1.385   0.406
10168SOL    HW231404   5.861   1.259   0.504
10169SOL     OW31405   6.437   3.062   3.713
10169SOL    HW131406   6.412   3.105   3.627
10169SOL    HW231407   6.354   3.037   3.763
10170SOL     OW31408   6.055   5.747   6.013
10170SOL    HW131409   6.154   5.763   6.022
10170SOL    HW231410   6.006   5.811   6.072
10171SOL     OW31411   1.932   3.565   6.028
10171SOL    HW131412   2.030   3.576   6.041
10171SOL    HW231413   1.889   3.655   6.021
10172SOL     OW31414   6.540   0.252   3.032
10172SOL    HW131415   6.542   0.212   3.123
10172SOL    HW231416   6.471   0.205   2.976
10173SOL     OW31417   3.497   4.767   6.184
10173SOL    HW131418   3.435   4.713   6.242
10173SOL    HW231419   3.498   4.729   6.092
10174SOL     OW31420   4.895   5.873   2.172
10174SOL    HW131421   4.904   5.941   2.100
10174SOL    HW231422   4.977   5.816   2.176
10175SOL     OW31423   0.593   1.819   4.231
10175SOL    HW131424   0.589   1.915   4.259
10175SOL    HW231425   0.686   1.797   4.202
10176SOL     OW31426   5.966   2.519   5.989
10176SOL    HW131427   5.888   2.554   6.041
10176SOL    HW231428   5.944   2.520   5.892
10177SOL     OW31429   2.480   0.736   2.339
10177SOL    HW131430   2.556   0.743   2.404
10177SOL    HW231431   2.421   0.816   2.348
10178SOL     OW31432   1.712   1.076   0.285
10178SOL    HW131433   1.714   1.080   0.185
10178SOL    HW231434   1.616   1.072   0.316
10179SOL     OW31435   0.032   4.142   1.407
10179SOL    HW131436   0.127   4.144   1.374
10179SOL    HW231437   7.003   4.084   1.346
10180SOL     OW31438   3.710   6.896   5.399
10180SOL    HW131439   3.664   6.888   5.488
10180SOL    HW231440   3.747   6.807   5.373
10181SOL     OW31441   6.838   3.666   1.775
10181SOL    HW131442   6.859   3.603   1.700
10181SOL    HW231443   6.922   3.687   1.825
10182SOL     OW31444   5.040   1.396   6.808
10182SOL    HW131445   5.037   1.491   6.837
10182SOL    HW231446   5.113   1.348   6.856
10183SOL     OW31447   6.097   2.477   6.517
10183SOL    HW131448   6.092   2.544   6.591
10183SOL    HW231449   6.181   2.490   6.465
10184SOL     OW31450   5.739   3.472   6.022
10184SOL    HW131451   5.725   3.416   6.103
10184SOL    HW231452   5.715   3.419   5.940
10185SOL     OW31453   3.920   5.703   2.572
10185SOL    HW131454   3.865   5.651   2.637
10185SOL    HW231455   3.886   5.689   2.479
10186SOL     OW31456   4.126   3.471   5.716
10186SOL    HW131457   4.157   3.456   5.622
10186SOL    HW231458   4.122   3.569   5.734
10187SOL     OW31459   2.278   5.291   5.881
10187SOL    HW131460   2.263   5.245   5.794
10187SOL    HW231461   2.190   5.308   5.926
10188SOL     OW31462   3.174   0.135   0.094
10188SOL    HW131463   3.205   0.157   0.186
10188SOL    HW231464   3.156   0.037   0.087
10189SOL     OW31465   0.764   1.687   6.575
10189SOL    HW131466   0.730   1.650   6.489
10189SOL    HW231467   0.686   1.712   6.633
10190SOL     OW31468   3.484   4.976   1.531
10190SOL    HW131469   3.455   5.060   1.576
10190SOL    HW231470   3.409   4.941   1.474
10191SOL     OW31471   5.790   5.747   6.993
10191SOL    HW131472   5.729   5.669   6.987
10191SOL    HW231473   5.737   5.832   6.990
10192SOL     OW31474   2.046   2.064   5.096
10192SOL    HW131475   2.042   2.135   5.167
10192SOL    HW231476   2.087   1.982   5.134
10193SOL     OW31477   4.128   3.729   2.968
10193SOL    HW131478   4.188   3.650   2.954
10193SOL    HW231479   4.096   3.762   2.880
10194SOL     OW31480   3.477   0.287   3.933
10194SOL    HW131481   3.573   0.258   3.932
10194SOL    HW231482   3.445   0.295   4.027
10195SOL     OW31483   4.765   0.030   2.426
10195SOL    HW131484   4.826   0.048   2.503
10195SOL    HW231485   4.703   0.108   2.413
10196SOL     OW31486   5.541   1.457   3.155
10196SOL    HW131487   5.467   1.464   3.088
10196SOL    HW231488   5.542   1.539   3.212
10197SOL     OW31489   6.217   0.828   2.479
10197SOL    HW131490   6.299   0.858   2.527
10197SOL    HW231491   6.226   0.731   2.456
10198SOL     OW31492   3.147   6.829   1.512
10198SOL    HW131493   3.189   6.917   1.531
10198SOL    HW231494   3.069   6.842   1.451
10199SOL     OW31495   0.756   1.419   6.725
10199SOL    HW131496   0.734   1.374   6.639
10199SOL    HW231497   0.725   1.515   6.722
10200SOL     OW31498   5.238   4.388   5.458
10200SOL    HW131499   5.315   4.328   5.437
10200SOL    HW231500   5.256   4.437   5.543
10201SOL     OW31501   0.708   5.314   2.303
10201SOL    HW131502   0.746   5.379   2.369
10201SOL    HW231503   0.769   5.306   2.224
10202SOL     OW31504   1.012   2.971   1.555
10202SOL    HW131505   1.033   3.050   1.612
10202SOL    HW231506   0.913   2.956   1.555
10203SOL     OW31507   1.534   3.114   1.948
10203SOL    HW131508   1.535   3.206   1.987
10203SOL    HW231509   1.441   3.091   1.919
10204SOL     OW31510   3.119   4.661   5.310
10204SOL    HW131511   3.040   4.640   5.252
10204SOL    HW231512   3.196   4.602   5.285
10205SOL     OW31513   5.612   2.052   3.601
10205SOL    HW131514   5.596   2.111   3.680
10205SOL    HW231515   5.547   1.976   3.604
10206SOL     OW31516   5.422   6.446   5.701
10206SOL    HW131517   5.465   6.366   5.658
10206SOL    HW231518   5.477   6.475   5.779
10207SOL     OW31519   3.125   1.150   3.193
10207SOL    HW131520   3.121   1.248   3.175
10207SOL    HW231521   3.184   1.133   3.272
10208SOL     OW31522   5.925   4.861   6.096
10208SOL    HW131523   5.952   4.924   6.023
10208SOL    HW231524   5.940   4.767   6.066
10209SOL     OW31525   6.910   0.314   6.561
10209SOL    HW131526   6.897   0.402   6.515
10209SOL    HW231527   6.983   0.263   6.515
10210SOL     OW31528   5.927   6.685   2.315
10210SOL    HW131529   6.011   6.699   2.367
10210SOL    HW231530   5.854   6.741   2.355
10211SOL     OW31531   3.694   6.055   5.250
10211SOL    HW131532   3.631   5.981   5.227
10211SOL    HW231533   3.785   6.016   5.266
10212SOL     OW31534   0.450   1.084   3.806
10212SOL    HW131535   0.374   1.068   3.870
10212SOL    HW231536   0.514   1.007   3.811
10213SOL     OW31537   6.336   1.967   3.437
10213SOL    HW131538   6.326   1.879   3.391
10213SOL    HW231539   6.385   1.954   3.523
10214SOL     OW31540   6.492   0.904   2.008
10214SOL    HW131541   6.550   0.979   1.977
10214SOL    HW231542   6.540   0.817   1.997
10215SOL     OW31543   4.067   3.379   6.540
10215SOL    HW131544   3.999   3.449   6.519
10215SOL    HW231545   4.025   3.288   6.530
10216SOL     OW31546   5.871   6.935   0.935
10216SOL    HW131547   5.889   7.012   0.995
10216SOL    HW231548   5.888   6.849   0.985
10217SOL     OW31549   2.391   2.029   4.188
10217SOL    HW131550   2.382   2.024   4.287
10217SOL    HW231551   2.302   2.011   4.145
10218SOL     OW31552   2.055   0.965   0.827
10218SOL    HW131553   2.007   0.917   0.901
10218SOL    HW231554   2.000   1.043   0.798
10219SOL     OW31555   1.135   2.581   1.839
10219SOL    HW131556   1.109   2.484   1.842
10219SOL    HW231557   1.053   2.637   1.822
10220SOL     OW31558   4.360   1.852   1.362
10220SOL    HW131559   4.387   1.767   1.408
10220SOL    HW231560   4.260   1.854   1.352
10221SOL     OW31561   2.739   0.422   5.266
10221SOL    HW131562   2.832   0.400   5.234
10221SOL    HW231563   2.720   0.518   5.248
10222SOL     OW31564   1.366   4.579   4.988
10222SOL    HW131565   1.325   4.638   5.058
10222SOL    HW231566   1.295   4.551   4.923
10223SOL     OW31567   2.079   4.689   7.017
10223SOL    HW131568   2.073   4.701   0.092
10223SOL    HW231569   2.175   4.680   6.991
10224SOL     OW31570   0.980   6.861   4.246
10224SOL    HW131571   0.975   6.958   4.270
10224SOL    HW231572   0.907   6.839   4.181
10225SOL     OW31573   6.902   6.111   5.007
10225SOL    HW131574   6.917   6.078   4.913
10225SOL    HW231575   6.987   6.149   5.043
10226SOL     OW31576   2.377   1.021   6.776
10226SOL    HW131577   2.430   0.975   6.705
10226SOL    HW231578   2.372   1.119   6.756
10227SOL     OW31579   4.688   4.347   0.164
10227SOL    HW131580   4.758   4.283   0.132
10227SOL    HW231581   4.667   4.412   0.091
10228SOL     OW31582   1.169   5.248   3.127
10228SOL    HW131583   1.189   5.205   3.038
10228SOL    HW231584   1.222   5.332   3.136
10229SOL     OW31585   0.990   0.332   3.681
10229SOL    HW131586   0.995   0.354   3.584
10229SOL    HW231587   0.951   0.241   3.693
10230SOL     OW31588   5.921   6.870   3.484
10230SOL    HW131589   6.019   6.876   3.466
10230SOL    HW231590   5.896   6.775   3.500
10231SOL     OW31591   5.673   6.862   4.354
10231SOL    HW131592   5.576   6.882   4.343
10231SOL    HW231593   5.713   6.925   4.421
10232SOL     OW31594   3.695   1.089   4.414
10232SOL    HW131595   3.660   0.998   4.435
10232SOL    HW231596   3.666   1.153   4.485
10233SOL     OW31597   4.563   3.050   5.945
10233SOL    HW131598   4.545   2.951   5.948
10233SOL    HW231599   4.478   3.099   5.928
10234SOL     OW31600   4.966   0.105   0.751
10234SOL    HW131601   4.881   0.157   0.746
10234SOL    HW231602   4.968   0.038   0.677
10235SOL     OW31603   4.571   1.886   6.999
10235SOL    HW131604   4.505   1.912   6.929
10235SOL    HW231605   4.623   1.967   0.002
10236SOL     OW31606   2.266   6.291   1.992
10236SOL    HW131607   2.251   6.354   2.068
10236SOL    HW231608   2.345   6.321   1.938
10237SOL     OW31609   6.389   4.443   2.531
10237SOL    HW131610   6.383   4.358   2.479
10237SOL    HW231611   6.309   4.500   2.510
10238SOL     OW31612   3.861   4.459   5.355
10238SOL    HW131613   3.814   4.371   5.345
10238SOL    HW231614   3.959   4.446   5.340
10239SOL     OW31615   0.413   3.914   5.084
10239SOL    HW131616   0.472   3.978   5.133
10239SOL    HW231617   0.460   3.882   5.001
10240SOL     OW31618   0.853   4.042   3.270
10240SOL    HW131619   0.804   4.105   3.329
10240SOL    HW231620   0.805   3.954   3.269
10241SOL     OW31621   0.896   1.424   2.427
10241SOL    HW131622   0.922   1.514   2.462
10241SOL    HW231623   0.892   1.427   2.327
10242SOL     OW31624   6.954   1.355   5.749
10242SOL    HW131625   6.902   1.289   5.695
10242SOL    HW231626   6.891   1.415   5.799
10243SOL     OW31627   0.529   5.401   1.382
10243SOL    HW131628   0.537   5.330   1.452
10243SOL    HW231629   0.611   5.401   1.325
10244SOL     OW31630   2.737   4.677   0.485
10244SOL    HW131631   2.735   4.713   0.579
10244SOL    HW231632   2.762   4.751   0.422
10245SOL     OW31633   1.485   3.373   6.856
10245SOL    HW131634   1.516   3.312   6.783
10245SOL    HW231635   1.556   3.381   6.926
10246SOL     OW31636   2.967   3.844   4.629
10246SOL    HW131637   2.938   3.834   4.724
10246SOL    HW231638   2.993   3.939   4.611
10247SOL     OW31639   6.937   5.315   6.187
10247SOL    HW131640   6.884   5.399   6.176
10247SOL    HW231641   0.010   5.336   6.175
10248SOL     OW31642   2.949   0.858   1.688
10248SOL    HW131643   2.970   0.763   1.709
10248SOL    HW231644   2.898   0.899   1.763
10249SOL     OW31645   4.388   0.989   5.477
10249SOL    HW131646   4.453   1.010   5.550
10249SOL    HW231647   4.436   0.944   5.402
10250SOL     OW31648   5.944   1.064   1.289
10250SOL    HW131649   6.034   1.022   1.302
10250SOL    HW231650   5.892   1.010   1.223
10251SOL     OW31651   2.861   2.820   6.822
10251SOL    HW131652   2.862   2.847   6.918
10251SOL    HW231653   2.845   2.722   6.816
10252SOL     OW31654   6.593   6.322   0.812
10252SOL    HW131655   6.653   6.246   0.786
10252SOL    HW231656   6.628   6.407   0.774
10253SOL     OW31657   4.795   4.318   0.455
10253SOL    HW131658   4.745   4.314   0.369
10253SOL    HW231659   4.758   4.250   0.519
10254SOL     OW31660   2.904   1.370   4.836
10254SOL    HW131661   2.935   1.454   4.879
10254SOL    HW231662   2.897   1.384   4.737
10255SOL     OW31663   1.932   5.640   2.013
10255SOL    HW131664   1.937   5.591   1.926
10255SOL    HW231665   2.024   5.662   2.044
10256SOL     OW31666   4.967   6.966   0.276
10256SOL    HW131667   4.975   0.020   0.214
10256SOL    HW231668   4.960   6.882   0.222
10257SOL     OW31669   1.337   5.089   6.082
10257SOL    HW131670   1.400   5.151   6.036
10257SOL    HW231671   1.254   5.139   6.107
10258SOL     OW31672   4.268   6.274   3.535
10258SOL    HW131673   4.364   6.257   3.557
10258SOL    HW231674   4.259   6.289   3.437
10259SOL     OW31675   0.235   4.649   4.338
10259SOL    HW131676   0.280   4.738   4.348
10259SOL    HW231677   0.303   4.576   4.341
10260SOL     OW31678   0.828   6.341   2.827
10260SOL    HW131679   0.767   6.382   2.895
10260SOL    HW231680   0.790   6.354   2.736
10261SOL     OW31681   0.296   5.395   2.188
10261SOL    HW131682   0.317   5.381   2.285
10261SOL    HW231683   0.325   5.487   2.161
10262SOL     OW31684   3.372   4.927   4.306
10262SOL    HW131685   3.278   4.925   4.339
10262SOL    HW231686   3.434   4.938   4.383
10263SOL     OW31687   4.783   2.054   6.339
10263SOL    HW131688   4.783   1.954   6.338
10263SOL    HW231689   4.822   2.088   6.253
10264SOL     OW31690   5.808   1.370   6.172
10264SOL    HW131691   5.830   1.393   6.077
10264SOL    HW231692   5.736   1.431   6.204
10265SOL     OW31693   3.629   1.795   2.933
10265SOL    HW131694   3.593   1.766   2.844
10265SOL    HW231695   3.700   1.731   2.962
10266SOL     OW31696   3.756   3.761   6.127
10266SOL    HW131697   3.796   3.850   6.147
10266SOL    HW231698   3.749   3.708   6.212
10267SOL     OW31699   0.066   1.779   0.207
10267SOL    HW131700   0.059   1.811   0.301
10267SOL    HW231701   7.006   1.733   0.181
10268SOL     OW31702   5.367   5.733   1.457
10268SOL    HW131703   5.303   5.809   1.471
10268SOL    HW231704   5.334   5.652   1.506
10269SOL     OW31705   2.243   2.103   6.094
10269SOL    HW131706   2.149   2.089   6.122
10269SOL    HW231707   2.246   2.167   6.017
10270SOL     OW31708   2.021   6.049   0.388
10270SOL    HW131709   2.077   6.011   0.462
10270SOL    HW231710   1.987   5.974   0.331
10271SOL     OW31711   3.585   3.735   1.096
10271SOL    HW131712   3.517   3.751   1.167
10271SOL    HW231713   3.539   3.704   1.012
10272SOL     OW31714   0.943   0.797   4.733
10272SOL    HW131715   1.023   0.831   4.784
10272SOL    HW231716   0.873   0.867   4.730
10273SOL     OW31717   3.249   5.786   4.385
10273SOL    HW131718   3.335   5.763   4.430
10273SOL    HW231719   3.183   5.818   4.454
10274SOL     OW31720   1.316   4.993   5.692
10274SOL    HW131721   1.266   4.961   5.611
10274SOL    HW231722   1.261   4.977   5.773
10275SOL     OW31723   1.034   6.448   3.011
10275SOL    HW131724   0.982   6.419   2.930
10275SOL    HW231725   0.973   6.499   3.072
10276SOL     OW31726   6.917   5.407   5.450
10276SOL    HW131727   6.822   5.383   5.472
10276SOL    HW231728   6.978   5.340   5.492
10277SOL     OW31729   3.050   6.485   4.051
10277SOL    HW131730   3.070   6.537   4.134
10277SOL    HW231731   3.007   6.546   3.983
10278SOL     OW31732   6.065   0.460   6.554
10278SOL    HW131733   6.031   0.519   6.627
10278SOL    HW231734   6.065   0.510   6.468
10279SOL     OW31735   3.372   0.241   4.478
10279SOL    HW131736   3.290   0.243   4.422
10279SOL    HW231737   3.347   0.228   4.574
10280SOL     OW31738   1.763   4.417   1.271
10280SOL    HW131739   1.757   4.479   1.193
10280SOL    HW231740   1.859   4.409   1.299
10281SOL     OW31741   4.899   1.275   2.355
10281SOL    HW131742   4.960   1.198   2.336
10281SOL    HW231743   4.892   1.289   2.454
10282SOL     OW31744   0.766   2.487   3.794
10282SOL    HW131745   0.781   2.488   3.892
10282SOL    HW231746   0.828   2.420   3.752
10283SOL     OW31747   0.865   3.314   0.665
10283SOL    HW131748   0.858   3.386   0.596
10283SOL    HW231749   0.920   3.347   0.742
10284SOL     OW31750   5.506   3.935   5.433
10284SOL    HW131751   5.595   3.948   5.475
10284SOL    HW231752   5.469   3.846   5.461
10285SOL     OW31753   4.827   0.581   1.184
10285SOL    HW131754   4.729   0.594   1.177
10285SOL    HW231755   4.847   0.494   1.228
10286SOL     OW31756   3.611   1.311   3.360
10286SOL    HW131757   3.557   1.362   3.293
10286SOL    HW231758   3.700   1.289   3.321
10287SOL     OW31759   1.445   6.695   1.536
10287SOL    HW131760   1.397   6.675   1.451
10287SOL    HW231761   1.499   6.616   1.563
10288SOL     OW31762   5.256   5.813   3.155
10288SOL    HW131763   5.268   5.892   3.216
10288SOL    HW231764   5.216   5.844   3.068
10289SOL     OW31765   3.035   1.457   1.676
10289SOL    HW131766   3.051   1.553   1.654
10289SOL    HW231767   2.951   1.426   1.630
10290SOL     OW31768   4.093   3.198   2.527
10290SOL    HW131769   4.131   3.232   2.613
10290SOL    HW231770   4.089   3.273   2.461
10291SOL     OW31771   3.645   0.888   3.617
10291SOL    HW131772   3.679   0.982   3.628
10291SOL    HW231773   3.584   0.884   3.538
10292SOL     OW31774   0.353   2.286   5.180
10292SOL    HW131775   0.358   2.216   5.109
10292SOL    HW231776   0.389   2.372   5.144
10293SOL     OW31777   1.824   5.986   3.138
10293SOL    HW131778   1.820   5.891   3.168
10293SOL    HW231779   1.742   6.007   3.083
10294SOL     OW31780   4.938   2.206   2.737
10294SOL    HW131781   4.876   2.246   2.670
10294SOL    HW231782   4.948   2.268   2.815
10295SOL     OW31783   0.074   4.809   5.312
10295SOL    HW131784   0.007   4.818   5.387
10295SOL    HW231785   0.115   4.717   5.315
10296SOL     OW31786   5.971   4.135   6.040
10296SOL    HW131787   6.067   4.110   6.021
10296SOL    HW231788   5.969   4.211   6.105
10297SOL     OW31789   1.701   6.240   3.924
10297SOL    HW131790   1.682   6.262   4.020
10297SOL    HW231791   1.800   6.235   3.911
10298SOL     OW31792   5.090   3.973   3.984
10298SOL    HW131793   5.171   4.013   3.941
10298SOL    HW231794   5.052   3.902   3.924
10299SOL     OW31795   4.656   4.326   3.697
10299SOL    HW131796   4.632   4.410   3.745
10299SOL    HW231797   4.755   4.315   3.696
10300SOL     OW31798   1.148   3.251   1.647
10300SOL    HW131799   1.175   3.270   1.553
10300SOL    HW231800   1.220   3.200   1.693
10301SOL     OW31801   6.049   1.267   3.171
10301SOL    HW131802   5.958   1.302   3.192
10301SOL    HW231803   6.094   1.327   3.105
10302SOL     OW31804   1.252   6.360   2.843
10302SOL    HW131805   1.174   6.401   2.891
10302SOL    HW231806   1.224   6.333   2.751
10303SOL     OW31807   3.829   3.491   1.206
10303SOL    HW131808   3.733   3.504   1.234
10303SOL    HW231809   3.834   3.419   1.137
10304SOL     OW31810   6.574   6.953   3.672
10304SOL    HW131811   6.660   6.906   3.687
10304SOL    HW231812   6.565   6.976   3.575
10305SOL     OW31813   2.131   5.840   0.065
10305SOL    HW131814   2.162   5.869   6.999
10305SOL    HW231815   2.209   5.805   0.117
10306SOL     OW31816   4.774   5.652   0.118
10306SOL    HW131817   4.685   5.608   0.111
10306SOL    HW231818   4.846   5.584   0.108
10307SOL     OW31819   1.553   0.987   5.860
10307SOL    HW131820   1.617   0.911   5.873
10307SOL    HW231821   1.462   0.959   5.889
10308SOL     OW31822   3.328   5.034   3.348
10308SOL    HW131823   3.229   5.042   3.360
10308SOL    HW231824   3.367   4.986   3.426
10309SOL     OW31825   5.721   6.553   3.157
10309SOL    HW131826   5.780   6.506   3.223
10309SOL    HW231827   5.694   6.489   3.085
10310SOL     OW31828   2.923   3.505   2.645
10310SOL    HW131829   2.927   3.585   2.585
10310SOL    HW231830   2.949   3.423   2.593
10311SOL     OW31831   0.582   5.596   0.674
10311SOL    HW131832   0.634   5.516   0.645
10311SOL    HW231833   0.567   5.592   0.773
10312SOL     OW31834   3.767   4.737   1.029
10312SOL    HW131835   3.709   4.687   0.965
10312SOL    HW231836   3.787   4.828   0.991
10313SOL     OW31837   4.665   0.454   2.619
10313SOL    HW131838   4.753   0.416   2.588
10313SOL    HW231839   4.661   0.551   2.598
10314SOL     OW31840   6.371   0.197   1.081
10314SOL    HW131841   6.379   0.107   1.038
10314SOL    HW231842   6.290   0.244   1.045
10315SOL     OW31843   6.692   5.754   5.484
10315SOL    HW131844   6.653   5.836   5.443
10315SOL    HW231845   6.632   5.676   5.466
10316SOL     OW31846   0.724   3.463   4.999
10316SOL    HW131847   0.653   3.393   4.990
10316SOL    HW231848   0.689   3.540   5.052
10317SOL     OW31849   4.374   5.145   6.188
10317SOL    HW131850   4.282   5.112   6.211
10317SOL    HW231851   4.440   5.070   6.195
10318SOL     OW31852   6.365   5.346   1.559
10318SOL    HW131853   6.385   5.431   1.608
10318SOL    HW231854   6.410   5.269   1.604
10319SOL     OW31855   0.006   4.973   3.546
10319SOL    HW131856   6.950   4.968   3.605
10319SOL    HW231857   0.017   5.067   3.513
10320SOL     OW31858   0.369   6.178   0.733
10320SOL    HW131859   0.325   6.268   0.737
10320SOL    HW231860   0.465   6.188   0.706
10321SOL     OW31861   4.628   5.403   5.040
10321SOL    HW131862   4.548   5.344   5.048
10321SOL    HW231863   4.600   5.498   5.032
10322SOL     OW31864   6.647   5.215   0.987
10322SOL    HW131865   6.623   5.119   0.992
10322SOL    HW231866   6.565   5.271   0.996
10323SOL     OW31867   5.602   3.219   6.202
10323SOL    HW131868   5.602   3.197   6.104
10323SOL    HW231869   5.567   3.142   6.254
10324SOL     OW31870   3.128   3.966   3.881
10324SOL    HW131871   3.090   4.030   3.814
10324SOL    HW231872   3.228   3.970   3.879
10325SOL     OW31873   0.160   3.089   3.382
10325SOL    HW131874   0.119   3.157   3.443
10325SOL    HW231875   0.199   3.134   3.302
10326SOL     OW31876   5.046   2.775   6.858
10326SOL    HW131877   4.965   2.834   6.869
10326SOL    HW231878   5.036   2.694   6.915
10327SOL     OW31879   0.573   1.203   2.782
10327SOL    HW131880   0.500   1.196   2.715
10327SOL    HW231881   0.533   1.216   2.873
10328SOL     OW31882   5.945   3.662   2.458
10328SOL    HW131883   5.951   3.753   2.417
10328SOL    HW231884   5.850   3.638   2.474
10329SOL     OW31885   3.406   0.440   2.677
10329SOL    HW131886   3.417   0.379   2.755
10329SOL    HW231887   3.309   0.466   2.668
10330SOL     OW31888   3.569   4.969   2.707
10330SOL    HW131889   3.657   4.930   2.682
10330SOL    HW231890   3.505   4.961   2.630
10331SOL     OW31891   5.279   1.110   3.972
10331SOL    HW131892   5.217   1.074   3.902
10331SOL    HW231893   5.238   1.097   4.062
10332SOL     OW31894   6.835   2.182   0.633
10332SOL    HW131895   6.904   2.209   0.566
10332SOL    HW231896   6.835   2.247   0.709
10333SOL     OW31897   5.929   5.623   4.401
10333SOL    HW131898   6.006   5.674   4.439
10333SOL    HW231899   5.943   5.608   4.304
10334SOL     OW31900   2.107   4.812   4.139
10334SOL    HW131901   2.031   4.797   4.202
10334SOL    HW231902   2.193   4.790   4.184
10335SOL     OW31903   2.617   5.056   0.836
10335SOL    HW131904   2.520   5.065   0.858
10335SOL    HW231905   2.653   5.144   0.804
10336SOL     OW31906   4.697   6.788   2.421
10336SOL    HW131907   4.726   6.720   2.355
10336SOL    HW231908   4.730   6.878   2.394
10337SOL     OW31909   0.339   5.245   4.991
10337SOL    HW131910   0.371   5.185   5.064
10337SOL    HW231911   0.339   5.195   4.904
10338SOL     OW31912   2.841   6.916   2.207
10338SOL    HW131913   2.845   6.872   2.297
10338SOL    HW231914   2.844   7.015   2.218
10339SOL     OW31915   2.872   6.237   1.591
10339SOL    HW131916   2.860   6.202   1.498
10339SOL    HW231917   2.966   6.270   1.602
10340SOL     OW31918   2.615   5.900   0.369
10340SOL    HW131919   2.639   5.996   0.384
10340SOL    HW231920   2.699   5.846   0.359
10341SOL     OW31921   2.424   1.402   2.163
10341SOL    HW131922   2.356   1.455   2.111
10341SOL    HW231923   2.514   1.444   2.152
10342SOL     OW31924   2.152   0.282   5.723
10342SOL    HW131925   2.217   0.286   5.647
10342SOL    HW231926   2.197   0.306   5.808
10343SOL     OW31927   2.634   3.655   6.108
10343SOL    HW131928   2.691   3.573   6.108
10343SOL    HW231929   2.663   3.716   6.183
10344SOL     OW31930   4.088   3.624   5.018
10344SOL    HW131931   4.176   3.660   5.051
10344SOL    HW231932   4.083   3.634   4.919
10345SOL     OW31933   1.966   1.474   0.026
10345SOL    HW131934   2.015   1.494   0.111
10345SOL    HW231935   1.933   1.559   7.010
10346SOL     OW31936   5.109   0.111   0.082
10346SOL    HW131937   5.107   0.112   7.007
10346SOL    HW231938   5.100   0.205   0.116
10347SOL     OW31939   5.326   1.817   1.685
10347SOL    HW131940   5.304   1.851   1.594
10347SOL    HW231941   5.342   1.894   1.747
10348SOL     OW31942   5.753   0.782   6.047
10348SOL    HW131943   5.817   0.851   6.013
10348SOL    HW231944   5.752   0.704   5.985
10349SOL     OW31945   6.617   1.720   1.647
10349SOL    HW131946   6.548   1.648   1.645
10349SOL    HW231947   6.704   1.684   1.615
10350SOL     OW31948   2.679   5.925   4.340
10350SOL    HW131949   2.739   5.985   4.392
10350SOL    HW231950   2.734   5.867   4.279
10351SOL     OW31951   5.686   5.295   5.414
10351SOL    HW131952   5.731   5.315   5.501
10351SOL    HW231953   5.688   5.196   5.398
10352SOL     OW31954   5.251   1.880   6.975
10352SOL    HW131955   5.266   1.931   6.890
10352SOL    HW231956   5.291   1.789   6.967
10353SOL     OW31957   0.373   2.859   2.902
10353SOL    HW131958   0.319   2.795   2.956
10353SOL    HW231959   0.415   2.810   2.826
10354SOL     OW31960   0.056   3.710   0.474
10354SOL    HW131961   0.037   3.739   0.381
10354SOL    HW231962   0.101   3.620   0.473
10355SOL     OW31963   1.258   0.312   0.212
10355SOL    HW131964   1.221   0.272   0.295
10355SOL    HW231965   1.203   0.283   0.134
10356SOL     OW31966   6.630   3.555   6.861
10356SOL    HW131967   6.603   3.466   6.897
10356SOL    HW231968   6.596   3.627   6.922
10357SOL     OW31969   1.165   3.086   5.997
10357SOL    HW131970   1.074   3.104   6.032
10357SOL    HW231971   1.217   3.172   5.993
10358SOL     OW31972   0.962   2.592   2.891
10358SOL    HW131973   1.026   2.664   2.919
10358SOL    HW231974   0.878   2.634   2.858
10359SOL     OW31975   5.364   1.959   2.603
10359SOL    HW131976   5.326   1.998   2.687
10359SOL    HW231977   5.294   1.962   2.531
10360SOL     OW31978   5.584   4.974   2.882
10360SOL    HW131979   5.663   4.945   2.937
10360SOL    HW231980   5.552   5.063   2.915
10361SOL     OW31981   0.602   1.014   1.539
10361SOL    HW131982   0.562   0.947   1.476
10361SOL    HW231983   0.635   1.092   1.486
10362SOL     OW31984   1.499   4.749   3.008
10362SOL    HW131985   1.510   4.694   2.925
10362SOL    HW231986   1.433   4.822   2.991
10363SOL     OW31987   5.443   3.483   0.538
10363SOL    HW131988   5.479   3.420   0.607
10363SOL    HW231989   5.421   3.570   0.581
10364SOL     OW31990   5.618   4.585   2.077
10364SOL    HW131991   5.696   4.527   2.056
10364SOL    HW231992   5.543   4.564   2.013
10365SOL     OW31993   5.962   5.624   0.399
10365SOL    HW131994   6.034   5.558   0.421
10365SOL    HW231995   5.975   5.656   0.304
10366SOL     OW31996   3.571   6.134   2.853
10366SOL    HW131997   3.615   6.159   2.767
10366SOL    HW231998   3.544   6.217   2.902
10367SOL     OW31999   6.027   1.819   0.666
10367SOL    HW132000   6.121   1.850   0.674
10367SOL    HW232001   6.018   1.727   0.702
10368SOL     OW32002   2.133   0.363   1.944
10368SOL    HW132003   2.145   0.436   1.876
10368SOL    HW232004   2.069   0.295   1.908
10369SOL     OW32005   3.025   6.650   5.226
10369SOL    HW132006   2.954   6.579   5.226
10369SOL    HW232007   3.085   6.637   5.305
10370SOL     OW32008   0.315   2.106   4.222
10370SOL    HW132009   0.407   2.115   4.261
10370SOL    HW232010   0.297   2.010   4.201
10371SOL     OW32011   3.377   5.952   3.387
10371SOL    HW132012   3.470   5.960   3.425
10371SOL    HW232013   3.383   5.918   3.294
10372SOL     OW32014   2.402   0.066   1.712
10372SOL    HW132015   2.494   0.103   1.699
10372SOL    HW232016   2.407   7.010   1.771
10373SOL     OW32017   0.031   1.652   5.921
10373SOL    HW132018   6.989   1.695   5.860
10373SOL    HW232019   0.123   1.661   5.882
10374SOL     OW32020   3.337   6.863   4.583
10374SOL    HW132021   3.415   6.877   4.644
10374SOL    HW232022   3.274   6.940   4.591
10375SOL     OW32023   4.364   2.915   0.122
10375SOL    HW132024   4.323   2.834   0.079
10375SOL    HW232025   4.324   2.998   0.082
10376SOL     OW32026   1.762   5.909   2.842
10376SOL    HW132027   1.696   5.983   2.832
10376SOL    HW232028   1.852   5.948   2.863
10377SOL     OW32029   0.367   1.398   2.022
10377SOL    HW132030   0.337   1.464   1.953
10377SOL    HW232031   0.391   1.312   1.978
10378SOL     OW32032   0.364   5.200   5.439
10378SOL    HW132033   0.289   5.197   5.373
10378SOL    HW232034   0.415   5.285   5.428
10379SOL     OW32035   2.528   6.669   3.986
10379SOL    HW132036   2.451   6.682   4.047
10379SOL    HW232037   2.603   6.729   4.014
10380SOL     OW32038   1.527   2.891   4.933
10380SOL    HW132039   1.585   2.972   4.919
10380SOL    HW232040   1.563   2.815   4.879
10381SOL     OW32041   4.343   4.353   1.638
10381SOL    HW132042   4.386   4.442   1.624
10381SOL    HW232043   4.373   4.315   1.725
10382SOL     OW32044   3.308   4.790   1.772
10382SOL    HW132045   3.393   4.741   1.791
10382SOL    HW232046   3.280   4.842   1.852
10383SOL     OW32047   2.265   5.011   0.389
10383SOL    HW132048   2.349   4.971   0.426
10383SOL    HW232049   2.255   4.985   0.293
10384SOL     OW32050   6.155   6.352   1.284
10384SOL    HW132051   6.255   6.343   1.286
10384SOL    HW232052   6.131   6.442   1.249
10385SOL     OW32053   3.426   5.019   6.210
10385SOL    HW132054   3.447   4.922   6.225
10385SOL    HW232055   3.332   5.037   6.236
10386SOL     OW32056   0.144   1.100   6.518
10386SOL    HW132057   0.177   1.194   6.511
10386SOL    HW232058   0.214   1.044   6.564
10387SOL     OW32059   4.926   3.260   3.101
10387SOL    HW132060   4.889   3.186   3.045
10387SOL    HW232061   4.981   3.321   3.044
10388SOL     OW32062   2.549   0.404   6.078
10388SOL    HW132063   2.548   0.363   6.169
10388SOL    HW232064   2.530   0.334   6.009
10389SOL     OW32065   6.578   3.728   0.047
10389SOL    HW132066   6.526   3.655   0.091
10389SOL    HW232067   6.606   3.795   0.116
10390SOL     OW32068   2.223   2.245   1.080
10390SOL    HW132069   2.259   2.245   0.987
10390SOL    HW232070   2.259   2.166   1.130
10391SOL     OW32071   0.395   6.424   3.569
10391SOL    HW132072   0.459   6.500   3.556
10391SOL    HW232073   0.320   6.432   3.503
10392SOL     OW32074   6.845   5.399   4.889
10392SOL    HW132075   6.839   5.467   4.962
10392SOL    HW232076   6.908   5.431   4.818
10393SOL     OW32077   2.145   3.637   3.879
10393SOL    HW132078   2.078   3.701   3.840
10393SOL    HW232079   2.133   3.633   3.978
10394SOL     OW32080   2.806   6.369   4.151
10394SOL    HW132081   2.715   6.398   4.121
10394SOL    HW232082   2.871   6.380   4.075
10395SOL     OW32083   0.535   6.699   1.376
10395SOL    HW132084   0.620   6.653   1.352
10395SOL    HW232085   0.493   6.652   1.454
10396SOL     OW32086   3.372   2.022   3.921
10396SOL    HW132087   3.346   2.082   3.846
10396SOL    HW232088   3.472   2.012   3.923
10397SOL     OW32089   3.187   2.200   2.786
10397SOL    HW132090   3.272   2.148   2.784
10397SOL    HW232091   3.146   2.200   2.695
10398SOL     OW32092   6.969   3.111   1.115
10398SOL    HW132093   6.971   3.015   1.088
10398SOL    HW232094   6.874   3.142   1.118
10399SOL     OW32095   5.557   2.365   2.634
10399SOL    HW132096   5.621   2.437   2.608
10399SOL    HW232097   5.497   2.399   2.706
10400SOL     OW32098   4.227   6.829   0.124
10400SOL    HW132099   4.159   6.900   0.144
10400SOL    HW232100   4.319   6.867   0.135
10401SOL     OW32101   6.019   0.908   3.809
10401SOL    HW132102   6.072   0.823   3.817
10401SOL    HW232103   6.074   0.976   3.761
10402SOL     OW32104   6.713   3.187   4.886
10402SOL    HW132105   6.755   3.113   4.833
10402SOL    HW232106   6.771   3.268   4.882
10403SOL     OW32107   3.685   1.164   3.625
10403SOL    HW132108   3.664   1.189   3.720
10403SOL    HW232109   3.618   1.207   3.564
10404SOL     OW32110   5.920   0.078   4.803
10404SOL    HW132111   5.899   7.016   4.756
10404SOL    HW232112   6.016   0.077   4.832
10405SOL     OW32113   0.469   1.604   5.974
10405SOL    HW132114   0.547   1.666   5.961
10405SOL    HW232115   0.453   1.591   6.072
10406SOL     OW32116   3.272   4.907   2.823
10406SOL    HW132117   3.226   4.877   2.906
10406SOL    HW232118   3.371   4.904   2.837
10407SOL     OW32119   3.210   6.622   6.224
10407SOL    HW132120   3.166   6.533   6.210
10407SOL    HW232121   3.197   6.651   6.319
10408SOL     OW32122   4.776   0.569   0.574
10408SOL    HW132123   4.681   0.578   0.544
10408SOL    HW232124   4.778   0.552   0.672
10409SOL     OW32125   6.993   4.371   1.571
10409SOL    HW132126   6.968   4.467   1.555
10409SOL    HW232127   0.029   4.340   1.499
10410SOL     OW32128   5.876   1.063   6.641
10410SOL    HW132129   5.890   1.146   6.694
10410SOL    HW232130   5.786   1.025   6.661
10411SOL     OW32131   3.633   6.518   3.295
10411SOL    HW132132   3.704   6.503   3.226
10411SOL    HW232133   3.675   6.530   3.385
10412SOL     OW32134   6.385   0.644   0.494
10412SOL    HW132135   6.468   0.613   0.448
10412SOL    HW232136   6.404   0.731   0.540
10413SOL     OW32137   6.030   2.296   0.930
10413SOL    HW132138   6.099   2.232   0.898
10413SOL    HW232139   6.066   2.349   1.007
10414SOL     OW32140   4.099   4.118   5.233
10414SOL    HW132141   4.118   4.211   5.265
10414SOL    HW232142   4.008   4.114   5.193
10415SOL     OW32143   0.537   3.848   4.828
10415SOL    HW132144   0.596   3.768   4.815
10415SOL    HW232145   0.544   3.908   4.748
10416SOL     OW32146   6.618   0.788   3.535
10416SOL    HW132147   6.650   0.882   3.549
10416SOL    HW232148   6.600   0.773   3.438
10417SOL     OW32149   3.662   5.205   4.506
10417SOL    HW132150   3.684   5.222   4.410
10417SOL    HW232151   3.745   5.217   4.561
10418SOL     OW32152   0.558   4.812   6.437
10418SOL    HW132153   0.489   4.780   6.372
10418SOL    HW232154   0.620   4.875   6.391
10419SOL     OW32155   1.382   0.080   6.335
10419SOL    HW132156   1.346   0.159   6.286
10419SOL    HW232157   1.464   0.106   6.385
10420SOL     OW32158   6.825   3.354   2.756
10420SOL    HW132159   6.863   3.445   2.741
10420SOL    HW232160   6.750   3.338   2.692
10421SOL     OW32161   0.265   1.873   3.520
10421SOL    HW132162   0.334   1.923   3.467
10421SOL    HW232163   0.174   1.903   3.493
10422SOL     OW32164   6.205   2.638   5.436
10422SOL    HW132165   6.259   2.571   5.488
10422SOL    HW232166   6.181   2.715   5.496
10423SOL     OW32167   5.234   4.814   4.663
10423SOL    HW132168   5.220   4.773   4.573
10423SOL    HW232169   5.267   4.907   4.653
10424SOL     OW32170   5.786   3.211   0.359
10424SOL    HW132171   5.850   3.137   0.380
10424SOL    HW232172   5.798   3.285   0.425
10425SOL     OW32173   1.780   6.782   1.968
10425SOL    HW132174   1.789   6.781   1.868
10425SOL    HW232175   1.719   6.856   1.995
10426SOL     OW32176   6.791   4.835   0.766
10426SOL    HW132177   6.731   4.794   0.698
10426SOL    HW232178   6.813   4.768   0.836
10427SOL     OW32179   3.691   1.514   0.084
10427SOL    HW132180   3.774   1.543   0.130
10427SOL    HW232181   3.679   1.568   0.000
10428SOL     OW32182   2.678   1.464   4.208
10428SOL    HW132183   2.709   1.541   4.264
10428SOL    HW232184   2.678   1.491   4.111
10429SOL     OW32185   0.186   5.345   1.344
10429SOL    HW132186   0.253   5.274   1.319
10429SOL    HW232187   0.235   5.428   1.372
10430SOL     OW32188   4.134   6.074   3.683
10430SOL    HW132189   4.126   5.988   3.632
10430SOL    HW232190   4.185   6.140   3.628
10431SOL     OW32191   3.210   6.082   4.677
10431SOL    HW132192   3.268   6.119   4.604
10431SOL    HW232193   3.161   6.002   4.642
10432SOL     OW32194   6.275   0.387   4.532
10432SOL    HW132195   6.228   0.322   4.473
10432SOL    HW232196   6.362   0.349   4.562
10433SOL     OW32197   1.816   0.017   1.102
10433SOL    HW132198   1.751   6.979   1.145
10433SOL    HW232199   1.782   0.043   1.011
10434SOL     OW32200   3.812   6.758   3.275
10434SOL    HW132201   3.902   6.776   3.314
10434SOL    HW232202   3.817   6.677   3.215
10435SOL     OW32203   0.065   0.220   4.763
10435SOL    HW132204   0.048   0.223   4.665
10435SOL    HW232205   0.105   0.307   4.792
10436SOL     OW32206   0.879   4.907   5.718
10436SOL    HW132207   0.890   4.989   5.773
10436SOL    HW232208   0.957   4.898   5.656
10437SOL     OW32209   6.316   4.463   5.588
10437SOL    HW132210   6.390   4.498   5.646
10437SOL    HW232211   6.301   4.367   5.609
10438SOL     OW32212   5.191   6.481   6.690
10438SOL    HW132213   5.128   6.542   6.739
10438SOL    HW232214   5.267   6.534   6.654
10439SOL     OW32215   3.333   1.690   6.017
10439SOL    HW132216   3.381   1.670   5.931
10439SOL    HW232217   3.311   1.604   6.064
10440SOL     OW32218   1.749   6.175   0.161
10440SOL    HW132219   1.782   6.193   0.069
10440SOL    HW232220   1.804   6.225   0.228
10441SOL     OW32221   4.834   1.304   0.147
10441SOL    HW132222   4.801   1.285   0.055
10441SOL    HW232223   4.914   1.364   0.143
10442SOL     OW32224   3.166   6.190   6.006
10442SOL    HW132225   3.188   6.115   6.067
10442SOL    HW232226   3.097   6.160   5.939
10443SOL     OW32227   5.101   3.729   5.035
10443SOL    HW132228   5.194   3.758   5.009
10443SOL    HW232229   5.065   3.668   4.964
10444SOL     OW32230   3.937   6.208   4.649
10444SOL    HW132231   3.889   6.131   4.606
10444SOL    HW232232   4.035   6.197   4.635
10445SOL     OW32233   0.473   5.429   3.857
10445SOL    HW132234   0.496   5.520   3.892
10445SOL    HW232235   0.553   5.369   3.864
10446SOL     OW32236   1.095   3.750   5.882
10446SOL    HW132237   1.144   3.782   5.963
10446SOL    HW232238   1.084   3.651   5.886
10447SOL     OW32239   6.513   1.181   1.607
10447SOL    HW132240   6.514   1.176   1.707
10447SOL    HW232241   6.444   1.118   1.572
10448SOL     OW32242   4.159   2.394   1.524
10448SOL    HW132243   4.067   2.403   1.564
10448SOL    HW232244   4.161   2.315   1.464
10449SOL     OW32245   2.166   5.535   4.842
10449SOL    HW132246   2.140   5.619   4.889
10449SOL    HW232247   2.264   5.521   4.849
10450SOL     OW32248   0.414   2.198   0.703
10450SOL    HW132249   0.451   2.141   0.775
10450SOL    HW232250   0.329   2.241   0.734
10451SOL     OW32251   2.174   5.137   2.630
10451SOL    HW132252   2.230   5.209   2.671
10451SOL    HW232253   2.163   5.155   2.532
10452SOL     OW32254   6.332   3.578   3.865
10452SOL    HW132255   6.337   3.552   3.961
10452SOL    HW232256   6.418   3.552   3.820
10453SOL     OW32257   5.687   6.173   1.580
10453SOL    HW132258   5.591   6.153   1.600
10453SOL    HW232259   5.719   6.114   1.507
10454SOL     OW32260   5.139   2.663   1.549
10454SOL    HW132261   5.109   2.662   1.644
10454SOL    HW232262   5.147   2.758   1.517
10455SOL     OW32263   0.356   4.537   2.670
10455SOL    HW132264   0.308   4.623   2.691
10455SOL    HW232265   0.301   4.460   2.703
10456SOL     OW32266   3.121   6.354   1.653
10456SOL    HW132267   3.152   6.449   1.653
10456SOL    HW232268   3.198   6.294   1.636
10457SOL     OW32269   3.364   3.027   3.170
10457SOL    HW132270   3.298   3.013   3.243
10457SOL    HW232271   3.405   2.939   3.145
10458SOL     OW32272   0.234   0.257   0.286
10458SOL    HW132273   0.211   0.159   0.287
10458SOL    HW232274   0.235   0.292   0.380
10459SOL     OW32275   5.248   5.538   3.259
10459SOL    HW132276   5.217   5.463   3.200
10459SOL    HW232277   5.252   5.622   3.205
10460SOL     OW32278   1.988   5.751   1.326
10460SOL    HW132279   2.005   5.653   1.325
10460SOL    HW232280   2.065   5.799   1.283
10461SOL     OW32281   1.145   5.988   5.920
10461SOL    HW132282   1.214   6.057   5.945
10461SOL    HW232283   1.054   6.029   5.927
10462SOL     OW32284   5.518   1.548   2.519
10462SOL    HW132285   5.566   1.477   2.467
10462SOL    HW232286   5.469   1.608   2.456
10463SOL     OW32287   3.843   3.799   5.877
10463SOL    HW132288   3.849   3.720   5.815
10463SOL    HW232289   3.805   3.769   5.965
10464SOL     OW32290   5.358   0.112   0.450
10464SOL    HW132291   5.331   0.059   0.369
10464SOL    HW232292   5.445   0.158   0.432
10465SOL     OW32293   6.483   6.907   0.462
10465SOL    HW132294   6.505   6.896   0.558
10465SOL    HW232295   6.386   6.932   0.452
10466SOL     OW32296   5.057   5.379   4.859
10466SOL    HW132297   5.105   5.389   4.772
10466SOL    HW232298   5.046   5.282   4.880
10467SOL     OW32299   1.465   1.760   5.502
10467SOL    HW132300   1.515   1.810   5.431
10467SOL    HW232301   1.434   1.825   5.572
10468SOL     OW32302   3.378   5.772   3.746
10468SOL    HW132303   3.467   5.760   3.704
10468SOL    HW232304   3.316   5.817   3.681
10469SOL     OW32305   3.459   3.840   0.843
10469SOL    HW132306   3.361   3.826   0.855
10469SOL    HW232307   3.476   3.933   0.809
10470SOL     OW32308   2.012   2.118   2.401
10470SOL    HW132309   2.064   2.150   2.480
10470SOL    HW232310   1.968   2.031   2.423
10471SOL     OW32311   2.331   3.296   0.994
10471SOL    HW132312   2.370   3.387   1.006
10471SOL    HW232313   2.238   3.294   1.031
10472SOL     OW32314   3.871   6.136   1.501
10472SOL    HW132315   3.799   6.199   1.474
10472SOL    HW232316   3.956   6.160   1.453
10473SOL     OW32317   5.274   0.231   0.730
10473SOL    HW132318   5.296   0.230   0.633
10473SOL    HW232319   5.241   0.321   0.757
10474SOL     OW32320   4.931   0.533   4.773
10474SOL    HW132321   4.863   0.510   4.703
10474SOL    HW232322   5.023   0.530   4.733
10475SOL     OW32323   4.772   6.223   1.247
10475SOL    HW132324   4.672   6.216   1.256
10475SOL    HW232325   4.815   6.146   1.294
10476SOL     OW32326   6.904   5.432   6.639
10476SOL    HW132327   6.993   5.401   6.604
10476SOL    HW232328   6.849   5.468   6.564
10477SOL     OW32329   6.287   3.529   5.008
10477SOL    HW132330   6.303   3.577   4.922
10477SOL    HW232331   6.362   3.549   5.072
10478SOL     OW32332   0.628   0.044   6.824
10478SOL    HW132333   0.575   0.048   6.739
10478SOL    HW232334   0.674   0.131   6.838
10479SOL     OW32335   1.172   1.904   1.724
10479SOL    HW132336   1.249   1.867   1.776
10479SOL    HW232337   1.088   1.894   1.778
10480SOL     OW32338   5.874   0.178   1.018
10480SOL    HW132339   5.899   0.176   1.115
10480SOL    HW232340   5.778   0.206   1.009
10481SOL     OW32341   2.843   1.164   4.983
10481SOL    HW132342   2.860   1.235   4.915
10481SOL    HW232343   2.799   1.086   4.939
10482SOL     OW32344   0.537   5.969   3.734
10482SOL    HW132345   0.587   6.055   3.747
10482SOL    HW232346   0.450   5.973   3.782
10483SOL     OW32347   6.406   5.239   0.342
10483SOL    HW132348   6.320   5.202   0.306
10483SOL    HW232349   6.420   5.205   0.435
10484SOL     OW32350   6.975   0.651   1.038
10484SOL    HW132351   7.006   0.627   0.946
10484SOL    HW232352   6.879   0.678   1.036
10485SOL     OW32353   4.018   3.745   3.226
10485SOL    HW132354   3.991   3.836   3.259
10485SOL    HW232355   4.066   3.755   3.139
10486SOL     OW32356   5.849   0.001   5.956
10486SOL    HW132357   5.779   0.065   5.987
10486SOL    HW232358   5.808   6.936   5.941
10487SOL     OW32359   4.688   1.928   1.456
10487SOL    HW132360   4.654   1.947   1.548
10487SOL    HW232361   4.653   1.840   1.426
10488SOL     OW32362   0.607   2.162   5.945
10488SOL    HW132363   0.649   2.093   5.887
10488SOL    HW232364   0.653   2.163   6.034
10489SOL     OW32365   5.804   5.787   3.634
10489SOL    HW132366   5.858   5.805   3.717
10489SOL    HW232367   5.769   5.873   3.597
10490SOL     OW32368   5.695   0.667   0.483
10490SOL    HW132369   5.681   0.693   0.388
10490SOL    HW232370   5.775   0.607   0.490
10491SOL     OW32371   1.326   3.013   6.323
10491SOL    HW132372   1.364   2.994   6.413
10491SOL    HW232373   1.253   2.949   6.303
10492SOL     OW32374   3.852   6.805   0.812
10492SOL    HW132375   3.839   6.868   0.736
10492SOL    HW232376   3.950   6.794   0.830
10493SOL     OW32377   4.159   5.640   1.141
10493SOL    HW132378   4.121   5.733   1.140
10493SOL    HW232379   4.250   5.641   1.182
10494SOL     OW32380   0.868   4.725   6.110
10494SOL    HW132381   0.769   4.711   6.121
10494SOL    HW232382   0.905   4.655   6.049
10495SOL     OW32383   6.821   6.123   6.973
10495SOL    HW132384   6.722   6.122   6.962
10495SOL    HW232385   6.861   6.194   6.914
10496SOL     OW32386   6.856   4.074   5.239
10496SOL    HW132387   6.939   4.129   5.247
10496SOL    HW232388   6.880   3.977   5.240
10497SOL     OW32389   2.067   6.707   1.600
10497SOL    HW132390   2.148   6.682   1.652
10497SOL    HW232391   2.018   6.625   1.572
10498SOL     OW32392   5.305   5.799   0.961
10498SOL    HW132393   5.280   5.851   0.879
10498SOL    HW232394   5.353   5.715   0.934
10499SOL     OW32395   5.880   5.491   1.287
10499SOL    HW132396   5.909   5.422   1.354
10499SOL    HW232397   5.796   5.461   1.242
10500SOL     OW32398   5.408   3.535   4.806
10500SOL    HW132399   5.436   3.630   4.817
10500SOL    HW232400   5.398   3.493   4.896
10501SOL     OW32401   2.570   5.739   2.560
10501SOL    HW132402   2.567   5.839   2.553
10501SOL    HW232403   2.478   5.703   2.570
10502SOL     OW32404   3.136   3.077   1.692
10502SOL    HW132405   3.172   3.141   1.625
10502SOL    HW232406   3.076   3.010   1.647
10503SOL     OW32407   6.745   3.844   6.505
10503SOL    HW132408   6.659   3.796   6.518
10503SOL    HW232409   6.814   3.780   6.471
10504SOL     OW32410   1.591   2.829   6.091
10504SOL    HW132411   1.648   2.857   6.013
10504SOL    HW232412   1.540   2.746   6.067
10505SOL     OW32413   5.928   5.841   2.339
10505SOL    HW132414   5.945   5.939   2.329
10505SOL    HW232415   5.871   5.825   2.419
10506SOL     OW32416   0.446   3.129   6.775
10506SOL    HW132417   0.370   3.178   6.734
10506SOL    HW232418   0.531   3.179   6.758
10507SOL     OW32419   2.965   4.766   7.015
10507SOL    HW132420   2.940   4.677   0.028
10507SOL    HW232421   2.884   4.809   6.975
10508SOL     OW32422   0.632   5.918   4.305
10508SOL    HW132423   0.636   5.937   4.207
10508SOL    HW232424   0.725   5.913   4.342
10509SOL     OW32425   4.967   3.229   4.421
10509SOL    HW132426   5.000   3.154   4.364
10509SOL    HW232427   4.970   3.314   4.368
10510SOL     OW32428   5.177   6.325   5.451
10510SOL    HW132429   5.239   6.290   5.381
10510SOL    HW232430   5.153   6.420   5.430
10511SOL     OW32431   3.041   1.215   1.816
10511SOL    HW132432   3.092   1.213   1.902
10511SOL    HW232433   3.062   1.300   1.767
10512SOL     OW32434   4.116   6.718   5.992
10512SOL    HW132435   4.038   6.694   5.935
10512SOL    HW232436   4.098   6.805   6.039
10513SOL     OW32437   6.277   2.955   2.513
10513SOL    HW132438   6.210   3.014   2.470
10513SOL    HW232439   6.369   2.979   2.481
10514SOL     OW32440   2.342   2.036   1.229
10514SOL    HW132441   2.382   1.949   1.201
10514SOL    HW232442   2.384   2.066   1.314
10515SOL     OW32443   2.203   2.286   4.233
10515SOL    HW132444   2.271   2.349   4.195
10515SOL    HW232445   2.156   2.238   4.159
10516SOL     OW32446   2.655   1.769   0.271
10516SOL    HW132447   2.738   1.715   0.260
10516SOL    HW232448   2.575   1.710   0.256
10517SOL     OW32449   1.912   4.120   2.802
10517SOL    HW132450   1.998   4.083   2.768
10517SOL    HW232451   1.931   4.200   2.859
10518SOL     OW32452   0.403   5.352   2.452
10518SOL    HW132453   0.368   5.340   2.545
10518SOL    HW232454   0.458   5.272   2.427
10519SOL     OW32455   3.097   5.165   1.688
10519SOL    HW132456   3.195   5.158   1.709
10519SOL    HW232457   3.046   5.177   1.772
10520SOL     OW32458   6.486   1.594   6.403
10520SOL    HW132459   6.523   1.510   6.443
10520SOL    HW232460   6.436   1.571   6.319
10521SOL     OW32461   6.316   3.656   1.490
10521SOL    HW132462   6.401   3.639   1.541
10521SOL    HW232463   6.301   3.755   1.483
10522SOL     OW32464   6.534   2.505   2.973
10522SOL    HW132465   6.583   2.436   2.919
10522SOL    HW232466   6.547   2.487   3.070
10523SOL     OW32467   0.423   4.415   4.033
10523SOL    HW132468   0.494   4.436   4.101
10523SOL    HW232469   0.344   4.475   4.049
10524SOL     OW32470   0.113   5.216   3.439
10524SOL    HW132471   0.064   5.302   3.431
10524SOL    HW232472   0.158   5.194   3.353
10525SOL     OW32473   4.506   0.949   4.859
10525SOL    HW132474   4.589   0.906   4.895
10525SOL    HW232475   4.530   1.037   4.817
10526SOL     OW32476   0.406   5.813   1.156
10526SOL    HW132477   0.371   5.899   1.120
10526SOL    HW232478   0.340   5.775   1.220
10527SOL     OW32479   6.974   0.970   5.602
10527SOL    HW132480   6.946   0.980   5.697
10527SOL    HW232481   0.006   1.048   5.575
10528SOL     OW32482   0.698   4.853   0.144
10528SOL    HW132483   0.788   4.832   0.106
10528SOL    HW232484   0.630   4.851   0.071
10529SOL     OW32485   1.585   5.941   5.794
10529SOL    HW132486   1.606   5.862   5.736
10529SOL    HW232487   1.515   5.915   5.862
10530SOL     OW32488   1.284   6.754   6.200
10530SOL    HW132489   1.224   6.753   6.280
10530SOL    HW232490   1.263   6.834   6.144
10531SOL     OW32491   3.033   2.499   5.393
10531SOL    HW132492   3.080   2.558   5.459
10531SOL    HW232493   3.095   2.476   5.318
10532SOL     OW32494   6.205   6.784   6.471
10532SOL    HW132495   6.247   6.804   6.382
10532SOL    HW232496   6.106   6.790   6.462
10533SOL     OW32497   3.033   5.939   4.098
10533SOL    HW132498   3.119   5.889   4.082
10533SOL    HW232499   3.053   6.034   4.118
10534SOL     OW32500   0.466   5.567   2.840
10534SOL    HW132501   0.526   5.500   2.797
10534SOL    HW232502   0.442   5.638   2.773
10535SOL     OW32503   2.664   1.111   2.298
10535SOL    HW132504   2.681   1.185   2.233
10535SOL    HW232505   2.674   1.023   2.252
10536SOL     OW32506   4.293   0.482   3.547
10536SOL    HW132507   4.208   0.485   3.495
10536SOL    HW232508   4.272   0.460   3.643
10537SOL     OW32509   4.442   6.570   3.551
10537SOL    HW132510   4.503   6.492   3.536
10537SOL    HW232511   4.402   6.599   3.464
10538SOL     OW32512   5.969   4.172   2.751
10538SOL    HW132513   6.020   4.096   2.711
10538SOL    HW232514   5.916   4.138   2.829
10539SOL     OW32515   6.190   5.692   2.438
10539SOL    HW132516   6.107   5.703   2.384
10539SOL    HW232517   6.210   5.595   2.450
10540SOL     OW32518   2.389   4.094   5.834
10540SOL    HW132519   2.414   4.001   5.859
10540SOL    HW232520   2.349   4.140   5.914
10541SOL     OW32521   2.903   3.353   4.505
10541SOL    HW132522   2.936   3.397   4.422
10541SOL    HW232523   2.953   3.269   4.522
10542SOL     OW32524   6.071   0.193   4.369
10542SOL    HW132525   6.118   0.231   4.289
10542SOL    HW232526   6.019   0.112   4.342
10543SOL     OW32527   6.387   2.432   5.917
10543SOL    HW132528   6.421   2.343   5.886
10543SOL    HW232529   6.293   2.423   5.949
10544SOL     OW32530   0.993   0.712   3.917
10544SOL    HW132531   1.086   0.748   3.905
10544SOL    HW232532   0.931   0.760   3.856
10545SOL     OW32533   1.267   2.597   2.575
10545SOL    HW132534   1.209   2.669   2.536
10545SOL    HW232535   1.344   2.638   2.624
10546SOL     OW32536   2.810   6.602   1.157
10546SOL    HW132537   2.757   6.533   1.206
10546SOL    HW232538   2.872   6.558   1.092
10547SOL     OW32539   4.741   0.107   4.803
10547SOL    HW132540   4.781   0.130   4.714
10547SOL    HW232541   4.774   0.171   4.872
10548SOL     OW32542   0.841   4.903   4.668
10548SOL    HW132543   0.848   4.984   4.727
10548SOL    HW232544   0.903   4.914   4.590
10549SOL     OW32545   0.311   1.819   0.759
10549SOL    HW132546   0.298   1.800   0.662
10549SOL    HW232547   0.224   1.848   0.800
10550SOL     OW32548   3.899   6.115   2.885
10550SOL    HW132549   3.992   6.092   2.857
10550SOL    HW232550   3.834   6.074   2.821
10551SOL     OW32551   2.794   1.777   6.109
10551SOL    HW132552   2.789   1.850   6.176
10551SOL    HW232553   2.839   1.811   6.026
10552SOL     OW32554   3.032   0.870   4.010
10552SOL    HW132555   3.007   0.790   4.065
10552SOL    HW232556   2.975   0.948   4.036
10553SOL     OW32557   6.898   5.267   1.029
10553SOL    HW132558   6.804   5.242   1.005
10553SOL    HW232559   6.902   5.288   1.127
10554SOL     OW32560   6.524   4.893   2.943
10554SOL    HW132561   6.600   4.831   2.927
10554SOL    HW232562   6.501   4.895   3.040
10555SOL     OW32563   2.816   2.090   0.697
10555SOL    HW132564   2.792   2.021   0.629
10555SOL    HW232565   2.908   2.125   0.677
10556SOL     OW32566   2.576   1.735   3.091
10556SOL    HW132567   2.621   1.663   3.143
10556SOL    HW232568   2.578   1.711   2.994
10557SOL     OW32569   1.912   3.657   4.576
10557SOL    HW132570   1.910   3.560   4.598
10557SOL    HW232571   1.866   3.708   4.648
10558SOL     OW32572   3.448   4.657   5.274
10558SOL    HW132573   3.541   4.664   5.310
10558SOL    HW232574   3.404   4.746   5.276
10559SOL     OW32575   3.635   0.399   0.676
10559SOL    HW132576   3.695   0.389   0.756
10559SOL    HW232577   3.614   0.496   0.662
10560SOL     OW32578   4.500   6.128   1.925
10560SOL    HW132579   4.558   6.093   1.999
10560SOL    HW232580   4.550   6.194   1.871
10561SOL     OW32581   4.941   4.322   2.034
10561SOL    HW132582   4.927   4.348   2.129
10561SOL    HW232583   5.013   4.379   1.994
10562SOL     OW32584   3.340   6.873   1.151
10562SOL    HW132585   3.375   6.811   1.081
10562SOL    HW232586   3.347   6.967   1.118
10563SOL     OW32587   0.704   0.015   0.801
10563SOL    HW132588   0.788   6.997   0.834
10563SOL    HW232589   0.647   0.041   0.879
10564SOL     OW32590   6.489   5.461   3.872
10564SOL    HW132591   6.464   5.498   3.962
10564SOL    HW232592   6.493   5.536   3.806
10565SOL     OW32593   6.510   0.159   5.738
10565SOL    HW132594   6.590   0.099   5.745
10565SOL    HW232595   6.526   0.227   5.666
10566SOL     OW32596   2.533   2.524   6.743
10566SOL    HW132597   2.469   2.572   6.683
10566SOL    HW232598   2.543   2.576   6.828
10567SOL     OW32599   1.767   2.266   5.930
10567SOL    HW132600   1.865   2.288   5.930
10567SOL    HW232601   1.717   2.334   5.877
10568SOL     OW32602   5.586   3.210   6.858
10568SOL    HW132603   5.597   3.281   6.928
10568SOL    HW232604   5.489   3.197   6.839
10569SOL     OW32605   5.286   0.181   2.085
10569SOL    HW132606   5.290   0.148   1.991
10569SOL    HW232607   5.214   0.250   2.093
10570SOL     OW32608   1.100   4.976   4.042
10570SOL    HW132609   1.045   4.906   3.997
10570SOL    HW232610   1.142   4.937   4.124
10571SOL     OW32611   0.068   4.296   6.418
10571SOL    HW132612   0.092   4.359   6.344
10571SOL    HW232613   0.144   4.290   6.482
10572SOL     OW32614   6.770   3.972   1.916
10572SOL    HW132615   6.817   3.895   1.873
10572SOL    HW232616   6.833   4.019   1.977
10573SOL     OW32617   5.832   0.677   4.480
10573SOL    HW132618   5.751   0.629   4.513
10573SOL    HW232619   5.807   0.735   4.403
10574SOL     OW32620   6.416   0.541   3.890
10574SOL    HW132621   6.465   0.562   3.806
10574SOL    HW232622   6.364   0.456   3.878
10575SOL     OW32623   5.273   0.390   3.331
10575SOL    HW132624   5.275   0.448   3.412
10575SOL    HW232625   5.181   0.393   3.291
10576SOL     OW32626   1.753   4.829   2.993
10576SOL    HW132627   1.751   4.868   2.900
10576SOL    HW232628   1.660   4.821   3.027
10577SOL     OW32629   3.138   6.220   0.767
10577SOL    HW132630   3.237   6.207   0.765
10577SOL    HW232631   3.110   6.247   0.860
10578SOL     OW32632   6.230   2.446   3.910
10578SOL    HW132633   6.254   2.528   3.963
10578SOL    HW232634   6.202   2.373   3.972
10579SOL     OW32635   3.064   3.794   1.212
10579SOL    HW132636   3.152   3.761   1.245
10579SOL    HW232637   2.993   3.726   1.231
10580SOL     OW32638   6.102   6.970   6.910
10580SOL    HW132639   6.033   6.955   6.981
10580SOL    HW232640   6.169   6.896   6.912
10581SOL     OW32641   5.115   6.336   2.984
10581SOL    HW132642   5.203   6.355   3.026
10581SOL    HW232643   5.091   6.410   2.922
10582SOL     OW32644   5.094   4.436   6.398
10582SOL    HW132645   5.041   4.516   6.428
10582SOL    HW232646   5.159   4.464   6.327
10583SOL     OW32647   3.237   0.147   3.914
10583SOL    HW132648   3.222   0.109   3.823
10583SOL    HW232649   3.327   0.189   3.919
10584SOL     OW32650   6.596   0.510   6.134
10584SOL    HW132651   6.510   0.534   6.089
10584SOL    HW232652   6.576   0.454   6.215
10585SOL     OW32653   0.387   1.840   6.582
10585SOL    HW132654   0.456   1.781   6.622
10585SOL    HW232655   0.422   1.881   6.498
10586SOL     OW32656   4.759   4.695   5.579
10586SOL    HW132657   4.824   4.767   5.604
10586SOL    HW232658   4.670   4.715   5.621
10587SOL     OW32659   0.226   5.793   5.667
10587SOL    HW132660   0.294   5.743   5.720
10587SOL    HW232661   0.196   5.737   5.590
10588SOL     OW32662   1.860   2.571   4.630
10588SOL    HW132663   1.868   2.553   4.728
10588SOL    HW232664   1.877   2.668   4.612
10589SOL     OW32665   5.522   5.999   4.833
10589SOL    HW132666   5.481   5.929   4.891
10589SOL    HW232667   5.461   6.021   4.757
10590SOL     OW32668   0.399   5.840   1.559
10590SOL    HW132669   0.401   5.744   1.531
10590SOL    HW232670   0.309   5.878   1.539
10591SOL     OW32671   1.756   1.123   1.354
10591SOL    HW132672   1.687   1.051   1.363
10591SOL    HW232673   1.712   1.207   1.320
10592SOL     OW32674   6.255   2.411   4.787
10592SOL    HW132675   6.345   2.445   4.815
10592SOL    HW232676   6.248   2.314   4.808
10593SOL     OW32677   2.485   6.352   0.601
10593SOL    HW132678   2.502   6.426   0.535
10593SOL    HW232679   2.394   6.362   0.640
10594SOL     OW32680   3.951   1.235   3.585
10594SOL    HW132681   3.854   1.213   3.598
10594SOL    HW232682   4.006   1.189   3.654
10595SOL     OW32683   5.996   0.500   0.508
10595SOL    HW132684   6.038   0.523   0.421
10595SOL    HW232685   6.053   0.533   0.583
10596SOL     OW32686   4.466   1.672   0.145
10596SOL    HW132687   4.493   1.721   0.062
10596SOL    HW232688   4.517   1.586   0.151
10597SOL     OW32689   2.605   0.668   6.197
10597SOL    HW132690   2.545   0.741   6.164
10597SOL    HW232691   2.595   0.587   6.139
10598SOL     OW32692   2.411   1.904   6.152
10598SOL    HW132693   2.495   1.929   6.200
10598SOL    HW232694   2.362   1.988   6.127
10599SOL     OW32695   6.407   4.502   5.908
10599SOL    HW132696   6.370   4.414   5.939
10599SOL    HW232697   6.335   4.570   5.909
10600SOL     OW32698   3.335   1.045   1.460
10600SOL    HW132699   3.297   1.029   1.552
10600SOL    HW232700   3.285   0.989   1.394
10601SOL     OW32701   0.409   6.567   5.741
10601SOL    HW132702   0.465   6.572   5.824
10601SOL    HW232703   0.313   6.551   5.767
10602SOL     OW32704   0.266   0.472   0.128
10602SOL    HW132705   0.239   0.399   0.191
10602SOL    HW232706   0.331   0.437   0.061
10603SOL     OW32707   4.538   6.429   1.543
10603SOL    HW132708   4.462   6.475   1.497
10603SOL    HW232709   4.625   6.466   1.511
10604SOL     OW32710   0.148   6.366   4.742
10604SOL    HW132711   0.224   6.333   4.686
10604SOL    HW232712   0.161   6.463   4.763
10605SOL     OW32713   2.081   0.196   0.049
10605SOL    HW132714   1.991   0.158   0.069
10605SOL    HW232715   2.100   0.271   0.112
10606SOL     OW32716   6.192   0.696   1.453
10606SOL    HW132717   6.092   0.700   1.449
10606SOL    HW232718   6.223   0.723   1.544
10607SOL     OW32719   4.182   4.069   6.714
10607SOL    HW132720   4.168   3.974   6.742
10607SOL    HW232721   4.158   4.130   6.790
10608SOL     OW32722   6.546   2.782   2.869
10608SOL    HW132723   6.550   2.690   2.908
10608SOL    HW232724   6.455   2.819   2.880
10609SOL     OW32725   3.508   6.726   0.710
10609SOL    HW132726   3.593   6.755   0.667
10609SOL    HW232727   3.431   6.766   0.660
10610SOL     OW32728   6.758   1.833   4.287
10610SOL    HW132729   6.776   1.928   4.311
10610SOL    HW232730   6.704   1.790   4.359
10611SOL     OW32731   2.585   5.249   4.675
10611SOL    HW132732   2.642   5.278   4.598
10611SOL    HW232733   2.562   5.152   4.666
10612SOL     OW32734   5.675   1.176   4.108
10612SOL    HW132735   5.728   1.111   4.054
10612SOL    HW232736   5.712   1.179   4.201
10613SOL     OW32737   5.386   6.136   4.143
10613SOL    HW132738   5.400   6.037   4.149
10613SOL    HW232739   5.292   6.154   4.112
10614SOL     OW32740   5.105   0.735   5.683
10614SOL    HW132741   5.061   0.675   5.616
10614SOL    HW232742   5.166   0.681   5.740
10615SOL     OW32743   3.403   1.629   5.771
10615SOL    HW132744   3.419   1.541   5.815
10615SOL    HW232745   3.463   1.638   5.691
10616SOL     OW32746   2.671   6.601   6.723
10616SOL    HW132747   2.723   6.610   6.638
10616SOL    HW232748   2.730   6.564   6.795
10617SOL     OW32749   2.309   3.708   1.719
10617SOL    HW132750   2.344   3.786   1.772
10617SOL    HW232751   2.330   3.623   1.767
10618SOL     OW32752   0.526   5.419   5.319
10618SOL    HW132753   0.558   5.369   5.238
10618SOL    HW232754   0.435   5.457   5.300
10619SOL     OW32755   0.530   2.202   2.870
10619SOL    HW132756   0.479   2.147   2.804
10619SOL    HW232757   0.470   2.227   2.946
10620SOL     OW32758   1.499   0.354   4.970
10620SOL    HW132759   1.548   0.288   4.912
10620SOL    HW232760   1.548   0.441   4.971
10621SOL     OW32761   0.962   4.049   2.674
10621SOL    HW132762   0.863   4.060   2.686
10621SOL    HW232763   1.005   4.139   2.669
10622SOL     OW32764   4.428   2.522   0.922
10622SOL    HW132765   4.366   2.443   0.923
10622SOL    HW232766   4.377   2.605   0.945
10623SOL     OW32767   6.049   5.986   5.172
10623SOL    HW132768   6.085   5.960   5.262
10623SOL    HW232769   5.949   5.980   5.173
10624SOL     OW32770   0.752   2.898   4.917
10624SOL    HW132771   0.749   2.955   4.999
10624SOL    HW232772   0.847   2.893   4.883
10625SOL     OW32773   0.416   2.985   7.016
10625SOL    HW132774   0.424   3.036   6.930
10625SOL    HW232775   0.360   2.904   7.001
10626SOL     OW32776   3.788   3.040   1.563
10626SOL    HW132777   3.838   3.037   1.649
10626SOL    HW232778   3.694   3.007   1.578
10627SOL     OW32779   5.492   0.475   6.348
10627SOL    HW132780   5.465   0.444   6.440
10627SOL    HW232781   5.588   0.451   6.331
10628SOL     OW32782   4.003   0.157   0.418
10628SOL    HW132783   3.956   0.242   0.396
10628SOL    HW232784   3.965   0.119   0.503
10629SOL     OW32785   3.382   5.100   5.072
10629SOL    HW132786   3.342   5.027   5.016
10629SOL    HW232787   3.351   5.189   5.039
10630SOL     OW32788   5.099   0.590   2.509
10630SOL    HW132789   5.100   0.490   2.516
10630SOL    HW232790   5.062   0.617   2.421
10631SOL     OW32791   4.569   4.952   6.188
10631SOL    HW132792   4.583   4.925   6.092
10631SOL    HW232793   4.656   4.946   6.237
10632SOL     OW32794   4.831   6.058   3.633
10632SOL    HW132795   4.901   5.989   3.613
10632SOL    HW232796   4.815   6.062   3.731
10633SOL     OW32797   2.176   2.720   1.549
10633SOL    HW132798   2.253   2.749   1.605
10633SOL    HW232799   2.204   2.715   1.453
10634SOL     OW32800   1.630   5.512   0.119
10634SOL    HW132801   1.563   5.550   0.055
10634SOL    HW232802   1.684   5.442   0.073
10635SOL     OW32803   1.943   3.829   0.313
10635SOL    HW132804   1.938   3.741   0.267
10635SOL    HW232805   2.032   3.838   0.359
10636SOL     OW32806   6.180   1.603   0.779
10636SOL    HW132807   6.112   1.595   0.851
10636SOL    HW232808   6.151   1.550   0.699
10637SOL     OW32809   2.683   6.140   6.735
10637SOL    HW132810   2.676   6.139   6.635
10637SOL    HW232811   2.765   6.190   6.762
10638SOL     OW32812   6.853   6.413   2.444
10638SOL    HW132813   6.811   6.330   2.479
10638SOL    HW232814   6.851   6.412   2.344
10639SOL     OW32815   2.139   3.713   2.038
10639SOL    HW132816   2.182   3.788   1.987
10639SOL    HW232817   2.175   3.626   2.006
10640SOL     OW32818   4.502   0.834   3.604
10640SOL    HW132819   4.556   0.909   3.565
10640SOL    HW232820   4.545   0.746   3.580
10641SOL     OW32821   1.706   1.604   3.838
10641SOL    HW132822   1.614   1.565   3.831
10641SOL    HW232823   1.754   1.590   3.752
10642SOL     OW32824   5.960   2.030   0.247
10642SOL    HW132825   5.979   1.991   0.157
10642SOL    HW232826   5.871   2.075   0.246
10643SOL     OW32827   2.019   5.744   5.304
10643SOL    HW132828   2.004   5.655   5.347
10643SOL    HW232829   1.956   5.811   5.342
10644SOL     OW32830   5.845   3.208   1.848
10644SOL    HW132831   5.798   3.290   1.814
10644SOL    HW232832   5.942   3.227   1.858
10645SOL     OW32833   1.981   3.549   3.579
10645SOL    HW132834   1.915   3.622   3.562
10645SOL    HW232835   2.045   3.576   3.651
10646SOL     OW32836   5.367   1.095   5.749
10646SOL    HW132837   5.436   1.093   5.821
10646SOL    HW232838   5.348   1.189   5.723
10647SOL     OW32839   3.873   5.618   5.167
10647SOL    HW132840   3.964   5.655   5.188
10647SOL    HW232841   3.842   5.655   5.080
10648SOL     OW32842   6.194   5.523   6.204
10648SOL    HW132843   6.111   5.488   6.161
10648SOL    HW232844   6.178   5.615   6.239
10649SOL     OW32845   0.486   3.249   3.520
10649SOL    HW132846   0.450   3.158   3.498
10649SOL    HW232847   0.582   3.241   3.548
10650SOL     OW32848   0.073   0.280   4.276
10650SOL    HW132849   0.068   0.349   4.204
10650SOL    HW232850   0.165   0.281   4.316
10651SOL     OW32851   5.561   6.208   5.534
10651SOL    HW132852   5.517   6.118   5.542
10651SOL    HW232853   5.537   6.250   5.446
10652SOL     OW32854   2.078   6.891   6.156
10652SOL    HW132855   2.012   6.957   6.192
10652SOL    HW232856   2.053   6.864   6.063
10653SOL     OW32857   3.775   6.011   4.542
10653SOL    HW132858   3.683   6.027   4.505
10653SOL    HW232859   3.836   5.982   4.469
10654SOL     OW32860   5.003   1.911   4.432
10654SOL    HW132861   4.941   1.833   4.440
10654SOL    HW232862   4.979   1.964   4.350
10655SOL     OW32863   2.061   4.663   1.538
10655SOL    HW132864   2.102   4.720   1.467
10655SOL    HW232865   1.971   4.698   1.562
10656SOL     OW32866   6.510   1.302   2.495
10656SOL    HW132867   6.581   1.248   2.450
10656SOL    HW232868   6.428   1.305   2.437
10657SOL     OW32869   6.412   1.266   4.372
10657SOL    HW132870   6.330   1.262   4.315
10657SOL    HW232871   6.458   1.177   4.370
10658SOL     OW32872   5.655   3.954   4.968
10658SOL    HW132873   5.635   4.052   4.955
10658SOL    HW232874   5.723   3.943   5.041
10659SOL     OW32875   1.259   4.660   0.839
10659SOL    HW132876   1.304   4.736   0.791
10659SOL    HW232877   1.328   4.592   0.863
10660SOL     OW32878   6.124   3.901   5.329
10660SOL    HW132879   6.176   3.825   5.368
10660SOL    HW232880   6.187   3.976   5.309
10661SOL     OW32881   1.529   5.407   0.886
10661SOL    HW132882   1.441   5.439   0.853
10661SOL    HW232883   1.531   5.307   0.883
10662SOL     OW32884   3.867   1.126   2.142
10662SOL    HW132885   3.838   1.119   2.237
10662SOL    HW232886   3.816   1.199   2.096
10663SOL     OW32887   0.737   2.079   3.487
10663SOL    HW132888   0.722   2.177   3.475
10663SOL    HW232889   0.828   2.054   3.451
10664SOL     OW32890   0.489   5.431   4.872
10664SOL    HW132891   0.487   5.405   4.775
10664SOL    HW232892   0.444   5.360   4.926
10665SOL     OW32893   2.326   2.250   6.835
10665SOL    HW132894   2.423   2.268   6.819
10665SOL    HW232895   2.294   2.306   6.911
10666SOL     OW32896   3.271   3.630   2.268
10666SOL    HW132897   3.312   3.544   2.237
10666SOL    HW232898   3.198   3.657   2.206
10667SOL     OW32899   4.811   1.992   3.697
10667SOL    HW132900   4.882   2.059   3.719
10667SOL    HW232901   4.840   1.901   3.729
10668SOL     OW32902   3.232   1.633   5.290
10668SOL    HW132903   3.302   1.582   5.240
10668SOL    HW232904   3.250   1.731   5.282
10669SOL     OW32905   5.567   0.354   0.720
10669SOL    HW132906   5.584   0.410   0.801
10669SOL    HW232907   5.470   0.359   0.696
10670SOL     OW32908   5.819   4.735   4.526
10670SOL    HW132909   5.742   4.696   4.475
10670SOL    HW232910   5.895   4.752   4.463
10671SOL     OW32911   1.176   1.428   4.461
10671SOL    HW132912   1.160   1.355   4.395
10671SOL    HW232913   1.088   1.466   4.491
10672SOL     OW32914   6.635   3.941   1.659
10672SOL    HW132915   6.734   3.925   1.658
10672SOL    HW232916   6.588   3.856   1.684
10673SOL     OW32917   1.319   6.821   0.407
10673SOL    HW132918   1.339   6.796   0.312
10673SOL    HW232919   1.333   6.741   0.466
10674SOL     OW32920   4.058   3.861   4.585
10674SOL    HW132921   4.048   3.955   4.617
10674SOL    HW232922   4.054   3.859   4.485
10675SOL     OW32923   2.853   0.431   6.242
10675SOL    HW132924   2.825   0.445   6.147
10675SOL    HW232925   2.880   0.519   6.282
10676SOL     OW32926   6.911   6.477   4.610
10676SOL    HW132927   6.886   6.453   4.516
10676SOL    HW232928   6.961   6.401   4.651
10677SOL     OW32929   1.541   1.263   1.233
10677SOL    HW132930   1.478   1.341   1.231
10677SOL    HW232931   1.547   1.223   1.141
10678SOL     OW32932   4.133   4.851   3.963
10678SOL    HW132933   4.175   4.765   3.935
10678SOL    HW232934   4.205   4.919   3.978
10679SOL     OW32935   4.046   5.599   0.065
10679SOL    HW132936   4.013   5.676   0.010
10679SOL    HW232937   4.137   5.574   0.034
10680SOL     OW32938   3.760   1.889   3.704
10680SOL    HW132939   3.741   1.848   3.615
10680SOL    HW232940   3.859   1.897   3.716
10681SOL     OW32941   6.773   3.562   0.246
10681SOL    HW132942   6.759   3.626   0.322
10681SOL    HW232943   6.686   3.518   0.223
10682SOL     OW32944   0.388   3.037   5.170
10682SOL    HW132945   0.418   2.971   5.102
10682SOL    HW232946   0.407   3.002   5.262
10683SOL     OW32947   4.370   1.008   3.815
10683SOL    HW132948   4.395   1.102   3.794
10683SOL    HW232949   4.450   0.949   3.804
10684SOL     OW32950   4.615   5.422   1.919
10684SOL    HW132951   4.648   5.516   1.915
10684SOL    HW232952   4.586   5.401   2.013
10685SOL     OW32953   0.317   5.643   0.637
10685SOL    HW132954   0.409   5.617   0.665
10685SOL    HW232955   0.316   5.740   0.612
10686SOL     OW32956   1.871   4.188   6.176
10686SOL    HW132957   1.923   4.255   6.124
10686SOL    HW232958   1.806   4.142   6.116
10687SOL     OW32959   6.837   4.451   4.612
10687SOL    HW132960   6.845   4.382   4.540
10687SOL    HW232961   6.740   4.476   4.622
10688SOL     OW32962   5.376   2.660   2.802
10688SOL    HW132963   5.469   2.697   2.792
10688SOL    HW232964   5.313   2.711   2.743
10689SOL     OW32965   7.010   0.192   1.820
10689SOL    HW132966   6.973   0.124   1.883
10689SOL    HW232967   6.971   0.179   1.729
10690SOL     OW32968   0.318   5.257   3.240
10690SOL    HW132969   0.405   5.219   3.269
10690SOL    HW232970   0.333   5.324   3.167
10691SOL     OW32971   1.910   1.775   1.568
10691SOL    HW132972   1.929   1.829   1.650
10691SOL    HW232973   1.908   1.678   1.592
10692SOL     OW32974   2.450   0.271   3.692
10692SOL    HW132975   2.442   0.340   3.620
10692SOL    HW232976   2.482   0.315   3.776
10693SOL     OW32977   1.486   5.998   1.085
10693SOL    HW132978   1.454   5.950   1.004
10693SOL    HW232979   1.417   5.992   1.157
10694SOL     OW32980   5.333   6.295   6.257
10694SOL    HW132981   5.361   6.213   6.308
10694SOL    HW232982   5.377   6.296   6.168
10695SOL     OW32983   1.703   2.415   1.970
10695SOL    HW132984   1.787   2.362   1.968
10695SOL    HW232985   1.713   2.492   2.034
10696SOL     OW32986   7.010   3.814   4.444
10696SOL    HW132987   0.008   3.804   4.347
10696SOL    HW232988   6.914   3.794   4.458
10697SOL     OW32989   0.162   0.329   5.872
10697SOL    HW132990   0.067   0.311   5.899
10697SOL    HW232991   0.224   0.297   5.943
10698SOL     OW32992   4.803   4.228   6.739
10698SOL    HW132993   4.870   4.155   6.752
10698SOL    HW232994   4.717   4.202   6.784
10699SOL     OW32995   3.894   4.906   1.583
10699SOL    HW132996   3.988   4.923   1.614
10699SOL    HW232997   3.895   4.841   1.507
10700SOL     OW32998   5.520   6.282   0.826
10700SOL    HW132999   5.589   6.354   0.811
10700SOL    HW233000   5.437   6.323   0.863
10701SOL     OW33001   2.972   0.062   5.768
10701SOL    HW133002   3.026   7.012   5.728
10701SOL    HW233003   3.034   0.130   5.808
10702SOL     OW33004   5.284   3.332   2.099
10702SOL    HW133005   5.342   3.262   2.056
10702SOL    HW233006   5.220   3.367   2.031
10703SOL     OW33007   2.655   2.688   5.594
10703SOL    HW133008   2.585   2.746   5.636
10703SOL    HW233009   2.627   2.592   5.600
10704SOL     OW33010   6.917   4.957   2.258
10704SOL    HW133011   7.007   4.994   2.283
10704SOL    HW233012   6.904   4.869   2.304
10705SOL     OW33013   6.106   5.621   1.729
10705SOL    HW133014   6.027   5.665   1.687
10705SOL    HW233015   6.092   5.522   1.729
10706SOL     OW33016   3.969   0.019   2.356
10706SOL    HW133017   3.965   0.062   2.266
10706SOL    HW233018   3.959   6.945   2.347
10707SOL     OW33019   0.640   6.578   3.547
10707SOL    HW133020   0.726   6.599   3.501
10707SOL    HW233021   0.641   6.618   3.639
10708SOL     OW33022   3.744   1.597   1.429
10708SOL    HW133023   3.689   1.613   1.511
10708SOL    HW233024   3.711   1.515   1.382
10709SOL     OW33025   5.448   5.031   4.643
10709SOL    HW133026   5.522   4.989   4.695
10709SOL    HW233027   5.470   5.029   4.546
10710SOL     OW33028   6.383   1.138   4.008
10710SOL    HW133029   6.369   1.040   4.024
10710SOL    HW233030   6.481   1.159   4.013
10711SOL     OW33031   1.827   6.842   3.955
10711SOL    HW133032   1.860   6.902   4.028
10711SOL    HW233033   1.769   6.895   3.892
10712SOL     OW33034   3.288   1.048   2.344
10712SOL    HW133035   3.192   1.058   2.370
10712SOL    HW233036   3.318   1.130   2.296
10713SOL     OW33037   0.629   3.511   0.613
10713SOL    HW133038   0.700   3.516   0.543
10713SOL    HW233039   0.585   3.600   0.623
10714SOL     OW33040   4.927   3.926   5.922
10714SOL    HW133041   5.014   3.965   5.891
10714SOL    HW233042   4.945   3.849   5.983
10715SOL     OW33043   4.539   0.573   2.339
10715SOL    HW133044   4.544   0.486   2.388
10715SOL    HW233045   4.580   0.645   2.395
10716SOL     OW33046   5.744   2.505   3.735
10716SOL    HW133047   5.827   2.502   3.791
10716SOL    HW233048   5.666   2.530   3.792
10717SOL     OW33049   1.635   2.620   1.066
10717SOL    HW133050   1.550   2.625   1.014
10717SOL    HW233051   1.692   2.699   1.044
10718SOL     OW33052   0.696   4.084   0.032
10718SOL    HW133053   0.791   4.057   0.016
10718SOL    HW233054   0.692   4.144   0.112
10719SOL     OW33055   0.165   6.054   2.774
10719SOL    HW133056   0.263   6.071   2.773
10719SOL    HW233057   0.119   6.116   2.711
10720SOL     OW33058   6.698   4.708   4.931
10720SOL    HW133059   6.647   4.644   4.989
10720SOL    HW233060   6.651   4.717   4.843
10721SOL     OW33061   5.196   3.417   5.241
10721SOL    HW133062   5.151   3.341   5.286
10721SOL    HW233063   5.177   3.502   5.291
10722SOL     OW33064   1.489   5.269   0.192
10722SOL    HW133065   1.425   5.252   0.117
10722SOL    HW233066   1.556   5.338   0.164
10723SOL     OW33067   6.992   2.711   6.661
10723SOL    HW133068   7.005   2.641   6.732
10723SOL    HW233069   0.039   2.701   6.592
10724SOL     OW33070   5.780   0.497   6.343
10724SOL    HW133071   5.860   0.556   6.331
10724SOL    HW233072   5.739   0.516   6.433
10725SOL     OW33073   1.572   5.549   5.187
10725SOL    HW133074   1.505   5.560   5.261
10725SOL    HW233075   1.610   5.639   5.163
10726SOL     OW33076   5.843   0.382   4.128
10726SOL    HW133077   5.902   0.420   4.056
10726SOL    HW233078   5.773   0.449   4.152
10727SOL     OW33079   0.220   5.631   5.454
10727SOL    HW133080   0.241   5.552   5.512
10727SOL    HW233081   0.154   5.603   5.384
10728SOL     OW33082   1.448   5.624   6.982
10728SOL    HW133083   1.412   5.638   6.890
10728SOL    HW233084   1.382   5.574   0.012
10729SOL     OW33085   4.613   1.297   2.548
10729SOL    HW133086   4.562   1.381   2.570
10729SOL    HW233087   4.709   1.309   2.576
10730SOL     OW33088   1.707   0.590   1.122
10730SOL    HW133089   1.682   0.677   1.080
10730SOL    HW233090   1.798   0.597   1.163
10731SOL     OW33091   3.602   0.997   0.792
10731SOL    HW133092   3.553   0.933   0.732
10731SOL    HW233093   3.538   1.064   0.828
10732SOL     OW33094   6.585   4.873   4.741
10732SOL    HW133095   6.494   4.885   4.702
10732SOL    HW233096   6.643   4.950   4.715
10733SOL     OW33097   6.889   1.584   0.378
10733SOL    HW133098   6.986   1.580   0.399
10733SOL    HW233099   6.877   1.599   0.280
10734SOL     OW33100   0.848   0.776   0.245
10734SOL    HW133101   0.792   0.714   0.301
10734SOL    HW233102   0.890   0.724   0.170
10735SOL     OW33103   0.178   2.754   2.637
10735SOL    HW133104   0.186   2.841   2.686
10735SOL    HW233105   0.090   2.712   2.658
10736SOL     OW33106   0.953   0.628   3.615
10736SOL    HW133107   0.961   0.726   3.634
10736SOL    HW233108   1.028   0.579   3.660
10737SOL     OW33109   1.196   1.750   0.534
10737SOL    HW133110   1.209   1.720   0.628
10737SOL    HW233111   1.102   1.730   0.505
10738SOL     OW33112   2.462   0.630   2.852
10738SOL    HW133113   2.435   0.561   2.785
10738SOL    HW233114   2.385   0.650   2.913
10739SOL     OW33115   1.570   1.167   0.958
10739SOL    HW133116   1.634   1.095   0.931
10739SOL    HW233117   1.511   1.189   0.880
10740SOL     OW33118   0.178   4.884   5.067
10740SOL    HW133119   0.119   4.845   5.138
10740SOL    HW233120   0.125   4.950   5.013
10741SOL     OW33121   5.021   0.807   1.166
10741SOL    HW133122   4.945   0.743   1.177
10741SOL    HW233123   5.089   0.769   1.103
10742SOL     OW33124   5.440   7.017   1.087
10742SOL    HW133125   5.345   6.993   1.065
10742SOL    HW233126   5.452   0.091   1.081
10743SOL     OW33127   1.913   1.587   5.259
10743SOL    HW133128   1.895   1.662   5.197
10743SOL    HW233129   1.961   1.514   5.211
10744SOL     OW33130   3.750   1.478   1.144
10744SOL    HW133131   3.765   1.406   1.076
10744SOL    HW233132   3.662   1.523   1.127
10745SOL     OW33133   0.483   6.079   6.378
10745SOL    HW133134   0.432   6.148   6.430
10745SOL    HW233135   0.420   6.014   6.337
10746SOL     OW33136   2.459   5.107   1.610
10746SOL    HW133137   2.497   5.039   1.673
10746SOL    HW233138   2.529   5.135   1.544
10747SOL     OW33139   4.246   1.198   4.703
10747SOL    HW133140   4.160   1.167   4.743
10747SOL    HW233141   4.283   1.127   4.643
10748SOL     OW33142   5.599   1.095   0.890
10748SOL    HW133143   5.534   1.027   0.856
10748SOL    HW233144   5.601   1.173   0.827
10749SOL     OW33145   0.173   5.619   3.239
10749SOL    HW133146   0.201   5.641   3.145
10749SOL    HW233147   0.251   5.580   3.289
10750SOL     OW33148   4.230   5.990   3.926
10750SOL    HW133149   4.306   5.925   3.926
10750SOL    HW233150   4.206   6.013   3.832
10751SOL     OW33151   1.939   5.046   4.415
10751SOL    HW133152   2.028   5.022   4.452
10751SOL    HW233153   1.900   5.122   4.466
10752SOL     OW33154   6.328   4.206   5.678
10752SOL    HW133155   6.282   4.141   5.617
10752SOL    HW233156   6.286   4.201   5.769
10753SOL     OW33157   4.939   5.011   4.553
10753SOL    HW133158   4.959   4.935   4.615
10753SOL    HW233159   4.841   5.016   4.537
10754SOL     OW33160   0.745   0.731   2.987
10754SOL    HW133161   0.741   0.756   3.084
10754SOL    HW233162   0.709   0.806   2.932
10755SOL     OW33163   0.291   1.050   0.471
10755SOL    HW133164   0.251   1.122   0.413
10755SOL    HW233165   0.237   0.966   0.460
10756SOL     OW33166   6.412   4.926   6.842
10756SOL    HW133167   6.342   4.936   6.913
10756SOL    HW233168   6.368   4.917   6.753
10757SOL     OW33169   1.741   3.001   6.769
10757SOL    HW133170   1.742   3.002   6.869
10757SOL    HW233171   1.746   2.907   6.737
10758SOL     OW33172   0.965   6.014   4.026
10758SOL    HW133173   1.054   6.002   4.071
10758SOL    HW233174   0.973   6.082   3.953
10759SOL     OW33175   1.912   2.805   1.368
10759SOL    HW133176   1.988   2.844   1.421
10759SOL    HW233177   1.925   2.706   1.362
10760SOL     OW33178   5.455   0.361   2.735
10760SOL    HW133179   5.439   0.459   2.725
10760SOL    HW233180   5.467   0.339   2.832
10761SOL     OW33181   1.063   6.411   6.044
10761SOL    HW133182   0.997   6.484   6.028
10761SOL    HW233183   1.063   6.348   5.966
10762SOL     OW33184   3.233   2.097   4.183
10762SOL    HW133185   3.260   2.088   4.087
10762SOL    HW233186   3.313   2.122   4.237
10763SOL     OW33187   4.963   6.699   3.125
10763SOL    HW133188   5.043   6.718   3.183
10763SOL    HW233189   4.913   6.621   3.163
10764SOL     OW33190   4.730   2.642   5.900
10764SOL    HW133191   4.738   2.542   5.908
10764SOL    HW233192   4.798   2.686   5.958
10765SOL     OW33193   4.909   2.568   0.998
10765SOL    HW133194   4.828   2.512   1.015
10765SOL    HW233195   4.892   2.628   0.919
10766SOL     OW33196   5.085   4.735   0.496
10766SOL    HW133197   5.004   4.681   0.521
10766SOL    HW233198   5.157   4.720   0.565
10767SOL     OW33199   1.886   0.225   0.447
10767SOL    HW133200   1.862   0.320   0.469
10767SOL    HW233201   1.974   0.203   0.488
10768SOL     OW33202   4.967   5.245   1.650
10768SOL    HW133203   4.987   5.150   1.622
10768SOL    HW233204   4.888   5.278   1.600
10769SOL     OW33205   2.387   4.261   5.270
10769SOL    HW133206   2.419   4.181   5.219
10769SOL    HW233207   2.295   4.286   5.239
10770SOL     OW33208   5.376   6.544   4.734
10770SOL    HW133209   5.447   6.486   4.694
10770SOL    HW233210   5.331   6.596   4.661
10771SOL     OW33211   5.465   6.940   3.358
10771SOL    HW133212   5.419   0.003   3.341
10771SOL    HW233213   5.553   6.957   3.401
10772SOL     OW33214   6.065   0.385   3.824
10772SOL    HW133215   6.083   0.484   3.828
10772SOL    HW233216   6.037   0.361   3.731
10773SOL     OW33217   6.423   5.379   6.170
10773SOL    HW133218   6.406   5.310   6.241
10773SOL    HW233219   6.350   5.448   6.173
10774SOL     OW33220   2.490   1.604   6.163
10774SOL    HW133221   2.458   1.654   6.082
10774SOL    HW233222   2.564   1.655   6.206
10775SOL     OW33223   0.594   4.478   2.101
10775SOL    HW133224   0.638   4.391   2.123
10775SOL    HW233225   0.593   4.536   2.183
10776SOL     OW33226   0.585   0.963   6.565
10776SOL    HW133227   0.646   0.986   6.642
10776SOL    HW233228   0.624   0.998   6.480
10777SOL     OW33229   4.349   5.607   1.893
10777SOL    HW133230   4.284   5.574   1.824
10777SOL    HW233231   4.442   5.594   1.860
10778SOL     OW33232   4.889   0.019   4.135
10778SOL    HW133233   4.905   6.991   4.051
10778SOL    HW233234   4.796   0.056   4.134
10779SOL     OW33235   6.401   3.171   3.474
10779SOL    HW133236   6.372   3.255   3.520
10779SOL    HW233237   6.479   3.190   3.415
10780SOL     OW33238   1.714   0.806   3.760
10780SOL    HW133239   1.782   0.817   3.688
10780SOL    HW233240   1.759   0.811   3.849
10781SOL     OW33241   4.270   0.843   4.205
10781SOL    HW133242   4.212   0.820   4.283
10781SOL    HW233243   4.233   0.923   4.158
10782SOL     OW33244   0.108   1.276   2.826
10782SOL    HW133245   0.181   1.277   2.759
10782SOL    HW233246   0.020   1.259   2.780
10783SOL     OW33247   0.758   2.291   2.498
10783SOL    HW133248   0.685   2.244   2.450
10783SOL    HW233249   0.719   2.357   2.562
10784SOL     OW33250   3.922   6.871   4.149
10784SOL    HW133251   3.907   6.911   4.059
10784SOL    HW233252   3.997   6.918   4.195
10785SOL     OW33253   0.033   4.794   0.503
10785SOL    HW133254   0.046   4.850   0.585
10785SOL    HW233255   0.027   4.697   0.530
10786SOL     OW33256   5.984   4.783   3.295
10786SOL    HW133257   6.061   4.842   3.270
10786SOL    HW233258   6.017   4.690   3.308
10787SOL     OW33259   1.733   1.467   5.909
10787SOL    HW133260   1.717   1.564   5.929
10787SOL    HW233261   1.700   1.445   5.818
10788SOL     OW33262   2.064   4.419   6.635
10788SOL    HW133263   2.086   4.382   6.726
10788SOL    HW233264   2.114   4.504   6.621
10789SOL     OW33265   6.118   2.942   6.517
10789SOL    HW133266   6.209   2.980   6.499
10789SOL    HW233267   6.086   2.894   6.435
10790SOL     OW33268   0.636   0.374   1.693
10790SOL    HW133269   0.604   0.406   1.782
10790SOL    HW233270   0.568   0.396   1.623
10791SOL     OW33271   6.946   6.660   1.569
10791SOL    HW133272   6.973   6.624   1.658
10791SOL    HW233273   6.856   6.703   1.576
10792SOL     OW33274   3.507   2.947   4.889
10792SOL    HW133275   3.450   2.942   4.972
10792SOL    HW233276   3.603   2.945   4.914
10793SOL     OW33277   5.953   3.167   5.458
10793SOL    HW133278   5.916   3.093   5.514
10793SOL    HW233279   5.920   3.157   5.364
10794SOL     OW33280   3.951   3.103   4.349
10794SOL    HW133281   3.968   3.117   4.447
10794SOL    HW233282   3.853   3.088   4.335
10795SOL     OW33283   0.408   4.947   2.567
10795SOL    HW133284   0.364   4.969   2.480
10795SOL    HW233285   0.497   4.904   2.550
10796SOL     OW33286   6.316   6.778   5.819
10796SOL    HW133287   6.235   6.744   5.867
10796SOL    HW233288   6.296   6.868   5.780
10797SOL     OW33289   3.306   2.481   1.396
10797SOL    HW133290   3.285   2.399   1.344
10797SOL    HW233291   3.340   2.552   1.334
10798SOL     OW33292   2.985   0.963   0.264
10798SOL    HW133293   2.908   0.947   0.326
10798SOL    HW233294   3.006   1.061   0.263
10799SOL     OW33295   4.039   1.418   2.206
10799SOL    HW133296   4.083   1.352   2.266
10799SOL    HW233297   3.941   1.423   2.227
10800SOL     OW33298   0.371   6.401   5.508
10800SOL    HW133299   0.394   6.311   5.473
10800SOL    HW233300   0.396   6.407   5.605
10801SOL     OW33301   1.081   0.175   0.026
10801SOL    HW133302   0.996   0.123   0.032
10801SOL    HW233303   1.106   0.187   6.955
10802SOL     OW33304   0.656   0.348   2.192
10802SOL    HW133305   0.717   0.413   2.235
10802SOL    HW233306   0.579   0.328   2.253
10803SOL     OW33307   1.952   5.403   6.010
10803SOL    HW133308   1.927   5.317   6.053
10803SOL    HW233309   1.880   5.431   5.946
10804SOL     OW33310   5.810   3.217   2.689
10804SOL    HW133311   5.783   3.154   2.616
10804SOL    HW233312   5.895   3.264   2.663
10805SOL     OW33313   4.659   6.820   5.310
10805SOL    HW133314   4.657   6.910   5.267
10805SOL    HW233315   4.725   6.820   5.385
10806SOL     OW33316   3.997   4.424   6.101
10806SOL    HW133317   4.016   4.517   6.068
10806SOL    HW233318   3.923   4.384   6.046
10807SOL     OW33319   2.099   0.155   3.324
10807SOL    HW133320   2.014   0.103   3.335
10807SOL    HW233321   2.147   0.159   3.411
10808SOL     OW33322   0.292   3.242   6.056
10808SOL    HW133323   0.275   3.164   5.996
10808SOL    HW233324   0.388   3.269   6.050
10809SOL     OW33325   2.277   4.135   3.865
10809SOL    HW133326   2.238   4.054   3.820
10809SOL    HW233327   2.334   4.185   3.800
10810SOL     OW33328   0.446   0.524   4.024
10810SOL    HW133329   0.360   0.496   3.982
10810SOL    HW233330   0.512   0.449   4.018
10811SOL     OW33331   4.500   4.758   5.682
10811SOL    HW133332   4.435   4.835   5.687
10811SOL    HW233333   4.456   4.681   5.635
10812SOL     OW33334   6.988   3.928   0.596
10812SOL    HW133335   0.013   3.856   0.547
10812SOL    HW233336   6.945   3.888   0.678
10813SOL     OW33337   0.641   3.949   5.899
10813SOL    HW133338   0.550   3.989   5.887
10813SOL    HW233339   0.708   4.001   5.846
10814SOL     OW33340   1.560   0.184   6.506
10814SOL    HW133341   1.624   0.119   6.546
10814SOL    HW233342   1.575   0.275   6.545
10815SOL     OW33343   4.957   3.425   3.316
10815SOL    HW133344   4.925   3.347   3.261
10815SOL    HW233345   5.056   3.419   3.328
10816SOL     OW33346   3.008   3.329   2.233
10816SOL    HW133347   3.014   3.233   2.206
10816SOL    HW233348   2.945   3.377   2.172
10817SOL     OW33349   3.468   0.693   3.765
10817SOL    HW133350   3.460   0.729   3.858
10817SOL    HW233351   3.535   0.746   3.713
10818SOL     OW33352   4.803   4.116   5.478
10818SOL    HW133353   4.869   4.188   5.501
10818SOL    HW233354   4.764   4.079   5.562
10819SOL     OW33355   5.989   4.897   6.366
10819SOL    HW133356   6.023   4.808   6.397
10819SOL    HW233357   5.972   4.894   6.268
10820SOL     OW33358   0.563   5.274   4.251
10820SOL    HW133359   0.575   5.177   4.235
10820SOL    HW233360   0.649   5.322   4.238
10821SOL     OW33361   4.063   6.792   3.376
10821SOL    HW133362   4.069   6.845   3.291
10821SOL    HW233363   4.114   6.838   3.448
10822SOL     OW33364   6.171   1.894   2.597
10822SOL    HW133365   6.230   1.942   2.532
10822SOL    HW233366   6.116   1.826   2.548
10823SOL     OW33367   0.936   0.717   2.225
10823SOL    HW133368   1.003   0.663   2.276
10823SOL    HW233369   0.860   0.658   2.198
10824SOL     OW33370   0.455   0.566   2.661
10824SOL    HW133371   0.484   0.616   2.579
10824SOL    HW233372   0.534   0.555   2.723
10825SOL     OW33373   2.363   2.057   0.331
10825SOL    HW133374   2.310   1.988   0.281
10825SOL    HW233375   2.390   2.130   0.269
10826SOL     OW33376   1.319   1.516   2.935
10826SOL    HW133377   1.404   1.499   2.885
10826SOL    HW233378   1.247   1.457   2.898
10827SOL     OW33379   0.239   3.500   4.996
10827SOL    HW133380   0.310   3.509   4.927
10827SOL    HW233381   0.238   3.406   5.031
10828SOL     OW33382   1.942   4.530   0.573
10828SOL    HW133383   2.020   4.587   0.598
10828SOL    HW233384   1.913   4.476   0.652
10829SOL     OW33385   5.246   2.693   0.374
10829SOL    HW133386   5.164   2.694   0.316
10829SOL    HW233387   5.219   2.693   0.470
10830SOL     OW33388   4.029   1.776   3.081
10830SOL    HW133389   4.112   1.734   3.045
10830SOL    HW233390   4.024   1.871   3.049
10831SOL     OW33391   3.172   6.416   2.427
10831SOL    HW133392   3.220   6.476   2.363
10831SOL    HW233393   3.235   6.388   2.500
10832SOL     OW33394   7.000   3.991   6.325
10832SOL    HW133395   6.942   4.070   6.303
10832SOL    HW233396   6.978   3.916   6.264
10833SOL     OW33397   0.243   1.322   1.398
10833SOL    HW133398   0.184   1.253   1.356
10833SOL    HW233399   0.237   1.315   1.498
10834SOL     OW33400   6.124   1.475   0.549
10834SOL    HW133401   6.035   1.453   0.509
10834SOL    HW233402   6.187   1.398   0.536
10835SOL     OW33403   6.007   2.900   0.166
10835SOL    HW133404   5.931   2.960   0.188
10835SOL    HW233405   5.993   2.861   0.075
10836SOL     OW33406   0.211   2.378   3.758
10836SOL    HW133407   0.270   2.298   3.766
10836SOL    HW233408   0.164   2.393   3.845
10837SOL     OW33409   6.714   4.963   1.455
10837SOL    HW133410   6.807   4.928   1.462
10837SOL    HW233411   6.715   5.048   1.401
10838SOL     OW33412   6.507   6.704   3.968
10838SOL    HW133413   6.543   6.797   3.966
10838SOL    HW233414   6.570   6.644   4.017
10839SOL     OW33415   4.161   3.606   0.750
10839SOL    HW133416   4.095   3.543   0.710
10839SOL    HW233417   4.249   3.595   0.703
10840SOL     OW33418   3.512   6.096   2.322
10840SOL    HW133419   3.465   6.172   2.276
10840SOL    HW233420   3.562   6.042   2.255
10841SOL     OW33421   5.898   4.365   4.818
10841SOL    HW133422   5.942   4.296   4.875
10841SOL    HW233423   5.941   4.453   4.833
10842SOL     OW33424   4.738   2.536   1.400
10842SOL    HW133425   4.798   2.615   1.412
10842SOL    HW233426   4.651   2.553   1.447
10843SOL     OW33427   1.357   1.450   1.250
10843SOL    HW133428   1.301   1.368   1.258
10843SOL    HW233429   1.408   1.464   1.335
10844SOL     OW33430   0.603   5.564   3.125
10844SOL    HW133431   0.606   5.613   3.038
10844SOL    HW233432   0.641   5.472   3.113
10845SOL     OW33433   4.003   6.193   5.528
10845SOL    HW133434   3.934   6.265   5.538
10845SOL    HW233435   3.958   6.104   5.528
10846SOL     OW33436   5.068   0.214   6.457
10846SOL    HW133437   5.013   0.244   6.535
10846SOL    HW233438   5.059   0.280   6.383
10847SOL     OW33439   3.533   2.189   0.353
10847SOL    HW133440   3.504   2.242   0.273
10847SOL    HW233441   3.620   2.224   0.386
10848SOL     OW33442   1.329   4.182   0.767
10848SOL    HW133443   1.333   4.273   0.727
10848SOL    HW233444   1.331   4.113   0.694
10849SOL     OW33445   2.694   4.630   4.006
10849SOL    HW133446   2.673   4.570   4.083
10849SOL    HW233447   2.676   4.581   3.921
10850SOL     OW33448   3.406   6.485   5.849
10850SOL    HW133449   3.307   6.494   5.861
10850SOL    HW233450   3.428   6.392   5.819
10851SOL     OW33451   3.230   3.734   0.490
10851SOL    HW133452   3.230   3.667   0.415
10851SOL    HW233453   3.293   3.703   0.562
10852SOL     OW33454   1.657   0.797   6.664
10852SOL    HW133455   1.584   0.859   6.693
10852SOL    HW233456   1.665   0.722   6.730
10853SOL     OW33457   2.158   2.963   5.852
10853SOL    HW133458   2.117   3.016   5.927
10853SOL    HW233459   2.085   2.926   5.794
10854SOL     OW33460   4.203   5.373   5.471
10854SOL    HW133461   4.259   5.405   5.394
10854SOL    HW233462   4.237   5.414   5.556
10855SOL     OW33463   4.212   0.372   0.307
10855SOL    HW133464   4.176   0.311   0.237
10855SOL    HW233465   4.312   0.369   0.307
10856SOL     OW33466   5.829   1.514   0.730
10856SOL    HW133467   5.752   1.451   0.742
10856SOL    HW233468   5.794   1.608   0.725
10857SOL     OW33469   1.166   2.220   2.532
10857SOL    HW133470   1.131   2.286   2.600
10857SOL    HW233471   1.224   2.268   2.467
10858SOL     OW33472   0.874   0.887   0.973
10858SOL    HW133473   0.816   0.964   0.999
10858SOL    HW233474   0.819   0.819   0.925
10859SOL     OW33475   1.205   4.532   4.327
10859SOL    HW133476   1.160   4.621   4.329
10859SOL    HW233477   1.275   4.528   4.398
10860SOL     OW33478   0.539   3.249   4.981
10860SOL    HW133479   0.490   3.257   4.895
10860SOL    HW233480   0.492   3.186   5.042
10861SOL     OW33481   3.536   3.644   3.043
10861SOL    HW133482   3.468   3.590   2.993
10861SOL    HW233483   3.538   3.613   3.138
10862SOL     OW33484   1.294   1.010   5.951
10862SOL    HW133485   1.265   1.106   5.946
10862SOL    HW233486   1.222   0.951   5.914
10863SOL     OW33487   2.068   0.876   3.834
10863SOL    HW133488   2.069   0.794   3.777
10863SOL    HW233489   1.975   0.914   3.835
10864SOL     OW33490   2.833   6.132   0.301
10864SOL    HW133491   2.736   6.157   0.303
10864SOL    HW233492   2.875   6.155   0.389
10865SOL     OW33493   6.472   1.117   0.637
10865SOL    HW133494   6.500   1.099   0.731
10865SOL    HW233495   6.546   1.164   0.588
10866SOL     OW33496   5.373   4.257   0.688
10866SOL    HW133497   5.295   4.224   0.635
10866SOL    HW233498   5.395   4.351   0.661
10867SOL     OW33499   3.074   4.041   1.121
10867SOL    HW133500   3.061   3.952   1.167
10867SOL    HW233501   2.986   4.082   1.102
10868SOL     OW33502   4.962   1.765   3.842
10868SOL    HW133503   5.059   1.784   3.856
10868SOL    HW233504   4.952   1.684   3.784
10869NA      NA33505   6.553   3.028   5.133
10870NA      NA33506   4.503   4.524   5.152
10871NA      NA33507   1.532   2.742   1.644
10872NA      NA33508   4.888   3.799   5.158
10873NA      NA33509   4.296   2.476   5.372
10874NA      NA33510   3.759   4.782   1.727
10875NA      NA33511   6.618   5.052   6.816
10876NA      NA33512   3.240   3.300   4.568
10877NA      NA33513   4.739   5.900   0.146
10878NA      NA33514   4.215   6.519   5.201
10879NA      NA33515   6.291   5.274   2.126
10880NA      NA33516   2.155   6.696   3.671
10881NA      NA33517   4.294   5.793   2.038
10882NA      NA33518   3.461   4.059   2.148
   7.02466   7.02466   7.02466
