Generated by trjconv : CNT in water t= 286.00000
33518
    1C        C    1   2.840   2.771   4.742
    1C        C    2   2.898   2.721   4.861
    1C        C    3   2.838   2.769   4.978
    1C        C    4   2.850   2.775   4.255
    1C        C    5   2.902   2.731   4.379
    1C        C    6   2.846   2.774   4.501
    1C        C    7   3.012   2.643   4.621
    1C        C    8   2.891   2.716   4.622
    1C        C    9   3.075   2.605   4.741
    1C        C   10   3.009   2.634   4.863
    1C        C   11   3.175   2.486   4.970
    1C        C   12   3.056   2.560   4.972
    1C        C   13   2.849   2.769   3.769
    1C        C   14   2.900   2.720   3.891
    1C        C   15   2.847   2.775   4.011
    1C        C   16   3.017   2.646   4.135
    1C        C   17   2.901   2.727   4.133
    1C        C   18   3.078   2.614   4.258
    1C        C   19   3.018   2.651   4.381
    1C        C   20   3.214   2.565   4.501
    1C        C   21   3.081   2.614   4.502
    1C        C   22   3.283   2.547   4.623
    1C        C   23   3.209   2.556   4.743
    1C        C   24   3.407   2.479   4.862
    1C        C   25   3.266   2.502   4.861
    1C        C   26   3.483   2.480   4.981
    1C        C   27   2.844   2.765   3.280
    1C        C   28   2.901   2.718   3.401
    1C        C   29   2.848   2.770   3.522
    1C        C   30   3.019   2.646   3.649
    1C        C   31   2.902   2.726   3.645
    1C        C   32   3.079   2.611   3.772
    1C        C   33   3.015   2.639   3.895
    1C        C   34   3.210   2.550   4.014
    1C        C   35   3.081   2.608   4.016
    1C        C   36   3.277   2.536   4.138
    1C        C   37   3.209   2.559   4.260
    1C        C   38   3.419   2.509   4.380
    1C        C   39   3.281   2.540   4.380
    1C        C   40   3.488   2.497   4.502
    1C        C   41   3.419   2.509   4.625
    1C        C   42   3.629   2.486   4.743
    1C        C   43   3.487   2.480   4.745
    1C        C   44   3.702   2.485   4.864
    1C        C   45   3.622   2.480   4.979
    1C        C   46   2.835   2.751   2.792
    1C        C   47   2.891   2.709   2.915
    1C        C   48   2.840   2.758   3.037
    1C        C   49   3.014   2.637   3.156
    1C        C   50   2.895   2.714   3.159
    1C        C   51   3.075   2.601   3.279
    1C        C   52   3.017   2.638   3.402
    1C        C   53   3.206   2.549   3.526
    1C        C   54   3.076   2.605   3.526
    1C        C   55   3.275   2.529   3.647
    1C        C   56   3.208   2.554   3.769
    1C        C   57   3.413   2.501   3.891
    1C        C   58   3.274   2.527   3.891
    1C        C   59   3.482   2.503   4.014
    1C        C   60   3.415   2.507   4.138
    1C        C   61   3.630   2.493   4.259
    1C        C   62   3.489   2.493   4.258
    1C        C   63   3.700   2.496   4.381
    1C        C   64   3.629   2.494   4.503
    1C        C   65   3.838   2.540   4.621
    1C        C   66   3.704   2.497   4.623
    1C        C   67   3.909   2.551   4.742
    1C        C   68   3.838   2.521   4.861
    1C        C   69   4.046   2.583   4.978
    1C        C   70   3.915   2.533   4.977
    1C        C   71   2.819   2.730   2.307
    1C        C   72   2.882   2.687   2.427
    1C        C   73   2.826   2.738   2.546
    1C        C   74   3.003   2.624   2.671
    1C        C   75   2.885   2.701   2.670
    1C        C   76   3.073   2.600   2.791
    1C        C   77   3.009   2.632   2.913
    1C        C   78   3.207   2.550   3.036
    1C        C   79   3.077   2.604   3.034
    1C        C   80   3.275   2.531   3.159
    1C        C   81   3.207   2.551   3.282
    1C        C   82   3.411   2.493   3.402
    1C        C   83   3.274   2.526   3.404
    1C        C   84   3.483   2.489   3.524
    1C        C   85   3.414   2.503   3.646
    1C        C   86   3.626   2.498   3.768
    1C        C   87   3.484   2.492   3.769
    1C        C   88   3.694   2.506   3.891
    1C        C   89   3.623   2.502   4.013
    1C        C   90   3.831   2.547   4.135
    1C        C   91   3.695   2.509   4.135
    1C        C   92   3.899   2.568   4.257
    1C        C   93   3.835   2.538   4.379
    1C        C   94   4.030   2.630   4.499
    1C        C   95   3.905   2.564   4.499
    1C        C   96   4.091   2.667   4.621
    1C        C   97   4.033   2.620   4.741
    1C        C   98   4.190   2.761   4.864
    1C        C   99   4.094   2.655   4.864
    1C        C  100   4.202   2.846   4.975
    1C        C  101   2.819   2.727   2.070
    1C        C  102   2.991   2.592   2.188
    1C        C  103   2.875   2.677   2.188
    1C        C  104   3.062   2.570   2.309
    1C        C  105   2.998   2.608   2.430
    1C        C  106   3.199   2.534   2.549
    1C        C  107   3.067   2.585   2.551
    1C        C  108   3.271   2.521   2.670
    1C        C  109   3.206   2.551   2.791
    1C        C  110   3.411   2.496   2.914
    1C        C  111   3.274   2.530   2.913
    1C        C  112   3.481   2.493   3.037
    1C        C  113   3.413   2.502   3.160
    1C        C  114   3.626   2.495   3.276
    1C        C  115   3.485   2.488   3.281
    1C        C  116   3.694   2.504   3.399
    1C        C  117   3.624   2.493   3.521
    1C        C  118   3.830   2.540   3.645
    1C        C  119   3.693   2.507   3.644
    1C        C  120   3.896   2.564   3.768
    1C        C  121   3.831   2.543   3.891
    1C        C  122   4.022   2.636   4.012
    1C        C  123   3.899   2.566   4.012
    1C        C  124   4.084   2.674   4.133
    1C        C  125   4.024   2.634   4.255
    1C        C  126   4.192   2.765   4.374
    1C        C  127   4.085   2.672   4.376
    1C        C  128   4.234   2.821   4.496
    1C        C  129   4.190   2.768   4.620
    1C        C  130   4.319   2.934   4.737
    1C        C  131   4.242   2.814   4.743
    1C        C  132   4.352   2.997   4.859
    1C        C  133   4.286   2.957   4.976
    1C        C  134   3.171   2.472   2.079
    1C        C  135   3.036   2.508   2.081
    1C        C  136   3.259   2.476   2.187
    1C        C  137   3.193   2.515   2.306
    1C        C  138   3.403   2.479   2.424
    1C        C  139   3.263   2.501   2.428
    1C        C  140   3.476   2.480   2.545
    1C        C  141   3.410   2.493   2.669
    1C        C  142   3.621   2.491   2.789
    1C        C  143   3.480   2.486   2.791
    1C        C  144   3.694   2.496   2.910
    1C        C  145   3.622   2.494   3.032
    1C        C  146   3.832   2.533   3.154
    1C        C  147   3.695   2.500   3.153
    1C        C  148   3.898   2.560   3.276
    1C        C  149   3.832   2.537   3.399
    1C        C  150   4.025   2.622   3.520
    1C        C  151   3.898   2.560   3.522
    1C        C  152   4.081   2.662   3.643
    1C        C  153   4.022   2.628   3.767
    1C        C  154   4.187   2.764   3.885
    1C        C  155   4.078   2.675   3.888
    1C        C  156   4.244   2.811   4.006
    1C        C  157   4.195   2.763   4.129
    1C        C  158   4.334   2.922   4.252
    1C        C  159   4.245   2.813   4.252
    1C        C  160   4.372   2.985   4.373
    1C        C  161   4.325   2.930   4.494
    1C        C  162   4.431   3.114   4.616
    1C        C  163   4.362   2.990   4.616
    1C        C  164   4.462   3.181   4.736
    1C        C  165   4.428   3.116   4.857
    1C        C  166   4.502   3.318   4.970
    1C        C  167   4.475   3.182   4.971
    1C        C  168   3.473   2.429   2.069
    1C        C  169   3.399   2.454   2.185
    1C        C  170   3.616   2.457   2.303
    1C        C  171   3.474   2.460   2.304
    1C        C  172   3.690   2.479   2.422
    1C        C  173   3.618   2.483   2.543
    1C        C  174   3.824   2.536   2.664
    1C        C  175   3.688   2.499   2.665
    1C        C  176   3.891   2.562   2.786
    1C        C  177   3.830   2.535   2.910
    1C        C  178   4.025   2.619   3.031
    1C        C  179   3.899   2.556   3.032
    1C        C  180   4.088   2.656   3.152
    1C        C  181   4.023   2.625   3.274
    1C        C  182   4.193   2.749   3.395
    1C        C  183   4.083   2.660   3.397
    1C        C  184   4.243   2.799   3.517
    1C        C  185   4.191   2.750   3.639
    1C        C  186   4.332   2.912   3.763
    1C        C  187   4.238   2.806   3.760
    1C        C  188   4.378   2.970   3.883
    1C        C  189   4.332   2.922   4.007
    1C        C  190   4.437   3.105   4.126
    1C        C  191   4.374   2.979   4.129
    1C        C  192   4.465   3.173   4.247
    1C        C  193   4.438   3.110   4.371
    1C        C  194   4.504   3.312   4.489
    1C        C  195   4.458   3.178   4.493
    1C        C  196   4.519   3.385   4.608
    1C        C  197   4.501   3.318   4.731
    1C        C  198   4.552   3.529   4.847
    1C        C  199   4.524   3.389   4.852
    1C        C  200   4.578   3.617   4.958
    1C        C  201   3.613   2.415   2.070
    1C        C  202   3.825   2.508   2.181
    1C        C  203   3.690   2.460   2.182
    1C        C  204   3.895   2.542   2.300
    1C        C  205   3.824   2.524   2.421
    1C        C  206   4.019   2.613   2.541
    1C        C  207   3.890   2.556   2.541
    1C        C  208   4.077   2.659   2.661
    1C        C  209   4.020   2.621   2.784
    1C        C  210   4.192   2.743   2.904
    1C        C  211   4.081   2.655   2.907
    1C        C  212   4.248   2.792   3.024
    1C        C  213   4.196   2.748   3.148
    1C        C  214   4.327   2.911   3.268
    1C        C  215   4.242   2.798   3.272
    1C        C  216   4.362   2.969   3.392
    1C        C  217   4.330   2.910   3.517
    1C        C  218   4.429   3.096   3.637
    1C        C  219   4.369   2.969   3.639
    1C        C  220   4.456   3.164   3.758
    1C        C  221   4.438   3.098   3.882
    1C        C  222   4.494   3.306   4.001
    1C        C  223   4.462   3.168   4.002
    1C        C  224   4.512   3.378   4.121
    1C        C  225   4.502   3.309   4.244
    1C        C  226   4.521   3.521   4.366
    1C        C  227   4.511   3.380   4.366
    1C        C  228   4.525   3.598   4.484
    1C        C  229   4.534   3.526   4.606
    1C        C  230   4.503   3.738   4.724
    1C        C  231   4.540   3.601   4.725
    1C        C  232   4.494   3.816   4.841
    1C        C  233   4.548   3.753   4.954
    1C        C  234   4.015   2.608   2.063
    1C        C  235   3.889   2.548   2.063
    1C        C  236   4.083   2.644   2.180
    1C        C  237   4.022   2.606   2.301
    1C        C  238   4.198   2.734   2.415
    1C        C  239   4.085   2.648   2.420
    1C        C  240   4.248   2.785   2.536
    1C        C  241   4.188   2.747   2.658
    1C        C  242   4.334   2.900   2.783
    1C        C  243   4.239   2.795   2.781
    1C        C  244   4.379   2.959   2.903
    1C        C  245   4.337   2.901   3.024
    1C        C  246   4.437   3.091   3.148
    1C        C  247   4.371   2.965   3.145
    1C        C  248   4.457   3.158   3.270
    1C        C  249   4.426   3.095   3.393
    1C        C  250   4.490   3.299   3.513
    1C        C  251   4.451   3.163   3.514
    1C        C  252   4.505   3.370   3.634
    1C        C  253   4.498   3.299   3.756
    1C        C  254   4.525   3.511   3.875
    1C        C  255   4.510   3.371   3.877
    1C        C  256   4.520   3.586   3.995
    1C        C  257   4.520   3.519   4.119
    1C        C  258   4.489   3.728   4.238
    1C        C  259   4.515   3.589   4.242
    1C        C  260   4.476   3.802   4.358
    1C        C  261   4.491   3.735   4.481
    1C        C  262   4.429   3.939   4.599
    1C        C  263   4.475   3.805   4.603
    1C        C  264   4.400   4.008   4.719
    1C        C  265   4.437   3.945   4.840
    1C        C  266   4.310   4.122   4.955
    1C        C  267   4.398   4.014   4.956
    1C        C  268   4.265   2.772   2.060
    1C        C  269   4.197   2.728   2.174
    1C        C  270   4.345   2.888   2.295
    1C        C  271   4.253   2.779   2.293
    1C        C  272   4.381   2.950   2.417
    1C        C  273   4.338   2.894   2.539
    1C        C  274   4.445   3.079   2.658
    1C        C  275   4.377   2.955   2.660
    1C        C  276   4.467   3.149   2.778
    1C        C  277   4.442   3.086   2.902
    1C        C  278   4.504   3.288   3.023
    1C        C  279   4.467   3.152   3.024
    1C        C  280   4.507   3.363   3.143
    1C        C  281   4.490   3.295   3.266
    1C        C  282   4.509   3.505   3.388
    1C        C  283   4.504   3.364   3.388
    1C        C  284   4.509   3.580   3.508
    1C        C  285   4.510   3.511   3.631
    1C        C  286   4.491   3.721   3.750
    1C        C  287   4.516   3.583   3.753
    1C        C  288   4.473   3.791   3.872
    1C        C  289   4.491   3.724   3.995
    1C        C  290   4.428   3.930   4.111
    1C        C  291   4.474   3.796   4.116
    1C        C  292   4.397   3.995   4.233
    1C        C  293   4.426   3.934   4.357
    1C        C  294   4.327   4.124   4.475
    1C        C  295   4.400   4.003   4.477
    1C        C  296   4.283   4.184   4.595
    1C        C  297   4.323   4.128   4.717
    1C        C  298   4.200   4.310   4.834
    1C        C  299   4.280   4.191   4.837
    1C        C  300   4.169   4.399   4.942
    1C        C  301   4.351   2.881   2.055
    1C        C  302   4.468   3.065   2.174
    1C        C  303   4.393   2.944   2.173
    1C        C  304   4.483   3.140   2.294
    1C        C  305   4.448   3.074   2.414
    1C        C  306   4.500   3.282   2.533
    1C        C  307   4.472   3.144   2.535
    1C        C  308   4.513   3.355   2.653
    1C        C  309   4.495   3.288   2.776
    1C        C  310   4.520   3.497   2.896
    1C        C  311   4.510   3.356   2.899
    1C        C  312   4.514   3.570   3.016
    1C        C  313   4.511   3.504   3.142
    1C        C  314   4.478   3.712   3.262
    1C        C  315   4.507   3.574   3.264
    1C        C  316   4.468   3.785   3.382
    1C        C  317   4.493   3.720   3.505
    1C        C  318   4.426   3.922   3.625
    1C        C  319   4.474   3.789   3.627
    1C        C  320   4.394   3.987   3.746
    1C        C  321   4.424   3.923   3.868
    1C        C  322   4.315   4.108   3.988
    1C        C  323   4.391   3.989   3.989
    1C        C  324   4.272   4.165   4.110
    1C        C  325   4.318   4.112   4.232
    1C        C  326   4.181   4.277   4.350
    1C        C  327   4.281   4.177   4.352
    1C        C  328   4.132   4.333   4.470
    1C        C  329   4.185   4.286   4.592
    1C        C  330   4.019   4.426   4.710
    1C        C  331   4.134   4.341   4.712
    1C        C  332   3.963   4.481   4.827
    1C        C  333   4.049   4.472   4.937
    1C        C  334   4.549   3.262   2.058
    1C        C  335   4.530   3.124   2.059
    1C        C  336   4.532   3.347   2.168
    1C        C  337   4.514   3.278   2.290
    1C        C  338   4.521   3.493   2.410
    1C        C  339   4.516   3.352   2.411
    1C        C  340   4.510   3.566   2.530
    1C        C  341   4.514   3.496   2.653
    1C        C  342   4.495   3.709   2.771
    1C        C  343   4.513   3.569   2.775
    1C        C  344   4.476   3.777   2.893
    1C        C  345   4.493   3.709   3.016
    1C        C  346   4.421   3.911   3.132
    1C        C  347   4.470   3.779   3.137
    1C        C  348   4.387   3.977   3.253
    1C        C  349   4.415   3.916   3.377
    1C        C  350   4.317   4.099   3.500
    1C        C  351   4.394   3.981   3.501
    1C        C  352   4.275   4.161   3.619
    1C        C  353   4.318   4.107   3.742
    1C        C  354   4.175   4.265   3.864
    1C        C  355   4.270   4.160   3.864
    1C        C  356   4.118   4.309   3.985
    1C        C  357   4.170   4.263   4.108
    1C        C  358   4.005   4.396   4.226
    1C        C  359   4.124   4.320   4.228
    1C        C  360   3.947   4.439   4.348
    1C        C  361   4.014   4.412   4.468
    1C        C  362   3.823   4.508   4.590
    1C        C  363   3.953   4.454   4.588
    1C        C  364   3.757   4.547   4.709
    1C        C  365   3.833   4.537   4.828
    1C        C  366   3.623   4.595   4.947
    1C        C  367   3.759   4.568   4.943
    1C        C  368   4.502   3.562   2.050
    1C        C  369   4.524   3.488   2.166
    1C        C  370   4.503   3.702   2.283
    1C        C  371   4.520   3.562   2.286
    1C        C  372   4.481   3.773   2.403
    1C        C  373   4.490   3.705   2.527
    1C        C  374   4.432   3.909   2.646
    1C        C  375   4.485   3.778   2.648
    1C        C  376   4.395   3.971   2.767
    1C        C  377   4.428   3.910   2.889
    1C        C  378   4.318   4.095   3.011
    1C        C  379   4.394   3.975   3.010
    1C        C  380   4.269   4.150   3.132
    1C        C  381   4.312   4.096   3.255
    1C        C  382   4.170   4.253   3.374
    1C        C  383   4.269   4.152   3.378
    1C        C  384   4.118   4.303   3.496
    1C        C  385   4.173   4.258   3.619
    1C        C  386   4.000   4.382   3.739
    1C        C  387   4.119   4.305   3.741
    1C        C  388   3.940   4.426   3.859
    1C        C  389   4.003   4.392   3.981
    1C        C  390   3.810   4.477   4.104
    1C        C  391   3.943   4.427   4.103
    1C        C  392   3.746   4.506   4.226
    1C        C  393   3.818   4.498   4.347
    1C        C  394   3.614   4.553   4.470
    1C        C  395   3.752   4.523   4.469
    1C        C  396   3.542   4.562   4.591
    1C        C  397   3.617   4.560   4.711
    1C        C  398   3.406   4.554   4.835
    1C        C  399   3.546   4.575   4.832
    1C        C  400   3.338   4.515   4.951
    1C        C  401   4.498   3.701   2.048
    1C        C  402   4.450   3.913   2.163
    1C        C  403   4.487   3.777   2.165
    1C        C  404   4.410   3.976   2.283
    1C        C  405   4.428   3.904   2.403
    1C        C  406   4.324   4.092   2.524
    1C        C  407   4.399   3.972   2.524
    1C        C  408   4.274   4.145   2.644
    1C        C  409   4.316   4.088   2.767
    1C        C  410   4.176   4.249   2.883
    1C        C  411   4.276   4.149   2.888
    1C        C  412   4.122   4.296   3.005
    1C        C  413   4.174   4.254   3.129
    1C        C  414   3.997   4.372   3.248
    1C        C  415   4.117   4.298   3.251
    1C        C  416   3.935   4.404   3.371
    1C        C  417   3.998   4.376   3.495
    1C        C  418   3.805   4.465   3.615
    1C        C  419   3.934   4.408   3.617
    1C        C  420   3.742   4.499   3.737
    1C        C  421   3.810   4.482   3.859
    1C        C  422   3.606   4.535   3.982
    1C        C  423   3.744   4.504   3.982
    1C        C  424   3.538   4.546   4.105
    1C        C  425   3.608   4.536   4.227
    1C        C  426   3.398   4.549   4.354
    1C        C  427   3.539   4.554   4.350
    1C        C  428   3.328   4.549   4.476
    1C        C  429   3.400   4.562   4.597
    1C        C  430   3.188   4.521   4.718
    1C        C  431   3.328   4.547   4.717
    1C        C  432   3.123   4.496   4.842
    1C        C  433   3.202   4.484   4.956
    1C        C  434   4.383   4.120   2.050
    1C        C  435   4.446   3.995   2.049
    1C        C  436   4.301   4.164   2.159
    1C        C  437   4.331   4.094   2.279
    1C        C  438   4.173   4.237   2.399
    1C        C  439   4.280   4.145   2.401
    1C        C  440   4.118   4.287   2.519
    1C        C  441   4.170   4.241   2.642
    1C        C  442   4.004   4.376   2.763
    1C        C  443   4.116   4.291   2.762
    1C        C  444   3.940   4.410   2.885
    1C        C  445   4.000   4.367   3.005
    1C        C  446   3.806   4.461   3.128
    1C        C  447   3.935   4.404   3.125
    1C        C  448   3.739   4.484   3.250
    1C        C  449   3.807   4.464   3.372
    1C        C  450   3.601   4.522   3.491
    1C        C  451   3.739   4.491   3.493
    1C        C  452   3.535   4.535   3.615
    1C        C  453   3.604   4.529   3.739
    1C        C  454   3.394   4.543   3.863
    1C        C  455   3.535   4.548   3.860
    1C        C  456   3.328   4.529   3.987
    1C        C  457   3.397   4.542   4.109
    1C        C  458   3.190   4.504   4.234
    1C        C  459   3.328   4.535   4.232
    1C        C  460   3.122   4.490   4.357
    1C        C  461   3.189   4.522   4.477
    1C        C  462   2.994   4.432   4.599
    1C        C  463   3.119   4.496   4.597
    1C        C  464   2.933   4.395   4.722
    1C        C  465   2.993   4.436   4.844
    1C        C  466   2.796   4.334   4.953
    1C        C  467   2.902   4.426   4.954
    1C        C  468   4.123   4.284   2.039
    1C        C  469   4.190   4.254   2.158
    1C        C  470   4.005   4.369   2.275
    1C        C  471   4.125   4.294   2.278
    1C        C  472   3.941   4.402   2.397
    1C        C  473   4.003   4.369   2.519
    1C        C  474   3.813   4.466   2.641
    1C        C  475   3.942   4.409   2.640
    1C        C  476   3.741   4.488   2.761
    1C        C  477   3.810   4.466   2.882
    1C        C  478   3.605   4.516   3.007
    1C        C  479   3.743   4.488   3.004
    1C        C  480   3.532   4.528   3.127
    1C        C  481   3.601   4.517   3.250
    1C        C  482   3.388   4.535   3.374
    1C        C  483   3.529   4.529   3.370
    1C        C  484   3.321   4.530   3.498
    1C        C  485   3.394   4.538   3.619
    1C        C  486   3.186   4.497   3.741
    1C        C  487   3.323   4.532   3.741
    1C        C  488   3.125   4.471   3.866
    1C        C  489   3.191   4.493   3.989
    1C        C  490   2.996   4.416   4.112
    1C        C  491   3.124   4.477   4.112
    1C        C  492   2.940   4.381   4.236
    1C        C  493   2.997   4.426   4.358
    1C        C  494   2.832   4.291   4.478
    1C        C  495   2.934   4.388   4.479
    1C        C  496   2.779   4.246   4.601
    1C        C  497   2.820   4.308   4.720
    1C        C  498   2.660   4.162   4.842
    1C        C  499   2.751   4.269   4.837
    1C        C  500   2.589   4.113   4.953
    1C        C  501   3.999   4.347   2.038
    1C        C  502   3.814   4.462   2.156
    1C        C  503   3.941   4.402   2.153
    1C        C  504   3.743   4.479   2.277
    1C        C  505   3.810   4.455   2.399
    1C        C  506   3.603   4.507   2.519
    1C        C  507   3.743   4.484   2.520
    1C        C  508   3.531   4.520   2.640
    1C        C  509   3.602   4.514   2.761
    1C        C  510   3.393   4.529   2.884
    1C        C  511   3.534   4.521   2.885
    1C        C  512   3.320   4.527   3.005
    1C        C  513   3.390   4.534   3.127
    1C        C  514   3.184   4.492   3.252
    1C        C  515   3.320   4.529   3.250
    1C        C  516   3.117   4.474   3.375
    1C        C  517   3.182   4.502   3.497
    1C        C  518   2.992   4.413   3.622
    1C        C  519   3.116   4.480   3.620
    1C        C  520   2.937   4.374   3.746
    1C        C  521   2.996   4.414   3.868
    1C        C  522   2.832   4.281   3.993
    1C        C  523   2.934   4.378   3.990
    1C        C  524   2.782   4.236   4.117
    1C        C  525   2.831   4.292   4.237
    1C        C  526   2.695   4.126   4.362
    1C        C  527   2.777   4.241   4.358
    1C        C  528   2.652   4.070   4.485
    1C        C  529   2.685   4.140   4.603
    1C        C  530   2.581   3.957   4.728
    1C        C  531   2.638   4.087   4.725
    1C        C  532   2.539   3.898   4.850
    1C        C  533   2.519   3.992   4.957
    1C        C  534   3.618   4.558   2.041
    1C        C  535   3.751   4.512   2.042
    1C        C  536   3.535   4.536   2.155
    1C        C  537   3.604   4.507   2.276
    1C        C  538   3.391   4.513   2.400
    1C        C  539   3.532   4.513   2.398
    1C        C  540   3.319   4.507   2.522
    1C        C  541   3.390   4.518   2.643
    1C        C  542   3.181   4.486   2.762
    1C        C  543   3.318   4.520   2.765
    1C        C  544   3.118   4.460   2.886
    1C        C  545   3.183   4.491   3.008
    1C        C  546   2.990   4.405   3.132
    1C        C  547   3.116   4.467   3.130
    1C        C  548   2.932   4.368   3.256
    1C        C  549   2.991   4.409   3.377
    1C        C  550   2.823   4.283   3.502
    1C        C  551   2.933   4.372   3.500
    1C        C  552   2.775   4.231   3.624
    1C        C  553   2.829   4.282   3.744
    1C        C  554   2.702   4.118   3.871
    1C        C  555   2.788   4.230   3.869
    1C        C  556   2.665   4.060   3.994
    1C        C  557   2.699   4.122   4.117
    1C        C  558   2.598   3.937   4.242
    1C        C  559   2.662   4.063   4.240
    1C        C  560   2.564   3.875   4.364
    1C        C  561   2.587   3.945   4.484
    1C        C  562   2.527   3.746   4.614
    1C        C  563   2.559   3.884   4.609
    1C        C  564   2.513   3.677   4.736
    1C        C  565   2.522   3.756   4.854
    1C        C  566   2.531   3.539   4.978
    1C        C  567   2.522   3.678   4.970
    1C        C  568   3.323   4.474   2.041
    1C        C  569   3.395   4.510   2.156
    1C        C  570   3.184   4.473   2.279
    1C        C  571   3.321   4.511   2.277
    1C        C  572   3.112   4.452   2.399
    1C        C  573   3.179   4.483   2.519
    1C        C  574   2.984   4.403   2.646
    1C        C  575   3.110   4.466   2.641
    1C        C  576   2.926   4.363   2.768
    1C        C  577   2.989   4.402   2.889
    1C        C  578   2.820   4.275   3.013
    1C        C  579   2.928   4.366   3.011
    1C        C  580   2.776   4.222   3.136
    1C        C  581   2.827   4.273   3.258
    1C        C  582   2.698   4.108   3.381
    1C        C  583   2.780   4.224   3.382
    1C        C  584   2.662   4.050   3.504
    1C        C  585   2.696   4.114   3.626
    1C        C  586   2.599   3.930   3.752
    1C        C  587   2.658   4.059   3.750
    1C        C  588   2.578   3.866   3.876
    1C        C  589   2.608   3.931   3.998
    1C        C  590   2.534   3.733   4.123
    1C        C  591   2.578   3.868   4.121
    1C        C  592   2.518   3.667   4.247
    1C        C  593   2.531   3.738   4.368
    1C        C  594   2.503   3.533   4.495
    1C        C  595   2.514   3.674   4.493
    1C        C  596   2.507   3.463   4.617
    1C        C  597   2.513   3.535   4.738
    1C        C  598   2.526   3.323   4.859
    1C        C  599   2.521   3.464   4.860
    1C        C  600   2.521   3.245   4.975
    1C        C  601   3.188   4.446   2.042
    1C        C  602   2.980   4.390   2.158
    1C        C  603   3.112   4.443   2.160
    1C        C  604   2.922   4.351   2.283
    1C        C  605   2.983   4.395   2.402
    1C        C  606   2.818   4.266   2.528
    1C        C  607   2.923   4.361   2.525
    1C        C  608   2.772   4.215   2.651
    1C        C  609   2.822   4.268   2.772
    1C        C  610   2.687   4.104   2.894
    1C        C  611   2.769   4.220   2.894
    1C        C  612   2.649   4.047   3.017
    1C        C  613   2.688   4.111   3.137
    1C        C  614   2.591   3.924   3.264
    1C        C  615   2.653   4.051   3.260
    1C        C  616   2.568   3.859   3.387
    1C        C  617   2.601   3.923   3.508
    1C        C  618   2.534   3.725   3.634
    1C        C  619   2.576   3.860   3.632
    1C        C  620   2.521   3.658   3.758
    1C        C  621   2.533   3.732   3.878
    1C        C  622   2.505   3.523   4.004
    1C        C  623   2.520   3.664   4.001
    1C        C  624   2.507   3.455   4.128
    1C        C  625   2.509   3.526   4.250
    1C        C  626   2.528   3.320   4.377
    1C        C  627   2.505   3.459   4.375
    1C        C  628   2.550   3.251   4.499
    1C        C  629   2.529   3.323   4.618
    1C        C  630   2.588   3.116   4.740
    1C        C  631   2.544   3.251   4.739
    1C        C  632   2.615   3.049   4.862
    1C        C  633   2.550   3.108   4.975
    1C        C  634   2.777   4.302   2.052
    1C        C  635   2.885   4.391   2.051
    1C        C  636   2.743   4.228   2.166
    1C        C  637   2.805   4.271   2.285
    1C        C  638   2.676   4.104   2.407
    1C        C  639   2.763   4.216   2.408
    1C        C  640   2.640   4.043   2.529
    1C        C  641   2.682   4.106   2.648
    1C        C  642   2.585   3.919   2.774
    1C        C  643   2.647   4.047   2.771
    1C        C  644   2.556   3.855   2.896
    1C        C  645   2.585   3.921   3.018
    1C        C  646   2.527   3.721   3.146
    1C        C  647   2.564   3.857   3.142
    1C        C  648   2.516   3.650   3.268
    1C        C  649   2.533   3.722   3.388
    1C        C  650   2.508   3.514   3.514
    1C        C  651   2.520   3.655   3.512
    1C        C  652   2.512   3.446   3.638
    1C        C  653   2.511   3.518   3.760
    1C        C  654   2.530   3.311   3.887
    1C        C  655   2.505   3.450   3.884
    1C        C  656   2.545   3.244   4.011
    1C        C  657   2.531   3.316   4.132
    1C        C  658   2.600   3.120   4.254
    1C        C  659   2.543   3.249   4.256
    1C        C  660   2.633   3.057   4.376
    1C        C  661   2.597   3.117   4.499
    1C        C  662   2.707   2.936   4.620
    1C        C  663   2.626   3.051   4.620
    1C        C  664   2.743   2.875   4.742
    1C        C  665   2.693   2.928   4.864
    1C        C  666   2.732   2.858   4.978
    1C        C  667   2.675   4.021   2.053
    1C        C  668   2.676   4.103   2.166
    1C        C  669   2.584   3.909   2.286
    1C        C  670   2.639   4.040   2.287
    1C        C  671   2.557   3.845   2.409
    1C        C  672   2.577   3.916   2.530
    1C        C  673   2.520   3.715   2.656
    1C        C  674   2.557   3.851   2.653
    1C        C  675   2.507   3.645   2.778
    1C        C  676   2.523   3.718   2.899
    1C        C  677   2.496   3.512   3.025
    1C        C  678   2.511   3.652   3.023
    1C        C  679   2.498   3.440   3.146
    1C        C  680   2.504   3.509   3.269
    1C        C  681   2.530   3.301   3.395
    1C        C  682   2.506   3.441   3.393
    1C        C  683   2.547   3.237   3.520
    1C        C  684   2.526   3.306   3.642
    1C        C  685   2.604   3.111   3.766
    1C        C  686   2.547   3.240   3.766
    1C        C  687   2.631   3.048   3.890
    1C        C  688   2.596   3.112   4.011
    1C        C  689   2.708   2.934   4.137
    1C        C  690   2.629   3.051   4.134
    1C        C  691   2.752   2.876   4.258
    1C        C  692   2.704   2.935   4.378
    1C        C  693   2.750   2.877   4.498
    1C        C  694   2.625   3.890   2.050
    1C        C  695   2.523   3.702   2.170
    1C        C  696   2.573   3.834   2.167
    1C        C  697   2.502   3.636   2.293
    1C        C  698   2.520   3.709   2.413
    1C        C  699   2.486   3.502   2.541
    1C        C  700   2.504   3.642   2.536
    1C        C  701   2.496   3.431   2.663
    1C        C  702   2.498   3.504   2.784
    1C        C  703   2.510   3.294   2.907
    1C        C  704   2.492   3.434   2.907
    1C        C  705   2.530   3.228   3.030
    1C        C  706   2.512   3.299   3.151
    1C        C  707   2.577   3.096   3.275
    1C        C  708   2.535   3.231   3.273
    1C        C  709   2.620   3.038   3.397
    1C        C  710   2.601   3.107   3.519
    1C        C  711   2.708   2.928   3.646
    1C        C  712   2.631   3.047   3.643
    1C        C  713   2.756   2.875   3.768
    1C        C  714   2.714   2.934   3.889
    1C        C  715   2.754   2.880   4.014
    1C        C  716   2.445   3.496   2.059
    1C        C  717   2.495   3.626   2.056
    1C        C  718   2.459   3.419   2.179
    1C        C  719   2.482   3.495   2.297
    1C        C  720   2.511   3.288   2.421
    1C        C  721   2.487   3.427   2.421
    1C        C  722   2.538   3.221   2.543
    1C        C  723   2.516   3.292   2.663
    1C        C  724   2.588   3.095   2.789
    1C        C  725   2.532   3.224   2.786
    1C        C  726   2.620   3.033   2.912
    1C        C  727   2.587   3.098   3.033
    1C        C  728   2.698   2.918   3.155
    1C        C  729   2.615   3.032   3.155
    1C        C  730   2.746   2.867   3.278
    1C        C  731   2.707   2.927   3.400
    1C        C  732   2.754   2.875   3.523
    1C        C  733   2.489   3.197   2.068
    1C        C  734   2.483   3.278   2.183
    1C        C  735   2.578   3.081   2.306
    1C        C  736   2.520   3.211   2.303
    1C        C  737   2.609   3.016   2.427
    1C        C  738   2.588   3.089   2.546
    1C        C  739   2.692   2.907   2.667
    1C        C  740   2.616   3.026   2.669
    1C        C  741   2.737   2.853   2.791
    1C        C  742   2.699   2.916   2.911
    1C        C  743   2.745   2.863   3.034
    1C        C  744   2.544   3.070   2.072
    1C        C  745   2.682   2.895   2.184
    1C        C  746   2.601   3.010   2.186
    1C        C  747   2.725   2.837   2.305
    1C        C  748   2.680   2.894   2.426
    1C        C  749   2.733   2.844   2.547
    1C        C  750   2.735   2.837   2.068
    1C        C  751   3.656   2.298   1.990
    1C        O  752   3.710   2.193   2.036
    1C        O  753   3.701   2.334   1.863
    1C        C  754   4.619   3.037   1.978
    1C        O  755   4.593   2.991   1.864
    1C        O  756   4.747   3.011   2.028
    1C        C  757   4.479   4.213   1.987
    1C        O  758   4.557   4.277   2.062
    1C        O  759   4.519   4.210   1.853
    1C        C  760   3.595   4.676   1.954
    1C        O  761   3.642   4.791   1.976
    1C        O  762   3.568   4.656   1.818
    1C        C  763   2.872   4.508   1.961
    1C        O  764   2.871   4.479   1.838
    1C        O  765   2.785   4.613   1.989
    1C        C  766   2.330   3.483   1.968
    1C        O  767   2.356   3.458   1.847
    1C        O  768   2.192   3.487   1.994
    1C        C  769   4.680   3.584   5.061
    1C        O  770   4.674   3.635   5.176
    1C        O  771   4.806   3.542   5.017
    1C        C  772   4.289   4.457   5.007
    1C        O  773   4.336   4.412   5.115
    1C        O  774   4.360   4.566   4.957
    1C        C  775   4.125   2.534   5.093
    1C        O  776   4.234   2.472   5.076
    1C        O  777   4.116   2.606   5.213
    1C        C  778   2.887   4.551   5.032
    1C        O  779   2.808   4.647   5.009
    1C        O  780   2.938   4.564   5.162
    1C        C  781   2.461   3.032   5.065
    1C        O  782   2.337   3.025   5.043
    1C        O  783   2.490   3.034   5.201
    1C        C  784   2.396   3.986   5.040
    1C        O  785   2.284   3.954   4.994
    1C        O  786   2.382   4.005   5.178
    1C        C  787   2.942   2.428   2.000
    1C        O  788   2.917   2.446   1.878
    1C        O  789   2.895   2.305   2.046
    1C        C  790   3.160   2.355   5.037
    1C        O  791   3.137   2.246   4.978
    1C        O  792   3.197   2.334   5.170
    1C        H  793   4.261   3.033   5.047
    1C        H  794   4.114   2.847   5.037
    1C        H  795   4.516   3.127   5.053
    1C        H  796   4.481   3.369   5.062
    1C        H  797   4.604   3.812   5.024
    1C        H  798   4.467   4.004   5.038
    1C        H  799   4.231   4.108   5.026
    1C        H  800   4.013   4.510   5.031
    1C        H  801   3.815   4.608   5.025
    1C        H  802   3.598   4.679   5.008
    1C        H  803   3.389   4.519   5.045
    1C        H  804   3.170   4.438   5.047
    1C        H  805   3.855   2.570   5.057
    1C        H  806   3.674   2.444   5.066
    1C        H  807   3.012   2.577   5.068
    1C        H  808   3.434   2.507   5.072
    1C        H  809   2.859   2.717   5.070
    1C        H  810   2.671   2.864   5.066
    1C        H  811   2.505   3.296   5.068
    1C        H  812   2.587   3.496   5.058
    1C        H  813   2.520   3.732   5.063
    1C        H  814   2.585   4.172   5.042
    1C        H  815   2.738   4.334   5.043
    1C        H  816   2.730   2.890   1.975
    1C        H  817   2.819   2.658   1.988
    1C        H  818   3.207   2.432   1.986
    1C        H  819   3.423   2.441   1.975
    1C        H  820   3.866   2.501   1.970
    1C        H  821   4.074   2.585   1.976
    1C        H  822   4.260   2.712   1.972
    1C        H  823   4.356   2.932   1.961
    1C        H  824   4.619   3.296   1.984
    1C        H  825   4.437   3.515   1.978
    1C        H  826   4.569   3.747   1.981
    1C        H  827   3.819   4.553   1.970
    1C        H  828   3.940   4.327   1.951
    1C        H  829   4.131   4.218   1.955
    1C        H  830   4.501   3.966   1.962
    1C        H  831   2.675   3.825   1.981
    1C        H  832   2.755   4.039   1.984
    1C        H  833   2.690   4.320   1.993
    1C        H  834   3.364   4.492   1.944
    1C        H  835   3.137   4.477   1.953
    1C        H  836   2.523   3.009   1.986
    1C        H  837   2.475   3.239   1.970
    1C        H  838   2.542   3.648   1.962
    2V3OU   H29  839   2.799   3.546   2.794
    2V3OU   C27  840   2.786   3.500   2.895
    2V3OU   H27  841   2.726   3.572   2.956
    2V3OU   H28  842   2.732   3.403   2.884
    2V3OU   O11  843   2.910   3.473   2.961
    2V3OU   C15  844   2.925   3.393   3.072
    2V3OU   C13  845   3.050   3.372   3.134
    2V3OU   C14  846   3.079   3.270   3.225
    2V3OU   C16  847   2.976   3.190   3.272
    2V3OU    H6  848   2.990   3.102   3.337
    2V3OU   C12  849   3.214   3.226   3.268
    2V3OU    O2  850   3.237   3.125   3.337
    2V3OU   C10  851   3.324   3.309   3.217
    2V3OU    C8  852   3.455   3.271   3.245
    2V3OU   O10  853   3.487   3.151   3.300
    2V3OU   H26  854   3.404   3.114   3.333
    2V3OU    C6  855   3.561   3.350   3.191
    2V3OU    C5  856   3.534   3.464   3.116
    2V3OU    C4  857   3.699   3.294   3.193
    2V3OU    H4  858   3.715   3.226   3.282
    2V3OU    H5  859   3.707   3.224   3.104
    2V3OU    C2  860   3.813   3.396   3.182
    2V3OU    O6  861   3.801   3.470   3.304
    2V3OU   H21  862   3.760   3.555   3.283
    2V3OU    C3  863   3.784   3.489   3.065
    2V3OU    H2  864   3.861   3.570   3.055
    2V3OU    H3  865   3.784   3.433   2.967
    2V3OU   C25  866   3.947   3.323   3.164
    2V3OU    O7  867   3.991   3.287   3.055
    2V3OU   C26  868   4.025   3.285   3.288
    2V3OU   H22  869   4.063   3.383   3.328
    2V3OU   H23  870   4.114   3.222   3.260
    2V3OU    O8  871   3.960   3.207   3.386
    2V3OU   H24  872   3.928   3.264   3.459
    2V3OU    C1  873   3.649   3.555   3.086
    2V3OU    H1  874   3.623   3.608   2.989
    2V3OU    O3  875   3.659   3.655   3.187
    2V3OU   C19  876   3.616   3.791   3.178
    2V3OU    H9  877   3.526   3.803   3.111
    2V3OU    O4  878   3.717   3.846   3.097
    2V3OU   C20  879   3.843   3.871   3.160
    2V3OU   H10  880   3.899   3.774   3.176
    2V3OU   C24  881   3.607   3.852   3.318
    2V3OU   H16  882   3.541   3.788   3.382
    2V3OU   H17  883   3.558   3.951   3.305
    2V3OU   C23  884   3.744   3.876   3.382
    2V3OU   H15  885   3.791   3.773   3.400
    2V3OU    N1  886   3.731   3.951   3.506
    2V3OU   H19  887   3.800   3.921   3.572
    2V3OU   H20  888   3.636   3.938   3.535
    2V3OU   C21  889   3.849   3.948   3.292
    2V3OU   H11  890   3.952   3.920   3.329
    2V3OU    O5  891   3.829   4.089   3.296
    2V3OU   H18  892   3.772   4.097   3.374
    2V3OU   C22  893   3.913   3.949   3.050
    2V3OU   H12  894   3.859   4.044   3.027
    2V3OU   H13  895   3.908   3.891   2.955
    2V3OU   H14  896   4.022   3.964   3.071
    2V3OU   C11  897   3.155   3.473   3.121
    2V3OU    O1  898   3.127   3.587   3.078
    2V3OU    C9  899   3.294   3.426   3.142
    2V3OU    C7  900   3.398   3.506   3.096
    2V3OU    O9  901   3.388   3.615   3.012
    2V3OU   H25  902   3.293   3.636   3.014
    2V3OU   C17  903   2.823   3.308   3.121
    2V3OU    H7  904   2.728   3.339   3.077
    2V3OU   C18  905   2.849   3.214   3.220
    2V3OU    H8  906   2.780   3.168   3.293
    3SOL     OW  907   2.582   5.416   6.350
    3SOL    HW1  908   2.573   5.344   6.419
    3SOL    HW2  909   2.601   5.503   6.395
    4SOL     OW  910   6.847   0.923   1.179
    4SOL    HW1  911   6.772   0.860   1.159
    4SOL    HW2  912   6.828   0.970   1.266
    5SOL     OW  913   4.240   2.301   2.306
    5SOL    HW1  914   4.228   2.301   2.207
    5SOL    HW2  915   4.289   2.384   2.333
    6SOL     OW  916   4.367   1.485   1.506
    6SOL    HW1  917   4.379   1.584   1.519
    6SOL    HW2  918   4.446   1.448   1.458
    7SOL     OW  919   0.700   4.019   3.824
    7SOL    HW1  920   0.686   3.932   3.776
    7SOL    HW2  921   0.780   4.065   3.786
    8SOL     OW  922   2.895   1.561   5.657
    8SOL    HW1  923   2.804   1.553   5.617
    8SOL    HW2  924   2.958   1.500   5.609
    9SOL     OW  925   4.607   1.329   5.649
    9SOL    HW1  926   4.600   1.420   5.692
    9SOL    HW2  927   4.597   1.259   5.720
   10SOL     OW  928   1.963   5.348   4.743
   10SOL    HW1  929   2.036   5.280   4.739
   10SOL    HW2  930   1.936   5.363   4.838
   11SOL     OW  931   2.408   0.763   5.771
   11SOL    HW1  932   2.383   0.859   5.762
   11SOL    HW2  933   2.450   0.731   5.685
   12SOL     OW  934   2.954   5.151   3.680
   12SOL    HW1  935   2.890   5.114   3.613
   12SOL    HW2  936   3.018   5.213   3.634
   13SOL     OW  937   3.285   6.615   4.291
   13SOL    HW1  938   3.259   6.534   4.238
   13SOL    HW2  939   3.318   6.587   4.381
   14SOL     OW  940   3.975   5.613   6.245
   14SOL    HW1  941   4.012   5.669   6.171
   14SOL    HW2  942   3.969   5.668   6.328
   15SOL     OW  943   0.740   6.843   0.851
   15SOL    HW1  944   0.783   6.782   0.785
   15SOL    HW2  945   0.779   6.827   0.942
   16SOL     OW  946   5.414   2.952   6.262
   16SOL    HW1  947   5.366   3.040   6.256
   16SOL    HW2  948   5.372   2.887   6.198
   17SOL     OW  949   6.179   5.738   6.851
   17SOL    HW1  950   6.260   5.719   6.905
   17SOL    HW2  951   6.133   5.820   6.885
   18SOL     OW  952   2.748   0.989   5.533
   18SOL    HW1  953   2.830   0.992   5.475
   18SOL    HW2  954   2.740   1.076   5.583
   19SOL     OW  955   0.423   2.151   3.147
   19SOL    HW1  956   0.419   2.161   3.048
   19SOL    HW2  957   0.511   2.185   3.180
   20SOL     OW  958   4.561   1.642   4.807
   20SOL    HW1  959   4.473   1.605   4.780
   20SOL    HW2  960   4.548   1.731   4.850
   21SOL     OW  961   2.805   1.061   2.217
   21SOL    HW1  962   2.710   1.067   2.186
   21SOL    HW2  963   2.807   1.040   2.315
   22SOL     OW  964   1.403   6.297   6.871
   22SOL    HW1  965   1.387   6.201   6.851
   22SOL    HW2  966   1.325   6.351   6.840
   23SOL     OW  967   4.529   5.384   2.459
   23SOL    HW1  968   4.568   5.434   2.536
   23SOL    HW2  969   4.528   5.286   2.480
   24SOL     OW  970   3.317   0.585   2.615
   24SOL    HW1  971   3.255   0.617   2.544
   24SOL    HW2  972   3.315   0.485   2.618
   25SOL     OW  973   3.663   7.009   3.644
   25SOL    HW1  974   3.645   0.074   3.591
   25SOL    HW2  975   3.631   6.929   3.593
   26SOL     OW  976   6.657   1.510   0.494
   26SOL    HW1  977   6.562   1.542   0.499
   26SOL    HW2  978   6.718   1.588   0.482
   27SOL     OW  979   1.916   1.310   2.241
   27SOL    HW1  980   2.013   1.327   2.259
   27SOL    HW2  981   1.868   1.294   2.327
   28SOL     OW  982   1.692   7.004   4.964
   28SOL    HW1  983   1.745   6.930   5.005
   28SOL    HW2  984   1.640   6.970   4.886
   29SOL     OW  985   6.442   2.059   1.760
   29SOL    HW1  986   6.489   2.109   1.832
   29SOL    HW2  987   6.509   2.004   1.709
   30SOL     OW  988   4.417   0.223   3.377
   30SOL    HW1  989   4.484   0.263   3.313
   30SOL    HW2  990   4.457   0.142   3.420
   31SOL     OW  991   0.348   2.542   6.820
   31SOL    HW1  992   0.273   2.571   6.760
   31SOL    HW2  993   0.367   2.445   6.804
   32SOL     OW  994   0.661   1.846   3.188
   32SOL    HW1  995   0.686   1.927   3.135
   32SOL    HW2  996   0.568   1.818   3.162
   33SOL     OW  997   1.672   4.368   5.116
   33SOL    HW1  998   1.653   4.350   5.213
   33SOL    HW2  999   1.598   4.421   5.077
   34SOL     OW 1000   2.530   6.570   4.905
   34SOL    HW1 1001   2.547   6.655   4.855
   34SOL    HW2 1002   2.587   6.567   4.987
   35SOL     OW 1003   4.644   2.909   6.096
   35SOL    HW1 1004   4.583   2.845   6.049
   35SOL    HW2 1005   4.690   2.862   6.171
   36SOL     OW 1006   4.871   1.862   4.223
   36SOL    HW1 1007   4.782   1.869   4.177
   36SOL    HW2 1008   4.906   1.768   4.212
   37SOL     OW 1009   1.764   1.461   5.747
   37SOL    HW1 1010   1.671   1.474   5.779
   37SOL    HW2 1011   1.778   1.514   5.663
   38SOL     OW 1012   1.049   5.313   2.216
   38SOL    HW1 1013   1.121   5.279   2.155
   38SOL    HW2 1014   1.020   5.239   2.277
   39SOL     OW 1015   6.253   4.071   6.312
   39SOL    HW1 1016   6.190   4.149   6.319
   39SOL    HW2 1017   6.272   4.035   6.404
   40SOL     OW 1018   4.547   1.599   0.687
   40SOL    HW1 1019   4.548   1.698   0.697
   40SOL    HW2 1020   4.609   1.572   0.613
   41SOL     OW 1021   6.406   3.586   3.954
   41SOL    HW1 1022   6.402   3.537   3.867
   41SOL    HW2 1023   6.336   3.657   3.955
   42SOL     OW 1024   3.373   5.570   4.047
   42SOL    HW1 1025   3.325   5.506   3.987
   42SOL    HW2 1026   3.465   5.536   4.065
   43SOL     OW 1027   4.610   7.017   5.198
   43SOL    HW1 1028   4.668   0.010   5.280
   43SOL    HW2 1029   4.624   0.078   5.138
   44SOL     OW 1030   4.682   2.145   5.611
   44SOL    HW1 1031   4.646   2.238   5.611
   44SOL    HW2 1032   4.637   2.091   5.540
   45SOL     OW 1033   4.676   4.636   1.593
   45SOL    HW1 1034   4.751   4.676   1.541
   45SOL    HW2 1035   4.713   4.575   1.663
   46SOL     OW 1036   0.407   3.143   4.020
   46SOL    HW1 1037   0.379   3.167   4.113
   46SOL    HW2 1038   0.501   3.108   4.021
   47SOL     OW 1039   4.223   3.874   0.832
   47SOL    HW1 1040   4.169   3.790   0.837
   47SOL    HW2 1041   4.178   3.938   0.769
   48SOL     OW 1042   6.524   2.602   5.872
   48SOL    HW1 1043   6.568   2.682   5.912
   48SOL    HW2 1044   6.516   2.530   5.940
   49SOL     OW 1045   5.871   3.094   2.265
   49SOL    HW1 1046   5.904   3.000   2.278
   49SOL    HW2 1047   5.790   3.093   2.206
   50SOL     OW 1048   5.823   0.971   5.123
   50SOL    HW1 1049   5.770   1.043   5.080
   50SOL    HW2 1050   5.774   0.884   5.114
   51SOL     OW 1051   2.493   6.655   3.015
   51SOL    HW1 1052   2.394   6.645   3.013
   51SOL    HW2 1053   2.531   6.634   2.925
   52SOL     OW 1054   5.934   3.183   1.927
   52SOL    HW1 1055   5.884   3.262   1.960
   52SOL    HW2 1056   5.875   3.102   1.929
   53SOL     OW 1057   5.097   1.313   3.541
   53SOL    HW1 1058   5.085   1.292   3.638
   53SOL    HW2 1059   5.015   1.287   3.491
   54SOL     OW 1060   5.379   5.940   0.624
   54SOL    HW1 1061   5.417   5.934   0.531
   54SOL    HW2 1062   5.406   6.026   0.666
   55SOL     OW 1063   2.249   2.513   5.206
   55SOL    HW1 1064   2.279   2.539   5.298
   55SOL    HW2 1065   2.187   2.583   5.170
   56SOL     OW 1066   0.672   0.842   1.309
   56SOL    HW1 1067   0.700   0.837   1.405
   56SOL    HW2 1068   0.603   0.914   1.298
   57SOL     OW 1069   4.117   0.853   1.513
   57SOL    HW1 1070   4.082   0.925   1.571
   57SOL    HW2 1071   4.115   0.883   1.417
   58SOL     OW 1072   0.593   0.039   5.318
   58SOL    HW1 1073   0.533   6.980   5.298
   58SOL    HW2 1074   0.538   0.121   5.335
   59SOL     OW 1075   0.109   2.994   6.488
   59SOL    HW1 1076   0.178   2.985   6.560
   59SOL    HW2 1077   0.152   3.031   6.406
   60SOL     OW 1078   5.299   2.719   4.628
   60SOL    HW1 1079   5.222   2.754   4.574
   60SOL    HW2 1080   5.344   2.646   4.578
   61SOL     OW 1081   6.395   1.839   4.192
   61SOL    HW1 1082   6.442   1.800   4.271
   61SOL    HW2 1083   6.400   1.775   4.115
   62SOL     OW 1084   1.987   0.937   1.753
   62SOL    HW1 1085   1.929   1.018   1.761
   62SOL    HW2 1086   2.055   0.952   1.681
   63SOL     OW 1087   4.479   0.723   4.275
   63SOL    HW1 1088   4.480   0.770   4.187
   63SOL    HW2 1089   4.473   0.625   4.261
   64SOL     OW 1090   6.714   2.843   6.049
   64SOL    HW1 1091   6.743   2.925   5.999
   64SOL    HW2 1092   6.750   2.846   6.142
   65SOL     OW 1093   0.377   4.368   6.609
   65SOL    HW1 1094   0.344   4.374   6.703
   65SOL    HW2 1095   0.476   4.356   6.609
   66SOL     OW 1096   3.214   0.741   3.858
   66SOL    HW1 1097   3.288   0.798   3.823
   66SOL    HW2 1098   3.192   0.669   3.792
   67SOL     OW 1099   6.865   2.619   5.898
   67SOL    HW1 1100   6.824   2.687   5.837
   67SOL    HW2 1101   6.869   2.655   5.991
   68SOL     OW 1102   0.362   1.438   6.651
   68SOL    HW1 1103   0.263   1.438   6.632
   68SOL    HW2 1104   0.391   1.345   6.674
   69SOL     OW 1105   1.447   2.710   5.440
   69SOL    HW1 1106   1.519   2.643   5.421
   69SOL    HW2 1107   1.489   2.797   5.468
   70SOL     OW 1108   4.997   4.763   4.122
   70SOL    HW1 1109   5.060   4.698   4.080
   70SOL    HW2 1110   4.909   4.719   4.138
   71SOL     OW 1111   4.108   2.283   3.902
   71SOL    HW1 1112   4.190   2.330   3.869
   71SOL    HW2 1113   4.107   2.285   4.002
   72SOL     OW 1114   1.151   1.423   3.489
   72SOL    HW1 1115   1.242   1.438   3.448
   72SOL    HW2 1116   1.154   1.343   3.549
   73SOL     OW 1117   3.507   0.066   0.713
   73SOL    HW1 1118   3.493   0.030   0.805
   73SOL    HW2 1119   3.478   0.161   0.709
   74SOL     OW 1120   4.046   0.519   0.361
   74SOL    HW1 1121   4.021   0.439   0.416
   74SOL    HW2 1122   4.126   0.563   0.400
   75SOL     OW 1123   4.079   0.508   1.464
   75SOL    HW1 1124   4.119   0.418   1.446
   75SOL    HW2 1125   4.149   0.578   1.458
   76SOL     OW 1126   2.934   3.689   0.437
   76SOL    HW1 1127   2.957   3.784   0.456
   76SOL    HW2 1128   3.004   3.648   0.379
   77SOL     OW 1129   0.944   0.345   3.527
   77SOL    HW1 1130   1.021   0.284   3.510
   77SOL    HW2 1131   0.891   0.311   3.605
   78SOL     OW 1132   4.910   1.568   0.732
   78SOL    HW1 1133   4.853   1.520   0.664
   78SOL    HW2 1134   4.932   1.505   0.807
   79SOL     OW 1135   3.164   6.022   1.181
   79SOL    HW1 1136   3.229   6.098   1.181
   79SOL    HW2 1137   3.078   6.052   1.222
   80SOL     OW 1138   4.795   1.043   4.142
   80SOL    HW1 1139   4.895   1.037   4.147
   80SOL    HW2 1140   4.756   0.952   4.134
   81SOL     OW 1141   1.859   0.087   2.113
   81SOL    HW1 1142   1.920   0.129   2.179
   81SOL    HW2 1143   1.909   0.067   2.029
   82SOL     OW 1144   5.568   5.043   0.891
   82SOL    HW1 1145   5.592   5.005   0.802
   82SOL    HW2 1146   5.491   4.991   0.929
   83SOL     OW 1147   0.262   0.562   0.019
   83SOL    HW1 1148   0.266   0.467   7.006
   83SOL    HW2 1149   0.218   0.567   0.108
   84SOL     OW 1150   6.225   3.449   2.778
   84SOL    HW1 1151   6.143   3.469   2.831
   84SOL    HW2 1152   6.306   3.462   2.835
   85SOL     OW 1153   1.763   1.440   2.775
   85SOL    HW1 1154   1.680   1.473   2.820
   85SOL    HW2 1155   1.843   1.476   2.823
   86SOL     OW 1156   0.018   1.252   6.407
   86SOL    HW1 1157   0.030   1.314   6.485
   86SOL    HW2 1158   0.092   1.266   6.341
   87SOL     OW 1159   4.790   4.302   1.137
   87SOL    HW1 1160   4.831   4.260   1.055
   87SOL    HW2 1161   4.843   4.275   1.217
   88SOL     OW 1162   3.052   1.890   5.973
   88SOL    HW1 1163   2.977   1.951   5.999
   88SOL    HW2 1164   3.137   1.922   6.014
   89SOL     OW 1165   2.573   3.032   0.153
   89SOL    HW1 1166   2.630   2.989   0.082
   89SOL    HW2 1167   2.542   2.962   0.217
   90SOL     OW 1168   4.286   5.552   2.129
   90SOL    HW1 1169   4.281   5.532   2.227
   90SOL    HW2 1170   4.249   5.643   2.111
   91SOL     OW 1171   6.779   4.079   6.215
   91SOL    HW1 1172   6.759   4.063   6.118
   91SOL    HW2 1173   6.694   4.097   6.264
   92SOL     OW 1174   4.521   4.263   1.196
   92SOL    HW1 1175   4.507   4.331   1.268
   92SOL    HW2 1176   4.614   4.269   1.161
   93SOL     OW 1177   3.480   3.433   0.219
   93SOL    HW1 1178   3.529   3.392   0.142
   93SOL    HW2 1179   3.402   3.486   0.185
   94SOL     OW 1180   2.996   5.798   6.811
   94SOL    HW1 1181   2.929   5.872   6.804
   94SOL    HW2 1182   3.056   5.815   6.889
   95SOL     OW 1183   1.917   1.211   2.790
   95SOL    HW1 1184   1.857   1.268   2.734
   95SOL    HW2 1185   1.996   1.183   2.736
   96SOL     OW 1186   4.157   6.043   5.340
   96SOL    HW1 1187   4.140   6.136   5.372
   96SOL    HW2 1188   4.078   5.985   5.363
   97SOL     OW 1189   2.575   3.517   6.116
   97SOL    HW1 1190   2.503   3.514   6.047
   97SOL    HW2 1191   2.587   3.611   6.148
   98SOL     OW 1192   1.196   2.384   0.189
   98SOL    HW1 1193   1.287   2.395   0.230
   98SOL    HW2 1194   1.166   2.289   0.199
   99SOL     OW 1195   4.306   3.422   1.418
   99SOL    HW1 1196   4.335   3.451   1.327
   99SOL    HW2 1197   4.206   3.423   1.422
  100SOL     OW 1198   0.789   6.796   3.967
  100SOL    HW1 1199   0.851   6.797   4.045
  100SOL    HW2 1200   0.719   6.726   3.980
  101SOL     OW 1201   0.988   4.298   2.360
  101SOL    HW1 1202   0.927   4.368   2.398
  101SOL    HW2 1203   1.048   4.339   2.292
  102SOL     OW 1204   3.750   5.377   2.144
  102SOL    HW1 1205   3.663   5.374   2.193
  102SOL    HW2 1206   3.800   5.292   2.160
  103SOL     OW 1207   2.293   2.208   2.066
  103SOL    HW1 1208   2.358   2.278   2.038
  103SOL    HW2 1209   2.295   2.132   2.001
  104SOL     OW 1210   0.894   5.973   2.602
  104SOL    HW1 1211   0.954   6.038   2.555
  104SOL    HW2 1212   0.869   6.009   2.692
  105SOL     OW 1213   5.724   1.040   6.357
  105SOL    HW1 1214   5.684   1.005   6.272
  105SOL    HW2 1215   5.816   1.002   6.368
  106SOL     OW 1216   3.406   6.203   3.536
  106SOL    HW1 1217   3.473   6.171   3.469
  106SOL    HW2 1218   3.444   6.197   3.628
  107SOL     OW 1219   0.498   0.935   6.941
  107SOL    HW1 1220   0.595   0.959   6.937
  107SOL    HW2 1221   0.488   0.837   6.952
  108SOL     OW 1222   3.919   6.805   6.617
  108SOL    HW1 1223   4.003   6.823   6.566
  108SOL    HW2 1224   3.934   6.731   6.683
  109SOL     OW 1225   2.930   1.829   2.826
  109SOL    HW1 1226   2.944   1.900   2.895
  109SOL    HW2 1227   2.976   1.856   2.741
  110SOL     OW 1228   3.214   4.910   4.377
  110SOL    HW1 1229   3.133   4.853   4.386
  110SOL    HW2 1230   3.196   4.985   4.313
  111SOL     OW 1231   2.268   1.713   4.249
  111SOL    HW1 1232   2.195   1.693   4.184
  111SOL    HW2 1233   2.345   1.652   4.232
  112SOL     OW 1234   3.662   6.104   0.410
  112SOL    HW1 1235   3.702   6.012   0.406
  112SOL    HW2 1236   3.733   6.172   0.394
  113SOL     OW 1237   0.809   6.589   2.837
  113SOL    HW1 1238   0.851   6.503   2.865
  113SOL    HW2 1239   0.710   6.584   2.854
  114SOL     OW 1240   0.876   6.237   1.477
  114SOL    HW1 1241   0.925   6.241   1.390
  114SOL    HW2 1242   0.846   6.144   1.495
  115SOL     OW 1243   5.130   0.453   2.765
  115SOL    HW1 1244   5.088   0.492   2.683
  115SOL    HW2 1245   5.216   0.407   2.740
  116SOL     OW 1246   6.797   6.432   1.501
  116SOL    HW1 1247   6.731   6.450   1.574
  116SOL    HW2 1248   6.749   6.419   1.414
  117SOL     OW 1249   0.118   1.299   0.493
  117SOL    HW1 1250   0.032   1.274   0.538
  117SOL    HW2 1251   0.118   1.264   0.399
  118SOL     OW 1252   1.576   1.502   2.204
  118SOL    HW1 1253   1.662   1.533   2.246
  118SOL    HW2 1254   1.503   1.567   2.225
  119SOL     OW 1255   0.630   0.189   0.154
  119SOL    HW1 1256   0.626   0.271   0.096
  119SOL    HW2 1257   0.617   0.215   0.249
  120SOL     OW 1258   5.077   1.126   5.510
  120SOL    HW1 1259   4.987   1.166   5.496
  120SOL    HW2 1260   5.123   1.173   5.586
  121SOL     OW 1261   1.065   3.522   0.495
  121SOL    HW1 1262   1.139   3.573   0.451
  121SOL    HW2 1263   1.038   3.569   0.579
  122SOL     OW 1264   1.609   3.793   0.296
  122SOL    HW1 1265   1.572   3.701   0.282
  122SOL    HW2 1266   1.545   3.846   0.352
  123SOL     OW 1267   1.231   1.980   2.563
  123SOL    HW1 1268   1.134   2.003   2.573
  123SOL    HW2 1269   1.284   2.064   2.549
  124SOL     OW 1270   3.342   2.790   1.050
  124SOL    HW1 1271   3.269   2.836   1.000
  124SOL    HW2 1272   3.427   2.797   0.998
  125SOL     OW 1273   4.166   2.416   0.799
  125SOL    HW1 1274   4.247   2.429   0.742
  125SOL    HW2 1275   4.182   2.343   0.865
  126SOL     OW 1276   3.641   3.463   2.143
  126SOL    HW1 1277   3.708   3.410   2.090
  126SOL    HW2 1278   3.644   3.435   2.239
  127SOL     OW 1279   0.366   5.114   6.537
  127SOL    HW1 1280   0.337   5.019   6.529
  127SOL    HW2 1281   0.394   5.149   6.448
  128SOL     OW 1282   4.777   3.191   1.297
  128SOL    HW1 1283   4.769   3.288   1.323
  128SOL    HW2 1284   4.705   3.169   1.231
  129SOL     OW 1285   2.720   3.430   0.020
  129SOL    HW1 1286   2.648   3.382   6.988
  129SOL    HW2 1287   2.700   3.528   0.023
  130SOL     OW 1288   0.227   0.621   4.512
  130SOL    HW1 1289   0.306   0.564   4.535
  130SOL    HW2 1290   0.172   0.636   4.595
  131SOL     OW 1291   5.156   0.640   3.679
  131SOL    HW1 1292   5.253   0.636   3.701
  131SOL    HW2 1293   5.103   0.660   3.761
  132SOL     OW 1294   3.139   2.413   1.724
  132SOL    HW1 1295   3.114   2.317   1.707
  132SOL    HW2 1296   3.065   2.457   1.776
  133SOL     OW 1297   5.386   0.263   4.014
  133SOL    HW1 1298   5.367   0.225   4.104
  133SOL    HW2 1299   5.437   0.196   3.960
  134SOL     OW 1300   0.645   0.526   2.533
  134SOL    HW1 1301   0.557   0.517   2.580
  134SOL    HW2 1302   0.705   0.587   2.584
  135SOL     OW 1303   5.648   3.661   4.490
  135SOL    HW1 1304   5.699   3.587   4.533
  135SOL    HW2 1305   5.698   3.695   4.410
  136SOL     OW 1306   1.702   4.858   5.254
  136SOL    HW1 1307   1.727   4.782   5.195
  136SOL    HW2 1308   1.639   4.827   5.325
  137SOL     OW 1309   4.484   1.662   3.796
  137SOL    HW1 1310   4.385   1.676   3.792
  137SOL    HW2 1311   4.513   1.612   3.715
  138SOL     OW 1312   1.322   3.676   2.920
  138SOL    HW1 1313   1.338   3.578   2.926
  138SOL    HW2 1314   1.271   3.697   2.837
  139SOL     OW 1315   2.098   6.299   5.276
  139SOL    HW1 1316   2.137   6.282   5.366
  139SOL    HW2 1317   1.998   6.294   5.281
  140SOL     OW 1318   1.676   6.279   3.289
  140SOL    HW1 1319   1.748   6.210   3.292
  140SOL    HW2 1320   1.700   6.357   3.347
  141SOL     OW 1321   0.172   2.853   4.974
  141SOL    HW1 1322   0.114   2.817   4.902
  141SOL    HW2 1323   0.116   2.900   5.043
  142SOL     OW 1324   2.085   3.466   2.235
  142SOL    HW1 1325   2.135   3.477   2.148
  142SOL    HW2 1326   2.140   3.410   2.297
  143SOL     OW 1327   5.237   4.954   0.621
  143SOL    HW1 1328   5.276   4.866   0.594
  143SOL    HW2 1329   5.309   5.023   0.626
  144SOL     OW 1330   2.115   4.792   5.971
  144SOL    HW1 1331   2.083   4.698   5.977
  144SOL    HW2 1332   2.165   4.805   5.885
  145SOL     OW 1333   2.662   5.297   1.338
  145SOL    HW1 1334   2.635   5.382   1.292
  145SOL    HW2 1335   2.583   5.259   1.386
  146SOL     OW 1336   5.250   0.376   6.412
  146SOL    HW1 1337   5.349   0.369   6.423
  146SOL    HW2 1338   5.205   0.301   6.460
  147SOL     OW 1339   5.377   1.360   5.853
  147SOL    HW1 1340   5.345   1.280   5.802
  147SOL    HW2 1341   5.306   1.389   5.917
  148SOL     OW 1342   6.978   5.421   1.461
  148SOL    HW1 1343   6.981   5.379   1.552
  148SOL    HW2 1344   6.906   5.378   1.407
  149SOL     OW 1345   3.688   2.028   5.171
  149SOL    HW1 1346   3.722   2.066   5.257
  149SOL    HW2 1347   3.761   2.032   5.102
  150SOL     OW 1348   5.523   6.992   6.508
  150SOL    HW1 1349   5.542   0.006   6.416
  150SOL    HW2 1350   5.535   0.049   6.573
  151SOL     OW 1351   3.343   0.765   1.420
  151SOL    HW1 1352   3.385   0.684   1.379
  151SOL    HW2 1353   3.372   0.847   1.370
  152SOL     OW 1354   0.095   1.770   0.327
  152SOL    HW1 1355   0.188   1.734   0.314
  152SOL    HW2 1356   0.076   1.781   0.424
  153SOL     OW 1357   2.695   6.855   3.114
  153SOL    HW1 1358   2.723   6.776   3.059
  153SOL    HW2 1359   2.690   6.936   3.055
  154SOL     OW 1360   0.516   3.093   0.749
  154SOL    HW1 1361   0.610   3.066   0.768
  154SOL    HW2 1362   0.492   3.172   0.805
  155SOL     OW 1363   0.974   1.519   3.849
  155SOL    HW1 1364   1.054   1.541   3.794
  155SOL    HW2 1365   1.004   1.487   3.940
  156SOL     OW 1366   6.703   0.602   0.009
  156SOL    HW1 1367   6.765   0.568   0.079
  156SOL    HW2 1368   6.747   0.596   6.937
  157SOL     OW 1369   5.386   3.896   0.335
  157SOL    HW1 1370   5.469   3.922   0.384
  157SOL    HW2 1371   5.404   3.815   0.280
  158SOL     OW 1372   1.645   2.976   1.585
  158SOL    HW1 1373   1.735   3.015   1.566
  158SOL    HW2 1374   1.653   2.877   1.594
  159SOL     OW 1375   4.261   4.941   1.566
  159SOL    HW1 1376   4.200   4.934   1.486
  159SOL    HW2 1377   4.298   5.034   1.570
  160SOL     OW 1378   5.919   0.367   0.660
  160SOL    HW1 1379   5.820   0.378   0.667
  160SOL    HW2 1380   5.950   0.398   0.570
  161SOL     OW 1381   1.773   0.614   3.116
  161SOL    HW1 1382   1.799   0.687   3.054
  161SOL    HW2 1383   1.673   0.609   3.122
  162SOL     OW 1384   3.938   6.359   6.971
  162SOL    HW1 1385   3.847   6.331   7.001
  162SOL    HW2 1386   3.932   6.449   6.927
  163SOL     OW 1387   0.151   6.242   2.266
  163SOL    HW1 1388   0.102   6.161   2.297
  163SOL    HW2 1389   0.089   6.320   2.265
  164SOL     OW 1390   0.828   3.678   3.140
  164SOL    HW1 1391   0.739   3.633   3.136
  164SOL    HW2 1392   0.832   3.738   3.220
  165SOL     OW 1393   4.972   4.399   6.608
  165SOL    HW1 1394   4.956   4.409   6.510
  165SOL    HW2 1395   4.975   4.302   6.631
  166SOL     OW 1396   0.253   3.234   2.260
  166SOL    HW1 1397   0.204   3.147   2.253
  166SOL    HW2 1398   0.329   3.235   2.196
  167SOL     OW 1399   5.874   1.648   6.910
  167SOL    HW1 1400   5.970   1.651   6.883
  167SOL    HW2 1401   5.818   1.692   6.840
  168SOL     OW 1402   3.973   1.745   0.907
  168SOL    HW1 1403   3.968   1.656   0.953
  168SOL    HW2 1404   4.067   1.778   0.909
  169SOL     OW 1405   5.975   2.683   0.476
  169SOL    HW1 1406   5.921   2.600   0.465
  169SOL    HW2 1407   6.065   2.660   0.514
  170SOL     OW 1408   6.512   6.264   2.388
  170SOL    HW1 1409   6.596   6.217   2.361
  170SOL    HW2 1410   6.483   6.325   2.314
  171SOL     OW 1411   2.498   4.794   0.192
  171SOL    HW1 1412   2.483   4.788   0.093
  171SOL    HW2 1413   2.430   4.854   0.233
  172SOL     OW 1414   6.163   1.996   3.211
  172SOL    HW1 1415   6.186   2.000   3.308
  172SOL    HW2 1416   6.075   1.951   3.199
  173SOL     OW 1417   5.500   1.097   4.281
  173SOL    HW1 1418   5.522   1.001   4.263
  173SOL    HW2 1419   5.550   1.155   4.217
  174SOL     OW 1420   4.811   5.334   3.911
  174SOL    HW1 1421   4.733   5.271   3.910
  174SOL    HW2 1422   4.895   5.283   3.931
  175SOL     OW 1423   3.821   0.774   0.998
  175SOL    HW1 1424   3.765   0.708   1.048
  175SOL    HW2 1425   3.918   0.759   1.018
  176SOL     OW 1426   5.960   4.851   1.880
  176SOL    HW1 1427   5.878   4.851   1.937
  176SOL    HW2 1428   6.041   4.846   1.937
  177SOL     OW 1429   5.398   2.962   4.694
  177SOL    HW1 1430   5.335   3.020   4.641
  177SOL    HW2 1431   5.363   2.868   4.696
  178SOL     OW 1432   3.113   4.437   5.614
  178SOL    HW1 1433   3.049   4.478   5.549
  178SOL    HW2 1434   3.104   4.482   5.702
  179SOL     OW 1435   3.594   0.943   6.611
  179SOL    HW1 1436   3.507   0.965   6.656
  179SOL    HW2 1437   3.583   0.859   6.558
  180SOL     OW 1438   2.324   0.898   1.095
  180SOL    HW1 1439   2.349   0.964   1.165
  180SOL    HW2 1440   2.389   0.822   1.095
  181SOL     OW 1441   2.983   3.387   5.846
  181SOL    HW1 1442   2.915   3.461   5.835
  181SOL    HW2 1443   3.011   3.382   5.942
  182SOL     OW 1444   4.186   1.616   6.262
  182SOL    HW1 1445   4.285   1.625   6.267
  182SOL    HW2 1446   4.143   1.697   6.301
  183SOL     OW 1447   3.306   1.923   3.861
  183SOL    HW1 1448   3.325   2.004   3.917
  183SOL    HW2 1449   3.366   1.923   3.781
  184SOL     OW 1450   0.164   6.626   3.531
  184SOL    HW1 1451   0.253   6.596   3.566
  184SOL    HW2 1452   0.100   6.549   3.532
  185SOL     OW 1453   1.348   1.821   4.794
  185SOL    HW1 1454   1.327   1.761   4.716
  185SOL    HW2 1455   1.412   1.775   4.855
  186SOL     OW 1456   6.424   1.616   3.978
  186SOL    HW1 1457   6.505   1.613   3.920
  186SOL    HW2 1458   6.398   1.523   4.004
  187SOL     OW 1459   5.125   6.914   2.438
  187SOL    HW1 1460   5.155   7.007   2.417
  187SOL    HW2 1461   5.081   6.912   2.527
  188SOL     OW 1462   1.114   3.508   3.537
  188SOL    HW1 1463   1.151   3.595   3.569
  188SOL    HW2 1464   1.019   3.520   3.508
  189SOL     OW 1465   1.358   5.668   0.368
  189SOL    HW1 1466   1.371   5.682   0.270
  189SOL    HW2 1467   1.429   5.608   0.403
  190SOL     OW 1468   6.397   4.179   6.099
  190SOL    HW1 1469   6.325   4.146   6.160
  190SOL    HW2 1470   6.418   4.108   6.031
  191SOL     OW 1471   6.347   1.356   6.853
  191SOL    HW1 1472   6.247   1.348   6.855
  191SOL    HW2 1473   6.383   1.348   6.946
  192SOL     OW 1474   0.202   5.282   1.581
  192SOL    HW1 1475   0.172   5.217   1.512
  192SOL    HW2 1476   0.124   5.306   1.640
  193SOL     OW 1477   5.063   3.557   5.210
  193SOL    HW1 1478   5.095   3.482   5.152
  193SOL    HW2 1479   4.979   3.595   5.171
  194SOL     OW 1480   3.824   6.561   3.461
  194SOL    HW1 1481   3.879   6.596   3.536
  194SOL    HW2 1482   3.732   6.601   3.465
  195SOL     OW 1483   1.282   1.131   4.139
  195SOL    HW1 1484   1.190   1.134   4.177
  195SOL    HW2 1485   1.287   1.190   4.058
  196SOL     OW 1486   2.481   0.195   6.676
  196SOL    HW1 1487   2.546   0.151   6.738
  196SOL    HW2 1488   2.531   0.242   6.604
  197SOL     OW 1489   2.439   0.386   1.161
  197SOL    HW1 1490   2.351   0.433   1.172
  197SOL    HW2 1491   2.514   0.452   1.166
  198SOL     OW 1492   4.232   6.764   2.097
  198SOL    HW1 1493   4.178   6.831   2.150
  198SOL    HW2 1494   4.329   6.784   2.108
  199SOL     OW 1495   6.948   1.078   3.730
  199SOL    HW1 1496   6.946   1.161   3.675
  199SOL    HW2 1497   7.003   1.094   3.813
  200SOL     OW 1498   1.089   4.057   1.959
  200SOL    HW1 1499   1.105   4.136   1.898
  200SOL    HW2 1500   1.039   3.986   1.909
  201SOL     OW 1501   5.547   0.036   6.249
  201SOL    HW1 1502   5.476   7.015   6.191
  201SOL    HW2 1503   5.629   6.997   6.246
  202SOL     OW 1504   5.089   0.146   5.532
  202SOL    HW1 1505   5.029   0.216   5.492
  202SOL    HW2 1506   5.139   0.185   5.609
  203SOL     OW 1507   5.089   2.166   4.751
  203SOL    HW1 1508   5.070   2.211   4.838
  203SOL    HW2 1509   5.007   2.119   4.719
  204SOL     OW 1510   6.262   0.649   6.252
  204SOL    HW1 1511   6.244   0.715   6.325
  204SOL    HW2 1512   6.221   0.561   6.277
  205SOL     OW 1513   0.682   0.979   2.737
  205SOL    HW1 1514   0.615   0.967   2.809
  205SOL    HW2 1515   0.773   0.988   2.777
  206SOL     OW 1516   0.471   5.014   2.124
  206SOL    HW1 1517   0.436   5.095   2.170
  206SOL    HW2 1518   0.446   4.932   2.177
  207SOL     OW 1519   4.897   0.306   3.875
  207SOL    HW1 1520   4.909   0.404   3.893
  207SOL    HW2 1521   4.978   0.256   3.905
  208SOL     OW 1522   5.289   3.905   5.421
  208SOL    HW1 1523   5.261   3.951   5.505
  208SOL    HW2 1524   5.207   3.874   5.371
  209SOL     OW 1525   0.969   5.044   4.270
  209SOL    HW1 1526   1.063   5.066   4.247
  209SOL    HW2 1527   0.965   5.006   4.363
  210SOL     OW 1528   4.292   2.020   1.730
  210SOL    HW1 1529   4.375   2.076   1.736
  210SOL    HW2 1530   4.228   2.063   1.666
  211SOL     OW 1531   1.402   6.314   3.437
  211SOL    HW1 1532   1.484   6.273   3.397
  211SOL    HW2 1533   1.395   6.409   3.408
  212SOL     OW 1534   1.749   4.810   1.668
  212SOL    HW1 1535   1.843   4.777   1.661
  212SOL    HW2 1536   1.745   4.887   1.732
  213SOL     OW 1537   3.286   0.610   5.878
  213SOL    HW1 1538   3.188   0.633   5.883
  213SOL    HW2 1539   3.315   0.610   5.782
  214SOL     OW 1540   3.980   5.408   1.964
  214SOL    HW1 1541   3.886   5.409   1.999
  214SOL    HW2 1542   4.023   5.496   1.982
  215SOL     OW 1543   2.841   3.863   1.602
  215SOL    HW1 1544   2.776   3.792   1.629
  215SOL    HW2 1545   2.806   3.953   1.628
  216SOL     OW 1546   1.526   5.944   4.918
  216SOL    HW1 1547   1.504   5.877   4.848
  216SOL    HW2 1548   1.523   5.900   5.008
  217SOL     OW 1549   2.366   2.803   3.476
  217SOL    HW1 1550   2.285   2.845   3.517
  217SOL    HW2 1551   2.386   2.847   3.389
  218SOL     OW 1552   0.885   2.995   4.491
  218SOL    HW1 1553   0.831   3.027   4.568
  218SOL    HW2 1554   0.934   3.072   4.450
  219SOL     OW 1555   3.626   6.153   5.931
  219SOL    HW1 1556   3.528   6.135   5.917
  219SOL    HW2 1557   3.680   6.080   5.889
  220SOL     OW 1558   3.360   6.450   0.209
  220SOL    HW1 1559   3.266   6.484   0.201
  220SOL    HW2 1560   3.424   6.526   0.196
  221SOL     OW 1561   6.543   4.132   2.690
  221SOL    HW1 1562   6.534   4.112   2.787
  221SOL    HW2 1563   6.550   4.047   2.639
  222SOL     OW 1564   2.372   4.938   5.429
  222SOL    HW1 1565   2.391   4.840   5.434
  222SOL    HW2 1566   2.381   4.969   5.334
  223SOL     OW 1567   5.616   3.523   0.820
  223SOL    HW1 1568   5.618   3.451   0.890
  223SOL    HW2 1569   5.557   3.494   0.745
  224SOL     OW 1570   2.942   1.815   4.118
  224SOL    HW1 1571   2.992   1.846   4.037
  224SOL    HW2 1572   2.916   1.894   4.173
  225SOL     OW 1573   5.462   1.933   5.531
  225SOL    HW1 1574   5.550   1.954   5.576
  225SOL    HW2 1575   5.434   2.011   5.476
  226SOL     OW 1576   1.509   0.517   6.155
  226SOL    HW1 1577   1.567   0.555   6.082
  226SOL    HW2 1578   1.566   0.494   6.234
  227SOL     OW 1579   1.563   3.937   2.350
  227SOL    HW1 1580   1.651   3.927   2.302
  227SOL    HW2 1581   1.498   3.869   2.315
  228SOL     OW 1582   3.230   6.360   4.172
  228SOL    HW1 1583   3.152   6.315   4.215
  228SOL    HW2 1584   3.300   6.292   4.151
  229SOL     OW 1585   5.330   6.280   0.154
  229SOL    HW1 1586   5.340   6.341   0.233
  229SOL    HW2 1587   5.280   6.198   0.181
  230SOL     OW 1588   2.581   4.702   2.888
  230SOL    HW1 1589   2.623   4.732   2.802
  230SOL    HW2 1590   2.489   4.741   2.895
  231SOL     OW 1591   6.521   1.991   6.729
  231SOL    HW1 1592   6.589   2.012   6.800
  231SOL    HW2 1593   6.479   1.903   6.749
  232SOL     OW 1594   1.204   3.818   6.019
  232SOL    HW1 1595   1.137   3.752   6.056
  232SOL    HW2 1596   1.210   3.897   6.080
  233SOL     OW 1597   2.317   1.379   4.417
  233SOL    HW1 1598   2.416   1.370   4.424
  233SOL    HW2 1599   2.287   1.345   4.328
  234SOL     OW 1600   3.387   6.070   5.440
  234SOL    HW1 1601   3.479   6.045   5.470
  234SOL    HW2 1602   3.384   6.169   5.421
  235SOL     OW 1603   3.017   3.090   1.923
  235SOL    HW1 1604   3.114   3.104   1.900
  235SOL    HW2 1605   2.966   3.065   1.840
  236SOL     OW 1606   5.803   2.736   6.185
  236SOL    HW1 1607   5.795   2.772   6.278
  236SOL    HW2 1608   5.719   2.756   6.134
  237SOL     OW 1609   6.216   6.140   1.716
  237SOL    HW1 1610   6.266   6.165   1.799
  237SOL    HW2 1611   6.255   6.188   1.638
  238SOL     OW 1612   6.087   2.089   0.517
  238SOL    HW1 1613   6.086   2.146   0.435
  238SOL    HW2 1614   5.994   2.077   0.551
  239SOL     OW 1615   0.394   5.667   6.606
  239SOL    HW1 1616   0.339   5.619   6.538
  239SOL    HW2 1617   0.472   5.711   6.562
  240SOL     OW 1618   0.265   2.605   5.748
  240SOL    HW1 1619   0.338   2.561   5.694
  240SOL    HW2 1620   0.185   2.545   5.750
  241SOL     OW 1621   1.850   6.672   4.635
  241SOL    HW1 1622   1.902   6.741   4.684
  241SOL    HW2 1623   1.895   6.651   4.548
  242SOL     OW 1624   2.737   2.974   6.142
  242SOL    HW1 1625   2.706   2.921   6.063
  242SOL    HW2 1626   2.734   3.071   6.120
  243SOL     OW 1627   4.906   0.608   6.036
  243SOL    HW1 1628   4.912   0.549   6.117
  243SOL    HW2 1629   4.931   0.555   5.955
  244SOL     OW 1630   5.072   2.547   4.675
  244SOL    HW1 1631   5.116   2.634   4.699
  244SOL    HW2 1632   5.046   2.548   4.579
  245SOL     OW 1633   6.877   2.619   5.312
  245SOL    HW1 1634   6.906   2.712   5.288
  245SOL    HW2 1635   6.777   2.613   5.305
  246SOL     OW 1636   4.705   2.684   2.434
  246SOL    HW1 1637   4.673   2.777   2.416
  246SOL    HW2 1638   4.718   2.673   2.533
  247SOL     OW 1639   2.932   1.221   2.026
  247SOL    HW1 1640   3.018   1.178   1.998
  247SOL    HW2 1641   2.888   1.166   2.097
  248SOL     OW 1642   4.323   2.163   4.499
  248SOL    HW1 1643   4.386   2.085   4.491
  248SOL    HW2 1644   4.229   2.130   4.493
  249SOL     OW 1645   5.229   0.235   5.760
  249SOL    HW1 1646   5.224   0.226   5.859
  249SOL    HW2 1647   5.257   0.329   5.737
  250SOL     OW 1648   4.934   1.839   6.667
  250SOL    HW1 1649   4.854   1.781   6.650
  250SOL    HW2 1650   4.983   1.805   6.747
  251SOL     OW 1651   4.274   4.663   6.557
  251SOL    HW1 1652   4.364   4.694   6.527
  251SOL    HW2 1653   4.210   4.739   6.555
  252SOL     OW 1654   6.123   0.394   6.306
  252SOL    HW1 1655   6.029   0.361   6.317
  252SOL    HW2 1656   6.186   0.319   6.324
  253SOL     OW 1657   1.752   4.408   7.010
  253SOL    HW1 1658   1.755   4.410   0.092
  253SOL    HW2 1659   1.805   4.485   6.974
  254SOL     OW 1660   5.430   3.489   3.410
  254SOL    HW1 1661   5.468   3.404   3.374
  254SOL    HW2 1662   5.505   3.548   3.442
  255SOL     OW 1663   1.536   3.217   4.336
  255SOL    HW1 1664   1.562   3.313   4.340
  255SOL    HW2 1665   1.617   3.160   4.344
  256SOL     OW 1666   6.147   4.282   6.428
  256SOL    HW1 1667   6.220   4.308   6.491
  256SOL    HW2 1668   6.112   4.364   6.383
  257SOL     OW 1669   4.199   6.360   4.304
  257SOL    HW1 1670   4.115   6.321   4.342
  257SOL    HW2 1671   4.233   6.431   4.366
  258SOL     OW 1672   5.929   5.005   5.003
  258SOL    HW1 1673   5.944   4.956   4.918
  258SOL    HW2 1674   5.886   4.945   5.070
  259SOL     OW 1675   1.959   2.883   2.380
  259SOL    HW1 1676   1.941   2.917   2.288
  259SOL    HW2 1677   2.055   2.855   2.387
  260SOL     OW 1678   4.356   0.996   1.365
  260SOL    HW1 1679   4.280   0.975   1.304
  260SOL    HW2 1680   4.326   1.064   1.433
  261SOL     OW 1681   6.486   3.751   1.325
  261SOL    HW1 1682   6.398   3.711   1.300
  261SOL    HW2 1683   6.507   3.827   1.264
  262SOL     OW 1684   0.634   3.768   1.534
  262SOL    HW1 1685   0.617   3.800   1.627
  262SOL    HW2 1686   0.700   3.828   1.489
  263SOL     OW 1687   0.289   1.539   3.676
  263SOL    HW1 1688   0.383   1.507   3.690
  263SOL    HW2 1689   0.251   1.495   3.594
  264SOL     OW 1690   5.103   3.851   5.258
  264SOL    HW1 1691   5.084   3.756   5.234
  264SOL    HW2 1692   5.064   3.912   5.188
  265SOL     OW 1693   4.306   4.620   3.243
  265SOL    HW1 1694   4.371   4.548   3.224
  265SOL    HW2 1695   4.250   4.637   3.162
  266SOL     OW 1696   3.714   3.646   5.721
  266SOL    HW1 1697   3.722   3.684   5.629
  266SOL    HW2 1698   3.728   3.547   5.717
  267SOL     OW 1699   6.019   2.462   6.033
  267SOL    HW1 1700   6.073   2.393   5.984
  267SOL    HW2 1701   6.080   2.517   6.090
  268SOL     OW 1702   4.748   6.464   5.320
  268SOL    HW1 1703   4.696   6.495   5.241
  268SOL    HW2 1704   4.799   6.381   5.297
  269SOL     OW 1705   1.973   2.895   0.765
  269SOL    HW1 1706   2.025   2.969   0.723
  269SOL    HW2 1707   1.900   2.932   0.822
  270SOL     OW 1708   6.453   0.134   1.926
  270SOL    HW1 1709   6.508   0.150   2.007
  270SOL    HW2 1710   6.367   0.091   1.951
  271SOL     OW 1711   2.800   2.669   0.628
  271SOL    HW1 1712   2.746   2.598   0.581
  271SOL    HW2 1713   2.750   2.699   0.710
  272SOL     OW 1714   3.235   5.413   3.879
  272SOL    HW1 1715   3.136   5.407   3.873
  272SOL    HW2 1716   3.275   5.327   3.846
  273SOL     OW 1717   1.708   5.144   5.085
  273SOL    HW1 1718   1.644   5.170   5.157
  273SOL    HW2 1719   1.752   5.226   5.048
  274SOL     OW 1720   4.853   2.131   3.840
  274SOL    HW1 1721   4.805   2.069   3.778
  274SOL    HW2 1722   4.898   2.203   3.786
  275SOL     OW 1723   6.449   6.008   6.440
  275SOL    HW1 1724   6.374   5.992   6.505
  275SOL    HW2 1725   6.536   6.002   6.488
  276SOL     OW 1726   0.080   5.396   3.244
  276SOL    HW1 1727   0.148   5.323   3.250
  276SOL    HW2 1728   0.105   5.470   3.306
  277SOL     OW 1729   2.644   2.492   0.180
  277SOL    HW1 1730   2.726   2.548   0.172
  277SOL    HW2 1731   2.646   2.421   0.110
  278SOL     OW 1732   6.962   3.962   1.637
  278SOL    HW1 1733   0.035   3.920   1.636
  278SOL    HW2 1734   6.892   3.891   1.641
  279SOL     OW 1735   6.494   2.759   4.327
  279SOL    HW1 1736   6.478   2.692   4.255
  279SOL    HW2 1737   6.589   2.751   4.358
  280SOL     OW 1738   3.522   6.849   2.744
  280SOL    HW1 1739   3.456   6.908   2.791
  280SOL    HW2 1740   3.473   6.790   2.679
  281SOL     OW 1741   3.100   4.844   2.479
  281SOL    HW1 1742   3.004   4.853   2.451
  281SOL    HW2 1743   3.159   4.863   2.400
  282SOL     OW 1744   4.066   2.235   5.229
  282SOL    HW1 1745   4.061   2.175   5.309
  282SOL    HW2 1746   4.007   2.314   5.243
  283SOL     OW 1747   6.693   1.459   5.886
  283SOL    HW1 1748   6.711   1.484   5.791
  283SOL    HW2 1749   6.671   1.361   5.892
  284SOL     OW 1750   0.461   4.393   4.989
  284SOL    HW1 1751   0.409   4.477   5.005
  284SOL    HW2 1752   0.545   4.414   4.938
  285SOL     OW 1753   5.755   5.377   6.624
  285SOL    HW1 1754   5.665   5.391   6.582
  285SOL    HW2 1755   5.776   5.280   6.627
  286SOL     OW 1756   3.366   5.079   5.169
  286SOL    HW1 1757   3.350   5.177   5.184
  286SOL    HW2 1758   3.342   5.056   5.075
  287SOL     OW 1759   0.501   4.956   6.753
  287SOL    HW1 1760   0.520   4.888   6.682
  287SOL    HW2 1761   0.475   5.042   6.710
  288SOL     OW 1762   4.063   1.521   0.630
  288SOL    HW1 1763   4.133   1.593   0.630
  288SOL    HW2 1764   4.004   1.532   0.550
  289SOL     OW 1765   0.438   5.398   4.499
  289SOL    HW1 1766   0.493   5.316   4.516
  289SOL    HW2 1767   0.431   5.414   4.400
  290SOL     OW 1768   5.121   2.069   3.959
  290SOL    HW1 1769   5.092   2.157   3.921
  290SOL    HW2 1770   5.052   2.000   3.939
  291SOL     OW 1771   3.923   0.824   4.352
  291SOL    HW1 1772   3.978   0.757   4.403
  291SOL    HW2 1773   3.956   0.830   4.258
  292SOL     OW 1774   4.227   1.915   3.220
  292SOL    HW1 1775   4.243   2.009   3.190
  292SOL    HW2 1776   4.258   1.905   3.315
  293SOL     OW 1777   4.505   5.559   1.965
  293SOL    HW1 1778   4.520   5.658   1.963
  293SOL    HW2 1779   4.427   5.539   2.025
  294SOL     OW 1780   6.710   5.339   6.748
  294SOL    HW1 1781   6.677   5.409   6.812
  294SOL    HW2 1782   6.634   5.305   6.693
  295SOL     OW 1783   3.220   1.657   4.811
  295SOL    HW1 1784   3.133   1.625   4.775
  295SOL    HW2 1785   3.246   1.742   4.766
  296SOL     OW 1786   6.566   2.126   2.171
  296SOL    HW1 1787   6.489   2.190   2.172
  296SOL    HW2 1788   6.589   2.104   2.076
  297SOL     OW 1789   2.850   4.741   2.736
  297SOL    HW1 1790   2.830   4.766   2.642
  297SOL    HW2 1791   2.822   4.647   2.752
  298SOL     OW 1792   4.193   0.007   0.185
  298SOL    HW1 1793   4.108   0.060   0.183
  298SOL    HW2 1794   4.179   6.940   0.236
  299SOL     OW 1795   5.092   2.219   6.909
  299SOL    HW1 1796   5.156   2.166   6.963
  299SOL    HW2 1797   5.138   2.298   6.870
  300SOL     OW 1798   4.554   0.935   1.910
  300SOL    HW1 1799   4.613   0.858   1.933
  300SOL    HW2 1800   4.571   0.963   1.816
  301SOL     OW 1801   5.229   2.342   0.560
  301SOL    HW1 1802   5.189   2.374   0.474
  301SOL    HW2 1803   5.244   2.420   0.621
  302SOL     OW 1804   6.739   0.697   3.386
  302SOL    HW1 1805   6.744   0.658   3.479
  302SOL    HW2 1806   6.678   0.775   3.386
  303SOL     OW 1807   5.927   6.631   2.561
  303SOL    HW1 1808   5.926   6.546   2.509
  303SOL    HW2 1809   5.833   6.662   2.577
  304SOL     OW 1810   1.819   6.273   5.829
  304SOL    HW1 1811   1.903   6.253   5.878
  304SOL    HW2 1812   1.740   6.251   5.888
  305SOL     OW 1813   1.492   2.377   0.236
  305SOL    HW1 1814   1.557   2.440   0.279
  305SOL    HW2 1815   1.469   2.411   0.144
  306SOL     OW 1816   1.411   1.114   3.343
  306SOL    HW1 1817   1.498   1.072   3.319
  306SOL    HW2 1818   1.393   1.191   3.282
  307SOL     OW 1819   4.633   4.732   0.507
  307SOL    HW1 1820   4.613   4.704   0.413
  307SOL    HW2 1821   4.717   4.687   0.537
  308SOL     OW 1822   5.935   3.637   4.871
  308SOL    HW1 1823   6.017   3.627   4.928
  308SOL    HW2 1824   5.857   3.596   4.917
  309SOL     OW 1825   1.996   6.200   0.350
  309SOL    HW1 1826   1.936   6.181   0.428
  309SOL    HW2 1827   2.084   6.154   0.364
  310SOL     OW 1828   5.103   5.984   5.567
  310SOL    HW1 1829   5.057   5.931   5.639
  310SOL    HW2 1830   5.066   6.077   5.565
  311SOL     OW 1831   3.417   5.106   2.945
  311SOL    HW1 1832   3.341   5.065   2.994
  311SOL    HW2 1833   3.489   5.038   2.933
  312SOL     OW 1834   4.545   1.322   3.999
  312SOL    HW1 1835   4.473   1.334   3.930
  312SOL    HW2 1836   4.523   1.243   4.056
  313SOL     OW 1837   3.398   3.339   2.124
  313SOL    HW1 1838   3.484   3.386   2.143
  313SOL    HW2 1839   3.340   3.343   2.206
  314SOL     OW 1840   3.000   4.788   0.181
  314SOL    HW1 1841   3.037   4.866   0.232
  314SOL    HW2 1842   2.963   4.820   0.094
  315SOL     OW 1843   1.215   3.117   3.818
  315SOL    HW1 1844   1.213   3.215   3.838
  315SOL    HW2 1845   1.128   3.088   3.779
  316SOL     OW 1846   2.913   0.847   4.885
  316SOL    HW1 1847   2.863   0.769   4.850
  316SOL    HW2 1848   2.904   0.924   4.822
  317SOL     OW 1849   0.666   1.790   1.478
  317SOL    HW1 1850   0.599   1.722   1.448
  317SOL    HW2 1851   0.709   1.832   1.398
  318SOL     OW 1852   0.276   5.973   0.332
  318SOL    HW1 1853   0.209   5.964   0.406
  318SOL    HW2 1854   0.231   6.002   0.248
  319SOL     OW 1855   6.267   1.520   3.712
  319SOL    HW1 1856   6.322   1.539   3.630
  319SOL    HW2 1857   6.298   1.434   3.753
  320SOL     OW 1858   5.565   2.572   6.932
  320SOL    HW1 1859   5.651   2.530   6.905
  320SOL    HW2 1860   5.583   2.648   6.994
  321SOL     OW 1861   3.289   1.252   6.156
  321SOL    HW1 1862   3.353   1.248   6.233
  321SOL    HW2 1863   3.320   1.319   6.090
  322SOL     OW 1864   3.249   3.509   3.553
  322SOL    HW1 1865   3.346   3.487   3.545
  322SOL    HW2 1866   3.224   3.516   3.649
  323SOL     OW 1867   1.692   3.083   6.156
  323SOL    HW1 1868   1.638   3.138   6.092
  323SOL    HW2 1869   1.719   2.998   6.111
  324SOL     OW 1870   3.164   0.788   3.090
  324SOL    HW1 1871   3.195   0.768   2.997
  324SOL    HW2 1872   3.074   0.746   3.104
  325SOL     OW 1873   0.269   2.742   2.350
  325SOL    HW1 1874   0.228   2.815   2.296
  325SOL    HW2 1875   0.293   2.777   2.441
  326SOL     OW 1876   1.241   5.030   6.572
  326SOL    HW1 1877   1.320   5.051   6.629
  326SOL    HW2 1878   1.179   5.109   6.570
  327SOL     OW 1879   1.621   4.533   1.971
  327SOL    HW1 1880   1.653   4.524   1.876
  327SOL    HW2 1881   1.582   4.447   2.002
  328SOL     OW 1882   1.284   5.847   1.851
  328SOL    HW1 1883   1.234   5.924   1.890
  328SOL    HW2 1884   1.253   5.832   1.757
  329SOL     OW 1885   2.997   3.141   4.487
  329SOL    HW1 1886   3.011   3.110   4.581
  329SOL    HW2 1887   3.082   3.129   4.436
  330SOL     OW 1888   3.633   6.186   1.309
  330SOL    HW1 1889   3.545   6.166   1.353
  330SOL    HW2 1890   3.681   6.101   1.289
  331SOL     OW 1891   4.049   5.809   0.729
  331SOL    HW1 1892   4.010   5.894   0.764
  331SOL    HW2 1893   3.976   5.742   0.714
  332SOL     OW 1894   4.917   2.028   5.674
  332SOL    HW1 1895   4.932   1.967   5.596
  332SOL    HW2 1896   4.825   2.068   5.667
  333SOL     OW 1897   4.216   0.472   6.106
  333SOL    HW1 1898   4.264   0.465   6.194
  333SOL    HW2 1899   4.234   0.561   6.065
  334SOL     OW 1900   3.458   1.266   0.585
  334SOL    HW1 1901   3.509   1.188   0.621
  334SOL    HW2 1902   3.456   1.339   0.653
  335SOL     OW 1903   4.337   6.363   5.902
  335SOL    HW1 1904   4.317   6.443   5.959
  335SOL    HW2 1905   4.389   6.297   5.955
  336SOL     OW 1906   2.814   1.007   3.424
  336SOL    HW1 1907   2.783   0.933   3.364
  336SOL    HW2 1908   2.904   1.039   3.393
  337SOL     OW 1909   0.464   2.844   6.391
  337SOL    HW1 1910   0.400   2.887   6.328
  337SOL    HW2 1911   0.496   2.911   6.458
  338SOL     OW 1912   2.808   2.574   1.359
  338SOL    HW1 1913   2.801   2.521   1.443
  338SOL    HW2 1914   2.785   2.516   1.281
  339SOL     OW 1915   4.693   5.879   4.732
  339SOL    HW1 1916   4.755   5.937   4.679
  339SOL    HW2 1917   4.599   5.914   4.724
  340SOL     OW 1918   4.851   4.029   4.849
  340SOL    HW1 1919   4.897   3.996   4.767
  340SOL    HW2 1920   4.794   4.107   4.826
  341SOL     OW 1921   6.337   6.693   4.322
  341SOL    HW1 1922   6.400   6.661   4.393
  341SOL    HW2 1923   6.358   6.789   4.300
  342SOL     OW 1924   5.475   3.803   0.613
  342SOL    HW1 1925   5.384   3.843   0.612
  342SOL    HW2 1926   5.542   3.873   0.635
  343SOL     OW 1927   1.536   6.018   1.533
  343SOL    HW1 1928   1.452   6.071   1.548
  343SOL    HW2 1929   1.615   6.076   1.547
  344SOL     OW 1930   1.185   3.109   2.142
  344SOL    HW1 1931   1.159   3.197   2.181
  344SOL    HW2 1932   1.232   3.054   2.211
  345SOL     OW 1933   4.658   1.862   4.027
  345SOL    HW1 1934   4.639   1.766   4.047
  345SOL    HW2 1935   4.650   1.877   3.928
  346SOL     OW 1936   1.959   1.189   3.338
  346SOL    HW1 1937   2.033   1.246   3.374
  346SOL    HW2 1938   1.918   1.233   3.258
  347SOL     OW 1939   2.559   5.468   6.698
  347SOL    HW1 1940   2.521   5.402   6.633
  347SOL    HW2 1941   2.637   5.427   6.745
  348SOL     OW 1942   4.937   4.236   2.290
  348SOL    HW1 1943   4.870   4.223   2.218
  348SOL    HW2 1944   4.970   4.147   2.321
  349SOL     OW 1945   6.789   5.303   1.288
  349SOL    HW1 1946   6.790   5.213   1.331
  349SOL    HW2 1947   6.695   5.334   1.276
  350SOL     OW 1948   3.097   2.968   0.987
  350SOL    HW1 1949   3.100   2.986   1.086
  350SOL    HW2 1950   3.011   2.923   0.964
  351SOL     OW 1951   2.304   3.877   1.093
  351SOL    HW1 1952   2.249   3.958   1.072
  351SOL    HW2 1953   2.350   3.890   1.181
  352SOL     OW 1954   3.270   6.878   4.175
  352SOL    HW1 1955   3.286   6.867   4.076
  352SOL    HW2 1956   3.278   6.789   4.220
  353SOL     OW 1957   2.910   0.365   0.542
  353SOL    HW1 1958   2.887   0.317   0.626
  353SOL    HW2 1959   2.852   0.332   0.467
  354SOL     OW 1960   3.953   2.661   0.743
  354SOL    HW1 1961   3.894   2.596   0.694
  354SOL    HW2 1962   4.018   2.701   0.678
  355SOL     OW 1963   1.086   3.442   2.544
  355SOL    HW1 1964   1.169   3.453   2.489
  355SOL    HW2 1965   1.108   3.456   2.641
  356SOL     OW 1966   2.444   7.007   6.073
  356SOL    HW1 1967   2.376   0.043   6.024
  356SOL    HW2 1968   2.528   7.001   6.017
  357SOL     OW 1969   0.069   5.578   5.576
  357SOL    HW1 1970   0.011   5.518   5.521
  357SOL    HW2 1971   0.045   5.674   5.555
  358SOL     OW 1972   4.621   6.265   0.748
  358SOL    HW1 1973   4.530   6.295   0.777
  358SOL    HW2 1974   4.691   6.318   0.797
  359SOL     OW 1975   2.937   2.121   1.848
  359SOL    HW1 1976   3.019   2.146   1.796
  359SOL    HW2 1977   2.922   2.188   1.921
  360SOL     OW 1978   1.090   4.668   6.233
  360SOL    HW1 1979   1.189   4.663   6.239
  360SOL    HW2 1980   1.051   4.576   6.233
  361SOL     OW 1981   6.143   7.010   2.805
  361SOL    HW1 1982   6.166   6.923   2.762
  361SOL    HW2 1983   6.048   0.016   2.786
  362SOL     OW 1984   3.697   3.229   1.091
  362SOL    HW1 1985   3.724   3.311   1.142
  362SOL    HW2 1986   3.771   3.201   1.031
  363SOL     OW 1987   5.473   3.959   3.136
  363SOL    HW1 1988   5.431   3.935   3.049
  363SOL    HW2 1989   5.500   3.875   3.184
  364SOL     OW 1990   6.435   5.183   6.965
  364SOL    HW1 1991   6.458   5.276   6.935
  364SOL    HW2 1992   6.348   5.156   6.925
  365SOL     OW 1993   5.661   6.292   1.325
  365SOL    HW1 1994   5.745   6.241   1.343
  365SOL    HW2 1995   5.592   6.268   1.392
  366SOL     OW 1996   5.531   0.377   6.446
  366SOL    HW1 1997   5.560   0.346   6.355
  366SOL    HW2 1998   5.559   0.472   6.459
  367SOL     OW 1999   5.221   2.879   1.466
  367SOL    HW1 2000   5.205   2.975   1.490
  367SOL    HW2 2001   5.133   2.832   1.460
  368SOL     OW 2002   0.590   2.771   5.259
  368SOL    HW1 2003   0.549   2.690   5.218
  368SOL    HW2 2004   0.592   2.845   5.192
  369SOL     OW 2005   6.152   5.228   2.086
  369SOL    HW1 2006   6.191   5.137   2.071
  369SOL    HW2 2007   6.119   5.236   2.180
  370SOL     OW 2008   2.250   1.287   5.118
  370SOL    HW1 2009   2.198   1.323   5.195
  370SOL    HW2 2010   2.194   1.223   5.065
  371SOL     OW 2011   1.973   4.254   5.891
  371SOL    HW1 2012   1.883   4.250   5.846
  371SOL    HW2 2013   2.037   4.195   5.842
  372SOL     OW 2014   0.909   6.802   6.425
  372SOL    HW1 2015   0.911   6.902   6.432
  372SOL    HW2 2016   0.980   6.772   6.362
  373SOL     OW 2017   5.932   5.963   4.395
  373SOL    HW1 2018   5.875   5.962   4.313
  373SOL    HW2 2019   5.968   6.055   4.410
  374SOL     OW 2020   3.032   1.949   3.873
  374SOL    HW1 2021   3.045   2.023   3.940
  374SOL    HW2 2022   3.117   1.934   3.824
  375SOL     OW 2023   1.265   4.761   4.098
  375SOL    HW1 2024   1.228   4.681   4.143
  375SOL    HW2 2025   1.284   4.741   4.002
  376SOL     OW 2026   2.580   0.755   5.068
  376SOL    HW1 2027   2.505   0.733   5.006
  376SOL    HW2 2028   2.596   0.854   5.068
  377SOL     OW 2029   1.168   2.213   0.829
  377SOL    HW1 2030   1.207   2.127   0.862
  377SOL    HW2 2031   1.094   2.242   0.891
  378SOL     OW 2032   4.812   2.736   6.259
  378SOL    HW1 2033   4.906   2.713   6.232
  378SOL    HW2 2034   4.756   2.653   6.253
  379SOL     OW 2035   6.054   2.922   1.145
  379SOL    HW1 2036   6.073   2.855   1.216
  379SOL    HW2 2037   6.003   2.878   1.071
  380SOL     OW 2038   2.284   1.381   0.683
  380SOL    HW1 2039   2.284   1.462   0.624
  380SOL    HW2 2040   2.373   1.372   0.727
  381SOL     OW 2041   0.875   3.740   2.612
  381SOL    HW1 2042   0.797   3.688   2.576
  381SOL    HW2 2043   0.960   3.701   2.578
  382SOL     OW 2044   5.481   0.227   6.666
  382SOL    HW1 2045   5.460   0.269   6.578
  382SOL    HW2 2046   5.543   0.287   6.717
  383SOL     OW 2047   3.809   3.764   6.543
  383SOL    HW1 2048   3.729   3.814   6.511
  383SOL    HW2 2049   3.783   3.671   6.567
  384SOL     OW 2050   0.134   5.853   3.819
  384SOL    HW1 2051   0.089   5.766   3.798
  384SOL    HW2 2052   0.091   5.895   3.899
  385SOL     OW 2053   3.192   4.779   5.435
  385SOL    HW1 2054   3.271   4.839   5.427
  385SOL    HW2 2055   3.137   4.784   5.351
  386SOL     OW 2056   2.430   0.041   5.417
  386SOL    HW1 2057   2.407   0.089   5.332
  386SOL    HW2 2058   2.401   6.964   5.410
  387SOL     OW 2059   1.455   6.768   2.694
  387SOL    HW1 2060   1.366   6.812   2.687
  387SOL    HW2 2061   1.476   6.722   2.607
  388SOL     OW 2062   1.514   1.668   4.940
  388SOL    HW1 2063   1.574   1.742   4.972
  388SOL    HW2 2064   1.564   1.613   4.873
  389SOL     OW 2065   4.090   3.950   1.353
  389SOL    HW1 2066   4.115   4.046   1.341
  389SOL    HW2 2067   4.159   3.892   1.311
  390SOL     OW 2068   3.455   1.495   0.772
  390SOL    HW1 2069   3.546   1.510   0.811
  390SOL    HW2 2070   3.438   1.562   0.700
  391SOL     OW 2071   2.237   3.238   6.730
  391SOL    HW1 2072   2.151   3.244   6.783
  391SOL    HW2 2073   2.291   3.161   6.765
  392SOL     OW 2074   1.291   4.425   0.760
  392SOL    HW1 2075   1.355   4.348   0.769
  392SOL    HW2 2076   1.216   4.399   0.699
  393SOL     OW 2077   1.340   4.252   6.516
  393SOL    HW1 2078   1.418   4.211   6.563
  393SOL    HW2 2079   1.267   4.270   6.582
  394SOL     OW 2080   0.022   2.236   0.545
  394SOL    HW1 2081   0.096   2.215   0.610
  394SOL    HW2 2082   7.000   2.325   0.569
  395SOL     OW 2083   5.269   4.102   3.438
  395SOL    HW1 2084   5.318   4.150   3.365
  395SOL    HW2 2085   5.247   4.167   3.511
  396SOL     OW 2086   3.161   3.695   1.500
  396SOL    HW1 2087   3.141   3.779   1.552
  396SOL    HW2 2088   3.253   3.700   1.462
  397SOL     OW 2089   5.939   1.277   5.603
  397SOL    HW1 2090   6.032   1.268   5.638
  397SOL    HW2 2091   5.934   1.237   5.511
  398SOL     OW 2092   1.372   0.131   2.590
  398SOL    HW1 2093   1.328   0.220   2.602
  398SOL    HW2 2094   1.438   0.117   2.664
  399SOL     OW 2095   5.653   5.991   2.353
  399SOL    HW1 2096   5.565   5.944   2.358
  399SOL    HW2 2097   5.667   6.045   2.436
  400SOL     OW 2098   6.691   6.313   5.242
  400SOL    HW1 2099   6.730   6.279   5.328
  400SOL    HW2 2100   6.658   6.406   5.256
  401SOL     OW 2101   5.892   0.270   6.422
  401SOL    HW1 2102   5.819   0.258   6.355
  401SOL    HW2 2103   5.853   0.291   6.511
  402SOL     OW 2104   6.179   0.179   3.800
  402SOL    HW1 2105   6.224   0.110   3.742
  402SOL    HW2 2106   6.117   0.233   3.743
  403SOL     OW 2107   3.797   1.912   4.551
  403SOL    HW1 2108   3.796   2.003   4.512
  403SOL    HW2 2109   3.768   1.917   4.647
  404SOL     OW 2110   1.900   5.151   3.861
  404SOL    HW1 2111   1.925   5.177   3.954
  404SOL    HW2 2112   1.942   5.216   3.797
  405SOL     OW 2113   2.248   3.032   2.588
  405SOL    HW1 2114   2.240   2.958   2.521
  405SOL    HW2 2115   2.343   3.063   2.593
  406SOL     OW 2116   1.181   4.678   4.702
  406SOL    HW1 2117   1.226   4.688   4.613
  406SOL    HW2 2118   1.219   4.599   4.750
  407SOL     OW 2119   1.050   1.174   4.835
  407SOL    HW1 2120   0.985   1.235   4.790
  407SOL    HW2 2121   1.143   1.205   4.816
  408SOL     OW 2122   1.370   2.220   2.869
  408SOL    HW1 2123   1.460   2.208   2.828
  408SOL    HW2 2124   1.299   2.204   2.800
  409SOL     OW 2125   6.597   2.914   2.388
  409SOL    HW1 2126   6.640   2.825   2.398
  409SOL    HW2 2127   6.595   2.961   2.476
  410SOL     OW 2128   1.792   1.765   0.998
  410SOL    HW1 2129   1.783   1.748   1.096
  410SOL    HW2 2130   1.796   1.678   0.948
  411SOL     OW 2131   6.578   0.833   1.804
  411SOL    HW1 2132   6.648   0.778   1.850
  411SOL    HW2 2133   6.548   0.787   1.720
  412SOL     OW 2134   2.913   6.132   3.324
  412SOL    HW1 2135   2.923   6.065   3.250
  412SOL    HW2 2136   2.816   6.153   3.337
  413SOL     OW 2137   5.608   3.894   1.636
  413SOL    HW1 2138   5.698   3.869   1.601
  413SOL    HW2 2139   5.580   3.982   1.598
  414SOL     OW 2140   3.019   5.118   3.297
  414SOL    HW1 2141   2.958   5.195   3.284
  414SOL    HW2 2142   3.114   5.148   3.288
  415SOL     OW 2143   0.680   6.205   6.808
  415SOL    HW1 2144   0.670   6.300   6.837
  415SOL    HW2 2145   0.685   6.146   6.889
  416SOL     OW 2146   4.730   6.590   4.806
  416SOL    HW1 2147   4.750   6.668   4.865
  416SOL    HW2 2148   4.644   6.548   4.834
  417SOL     OW 2149   1.610   6.196   5.996
  417SOL    HW1 2150   1.597   6.115   6.053
  417SOL    HW2 2151   1.521   6.237   5.976
  418SOL     OW 2152   3.811   0.071   6.658
  418SOL    HW1 2153   3.792   6.994   6.631
  418SOL    HW2 2154   3.802   0.080   6.757
  419SOL     OW 2155   1.665   6.265   1.554
  419SOL    HW1 2156   1.737   6.327   1.586
  419SOL    HW2 2157   1.575   6.305   1.571
  420SOL     OW 2158   6.090   1.129   0.352
  420SOL    HW1 2159   6.035   1.204   0.314
  420SOL    HW2 2160   6.165   1.166   0.405
  421SOL     OW 2161   0.093   4.158   5.055
  421SOL    HW1 2162   0.015   4.098   5.066
  421SOL    HW2 2163   0.163   4.135   5.123
  422SOL     OW 2164   5.354   3.764   1.508
  422SOL    HW1 2165   5.283   3.812   1.560
  422SOL    HW2 2166   5.443   3.805   1.529
  423SOL     OW 2167   0.578   2.167   5.915
  423SOL    HW1 2168   0.648   2.096   5.906
  423SOL    HW2 2169   0.491   2.134   5.879
  424SOL     OW 2170   1.318   5.595   1.154
  424SOL    HW1 2171   1.315   5.694   1.141
  424SOL    HW2 2172   1.348   5.575   1.247
  425SOL     OW 2173   4.668   1.851   3.758
  425SOL    HW1 2174   4.603   1.775   3.752
  425SOL    HW2 2175   4.751   1.829   3.706
  426SOL     OW 2176   3.507   1.835   4.276
  426SOL    HW1 2177   3.414   1.866   4.257
  426SOL    HW2 2178   3.572   1.904   4.244
  427SOL     OW 2179   5.749   6.085   3.938
  427SOL    HW1 2180   5.677   6.146   3.908
  427SOL    HW2 2181   5.771   6.020   3.865
  428SOL     OW 2182   4.790   0.029   3.537
  428SOL    HW1 2183   4.772   0.122   3.571
  428SOL    HW2 2184   4.737   0.014   3.453
  429SOL     OW 2185   1.029   4.860   1.937
  429SOL    HW1 2186   1.067   4.859   1.844
  429SOL    HW2 2187   0.983   4.947   1.953
  430SOL     OW 2188   0.820   6.981   4.248
  430SOL    HW1 2189   0.789   6.975   4.343
  430SOL    HW2 2190   0.868   6.897   4.223
  431SOL     OW 2191   2.883   0.671   1.355
  431SOL    HW1 2192   2.933   0.685   1.269
  431SOL    HW2 2193   2.946   0.642   1.426
  432SOL     OW 2194   6.385   1.945   0.734
  432SOL    HW1 2195   6.374   1.973   0.829
  432SOL    HW2 2196   6.481   1.924   0.716
  433SOL     OW 2197   2.080   6.627   4.900
  433SOL    HW1 2198   2.009   6.559   4.883
  433SOL    HW2 2199   2.127   6.605   4.986
  434SOL     OW 2200   3.604   5.508   3.520
  434SOL    HW1 2201   3.659   5.453   3.458
  434SOL    HW2 2202   3.603   5.466   3.611
  435SOL     OW 2203   4.565   2.277   6.676
  435SOL    HW1 2204   4.581   2.207   6.607
  435SOL    HW2 2205   4.468   2.301   6.677
  436SOL     OW 2206   3.516   5.579   1.909
  436SOL    HW1 2207   3.486   5.544   1.998
  436SOL    HW2 2208   3.437   5.594   1.850
  437SOL     OW 2209   1.002   1.405   6.609
  437SOL    HW1 2210   0.935   1.419   6.535
  437SOL    HW2 2211   1.036   1.312   6.606
  438SOL     OW 2212   2.220   4.070   3.700
  438SOL    HW1 2213   2.194   3.983   3.658
  438SOL    HW2 2214   2.258   4.130   3.630
  439SOL     OW 2215   6.024   5.707   2.304
  439SOL    HW1 2216   6.100   5.745   2.252
  439SOL    HW2 2217   5.985   5.630   2.253
  440SOL     OW 2218   2.669   1.992   5.219
  440SOL    HW1 2219   2.585   2.030   5.258
  440SOL    HW2 2220   2.708   2.057   5.154
  441SOL     OW 2221   0.782   3.472   3.918
  441SOL    HW1 2222   0.854   3.427   3.970
  441SOL    HW2 2223   0.698   3.476   3.973
  442SOL     OW 2224   3.637   5.999   5.562
  442SOL    HW1 2225   3.590   5.942   5.629
  442SOL    HW2 2226   3.731   5.968   5.552
  443SOL     OW 2227   6.142   4.201   4.021
  443SOL    HW1 2228   6.197   4.281   3.997
  443SOL    HW2 2229   6.077   4.225   4.093
  444SOL     OW 2230   5.427   0.731   6.574
  444SOL    HW1 2231   5.498   0.704   6.510
  444SOL    HW2 2232   5.341   0.688   6.549
  445SOL     OW 2233   1.687   5.542   2.807
  445SOL    HW1 2234   1.731   5.629   2.787
  445SOL    HW2 2235   1.634   5.550   2.892
  446SOL     OW 2236   3.511   5.006   3.288
  446SOL    HW1 2237   3.424   4.974   3.323
  446SOL    HW2 2238   3.565   4.928   3.254
  447SOL     OW 2239   0.547   2.933   6.106
  447SOL    HW1 2240   0.606   3.009   6.134
  447SOL    HW2 2241   0.565   2.911   6.010
  448SOL     OW 2242   2.445   0.732   2.916
  448SOL    HW1 2243   2.361   0.686   2.947
  448SOL    HW2 2244   2.448   0.730   2.816
  449SOL     OW 2245   2.620   1.309   4.087
  449SOL    HW1 2246   2.574   1.288   4.001
  449SOL    HW2 2247   2.604   1.236   4.153
  450SOL     OW 2248   1.179   4.926   3.175
  450SOL    HW1 2249   1.186   4.998   3.244
  450SOL    HW2 2250   1.137   4.964   3.093
  451SOL     OW 2251   1.351   2.231   4.563
  451SOL    HW1 2252   1.375   2.302   4.628
  451SOL    HW2 2253   1.340   2.271   4.472
  452SOL     OW 2254   5.677   6.537   0.371
  452SOL    HW1 2255   5.705   6.574   0.460
  452SOL    HW2 2256   5.645   6.611   0.313
  453SOL     OW 2257   4.031   0.283   6.749
  453SOL    HW1 2258   4.044   0.215   6.678
  453SOL    HW2 2259   4.030   0.374   6.708
  454SOL     OW 2260   0.225   4.285   6.394
  454SOL    HW1 2261   0.161   4.214   6.423
  454SOL    HW2 2262   0.276   4.318   6.473
  455SOL     OW 2263   5.403   2.096   4.689
  455SOL    HW1 2264   5.404   2.163   4.615
  455SOL    HW2 2265   5.447   2.134   4.770
  456SOL     OW 2266   0.506   0.213   3.586
  456SOL    HW1 2267   0.527   0.255   3.497
  456SOL    HW2 2268   0.476   0.284   3.650
  457SOL     OW 2269   1.752   3.508   4.601
  457SOL    HW1 2270   1.849   3.495   4.621
  457SOL    HW2 2271   1.697   3.458   4.668
  458SOL     OW 2272   3.123   6.107   2.801
  458SOL    HW1 2273   3.083   6.027   2.845
  458SOL    HW2 2274   3.220   6.113   2.824
  459SOL     OW 2275   2.050   6.914   6.053
  459SOL    HW1 2276   2.143   6.938   6.026
  459SOL    HW2 2277   2.053   6.855   6.134
  460SOL     OW 2278   2.281   6.796   4.840
  460SOL    HW1 2279   2.203   6.734   4.845
  460SOL    HW2 2280   2.303   6.830   4.931
  461SOL     OW 2281   0.258   5.412   5.656
  461SOL    HW1 2282   0.314   5.369   5.585
  461SOL    HW2 2283   0.191   5.473   5.613
  462SOL     OW 2284   3.706   3.443   6.985
  462SOL    HW1 2285   3.686   3.347   6.966
  462SOL    HW2 2286   3.781   3.473   6.926
  463SOL     OW 2287   5.798   5.938   4.166
  463SOL    HW1 2288   5.775   6.000   4.092
  463SOL    HW2 2289   5.853   5.863   4.131
  464SOL     OW 2290   2.879   1.024   5.099
  464SOL    HW1 2291   2.929   1.108   5.079
  464SOL    HW2 2292   2.909   0.951   5.039
  465SOL     OW 2293   0.917   2.411   0.127
  465SOL    HW1 2294   1.016   2.422   0.136
  465SOL    HW2 2295   0.873   2.501   0.131
  466SOL     OW 2296   1.735   6.624   4.080
  466SOL    HW1 2297   1.802   6.555   4.109
  466SOL    HW2 2298   1.779   6.714   4.080
  467SOL     OW 2299   1.835   1.267   1.306
  467SOL    HW1 2300   1.876   1.320   1.232
  467SOL    HW2 2301   1.772   1.325   1.358
  468SOL     OW 2302   3.643   6.272   5.645
  468SOL    HW1 2303   3.565   6.332   5.626
  468SOL    HW2 2304   3.621   6.179   5.614
  469SOL     OW 2305   2.703   3.675   6.432
  469SOL    HW1 2306   2.720   3.584   6.395
  469SOL    HW2 2307   2.778   3.701   6.494
  470SOL     OW 2308   4.820   6.402   0.895
  470SOL    HW1 2309   4.854   6.495   0.910
  470SOL    HW2 2310   4.755   6.379   0.968
  471SOL     OW 2311   2.615   2.455   4.040
  471SOL    HW1 2312   2.608   2.554   4.029
  471SOL    HW2 2313   2.524   2.417   4.055
  472SOL     OW 2314   5.127   4.541   6.094
  472SOL    HW1 2315   5.205   4.488   6.062
  472SOL    HW2 2316   5.113   4.525   6.191
  473SOL     OW 2317   1.247   2.260   2.489
  473SOL    HW1 2318   1.182   2.231   2.419
  473SOL    HW2 2319   1.288   2.347   2.463
  474SOL     OW 2320   5.224   6.201   4.678
  474SOL    HW1 2321   5.272   6.120   4.641
  474SOL    HW2 2322   5.136   6.172   4.716
  475SOL     OW 2323   6.099   2.069   6.831
  475SOL    HW1 2324   6.101   2.070   6.731
  475SOL    HW2 2325   6.005   2.053   6.862
  476SOL     OW 2326   0.002   3.715   2.260
  476SOL    HW1 2327   7.015   3.622   2.298
  476SOL    HW2 2328   0.026   3.710   2.163
  477SOL     OW 2329   2.915   6.004   3.052
  477SOL    HW1 2330   2.829   5.960   3.027
  477SOL    HW2 2331   2.991   5.943   3.031
  478SOL     OW 2332   3.466   6.541   2.203
  478SOL    HW1 2333   3.438   6.455   2.246
  478SOL    HW2 2334   3.387   6.602   2.195
  479SOL     OW 2335   3.708   3.194   5.363
  479SOL    HW1 2336   3.732   3.280   5.318
  479SOL    HW2 2337   3.655   3.213   5.445
  480SOL     OW 2338   2.357   0.980   0.567
  480SOL    HW1 2339   2.318   0.960   0.657
  480SOL    HW2 2340   2.294   1.037   0.515
  481SOL     OW 2341   1.103   6.530   1.512
  481SOL    HW1 2342   1.170   6.583   1.563
  481SOL    HW2 2343   1.080   6.447   1.563
  482SOL     OW 2344   4.171   4.812   2.113
  482SOL    HW1 2345   4.251   4.871   2.128
  482SOL    HW2 2346   4.115   4.850   2.040
  483SOL     OW 2347   6.319   2.433   2.947
  483SOL    HW1 2348   6.370   2.419   3.032
  483SOL    HW2 2349   6.379   2.478   2.880
  484SOL     OW 2350   2.185   3.229   5.490
  484SOL    HW1 2351   2.273   3.242   5.444
  484SOL    HW2 2352   2.110   3.243   5.425
  485SOL     OW 2353   4.183   4.689   2.513
  485SOL    HW1 2354   4.261   4.684   2.451
  485SOL    HW2 2355   4.099   4.699   2.459
  486SOL     OW 2356   6.921   1.117   0.080
  486SOL    HW1 2357   6.950   1.025   0.054
  486SOL    HW2 2358   6.844   1.145   0.022
  487SOL     OW 2359   1.015   0.601   3.443
  487SOL    HW1 2360   0.958   0.674   3.480
  487SOL    HW2 2361   0.996   0.516   3.492
  488SOL     OW 2362   1.571   0.842   2.563
  488SOL    HW1 2363   1.513   0.761   2.575
  488SOL    HW2 2364   1.639   0.824   2.492
  489SOL     OW 2365   5.356   5.893   5.527
  489SOL    HW1 2366   5.256   5.902   5.531
  489SOL    HW2 2367   5.390   5.862   5.616
  490SOL     OW 2368   1.110   6.322   3.404
  490SOL    HW1 2369   1.207   6.302   3.420
  490SOL    HW2 2370   1.066   6.343   3.491
  491SOL     OW 2371   0.969   3.451   1.937
  491SOL    HW1 2372   0.987   3.357   1.908
  491SOL    HW2 2373   0.879   3.456   1.981
  492SOL     OW 2374   1.623   0.417   5.601
  492SOL    HW1 2375   1.672   0.390   5.519
  492SOL    HW2 2376   1.609   0.516   5.601
  493SOL     OW 2377   3.872   6.450   5.427
  493SOL    HW1 2378   3.951   6.393   5.449
  493SOL    HW2 2379   3.796   6.392   5.398
  494SOL     OW 2380   0.938   0.077   6.430
  494SOL    HW1 2381   0.867   0.111   6.369
  494SOL    HW2 2382   1.028   0.095   6.389
  495SOL     OW 2383   3.970   5.801   3.542
  495SOL    HW1 2384   4.009   5.875   3.597
  495SOL    HW2 2385   3.935   5.839   3.456
  496SOL     OW 2386   5.544   2.881   1.634
  496SOL    HW1 2387   5.487   2.798   1.635
  496SOL    HW2 2388   5.489   2.959   1.664
  497SOL     OW 2389   3.510   1.546   4.312
  497SOL    HW1 2390   3.532   1.642   4.298
  497SOL    HW2 2391   3.542   1.517   4.403
  498SOL     OW 2392   0.889   5.082   2.023
  498SOL    HW1 2393   0.840   5.167   2.042
  498SOL    HW2 2394   0.844   5.006   2.070
  499SOL     OW 2395   1.819   5.265   4.545
  499SOL    HW1 2396   1.872   5.289   4.626
  499SOL    HW2 2397   1.882   5.243   4.470
  500SOL     OW 2398   0.040   2.238   6.012
  500SOL    HW1 2399   0.021   2.284   5.925
  500SOL    HW2 2400   0.104   2.293   6.065
  501SOL     OW 2401   4.251   0.236   1.094
  501SOL    HW1 2402   4.297   0.218   1.007
  501SOL    HW2 2403   4.312   0.212   1.170
  502SOL     OW 2404   0.856   4.357   5.457
  502SOL    HW1 2405   0.916   4.437   5.447
  502SOL    HW2 2406   0.820   4.330   5.368
  503SOL     OW 2407   0.063   4.831   6.483
  503SOL    HW1 2408   0.010   4.916   6.487
  503SOL    HW2 2409   0.090   4.813   6.389
  504SOL     OW 2410   0.801   5.328   2.482
  504SOL    HW1 2411   0.817   5.245   2.428
  504SOL    HW2 2412   0.885   5.383   2.484
  505SOL     OW 2413   3.467   5.954   4.572
  505SOL    HW1 2414   3.493   5.858   4.572
  505SOL    HW2 2415   3.386   5.966   4.514
  506SOL     OW 2416   3.739   5.706   3.183
  506SOL    HW1 2417   3.641   5.697   3.202
  506SOL    HW2 2418   3.753   5.725   3.086
  507SOL     OW 2419   3.713   0.232   3.376
  507SOL    HW1 2420   3.801   0.186   3.368
  507SOL    HW2 2421   3.664   0.228   3.289
  508SOL     OW 2422   6.908   3.530   3.167
  508SOL    HW1 2423   6.987   3.585   3.140
  508SOL    HW2 2424   6.939   3.443   3.204
  509SOL     OW 2425   3.258   1.612   1.280
  509SOL    HW1 2426   3.334   1.626   1.343
  509SOL    HW2 2427   3.213   1.525   1.302
  510SOL     OW 2428   6.326   4.066   0.025
  510SOL    HW1 2429   6.377   4.010   0.090
  510SOL    HW2 2430   6.246   4.106   0.070
  511SOL     OW 2431   1.026   2.327   5.834
  511SOL    HW1 2432   1.026   2.339   5.933
  511SOL    HW2 2433   1.105   2.272   5.807
  512SOL     OW 2434   0.247   2.191   6.856
  512SOL    HW1 2435   0.345   2.201   6.842
  512SOL    HW2 2436   0.200   2.204   6.768
  513SOL     OW 2437   5.683   6.501   3.263
  513SOL    HW1 2438   5.763   6.489   3.321
  513SOL    HW2 2439   5.600   6.484   3.316
  514SOL     OW 2440   6.267   0.209   4.625
  514SOL    HW1 2441   6.208   0.197   4.705
  514SOL    HW2 2442   6.354   0.163   4.640
  515SOL     OW 2443   1.290   0.481   1.487
  515SOL    HW1 2444   1.271   0.387   1.516
  515SOL    HW2 2445   1.208   0.520   1.444
  516SOL     OW 2446   2.824   4.797   2.159
  516SOL    HW1 2447   2.816   4.720   2.095
  516SOL    HW2 2448   2.750   4.862   2.141
  517SOL     OW 2449   3.640   5.130   1.844
  517SOL    HW1 2450   3.731   5.104   1.877
  517SOL    HW2 2451   3.586   5.048   1.827
  518SOL     OW 2452   2.358   2.190   3.965
  518SOL    HW1 2453   2.384   2.242   3.883
  518SOL    HW2 2454   2.331   2.254   4.037
  519SOL     OW 2455   0.903   6.351   3.587
  519SOL    HW1 2456   0.826   6.385   3.532
  519SOL    HW2 2457   0.878   6.355   3.684
  520SOL     OW 2458   5.830   3.662   6.770
  520SOL    HW1 2459   5.822   3.564   6.751
  520SOL    HW2 2460   5.893   3.676   6.847
  521SOL     OW 2461   6.268   5.842   5.284
  521SOL    HW1 2462   6.226   5.930   5.264
  521SOL    HW2 2463   6.366   5.856   5.301
  522SOL     OW 2464   3.600   3.207   3.588
  522SOL    HW1 2465   3.601   3.185   3.490
  522SOL    HW2 2466   3.567   3.128   3.639
  523SOL     OW 2467   0.153   6.287   1.910
  523SOL    HW1 2468   0.155   6.346   1.829
  523SOL    HW2 2469   0.115   6.198   1.886
  524SOL     OW 2470   0.677   2.124   2.780
  524SOL    HW1 2471   0.689   2.080   2.691
  524SOL    HW2 2472   0.757   2.181   2.800
  525SOL     OW 2473   1.968   4.195   6.433
  525SOL    HW1 2474   1.890   4.136   6.454
  525SOL    HW2 2475   1.961   4.228   6.339
  526SOL     OW 2476   3.604   6.390   4.529
  526SOL    HW1 2477   3.504   6.398   4.530
  526SOL    HW2 2478   3.645   6.481   4.538
  527SOL     OW 2479   6.922   2.816   0.794
  527SOL    HW1 2480   7.015   2.784   0.774
  527SOL    HW2 2481   6.908   2.905   0.751
  528SOL     OW 2482   1.556   2.503   3.738
  528SOL    HW1 2483   1.595   2.414   3.763
  528SOL    HW2 2484   1.560   2.564   3.817
  529SOL     OW 2485   1.384   5.388   5.100
  529SOL    HW1 2486   1.389   5.310   5.037
  529SOL    HW2 2487   1.302   5.442   5.080
  530SOL     OW 2488   4.035   3.335   3.700
  530SOL    HW1 2489   4.081   3.417   3.664
  530SOL    HW2 2490   3.950   3.362   3.745
  531SOL     OW 2491   0.416   2.196   2.893
  531SOL    HW1 2492   0.405   2.288   2.854
  531SOL    HW2 2493   0.496   2.152   2.853
  532SOL     OW 2494   0.825   2.895   0.383
  532SOL    HW1 2495   0.854   2.983   0.345
  532SOL    HW2 2496   0.826   2.826   0.310
  533SOL     OW 2497   4.548   0.055   3.798
  533SOL    HW1 2498   4.490   0.042   3.718
  533SOL    HW2 2499   4.566   6.984   3.841
  534SOL     OW 2500   5.289   6.248   2.755
  534SOL    HW1 2501   5.316   6.197   2.836
  534SOL    HW2 2502   5.305   6.346   2.769
  535SOL     OW 2503   6.817   3.791   4.533
  535SOL    HW1 2504   6.810   3.698   4.496
  535SOL    HW2 2505   6.770   3.854   4.471
  536SOL     OW 2506   5.927   4.960   2.812
  536SOL    HW1 2507   5.961   5.010   2.732
  536SOL    HW2 2508   5.863   4.890   2.783
  537SOL     OW 2509   2.760   6.555   5.111
  537SOL    HW1 2510   2.772   6.554   5.210
  537SOL    HW2 2511   2.763   6.461   5.076
  538SOL     OW 2512   1.159   4.504   3.724
  538SOL    HW1 2513   1.199   4.436   3.662
  538SOL    HW2 2514   1.078   4.544   3.682
  539SOL     OW 2515   1.563   5.242   1.303
  539SOL    HW1 2516   1.584   5.219   1.208
  539SOL    HW2 2517   1.508   5.168   1.343
  540SOL     OW 2518   1.334   1.876   2.799
  540SOL    HW1 2519   1.274   1.902   2.723
  540SOL    HW2 2520   1.429   1.884   2.770
  541SOL     OW 2521   5.325   5.474   3.503
  541SOL    HW1 2522   5.284   5.563   3.520
  541SOL    HW2 2523   5.421   5.486   3.476
  542SOL     OW 2524   5.913   6.574   6.668
  542SOL    HW1 2525   5.910   6.674   6.675
  542SOL    HW2 2526   5.828   6.535   6.704
  543SOL     OW 2527   0.080   3.683   4.914
  543SOL    HW1 2528   0.096   3.777   4.941
  543SOL    HW2 2529   0.073   3.625   4.996
  544SOL     OW 2530   1.344   4.918   0.374
  544SOL    HW1 2531   1.404   4.920   0.294
  544SOL    HW2 2532   1.399   4.926   0.457
  545SOL     OW 2533   3.369   1.799   0.679
  545SOL    HW1 2534   3.347   1.775   0.585
  545SOL    HW2 2535   3.364   1.898   0.691
  546SOL     OW 2536   2.149   3.517   0.586
  546SOL    HW1 2537   2.100   3.604   0.591
  546SOL    HW2 2538   2.085   3.443   0.571
  547SOL     OW 2539   3.399   1.755   0.030
  547SOL    HW1 2540   3.415   1.717   0.121
  547SOL    HW2 2541   3.306   1.732   7.017
  548SOL     OW 2542   3.216   3.372   2.375
  548SOL    HW1 2543   3.119   3.347   2.388
  548SOL    HW2 2544   3.271   3.327   2.446
  549SOL     OW 2545   5.810   2.836   0.812
  549SOL    HW1 2546   5.795   2.870   0.719
  549SOL    HW2 2547   5.904   2.804   0.820
  550SOL     OW 2548   1.226   5.628   4.001
  550SOL    HW1 2549   1.273   5.658   3.917
  550SOL    HW2 2550   1.251   5.534   4.021
  551SOL     OW 2551   1.287   0.179   2.190
  551SOL    HW1 2552   1.301   0.278   2.189
  551SOL    HW2 2553   1.209   0.157   2.249
  552SOL     OW 2554   6.557   4.679   6.892
  552SOL    HW1 2555   6.495   4.602   6.885
  552SOL    HW2 2556   6.547   4.738   6.812
  553SOL     OW 2557   2.440   6.350   3.428
  553SOL    HW1 2558   2.426   6.328   3.525
  553SOL    HW2 2559   2.468   6.445   3.420
  554SOL     OW 2560   6.597   6.861   6.568
  554SOL    HW1 2561   6.570   6.786   6.629
  554SOL    HW2 2562   6.522   6.884   6.507
  555SOL     OW 2563   2.440   4.585   4.668
  555SOL    HW1 2564   2.379   4.507   4.670
  555SOL    HW2 2565   2.499   4.583   4.749
  556SOL     OW 2566   4.169   1.942   3.846
  556SOL    HW1 2567   4.176   1.974   3.941
  556SOL    HW2 2568   4.260   1.941   3.804
  557SOL     OW 2569   6.995   5.842   1.305
  557SOL    HW1 2570   0.006   5.930   1.343
  557SOL    HW2 2571   7.011   5.841   1.206
  558SOL     OW 2572   2.977   3.505   3.465
  558SOL    HW1 2573   2.950   3.572   3.396
  558SOL    HW2 2574   3.076   3.508   3.478
  559SOL     OW 2575   0.186   5.651   6.828
  559SOL    HW1 2576   0.111   5.591   6.801
  559SOL    HW2 2577   0.250   5.662   6.752
  560SOL     OW 2578   5.594   4.705   5.103
  560SOL    HW1 2579   5.526   4.702   5.029
  560SOL    HW2 2580   5.621   4.612   5.127
  561SOL     OW 2581   0.874   2.081   1.537
  561SOL    HW1 2582   0.895   2.017   1.610
  561SOL    HW2 2583   0.916   2.049   1.452
  562SOL     OW 2584   4.306   6.575   6.075
  562SOL    HW1 2585   4.229   6.605   6.132
  562SOL    HW2 2586   4.389   6.624   6.102
  563SOL     OW 2587   3.014   6.798   3.066
  563SOL    HW1 2588   3.101   6.757   3.095
  563SOL    HW2 2589   2.939   6.757   3.117
  564SOL     OW 2590   1.423   2.661   6.408
  564SOL    HW1 2591   1.439   2.706   6.320
  564SOL    HW2 2592   1.355   2.588   6.396
  565SOL     OW 2593   3.071   3.111   4.767
  565SOL    HW1 2594   2.995   3.177   4.769
  565SOL    HW2 2595   3.150   3.151   4.814
  566SOL     OW 2596   0.067   4.795   3.513
  566SOL    HW1 2597   0.017   4.877   3.485
  566SOL    HW2 2598   0.074   4.793   3.613
  567SOL     OW 2599   3.096   3.036   1.261
  567SOL    HW1 2600   3.027   2.964   1.257
  567SOL    HW2 2601   3.082   3.091   1.343
  568SOL     OW 2602   4.882   0.471   6.882
  568SOL    HW1 2603   4.874   0.571   6.877
  568SOL    HW2 2604   4.977   0.446   6.898
  569SOL     OW 2605   1.973   2.901   6.926
  569SOL    HW1 2606   2.044   2.939   6.985
  569SOL    HW2 2607   1.912   2.974   6.896
  570SOL     OW 2608   4.022   5.978   6.639
  570SOL    HW1 2609   3.924   5.993   6.624
  570SOL    HW2 2610   4.041   5.978   6.737
  571SOL     OW 2611   3.507   6.622   1.904
  571SOL    HW1 2612   3.487   6.713   1.939
  571SOL    HW2 2613   3.487   6.554   1.975
  572SOL     OW 2614   2.469   4.654   5.436
  572SOL    HW1 2615   2.380   4.612   5.421
  572SOL    HW2 2616   2.532   4.627   5.362
  573SOL     OW 2617   5.140   1.340   5.341
  573SOL    HW1 2618   5.149   1.379   5.432
  573SOL    HW2 2619   5.126   1.241   5.348
  574SOL     OW 2620   3.823   1.486   4.251
  574SOL    HW1 2621   3.850   1.543   4.329
  574SOL    HW2 2622   3.729   1.454   4.264
  575SOL     OW 2623   4.880   3.750   6.964
  575SOL    HW1 2624   4.841   3.674   6.912
  575SOL    HW2 2625   4.810   3.819   6.980
  576SOL     OW 2626   0.864   1.866   3.383
  576SOL    HW1 2627   0.806   1.848   3.304
  576SOL    HW2 2628   0.910   1.781   3.410
  577SOL     OW 2629   1.536   1.526   2.909
  577SOL    HW1 2630   1.508   1.611   2.954
  577SOL    HW2 2631   1.487   1.518   2.822
  578SOL     OW 2632   5.554   5.376   3.681
  578SOL    HW1 2633   5.598   5.286   3.682
  578SOL    HW2 2634   5.458   5.367   3.708
  579SOL     OW 2635   1.820   3.381   3.244
  579SOL    HW1 2636   1.785   3.352   3.333
  579SOL    HW2 2637   1.917   3.405   3.252
  580SOL     OW 2638   4.693   5.648   6.525
  580SOL    HW1 2639   4.693   5.748   6.528
  580SOL    HW2 2640   4.772   5.617   6.472
  581SOL     OW 2641   1.971   3.659   1.714
  581SOL    HW1 2642   1.979   3.759   1.714
  581SOL    HW2 2643   1.875   3.634   1.711
  582SOL     OW 2644   4.158   6.320   1.757
  582SOL    HW1 2645   4.144   6.413   1.790
  582SOL    HW2 2646   4.226   6.321   1.683
  583SOL     OW 2647   3.085   6.275   5.449
  583SOL    HW1 2648   3.148   6.284   5.527
  583SOL    HW2 2649   3.013   6.209   5.472
  584SOL     OW 2650   3.104   5.154   6.813
  584SOL    HW1 2651   3.125   5.195   6.902
  584SOL    HW2 2652   3.141   5.212   6.741
  585SOL     OW 2653   5.211   2.215   6.341
  585SOL    HW1 2654   5.165   2.204   6.429
  585SOL    HW2 2655   5.303   2.251   6.356
  586SOL     OW 2656   3.496   0.687   6.015
  586SOL    HW1 2657   3.516   0.632   6.097
  586SOL    HW2 2658   3.435   0.636   5.955
  587SOL     OW 2659   4.505   1.968   4.808
  587SOL    HW1 2660   4.475   1.994   4.900
  587SOL    HW2 2661   4.540   2.049   4.760
  588SOL     OW 2662   1.416   4.791   2.293
  588SOL    HW1 2663   1.409   4.879   2.245
  588SOL    HW2 2664   1.360   4.723   2.246
  589SOL     OW 2665   3.365   4.653   1.583
  589SOL    HW1 2666   3.289   4.717   1.596
  589SOL    HW2 2667   3.434   4.668   1.654
  590SOL     OW 2668   4.901   2.857   2.791
  590SOL    HW1 2669   5.001   2.856   2.794
  590SOL    HW2 2670   4.869   2.945   2.756
  591SOL     OW 2671   2.965   5.349   3.865
  591SOL    HW1 2672   2.884   5.394   3.903
  591SOL    HW2 2673   2.937   5.274   3.805
  592SOL     OW 2674   3.951   1.262   1.342
  592SOL    HW1 2675   3.857   1.263   1.376
  592SOL    HW2 2676   3.983   1.356   1.331
  593SOL     OW 2677   4.412   2.475   4.670
  593SOL    HW1 2678   4.486   2.527   4.713
  593SOL    HW2 2679   4.438   2.450   4.577
  594SOL     OW 2680   6.882   1.829   0.108
  594SOL    HW1 2681   6.905   1.868   0.197
  594SOL    HW2 2682   6.965   1.792   0.066
  595SOL     OW 2683   5.944   0.194   3.290
  595SOL    HW1 2684   6.014   0.154   3.231
  595SOL    HW2 2685   5.872   0.236   3.234
  596SOL     OW 2686   1.080   5.423   3.327
  596SOL    HW1 2687   1.035   5.425   3.238
  596SOL    HW2 2688   1.011   5.419   3.399
  597SOL     OW 2689   3.037   0.332   6.881
  597SOL    HW1 2690   2.996   0.243   6.901
  597SOL    HW2 2691   3.100   0.357   6.955
  598SOL     OW 2692   4.099   4.625   5.549
  598SOL    HW1 2693   4.038   4.698   5.519
  598SOL    HW2 2694   4.051   4.565   5.612
  599SOL     OW 2695   2.566   6.318   1.600
  599SOL    HW1 2696   2.519   6.264   1.669
  599SOL    HW2 2697   2.502   6.379   1.555
  600SOL     OW 2698   0.023   1.001   6.262
  600SOL    HW1 2699   0.018   1.076   6.328
  600SOL    HW2 2700   6.956   0.948   6.267
  601SOL     OW 2701   1.513   0.431   4.607
  601SOL    HW1 2702   1.515   0.530   4.619
  601SOL    HW2 2703   1.606   0.397   4.592
  602SOL     OW 2704   2.059   2.109   6.382
  602SOL    HW1 2705   2.084   2.159   6.466
  602SOL    HW2 2706   2.001   2.168   6.325
  603SOL     OW 2707   2.800   2.147   5.036
  603SOL    HW1 2708   2.869   2.204   5.080
  603SOL    HW2 2709   2.839   2.102   4.956
  604SOL     OW 2710   1.410   2.600   1.766
  604SOL    HW1 2711   1.313   2.587   1.785
  604SOL    HW2 2712   1.458   2.624   1.851
  605SOL     OW 2713   6.528   6.487   0.734
  605SOL    HW1 2714   6.470   6.483   0.816
  605SOL    HW2 2715   6.614   6.440   0.753
  606SOL     OW 2716   4.617   6.688   6.754
  606SOL    HW1 2717   4.569   6.611   6.711
  606SOL    HW2 2718   4.702   6.655   6.796
  607SOL     OW 2719   6.886   6.178   5.908
  607SOL    HW1 2720   6.801   6.126   5.904
  607SOL    HW2 2721   6.941   6.159   5.826
  608SOL     OW 2722   3.656   6.081   6.841
  608SOL    HW1 2723   3.647   6.141   6.920
  608SOL    HW2 2724   3.565   6.061   6.804
  609SOL     OW 2725   3.983   3.134   2.822
  609SOL    HW1 2726   3.923   3.062   2.855
  609SOL    HW2 2727   4.015   3.189   2.899
  610SOL     OW 2728   5.441   4.090   1.821
  610SOL    HW1 2729   5.386   4.080   1.904
  610SOL    HW2 2730   5.536   4.066   1.841
  611SOL     OW 2731   3.950   6.961   0.956
  611SOL    HW1 2732   3.949   6.861   0.962
  611SOL    HW2 2733   3.970   6.999   1.046
  612SOL     OW 2734   3.996   6.667   5.317
  612SOL    HW1 2735   3.953   6.593   5.369
  612SOL    HW2 2736   4.081   6.635   5.277
  613SOL     OW 2737   4.115   6.285   5.500
  613SOL    HW1 2738   4.045   6.273   5.571
  613SOL    HW2 2739   4.195   6.330   5.540
  614SOL     OW 2740   5.186   5.281   0.851
  614SOL    HW1 2741   5.165   5.322   0.939
  614SOL    HW2 2742   5.106   5.287   0.791
  615SOL     OW 2743   6.367   2.383   1.668
  615SOL    HW1 2744   6.346   2.311   1.601
  615SOL    HW2 2745   6.447   2.434   1.637
  616SOL     OW 2746   0.140   3.021   3.911
  616SOL    HW1 2747   0.212   3.061   3.967
  616SOL    HW2 2748   0.136   2.922   3.928
  617SOL     OW 2749   6.547   4.400   6.197
  617SOL    HW1 2750   6.643   4.389   6.221
  617SOL    HW2 2751   6.510   4.314   6.162
  618SOL     OW 2752   6.889   2.211   6.764
  618SOL    HW1 2753   6.978   2.234   6.723
  618SOL    HW2 2754   6.893   2.118   6.802
  619SOL     OW 2755   4.302   1.229   7.011
  619SOL    HW1 2756   4.263   1.253   6.922
  619SOL    HW2 2757   4.387   1.279   0.007
  620SOL     OW 2758   4.704   2.733   1.268
  620SOL    HW1 2759   4.676   2.813   1.322
  620SOL    HW2 2760   4.629   2.668   1.262
  621SOL     OW 2761   2.646   0.003   6.804
  621SOL    HW1 2762   2.638   6.957   6.727
  621SOL    HW2 2763   2.608   6.979   6.886
  622SOL     OW 2764   1.636   0.436   5.061
  622SOL    HW1 2765   1.556   0.394   5.017
  622SOL    HW2 2766   1.712   0.371   5.062
  623SOL     OW 2767   0.823   5.549   5.569
  623SOL    HW1 2768   0.921   5.530   5.575
  623SOL    HW2 2769   0.783   5.493   5.496
  624SOL     OW 2770   0.069   2.324   1.349
  624SOL    HW1 2771   0.032   2.232   1.358
  624SOL    HW2 2772   0.117   2.333   1.262
  625SOL     OW 2773   1.811   1.572   2.298
  625SOL    HW1 2774   1.861   1.494   2.260
  625SOL    HW2 2775   1.872   1.651   2.304
  626SOL     OW 2776   2.146   5.907   2.980
  626SOL    HW1 2777   2.238   5.939   3.003
  626SOL    HW2 2778   2.152   5.816   2.938
  627SOL     OW 2779   6.020   6.393   0.154
  627SOL    HW1 2780   5.976   6.303   0.156
  627SOL    HW2 2781   5.976   6.453   0.220
  628SOL     OW 2782   6.463   5.675   6.033
  628SOL    HW1 2783   6.415   5.633   5.956
  628SOL    HW2 2784   6.562   5.673   6.016
  629SOL     OW 2785   0.094   0.223   6.750
  629SOL    HW1 2786   0.095   0.280   6.832
  629SOL    HW2 2787   0.000   0.217   6.714
  630SOL     OW 2788   0.475   1.595   0.949
  630SOL    HW1 2789   0.423   1.589   1.034
  630SOL    HW2 2790   0.479   1.505   0.905
  631SOL     OW 2791   3.649   6.988   5.106
  631SOL    HW1 2792   3.685   6.997   5.013
  631SOL    HW2 2793   3.716   6.940   5.163
  632SOL     OW 2794   3.160   1.402   0.789
  632SOL    HW1 2795   3.249   1.444   0.806
  632SOL    HW2 2796   3.167   1.303   0.798
  633SOL     OW 2797   3.299   3.999   6.904
  633SOL    HW1 2798   3.213   3.954   6.929
  633SOL    HW2 2799   3.372   3.967   6.964
  634SOL     OW 2800   3.889   3.750   1.282
  634SOL    HW1 2801   3.950   3.828   1.297
  634SOL    HW2 2802   3.800   3.769   1.322
  635SOL     OW 2803   4.497   5.448   1.713
  635SOL    HW1 2804   4.420   5.507   1.687
  635SOL    HW2 2805   4.515   5.459   1.810
  636SOL     OW 2806   3.020   5.790   0.323
  636SOL    HW1 2807   3.043   5.720   0.390
  636SOL    HW2 2808   3.091   5.861   0.324
  637SOL     OW 2809   6.701   3.409   3.477
  637SOL    HW1 2810   6.673   3.348   3.403
  637SOL    HW2 2811   6.794   3.442   3.461
  638SOL     OW 2812   5.355   2.146   4.087
  638SOL    HW1 2813   5.273   2.124   4.035
  638SOL    HW2 2814   5.410   2.212   4.037
  639SOL     OW 2815   5.157   3.386   2.738
  639SOL    HW1 2816   5.124   3.311   2.795
  639SOL    HW2 2817   5.099   3.394   2.657
  640SOL     OW 2818   0.641   5.536   3.661
  640SOL    HW1 2819   0.575   5.517   3.589
  640SOL    HW2 2820   0.727   5.568   3.620
  641SOL     OW 2821   6.686   5.087   4.403
  641SOL    HW1 2822   6.735   5.146   4.339
  641SOL    HW2 2823   6.749   5.054   4.473
  642SOL     OW 2824   6.432   3.208   4.820
  642SOL    HW1 2825   6.429   3.306   4.798
  642SOL    HW2 2826   6.389   3.192   4.909
  643SOL     OW 2827   6.364   5.607   5.794
  643SOL    HW1 2828   6.289   5.654   5.747
  643SOL    HW2 2829   6.367   5.511   5.764
  644SOL     OW 2830   1.522   6.412   4.813
  644SOL    HW1 2831   1.501   6.324   4.772
  644SOL    HW2 2832   1.525   6.482   4.742
  645SOL     OW 2833   3.716   0.990   4.101
  645SOL    HW1 2834   3.750   1.021   4.012
  645SOL    HW2 2835   3.752   1.050   4.173
  646SOL     OW 2836   3.455   0.959   4.600
  646SOL    HW1 2837   3.544   0.976   4.558
  646SOL    HW2 2838   3.427   1.040   4.652
  647SOL     OW 2839   5.175   1.319   4.662
  647SOL    HW1 2840   5.262   1.304   4.616
  647SOL    HW2 2841   5.120   1.236   4.657
  648SOL     OW 2842   0.906   3.719   4.139
  648SOL    HW1 2843   0.935   3.744   4.231
  648SOL    HW2 2844   0.894   3.620   4.133
  649SOL     OW 2845   2.840   4.074   0.886
  649SOL    HW1 2846   2.740   4.072   0.878
  649SOL    HW2 2847   2.873   3.982   0.909
  650SOL     OW 2848   6.201   4.254   0.694
  650SOL    HW1 2849   6.156   4.287   0.611
  650SOL    HW2 2850   6.245   4.331   0.740
  651SOL     OW 2851   0.191   5.734   6.066
  651SOL    HW1 2852   0.179   5.803   6.137
  651SOL    HW2 2853   0.247   5.770   5.992
  652SOL     OW 2854   4.865   6.713   3.484
  652SOL    HW1 2855   4.821   6.758   3.562
  652SOL    HW2 2856   4.864   6.775   3.406
  653SOL     OW 2857   1.440   5.415   5.527
  653SOL    HW1 2858   1.444   5.515   5.525
  653SOL    HW2 2859   1.344   5.386   5.525
  654SOL     OW 2860   0.466   4.110   6.043
  654SOL    HW1 2861   0.542   4.170   6.018
  654SOL    HW2 2862   0.380   4.153   6.017
  655SOL     OW 2863   0.231   5.637   2.312
  655SOL    HW1 2864   0.286   5.701   2.366
  655SOL    HW2 2865   0.226   5.669   2.217
  656SOL     OW 2866   1.169   5.864   1.588
  656SOL    HW1 2867   1.203   5.783   1.539
  656SOL    HW2 2868   1.073   5.851   1.610
  657SOL     OW 2869   2.086   3.090   1.760
  657SOL    HW1 2870   2.036   3.008   1.734
  657SOL    HW2 2871   2.098   3.149   1.681
  658SOL     OW 2872   2.682   4.388   6.412
  658SOL    HW1 2873   2.773   4.394   6.371
  658SOL    HW2 2874   2.691   4.360   6.508
  659SOL     OW 2875   1.880   5.924   5.614
  659SOL    HW1 2876   1.920   5.832   5.617
  659SOL    HW2 2877   1.945   5.989   5.653
  660SOL     OW 2878   5.400   4.606   2.297
  660SOL    HW1 2879   5.487   4.615   2.249
  660SOL    HW2 2880   5.364   4.514   2.283
  661SOL     OW 2881   4.798   5.013   3.651
  661SOL    HW1 2882   4.883   5.053   3.686
  661SOL    HW2 2883   4.799   5.017   3.551
  662SOL     OW 2884   3.855   0.490   5.006
  662SOL    HW1 2885   3.768   0.499   5.055
  662SOL    HW2 2886   3.901   0.407   5.036
  663SOL     OW 2887   2.441   4.066   0.063
  663SOL    HW1 2888   2.539   4.055   0.052
  663SOL    HW2 2889   2.411   4.152   0.021
  664SOL     OW 2890   0.079   5.311   6.438
  664SOL    HW1 2891   0.131   5.318   6.353
  664SOL    HW2 2892   0.008   5.381   6.440
  665SOL     OW 2893   5.068   4.904   1.205
  665SOL    HW1 2894   5.102   4.867   1.292
  665SOL    HW2 2895   5.031   4.996   1.220
  666SOL     OW 2896   4.912   2.101   2.307
  666SOL    HW1 2897   4.869   2.179   2.354
  666SOL    HW2 2898   4.905   2.114   2.208
  667SOL     OW 2899   6.795   4.784   3.766
  667SOL    HW1 2900   6.858   4.859   3.786
  667SOL    HW2 2901   6.843   4.696   3.775
  668SOL     OW 2902   5.522   6.369   6.492
  668SOL    HW1 2903   5.423   6.380   6.481
  668SOL    HW2 2904   5.549   6.277   6.463
  669SOL     OW 2905   4.107   0.223   3.952
  669SOL    HW1 2906   4.048   0.291   3.995
  669SOL    HW2 2907   4.066   0.132   3.963
  670SOL     OW 2908   2.753   3.201   0.977
  670SOL    HW1 2909   2.756   3.276   1.043
  670SOL    HW2 2910   2.842   3.194   0.930
  671SOL     OW 2911   1.916   6.422   0.982
  671SOL    HW1 2912   1.973   6.341   0.985
  671SOL    HW2 2913   1.952   6.492   1.044
  672SOL     OW 2914   1.232   5.281   1.642
  672SOL    HW1 2915   1.220   5.278   1.543
  672SOL    HW2 2916   1.145   5.304   1.686
  673SOL     OW 2917   0.543   0.359   1.794
  673SOL    HW1 2918   0.588   0.340   1.706
  673SOL    HW2 2919   0.587   0.305   1.866
  674SOL     OW 2920   0.471   2.579   5.122
  674SOL    HW1 2921   0.447   2.649   5.055
  674SOL    HW2 2922   0.433   2.491   5.093
  675SOL     OW 2923   0.391   1.408   3.983
  675SOL    HW1 2924   0.317   1.472   3.961
  675SOL    HW2 2925   0.359   1.340   4.048
  676SOL     OW 2926   3.565   5.999   2.906
  676SOL    HW1 2927   3.633   6.042   2.846
  676SOL    HW2 2928   3.589   5.903   2.921
  677SOL     OW 2929   6.712   1.479   0.206
  677SOL    HW1 2930   6.671   1.487   0.296
  677SOL    HW2 2931   6.812   1.482   0.214
  678SOL     OW 2932   1.882   1.087   5.453
  678SOL    HW1 2933   1.878   1.077   5.353
  678SOL    HW2 2934   1.917   1.177   5.476
  679SOL     OW 2935   4.460   1.582   4.327
  679SOL    HW1 2936   4.537   1.619   4.379
  679SOL    HW2 2937   4.489   1.565   4.233
  680SOL     OW 2938   5.622   5.235   5.511
  680SOL    HW1 2939   5.584   5.248   5.420
  680SOL    HW2 2940   5.550   5.201   5.573
  681SOL     OW 2941   5.379   5.182   1.113
  681SOL    HW1 2942   5.281   5.183   1.132
  681SOL    HW2 2943   5.416   5.273   1.129
  682SOL     OW 2944   0.903   1.007   0.252
  682SOL    HW1 2945   0.985   0.955   0.228
  682SOL    HW2 2946   0.889   1.080   0.184
  683SOL     OW 2947   3.915   3.606   0.556
  683SOL    HW1 2948   3.843   3.656   0.509
  683SOL    HW2 2949   3.929   3.518   0.512
  684SOL     OW 2950   0.345   0.970   6.613
  684SOL    HW1 2951   0.257   0.965   6.660
  684SOL    HW2 2952   0.344   1.046   6.548
  685SOL     OW 2953   4.759   1.171   3.918
  685SOL    HW1 2954   4.752   1.116   4.001
  685SOL    HW2 2955   4.690   1.244   3.921
  686SOL     OW 2956   5.310   2.535   3.753
  686SOL    HW1 2957   5.234   2.589   3.789
  686SOL    HW2 2958   5.389   2.594   3.740
  687SOL     OW 2959   0.436   2.555   4.659
  687SOL    HW1 2960   0.533   2.549   4.637
  687SOL    HW2 2961   0.382   2.553   4.575
  688SOL     OW 2962   1.157   1.794   0.301
  688SOL    HW1 2963   1.192   1.743   0.222
  688SOL    HW2 2964   1.080   1.744   0.340
  689SOL     OW 2965   6.379   3.652   6.612
  689SOL    HW1 2966   6.444   3.595   6.563
  689SOL    HW2 2967   6.286   3.617   6.599
  690SOL     OW 2968   0.235   4.665   2.870
  690SOL    HW1 2969   0.196   4.680   2.961
  690SOL    HW2 2970   0.328   4.630   2.879
  691SOL     OW 2971   2.259   6.706   6.781
  691SOL    HW1 2972   2.297   6.734   6.869
  691SOL    HW2 2973   2.236   6.608   6.784
  692SOL     OW 2974   2.975   6.357   3.474
  692SOL    HW1 2975   2.989   6.293   3.398
  692SOL    HW2 2976   2.877   6.370   3.489
  693SOL     OW 2977   6.469   0.722   3.189
  693SOL    HW1 2978   6.513   0.754   3.273
  693SOL    HW2 2979   6.486   0.624   3.178
  694SOL     OW 2980   4.033   5.791   2.639
  694SOL    HW1 2981   4.126   5.820   2.616
  694SOL    HW2 2982   4.026   5.777   2.738
  695SOL     OW 2983   3.962   5.998   3.968
  695SOL    HW1 2984   3.935   5.937   4.042
  695SOL    HW2 2985   3.911   6.084   3.975
  696SOL     OW 2986   3.999   4.816   2.323
  696SOL    HW1 2987   4.067   4.801   2.251
  696SOL    HW2 2988   3.907   4.802   2.286
  697SOL     OW 2989   1.994   3.286   3.606
  697SOL    HW1 2990   2.044   3.232   3.673
  697SOL    HW2 2991   1.897   3.288   3.630
  698SOL     OW 2992   5.414   6.517   6.995
  698SOL    HW1 2993   5.368   6.531   6.908
  698SOL    HW2 2994   5.391   6.426   0.013
  699SOL     OW 2995   2.147   3.239   6.468
  699SOL    HW1 2996   2.216   3.280   6.409
  699SOL    HW2 2997   2.179   3.239   6.562
  700SOL     OW 2998   3.158   1.299   2.738
  700SOL    HW1 2999   3.234   1.340   2.688
  700SOL    HW2 3000   3.074   1.348   2.718
  701SOL     OW 3001   6.660   3.359   5.645
  701SOL    HW1 3002   6.640   3.455   5.665
  701SOL    HW2 3003   6.580   3.316   5.603
  702SOL     OW 3004   1.072   5.616   5.134
  702SOL    HW1 3005   1.076   5.688   5.065
  702SOL    HW2 3006   1.082   5.656   5.225
  703SOL     OW 3007   3.515   4.545   6.153
  703SOL    HW1 3008   3.432   4.597   6.132
  703SOL    HW2 3009   3.527   4.474   6.084
  704SOL     OW 3010   1.521   2.098   0.353
  704SOL    HW1 3011   1.481   2.190   0.356
  704SOL    HW2 3012   1.603   2.100   0.296
  705SOL     OW 3013   6.219   6.195   2.341
  705SOL    HW1 3014   6.312   6.225   2.364
  705SOL    HW2 3015   6.168   6.178   2.425
  706SOL     OW 3016   4.396   2.322   4.916
  706SOL    HW1 3017   4.365   2.382   4.989
  706SOL    HW2 3018   4.372   2.362   4.827
  707SOL     OW 3019   4.673   5.532   2.690
  707SOL    HW1 3020   4.624   5.556   2.774
  707SOL    HW2 3021   4.717   5.443   2.702
  708SOL     OW 3022   4.362   6.706   1.513
  708SOL    HW1 3023   4.292   6.777   1.518
  708SOL    HW2 3024   4.363   6.653   1.598
  709SOL     OW 3025   0.757   5.992   1.543
  709SOL    HW1 3026   0.713   5.998   1.633
  709SOL    HW2 3027   0.815   5.911   1.539
  710SOL     OW 3028   4.051   3.113   1.991
  710SOL    HW1 3029   4.081   3.082   2.081
  710SOL    HW2 3030   4.045   3.034   1.930
  711SOL     OW 3031   6.913   3.304   5.719
  711SOL    HW1 3032   6.953   3.349   5.799
  711SOL    HW2 3033   6.818   3.331   5.709
  712SOL     OW 3034   4.428   3.094   1.238
  712SOL    HW1 3035   4.411   3.044   1.153
  712SOL    HW2 3036   4.356   3.162   1.251
  713SOL     OW 3037   4.429   2.308   5.697
  713SOL    HW1 3038   4.340   2.308   5.651
  713SOL    HW2 3039   4.492   2.368   5.648
  714SOL     OW 3040   6.519   4.146   3.531
  714SOL    HW1 3041   6.569   4.144   3.618
  714SOL    HW2 3042   6.437   4.202   3.541
  715SOL     OW 3043   5.763   5.567   0.029
  715SOL    HW1 3044   5.732   5.590   0.121
  715SOL    HW2 3045   5.705   5.613   6.979
  716SOL     OW 3046   0.624   0.633   1.872
  716SOL    HW1 3047   0.617   0.543   1.830
  716SOL    HW2 3048   0.602   0.703   1.805
  717SOL     OW 3049   6.613   4.337   5.548
  717SOL    HW1 3050   6.599   4.415   5.609
  717SOL    HW2 3051   6.701   4.294   5.568
  718SOL     OW 3052   5.348   2.719   6.074
  718SOL    HW1 3053   5.421   2.658   6.043
  718SOL    HW2 3054   5.313   2.771   5.996
  719SOL     OW 3055   6.245   0.748   1.734
  719SOL    HW1 3056   6.148   0.771   1.725
  719SOL    HW2 3057   6.298   0.832   1.748
  720SOL     OW 3058   3.011   0.602   5.870
  720SOL    HW1 3059   2.945   0.589   5.945
  720SOL    HW2 3060   2.987   0.543   5.794
  721SOL     OW 3061   2.562   2.130   3.580
  721SOL    HW1 3062   2.617   2.060   3.625
  721SOL    HW2 3063   2.623   2.196   3.536
  722SOL     OW 3064   3.088   0.447   5.342
  722SOL    HW1 3065   2.998   0.486   5.321
  722SOL    HW2 3066   3.078   0.348   5.356
  723SOL     OW 3067   1.921   4.875   3.114
  723SOL    HW1 3068   1.838   4.908   3.158
  723SOL    HW2 3069   1.998   4.934   3.140
  724SOL     OW 3070   0.968   3.149   4.896
  724SOL    HW1 3071   0.899   3.085   4.862
  724SOL    HW2 3072   1.051   3.098   4.920
  725SOL     OW 3073   2.553   5.495   1.190
  725SOL    HW1 3074   2.536   5.591   1.209
  725SOL    HW2 3075   2.467   5.449   1.171
  726SOL     OW 3076   3.798   5.086   1.156
  726SOL    HW1 3077   3.809   5.013   1.088
  726SOL    HW2 3078   3.888   5.123   1.180
  727SOL     OW 3079   5.812   4.833   5.200
  727SOL    HW1 3080   5.779   4.851   5.293
  727SOL    HW2 3081   5.736   4.800   5.144
  728SOL     OW 3082   6.503   2.949   5.094
  728SOL    HW1 3083   6.591   2.943   5.048
  728SOL    HW2 3084   6.471   2.857   5.117
  729SOL     OW 3085   1.304   2.360   1.320
  729SOL    HW1 3086   1.265   2.286   1.374
  729SOL    HW2 3087   1.339   2.431   1.381
  730SOL     OW 3088   5.351   0.269   4.917
  730SOL    HW1 3089   5.264   0.222   4.902
  730SOL    HW2 3090   5.418   0.206   4.956
  731SOL     OW 3091   5.281   4.318   6.059
  731SOL    HW1 3092   5.196   4.265   6.052
  731SOL    HW2 3093   5.352   4.260   6.100
  732SOL     OW 3094   0.060   2.696   1.563
  732SOL    HW1 3095   6.996   2.644   1.583
  732SOL    HW2 3096   0.071   2.705   1.463
  733SOL     OW 3097   5.574   6.637   5.344
  733SOL    HW1 3098   5.521   6.627   5.428
  733SOL    HW2 3099   5.544   6.569   5.277
  734SOL     OW 3100   6.841   5.155   2.887
  734SOL    HW1 3101   6.776   5.230   2.885
  734SOL    HW2 3102   6.885   5.151   2.977
  735SOL     OW 3103   4.392   1.769   0.383
  735SOL    HW1 3104   4.462   1.711   0.340
  735SOL    HW2 3105   4.431   1.860   0.401
  736SOL     OW 3106   6.873   1.458   3.939
  736SOL    HW1 3107   6.874   1.374   3.994
  736SOL    HW2 3108   6.950   1.455   3.875
  737SOL     OW 3109   5.099   1.812   4.870
  737SOL    HW1 3110   5.119   1.806   4.772
  737SOL    HW2 3111   5.017   1.760   4.891
  738SOL     OW 3112   2.290   4.211   1.406
  738SOL    HW1 3113   2.360   4.163   1.459
  738SOL    HW2 3114   2.330   4.246   1.321
  739SOL     OW 3115   5.155   0.226   4.293
  739SOL    HW1 3116   5.174   0.131   4.317
  739SOL    HW2 3117   5.057   0.238   4.278
  740SOL     OW 3118   6.623   0.708   1.136
  740SOL    HW1 3119   6.633   0.740   1.042
  740SOL    HW2 3120   6.555   0.765   1.183
  741SOL     OW 3121   2.100   6.378   3.117
  741SOL    HW1 3122   2.090   6.376   3.217
  741SOL    HW2 3123   2.150   6.460   3.090
  742SOL     OW 3124   2.930   6.744   2.373
  742SOL    HW1 3125   2.958   6.699   2.289
  742SOL    HW2 3126   2.960   6.690   2.452
  743SOL     OW 3127   6.869   4.639   2.974
  743SOL    HW1 3128   6.876   4.658   3.072
  743SOL    HW2 3129   6.877   4.724   2.923
  744SOL     OW 3130   5.747   0.490   0.090
  744SOL    HW1 3131   5.748   0.499   7.008
  744SOL    HW2 3132   5.822   0.542   0.130
  745SOL     OW 3133   1.578   4.797   4.568
  745SOL    HW1 3134   1.628   4.767   4.649
  745SOL    HW2 3135   1.529   4.882   4.588
  746SOL     OW 3136   6.915   3.841   6.857
  746SOL    HW1 3137   6.926   3.876   6.949
  746SOL    HW2 3138   6.817   3.831   6.836
  747SOL     OW 3139   3.716   6.510   4.253
  747SOL    HW1 3140   3.697   6.413   4.239
  747SOL    HW2 3141   3.663   6.564   4.187
  748SOL     OW 3142   3.943   5.104   2.115
  748SOL    HW1 3143   4.001   5.087   2.035
  748SOL    HW2 3144   3.869   5.036   2.117
  749SOL     OW 3145   5.924   3.717   5.360
  749SOL    HW1 3146   5.906   3.639   5.300
  749SOL    HW2 3147   5.949   3.796   5.304
  750SOL     OW 3148   1.912   2.364   1.486
  750SOL    HW1 3149   1.878   2.454   1.462
  750SOL    HW2 3150   1.945   2.364   1.580
  751SOL     OW 3151   3.957   2.322   0.170
  751SOL    HW1 3152   4.009   2.245   0.206
  751SOL    HW2 3153   3.894   2.355   0.240
  752SOL     OW 3154   3.268   1.064   1.751
  752SOL    HW1 3155   3.227   1.010   1.676
  752SOL    HW2 3156   3.247   1.161   1.737
  753SOL     OW 3157   2.341   2.876   5.699
  753SOL    HW1 3158   2.404   2.925   5.639
  753SOL    HW2 3159   2.247   2.893   5.669
  754SOL     OW 3160   4.972   2.713   5.539
  754SOL    HW1 3161   4.952   2.620   5.509
  754SOL    HW2 3162   4.893   2.771   5.519
  755SOL     OW 3163   1.707   4.728   6.083
  755SOL    HW1 3164   1.791   4.674   6.086
  755SOL    HW2 3165   1.664   4.730   6.173
  756SOL     OW 3166   2.934   6.808   6.278
  756SOL    HW1 3167   2.902   6.902   6.287
  756SOL    HW2 3168   2.972   6.777   6.365
  757SOL     OW 3169   0.054   0.664   3.822
  757SOL    HW1 3170   0.002   0.590   3.779
  757SOL    HW2 3171   0.106   0.628   3.900
  758SOL     OW 3172   3.507   0.803   2.635
  758SOL    HW1 3173   3.425   0.747   2.643
  758SOL    HW2 3174   3.559   0.798   2.720
  759SOL     OW 3175   6.855   1.472   1.719
  759SOL    HW1 3176   6.840   1.405   1.792
  759SOL    HW2 3177   6.948   1.464   1.685
  760SOL     OW 3178   5.940   6.975   4.971
  760SOL    HW1 3179   5.886   6.922   5.036
  760SOL    HW2 3180   5.943   6.928   4.883
  761SOL     OW 3181   4.933   3.690   6.040
  761SOL    HW1 3182   5.014   3.677   6.098
  761SOL    HW2 3183   4.962   3.714   5.947
  762SOL     OW 3184   2.023   0.272   4.582
  762SOL    HW1 3185   2.008   0.268   4.483
  762SOL    HW2 3186   2.061   0.361   4.607
  763SOL     OW 3187   4.435   5.492   6.352
  763SOL    HW1 3188   4.423   5.395   6.331
  763SOL    HW2 3189   4.477   5.501   6.442
  764SOL     OW 3190   4.904   0.827   5.085
  764SOL    HW1 3191   4.833   0.770   5.127
  764SOL    HW2 3192   4.864   0.912   5.052
  765SOL     OW 3193   1.972   5.890   1.547
  765SOL    HW1 3194   1.897   5.858   1.489
  765SOL    HW2 3195   1.994   5.985   1.524
  766SOL     OW 3196   2.601   2.803   5.956
  766SOL    HW1 3197   2.624   2.754   5.872
  766SOL    HW2 3198   2.504   2.788   5.978
  767SOL     OW 3199   6.246   5.371   1.509
  767SOL    HW1 3200   6.188   5.305   1.558
  767SOL    HW2 3201   6.334   5.380   1.556
  768SOL     OW 3202   2.643   6.687   2.484
  768SOL    HW1 3203   2.645   6.599   2.437
  768SOL    HW2 3204   2.706   6.750   2.439
  769SOL     OW 3205   2.417   0.669   4.855
  769SOL    HW1 3206   2.479   0.590   4.854
  769SOL    HW2 3207   2.438   0.728   4.777
  770SOL     OW 3208   2.022   4.878   2.843
  770SOL    HW1 3209   1.957   4.863   2.769
  770SOL    HW2 3210   1.974   4.879   2.930
  771SOL     OW 3211   1.367   5.451   2.171
  771SOL    HW1 3212   1.341   5.396   2.251
  771SOL    HW2 3213   1.294   5.446   2.102
  772SOL     OW 3214   5.440   5.850   6.829
  772SOL    HW1 3215   5.498   5.876   6.906
  772SOL    HW2 3216   5.369   5.919   6.816
  773SOL     OW 3217   6.936   4.375   3.995
  773SOL    HW1 3218   0.001   4.323   3.975
  773SOL    HW2 3219   6.864   4.348   3.932
  774SOL     OW 3220   1.997   1.458   1.684
  774SOL    HW1 3221   2.057   1.474   1.762
  774SOL    HW2 3222   1.935   1.536   1.672
  775SOL     OW 3223   0.967   2.516   3.658
  775SOL    HW1 3224   0.912   2.524   3.741
  775SOL    HW2 3225   1.048   2.574   3.665
  776SOL     OW 3226   1.454   0.222   6.086
  776SOL    HW1 3227   1.417   0.241   5.996
  776SOL    HW2 3228   1.473   0.308   6.134
  777SOL     OW 3229   1.982   4.471   1.797
  777SOL    HW1 3230   2.045   4.409   1.750
  777SOL    HW2 3231   1.888   4.445   1.776
  778SOL     OW 3232   2.241   1.646   2.075
  778SOL    HW1 3233   2.335   1.637   2.108
  778SOL    HW2 3234   2.216   1.743   2.072
  779SOL     OW 3235   6.122   2.355   1.861
  779SOL    HW1 3236   6.182   2.411   1.804
  779SOL    HW2 3237   6.027   2.382   1.847
  780SOL     OW 3238   0.006   4.139   3.775
  780SOL    HW1 3239   6.985   4.084   3.849
  780SOL    HW2 3240   0.058   4.081   3.713
  781SOL     OW 3241   6.196   6.675   6.854
  781SOL    HW1 3242   6.256   6.730   6.912
  781SOL    HW2 3243   6.122   6.732   6.819
  782SOL     OW 3244   1.755   3.829   6.570
  782SOL    HW1 3245   1.715   3.861   6.656
  782SOL    HW2 3246   1.846   3.790   6.588
  783SOL     OW 3247   4.653   5.007   1.776
  783SOL    HW1 3248   4.731   5.041   1.724
  783SOL    HW2 3249   4.649   5.053   1.864
  784SOL     OW 3250   4.744   4.840   0.785
  784SOL    HW1 3251   4.683   4.899   0.839
  784SOL    HW2 3252   4.701   4.819   0.698
  785SOL     OW 3253   0.367   2.733   3.661
  785SOL    HW1 3254   0.420   2.651   3.639
  785SOL    HW2 3255   0.360   2.791   3.580
  786SOL     OW 3256   1.396   1.242   2.836
  786SOL    HW1 3257   1.453   1.317   2.869
  786SOL    HW2 3258   1.330   1.216   2.907
  787SOL     OW 3259   2.201   0.531   6.876
  787SOL    HW1 3260   2.246   0.494   6.795
  787SOL    HW2 3261   2.225   0.627   6.887
  788SOL     OW 3262   3.844   2.480   6.637
  788SOL    HW1 3263   3.906   2.485   6.715
  788SOL    HW2 3264   3.832   2.571   6.598
  789SOL     OW 3265   4.353   4.250   0.405
  789SOL    HW1 3266   4.257   4.271   0.423
  789SOL    HW2 3267   4.360   4.178   0.336
  790SOL     OW 3268   2.239   1.484   3.991
  790SOL    HW1 3269   2.318   1.528   4.034
  790SOL    HW2 3270   2.158   1.541   4.002
  791SOL     OW 3271   2.084   5.793   3.773
  791SOL    HW1 3272   2.078   5.800   3.674
  791SOL    HW2 3273   2.146   5.718   3.797
  792SOL     OW 3274   0.890   0.892   1.139
  792SOL    HW1 3275   0.814   0.843   1.184
  792SOL    HW2 3276   0.972   0.885   1.196
  793SOL     OW 3277   4.752   5.003   3.322
  793SOL    HW1 3278   4.678   4.939   3.343
  793SOL    HW2 3279   4.815   4.961   3.257
  794SOL     OW 3280   3.272   3.999   5.753
  794SOL    HW1 3281   3.366   4.024   5.731
  794SOL    HW2 3282   3.215   4.081   5.755
  795SOL     OW 3283   2.938   6.779   4.252
  795SOL    HW1 3284   2.983   6.718   4.186
  795SOL    HW2 3285   3.004   6.847   4.284
  796SOL     OW 3286   0.358   1.815   6.622
  796SOL    HW1 3287   0.452   1.781   6.620
  796SOL    HW2 3288   0.345   1.871   6.704
  797SOL     OW 3289   5.726   2.557   0.716
  797SOL    HW1 3290   5.755   2.462   0.717
  797SOL    HW2 3291   5.789   2.611   0.772
  798SOL     OW 3292   3.583   6.042   2.060
  798SOL    HW1 3293   3.627   6.131   2.067
  798SOL    HW2 3294   3.510   6.035   2.128
  799SOL     OW 3295   0.063   6.593   5.628
  799SOL    HW1 3296   6.991   6.632   5.647
  799SOL    HW2 3297   0.072   6.574   5.531
  800SOL     OW 3298   5.438   1.611   2.768
  800SOL    HW1 3299   5.414   1.697   2.814
  800SOL    HW2 3300   5.421   1.535   2.830
  801SOL     OW 3301   1.624   3.831   4.564
  801SOL    HW1 3302   1.691   3.758   4.551
  801SOL    HW2 3303   1.614   3.850   4.661
  802SOL     OW 3304   3.704   2.461   0.896
  802SOL    HW1 3305   3.690   2.436   0.800
  802SOL    HW2 3306   3.682   2.382   0.954
  803SOL     OW 3307   0.141   6.855   5.426
  803SOL    HW1 3308   0.169   6.759   5.420
  803SOL    HW2 3309   0.056   6.867   5.374
  804SOL     OW 3310   6.029   5.434   6.395
  804SOL    HW1 3311   6.038   5.523   6.440
  804SOL    HW2 3312   5.939   5.395   6.417
  805SOL     OW 3313   2.906   0.315   4.243
  805SOL    HW1 3314   2.940   0.320   4.149
  805SOL    HW2 3315   2.918   0.404   4.287
  806SOL     OW 3316   4.766   1.478   4.431
  806SOL    HW1 3317   4.760   1.384   4.400
  806SOL    HW2 3318   4.842   1.524   4.384
  807SOL     OW 3319   1.485   1.118   5.650
  807SOL    HW1 3320   1.423   1.086   5.722
  807SOL    HW2 3321   1.531   1.040   5.607
  808SOL     OW 3322   3.740   3.501   6.602
  808SOL    HW1 3323   3.713   3.433   6.534
  808SOL    HW2 3324   3.658   3.540   6.644
  809SOL     OW 3325   0.346   4.669   1.160
  809SOL    HW1 3326   0.357   4.767   1.174
  809SOL    HW2 3327   0.425   4.632   1.111
  810SOL     OW 3328   3.754   3.558   0.957
  810SOL    HW1 3329   3.665   3.512   0.963
  810SOL    HW2 3330   3.819   3.497   0.912
  811SOL     OW 3331   4.420   5.378   5.380
  811SOL    HW1 3332   4.381   5.467   5.404
  811SOL    HW2 3333   4.366   5.306   5.425
  812SOL     OW 3334   0.297   0.990   2.366
  812SOL    HW1 3335   0.385   0.982   2.412
  812SOL    HW2 3336   0.234   0.922   2.404
  813SOL     OW 3337   3.964   7.017   4.251
  813SOL    HW1 3338   4.049   0.012   4.199
  813SOL    HW2 3339   3.977   0.031   4.344
  814SOL     OW 3340   5.996   6.438   2.324
  814SOL    HW1 3341   6.031   6.521   2.281
  814SOL    HW2 3342   6.073   6.379   2.350
  815SOL     OW 3343   0.385   3.939   3.472
  815SOL    HW1 3344   0.365   4.036   3.462
  815SOL    HW2 3345   0.457   3.913   3.407
  816SOL     OW 3346   6.400   6.745   6.996
  816SOL    HW1 3347   6.433   6.655   6.970
  816SOL    HW2 3348   6.450   6.777   0.059
  817SOL     OW 3349   1.141   4.875   1.011
  817SOL    HW1 3350   1.093   4.962   1.026
  817SOL    HW2 3351   1.129   4.847   0.915
  818SOL     OW 3352   6.293   2.898   2.698
  818SOL    HW1 3353   6.252   2.960   2.632
  818SOL    HW2 3354   6.369   2.848   2.656
  819SOL     OW 3355   5.662   2.549   2.708
  819SOL    HW1 3356   5.610   2.618   2.656
  819SOL    HW2 3357   5.604   2.512   2.780
  820SOL     OW 3358   3.523   1.795   5.191
  820SOL    HW1 3359   3.579   1.878   5.191
  820SOL    HW2 3360   3.435   1.813   5.148
  821SOL     OW 3361   0.623   4.180   1.124
  821SOL    HW1 3362   0.665   4.094   1.094
  821SOL    HW2 3363   0.666   4.256   1.077
  822SOL     OW 3364   1.451   4.428   3.534
  822SOL    HW1 3365   1.397   4.475   3.464
  822SOL    HW2 3366   1.530   4.385   3.490
  823SOL     OW 3367   4.535   3.607   6.533
  823SOL    HW1 3368   4.632   3.584   6.524
  823SOL    HW2 3369   4.526   3.706   6.548
  824SOL     OW 3370   5.156   1.441   6.304
  824SOL    HW1 3371   5.243   1.400   6.331
  824SOL    HW2 3372   5.134   1.516   6.367
  825SOL     OW 3373   6.703   4.777   1.587
  825SOL    HW1 3374   6.632   4.833   1.544
  825SOL    HW2 3375   6.783   4.834   1.606
  826SOL     OW 3376   4.094   2.984   5.630
  826SOL    HW1 3377   4.159   3.059   5.620
  826SOL    HW2 3378   4.037   2.977   5.549
  827SOL     OW 3379   2.938   4.568   5.430
  827SOL    HW1 3380   2.942   4.577   5.331
  827SOL    HW2 3381   2.893   4.648   5.469
  828SOL     OW 3382   6.125   6.429   6.931
  828SOL    HW1 3383   6.092   6.436   0.007
  828SOL    HW2 3384   6.148   6.521   6.897
  829SOL     OW 3385   3.922   3.911   2.690
  829SOL    HW1 3386   3.895   3.984   2.627
  829SOL    HW2 3387   3.852   3.899   2.760
  830SOL     OW 3388   4.889   5.295   6.246
  830SOL    HW1 3389   4.939   5.217   6.282
  830SOL    HW2 3390   4.889   5.369   6.314
  831SOL     OW 3391   6.626   0.306   0.114
  831SOL    HW1 3392   6.532   0.297   0.147
  831SOL    HW2 3393   6.636   0.394   0.067
  832SOL     OW 3394   3.616   0.703   2.409
  832SOL    HW1 3395   3.710   0.736   2.415
  832SOL    HW2 3396   3.559   0.753   2.475
  833SOL     OW 3397   1.239   3.867   5.757
  833SOL    HW1 3398   1.207   3.874   5.851
  833SOL    HW2 3399   1.244   3.771   5.731
  834SOL     OW 3400   3.589   3.725   0.657
  834SOL    HW1 3401   3.601   3.739   0.559
  834SOL    HW2 3402   3.511   3.665   0.673
  835SOL     OW 3403   3.687   0.230   5.651
  835SOL    HW1 3404   3.719   0.240   5.745
  835SOL    HW2 3405   3.765   0.218   5.590
  836SOL     OW 3406   4.138   5.893   5.753
  836SOL    HW1 3407   4.228   5.916   5.717
  836SOL    HW2 3408   4.067   5.923   5.688
  837SOL     OW 3409   5.456   0.532   0.730
  837SOL    HW1 3410   5.397   0.517   0.651
  837SOL    HW2 3411   5.451   0.453   0.791
  838SOL     OW 3412   2.434   0.431   4.267
  838SOL    HW1 3413   2.460   0.396   4.357
  838SOL    HW2 3414   2.336   0.448   4.264
  839SOL     OW 3415   1.061   2.423   2.690
  839SOL    HW1 3416   1.100   2.390   2.604
  839SOL    HW2 3417   1.113   2.502   2.723
  840SOL     OW 3418   6.541   5.525   0.865
  840SOL    HW1 3419   6.556   5.576   0.780
  840SOL    HW2 3420   6.612   5.550   0.931
  841SOL     OW 3421   3.722   5.075   6.989
  841SOL    HW1 3422   3.684   5.088   6.897
  841SOL    HW2 3423   3.816   5.042   6.982
  842SOL     OW 3424   4.067   0.372   4.285
  842SOL    HW1 3425   4.050   0.422   4.201
  842SOL    HW2 3426   3.983   0.328   4.316
  843SOL     OW 3427   0.746   1.523   0.995
  843SOL    HW1 3428   0.772   1.540   1.090
  843SOL    HW2 3429   0.650   1.547   0.982
  844SOL     OW 3430   5.282   0.802   0.468
  844SOL    HW1 3431   5.332   0.847   0.393
  844SOL    HW2 3432   5.247   0.872   0.530
  845SOL     OW 3433   4.995   4.264   4.997
  845SOL    HW1 3434   5.091   4.266   4.970
  845SOL    HW2 3435   4.968   4.169   5.016
  846SOL     OW 3436   1.942   1.622   6.129
  846SOL    HW1 3437   1.914   1.687   6.200
  846SOL    HW2 3438   2.013   1.562   6.166
  847SOL     OW 3439   1.162   3.126   1.456
  847SOL    HW1 3440   1.098   3.171   1.518
  847SOL    HW2 3441   1.253   3.125   1.497
  848SOL     OW 3442   6.164   0.542   5.843
  848SOL    HW1 3443   6.114   0.591   5.772
  848SOL    HW2 3444   6.194   0.607   5.913
  849SOL     OW 3445   0.013   3.254   6.057
  849SOL    HW1 3446   6.971   3.277   6.134
  849SOL    HW2 3447   0.012   3.155   6.043
  850SOL     OW 3448   5.313   0.560   2.969
  850SOL    HW1 3449   5.304   0.659   2.973
  850SOL    HW2 3450   5.298   0.530   2.874
  851SOL     OW 3451   6.880   2.200   2.798
  851SOL    HW1 3452   6.800   2.188   2.857
  851SOL    HW2 3453   6.950   2.252   2.848
  852SOL     OW 3454   0.708   3.742   0.053
  852SOL    HW1 3455   0.763   3.723   0.134
  852SOL    HW2 3456   0.675   3.656   0.014
  853SOL     OW 3457   1.221   4.393   1.346
  853SOL    HW1 3458   1.132   4.396   1.300
  853SOL    HW2 3459   1.267   4.481   1.337
  854SOL     OW 3460   5.014   5.381   0.668
  854SOL    HW1 3461   4.919   5.411   0.677
  854SOL    HW2 3462   5.073   5.460   0.652
  855SOL     OW 3463   6.919   6.972   1.728
  855SOL    HW1 3464   6.866   7.000   1.808
  855SOL    HW2 3465   6.973   0.032   1.695
  856SOL     OW 3466   1.336   2.453   5.538
  856SOL    HW1 3467   1.412   2.517   5.527
  856SOL    HW2 3468   1.354   2.371   5.484
  857SOL     OW 3469   5.737   4.308   2.125
  857SOL    HW1 3470   5.736   4.337   2.030
  857SOL    HW2 3471   5.822   4.258   2.144
  858SOL     OW 3472   2.567   3.508   1.140
  858SOL    HW1 3473   2.471   3.480   1.143
  858SOL    HW2 3474   2.589   3.560   1.223
  859SOL     OW 3475   6.122   5.770   5.500
  859SOL    HW1 3476   6.172   5.803   5.421
  859SOL    HW2 3477   6.092   5.676   5.484
  860SOL     OW 3478   5.749   2.843   0.534
  860SOL    HW1 3479   5.662   2.795   0.531
  860SOL    HW2 3480   5.824   2.778   0.519
  861SOL     OW 3481   2.732   5.746   3.309
  861SOL    HW1 3482   2.763   5.697   3.390
  861SOL    HW2 3483   2.809   5.764   3.248
  862SOL     OW 3484   1.539   3.923   4.808
  862SOL    HW1 3485   1.446   3.962   4.804
  862SOL    HW2 3486   1.599   3.985   4.859
  863SOL     OW 3487   6.346   1.469   0.604
  863SOL    HW1 3488   6.384   1.450   0.694
  863SOL    HW2 3489   6.368   1.562   0.577
  864SOL     OW 3490   4.463   5.178   4.113
  864SOL    HW1 3491   4.378   5.136   4.080
  864SOL    HW2 3492   4.458   5.277   4.097
  865SOL     OW 3493   1.171   6.633   5.777
  865SOL    HW1 3494   1.121   6.719   5.780
  865SOL    HW2 3495   1.151   6.585   5.692
  866SOL     OW 3496   2.062   2.227   2.250
  866SOL    HW1 3497   1.980   2.172   2.234
  866SOL    HW2 3498   2.126   2.214   2.174
  867SOL     OW 3499   4.231   3.646   0.430
  867SOL    HW1 3500   4.296   3.632   0.504
  867SOL    HW2 3501   4.173   3.565   0.420
  868SOL     OW 3502   5.576   1.403   0.779
  868SOL    HW1 3503   5.669   1.435   0.765
  868SOL    HW2 3504   5.525   1.472   0.831
  869SOL     OW 3505   0.506   4.622   2.951
  869SOL    HW1 3506   0.592   4.611   2.900
  869SOL    HW2 3507   0.493   4.543   3.010
  870SOL     OW 3508   4.468   3.096   0.665
  870SOL    HW1 3509   4.481   3.184   0.711
  870SOL    HW2 3510   4.395   3.104   0.597
  871SOL     OW 3511   4.534   2.274   2.883
  871SOL    HW1 3512   4.511   2.308   2.792
  871SOL    HW2 3513   4.465   2.207   2.912
  872SOL     OW 3514   5.729   2.893   3.963
  872SOL    HW1 3515   5.743   2.796   3.942
  872SOL    HW2 3516   5.705   2.942   3.880
  873SOL     OW 3517   5.746   0.096   4.229
  873SOL    HW1 3518   5.647   0.085   4.221
  873SOL    HW2 3519   5.785   0.116   4.139
  874SOL     OW 3520   0.957   3.950   5.891
  874SOL    HW1 3521   0.972   3.867   5.837
  874SOL    HW2 3522   1.008   4.026   5.851
  875SOL     OW 3523   4.059   3.395   0.409
  875SOL    HW1 3524   3.974   3.365   0.366
  875SOL    HW2 3525   4.137   3.361   0.356
  876SOL     OW 3526   0.480   4.419   2.287
  876SOL    HW1 3527   0.396   4.385   2.244
  876SOL    HW2 3528   0.550   4.348   2.283
  877SOL     OW 3529   3.743   4.863   6.388
  877SOL    HW1 3530   3.808   4.864   6.313
  877SOL    HW2 3531   3.650   4.861   6.352
  878SOL     OW 3532   3.573   6.171   5.181
  878SOL    HW1 3533   3.491   6.212   5.220
  878SOL    HW2 3534   3.548   6.118   5.100
  879SOL     OW 3535   3.766   2.201   0.984
  879SOL    HW1 3536   3.839   2.256   1.025
  879SOL    HW2 3537   3.782   2.104   1.005
  880SOL     OW 3538   3.197   4.049   4.402
  880SOL    HW1 3539   3.234   4.090   4.485
  880SOL    HW2 3540   3.184   3.951   4.417
  881SOL     OW 3541   5.234   3.823   4.901
  881SOL    HW1 3542   5.315   3.765   4.894
  881SOL    HW2 3543   5.152   3.769   4.880
  882SOL     OW 3544   0.686   2.544   4.330
  882SOL    HW1 3545   0.664   2.463   4.277
  882SOL    HW2 3546   0.635   2.622   4.294
  883SOL     OW 3547   4.488   6.998   6.495
  883SOL    HW1 3548   4.434   6.922   6.459
  883SOL    HW2 3549   4.507   6.983   6.592
  884SOL     OW 3550   0.009   4.149   0.528
  884SOL    HW1 3551   6.998   4.054   0.518
  884SOL    HW2 3552   0.109   4.153   0.523
  885SOL     OW 3553   4.572   5.999   6.291
  885SOL    HW1 3554   4.556   6.064   6.216
  885SOL    HW2 3555   4.612   5.915   6.254
  886SOL     OW 3556   4.107   0.925   1.240
  886SOL    HW1 3557   4.030   0.988   1.233
  886SOL    HW2 3558   4.101   0.857   1.167
  887SOL     OW 3559   3.837   5.603   4.089
  887SOL    HW1 3560   3.932   5.582   4.110
  887SOL    HW2 3561   3.817   5.698   4.111
  888SOL     OW 3562   6.597   5.586   2.609
  888SOL    HW1 3563   6.499   5.571   2.600
  888SOL    HW2 3564   6.640   5.585   2.519
  889SOL     OW 3565   0.866   0.258   5.637
  889SOL    HW1 3566   0.818   0.207   5.709
  889SOL    HW2 3567   0.798   0.304   5.579
  890SOL     OW 3568   1.650   5.428   2.137
  890SOL    HW1 3569   1.552   5.447   2.136
  890SOL    HW2 3570   1.691   5.462   2.053
  891SOL     OW 3571   6.380   3.439   0.543
  891SOL    HW1 3572   6.397   3.345   0.572
  891SOL    HW2 3573   6.345   3.492   0.621
  892SOL     OW 3574   3.548   4.710   5.907
  892SOL    HW1 3575   3.596   4.797   5.918
  892SOL    HW2 3576   3.614   4.637   5.894
  893SOL     OW 3577   2.220   0.698   2.319
  893SOL    HW1 3578   2.219   0.610   2.367
  893SOL    HW2 3579   2.137   0.708   2.265
  894SOL     OW 3580   0.884   2.723   3.485
  894SOL    HW1 3581   0.854   2.681   3.400
  894SOL    HW2 3582   0.908   2.652   3.551
  895SOL     OW 3583   1.011   5.261   3.771
  895SOL    HW1 3584   0.960   5.307   3.843
  895SOL    HW2 3585   1.057   5.329   3.714
  896SOL     OW 3586   5.816   6.802   1.182
  896SOL    HW1 3587   5.731   6.752   1.199
  896SOL    HW2 3588   5.876   6.748   1.124
  897SOL     OW 3589   4.234   0.914   6.657
  897SOL    HW1 3590   4.156   0.976   6.657
  897SOL    HW2 3591   4.300   0.944   6.726
  898SOL     OW 3592   3.487   6.744   3.160
  898SOL    HW1 3593   3.389   6.736   3.143
  898SOL    HW2 3594   3.511   6.841   3.168
  899SOL     OW 3595   0.536   5.451   0.993
  899SOL    HW1 3596   0.621   5.499   0.966
  899SOL    HW2 3597   0.533   5.442   1.092
  900SOL     OW 3598   4.942   5.969   0.243
  900SOL    HW1 3599   4.984   5.889   0.287
  900SOL    HW2 3600   4.960   5.967   0.145
  901SOL     OW 3601   1.256   0.933   5.239
  901SOL    HW1 3602   1.233   0.868   5.312
  901SOL    HW2 3603   1.174   0.959   5.189
  902SOL     OW 3604   0.899   2.621   0.834
  902SOL    HW1 3605   0.954   2.569   0.769
  902SOL    HW2 3606   0.815   2.652   0.790
  903SOL     OW 3607   0.131   3.461   6.589
  903SOL    HW1 3608   0.073   3.536   6.621
  903SOL    HW2 3609   0.221   3.498   6.563
  904SOL     OW 3610   2.319   2.383   2.770
  904SOL    HW1 3611   2.363   2.473   2.770
  904SOL    HW2 3612   2.240   2.385   2.707
  905SOL     OW 3613   5.086   3.740   5.775
  905SOL    HW1 3614   5.181   3.770   5.774
  905SOL    HW2 3615   5.028   3.812   5.735
  906SOL     OW 3616   0.903   3.219   6.515
  906SOL    HW1 3617   0.829   3.152   6.526
  906SOL    HW2 3618   0.991   3.172   6.514
  907SOL     OW 3619   4.793   2.314   2.447
  907SOL    HW1 3620   4.695   2.310   2.430
  907SOL    HW2 3621   4.826   2.407   2.430
  908SOL     OW 3622   2.256   4.902   2.714
  908SOL    HW1 3623   2.178   4.909   2.776
  908SOL    HW2 3624   2.323   4.973   2.737
  909SOL     OW 3625   2.931   5.865   1.708
  909SOL    HW1 3626   2.873   5.947   1.708
  909SOL    HW2 3627   2.923   5.820   1.797
  910SOL     OW 3628   2.732   1.064   0.288
  910SOL    HW1 3629   2.819   1.110   0.302
  910SOL    HW2 3630   2.667   1.093   0.359
  911SOL     OW 3631   6.613   5.636   0.624
  911SOL    HW1 3632   6.707   5.609   0.601
  911SOL    HW2 3633   6.608   5.736   0.629
  912SOL     OW 3634   5.421   0.591   3.719
  912SOL    HW1 3635   5.437   0.492   3.708
  912SOL    HW2 3636   5.466   0.640   3.644
  913SOL     OW 3637   2.072   0.990   3.524
  913SOL    HW1 3638   2.146   1.037   3.572
  913SOL    HW2 3639   2.041   1.047   3.447
  914SOL     OW 3640   1.831   5.863   5.212
  914SOL    HW1 3641   1.788   5.872   5.302
  914SOL    HW2 3642   1.912   5.805   5.219
  915SOL     OW 3643   1.132   3.125   0.896
  915SOL    HW1 3644   1.098   3.218   0.909
  915SOL    HW2 3645   1.143   3.080   0.985
  916SOL     OW 3646   1.634   2.928   2.316
  916SOL    HW1 3647   1.677   3.015   2.340
  916SOL    HW2 3648   1.669   2.897   2.228
  917SOL     OW 3649   5.670   0.924   2.350
  917SOL    HW1 3650   5.680   0.842   2.407
  917SOL    HW2 3651   5.584   0.971   2.374
  918SOL     OW 3652   3.272   0.235   0.689
  918SOL    HW1 3653   3.228   0.264   0.604
  918SOL    HW2 3654   3.237   0.145   0.715
  919SOL     OW 3655   6.399   6.028   3.020
  919SOL    HW1 3656   6.474   6.018   2.953
  919SOL    HW2 3657   6.418   6.107   3.078
  920SOL     OW 3658   2.144   5.140   2.888
  920SOL    HW1 3659   2.091   5.224   2.887
  920SOL    HW2 3660   2.083   5.062   2.875
  921SOL     OW 3661   4.807   4.268   3.316
  921SOL    HW1 3662   4.880   4.200   3.329
  921SOL    HW2 3663   4.847   4.359   3.312
  922SOL     OW 3664   3.250   3.492   6.038
  922SOL    HW1 3665   3.296   3.414   5.994
  922SOL    HW2 3666   3.227   3.560   5.969
  923SOL     OW 3667   2.970   4.826   5.918
  923SOL    HW1 3668   3.018   4.798   5.834
  923SOL    HW2 3669   2.972   4.750   5.983
  924SOL     OW 3670   5.855   2.475   2.896
  924SOL    HW1 3671   5.872   2.569   2.926
  924SOL    HW2 3672   5.815   2.476   2.804
  925SOL     OW 3673   0.555   1.623   6.746
  925SOL    HW1 3674   0.464   1.595   6.715
  925SOL    HW2 3675   0.606   1.542   6.775
  926SOL     OW 3676   6.058   0.941   0.677
  926SOL    HW1 3677   6.141   0.978   0.719
  926SOL    HW2 3678   5.980   0.956   0.738
  927SOL     OW 3679   6.101   4.034   3.161
  927SOL    HW1 3680   6.197   4.062   3.151
  927SOL    HW2 3681   6.051   4.102   3.214
  928SOL     OW 3682   1.050   5.779   0.967
  928SOL    HW1 3683   1.049   5.763   1.066
  928SOL    HW2 3684   0.978   5.843   0.942
  929SOL     OW 3685   0.427   1.058   0.970
  929SOL    HW1 3686   0.358   0.986   0.971
  929SOL    HW2 3687   0.506   1.029   0.916
  930SOL     OW 3688   5.470   5.759   3.981
  930SOL    HW1 3689   5.530   5.812   4.041
  930SOL    HW2 3690   5.523   5.687   3.937
  931SOL     OW 3691   6.067   2.143   3.469
  931SOL    HW1 3692   6.022   2.054   3.466
  931SOL    HW2 3693   6.014   2.209   3.415
  932SOL     OW 3694   3.227   6.646   3.122
  932SOL    HW1 3695   3.245   6.668   3.218
  932SOL    HW2 3696   3.195   6.551   3.115
  933SOL     OW 3697   1.261   6.044   3.190
  933SOL    HW1 3698   1.217   6.016   3.104
  933SOL    HW2 3699   1.336   6.107   3.171
  934SOL     OW 3700   2.252   0.121   5.935
  934SOL    HW1 3701   2.297   0.119   5.846
  934SOL    HW2 3702   2.163   0.164   5.926
  935SOL     OW 3703   4.574   4.889   4.758
  935SOL    HW1 3704   4.619   4.977   4.773
  935SOL    HW2 3705   4.475   4.902   4.759
  936SOL     OW 3706   1.299   0.200   5.841
  936SOL    HW1 3707   1.254   0.157   5.762
  936SOL    HW2 3708   1.230   0.228   5.907
  937SOL     OW 3709   5.152   1.030   4.938
  937SOL    HW1 3710   5.116   1.120   4.961
  937SOL    HW2 3711   5.159   1.021   4.839
  938SOL     OW 3712   6.616   5.334   5.751
  938SOL    HW1 3713   6.692   5.391   5.781
  938SOL    HW2 3714   6.571   5.293   5.831
  939SOL     OW 3715   6.067   0.122   5.313
  939SOL    HW1 3716   6.072   0.043   5.252
  939SOL    HW2 3717   6.056   0.092   5.407
  940SOL     OW 3718   0.393   2.527   2.218
  940SOL    HW1 3719   0.344   2.458   2.166
  940SOL    HW2 3720   0.329   2.577   2.276
  941SOL     OW 3721   5.304   1.158   5.704
  941SOL    HW1 3722   5.254   1.112   5.777
  941SOL    HW2 3723   5.397   1.120   5.698
  942SOL     OW 3724   5.285   6.715   3.313
  942SOL    HW1 3725   5.233   6.744   3.393
  942SOL    HW2 3726   5.381   6.741   3.323
  943SOL     OW 3727   2.151   3.221   3.799
  943SOL    HW1 3728   2.201   3.136   3.780
  943SOL    HW2 3729   2.138   3.231   3.897
  944SOL     OW 3730   0.522   4.083   5.653
  944SOL    HW1 3731   0.528   4.050   5.559
  944SOL    HW2 3732   0.613   4.111   5.684
  945SOL     OW 3733   6.129   4.241   4.808
  945SOL    HW1 3734   6.216   4.212   4.768
  945SOL    HW2 3735   6.057   4.234   4.739
  946SOL     OW 3736   5.072   2.527   6.432
  946SOL    HW1 3737   5.089   2.588   6.355
  946SOL    HW2 3738   5.009   2.454   6.405
  947SOL     OW 3739   3.952   3.114   4.175
  947SOL    HW1 3740   3.889   3.144   4.104
  947SOL    HW2 3741   3.966   3.015   4.168
  948SOL     OW 3742   3.740   0.232   1.464
  948SOL    HW1 3743   3.715   0.286   1.544
  948SOL    HW2 3744   3.706   0.138   1.475
  949SOL     OW 3745   1.017   6.356   6.642
  949SOL    HW1 3746   1.077   6.337   6.564
  949SOL    HW2 3747   0.939   6.294   6.639
  950SOL     OW 3748   4.765   5.358   1.608
  950SOL    HW1 3749   4.806   5.270   1.629
  950SOL    HW2 3750   4.666   5.349   1.604
  951SOL     OW 3751   2.083   1.729   4.050
  951SOL    HW1 3752   1.984   1.742   4.060
  951SOL    HW2 3753   2.120   1.803   3.994
  952SOL     OW 3754   5.151   1.371   3.104
  952SOL    HW1 3755   5.149   1.403   3.199
  952SOL    HW2 3756   5.087   1.425   3.049
  953SOL     OW 3757   5.436   5.099   4.266
  953SOL    HW1 3758   5.382   5.132   4.343
  953SOL    HW2 3759   5.376   5.065   4.194
  954SOL     OW 3760   4.150   5.374   0.471
  954SOL    HW1 3761   4.069   5.407   0.423
  954SOL    HW2 3762   4.125   5.298   0.531
  955SOL     OW 3763   6.999   3.577   3.544
  955SOL    HW1 3764   7.002   3.520   3.462
  955SOL    HW2 3765   6.994   3.673   3.519
  956SOL     OW 3766   6.686   1.825   2.561
  956SOL    HW1 3767   6.661   1.856   2.470
  956SOL    HW2 3768   6.780   1.855   2.581
  957SOL     OW 3769   6.600   4.379   5.010
  957SOL    HW1 3770   6.612   4.373   4.911
  957SOL    HW2 3771   6.545   4.302   5.042
  958SOL     OW 3772   4.356   1.725   1.865
  958SOL    HW1 3773   4.349   1.798   1.934
  958SOL    HW2 3774   4.266   1.708   1.825
  959SOL     OW 3775   3.764   5.683   2.610
  959SOL    HW1 3776   3.736   5.686   2.515
  959SOL    HW2 3777   3.851   5.731   2.621
  960SOL     OW 3778   1.059   6.332   1.669
  960SOL    HW1 3779   1.001   6.289   1.600
  960SOL    HW2 3780   1.005   6.347   1.753
  961SOL     OW 3781   5.413   6.905   3.658
  961SOL    HW1 3782   5.447   6.998   3.674
  961SOL    HW2 3783   5.325   6.910   3.611
  962SOL     OW 3784   0.514   0.719   5.302
  962SOL    HW1 3785   0.504   0.673   5.214
  962SOL    HW2 3786   0.430   0.770   5.324
  963SOL     OW 3787   6.695   1.791   6.172
  963SOL    HW1 3788   6.614   1.744   6.136
  963SOL    HW2 3789   6.677   1.822   6.265
  964SOL     OW 3790   5.910   4.306   0.276
  964SOL    HW1 3791   5.817   4.292   0.244
  964SOL    HW2 3792   5.975   4.281   0.204
  965SOL     OW 3793   5.284   2.059   1.051
  965SOL    HW1 3794   5.187   2.045   1.031
  965SOL    HW2 3795   5.295   2.080   1.148
  966SOL     OW 3796   5.248   1.874   2.064
  966SOL    HW1 3797   5.342   1.841   2.070
  966SOL    HW2 3798   5.200   1.858   2.150
  967SOL     OW 3799   2.448   4.328   1.207
  967SOL    HW1 3800   2.531   4.344   1.260
  967SOL    HW2 3801   2.460   4.365   1.114
  968SOL     OW 3802   3.509   1.136   1.503
  968SOL    HW1 3803   3.473   1.077   1.431
  968SOL    HW2 3804   3.530   1.080   1.584
  969SOL     OW 3805   3.295   6.164   6.048
  969SOL    HW1 3806   3.322   6.096   6.116
  969SOL    HW2 3807   3.274   6.250   6.094
  970SOL     OW 3808   5.319   0.538   5.815
  970SOL    HW1 3809   5.286   0.539   5.721
  970SOL    HW2 3810   5.343   0.631   5.843
  971SOL     OW 3811   6.369   2.111   3.057
  971SOL    HW1 3812   6.376   2.199   3.104
  971SOL    HW2 3813   6.293   2.059   3.096
  972SOL     OW 3814   5.282   3.607   2.224
  972SOL    HW1 3815   5.300   3.690   2.171
  972SOL    HW2 3816   5.352   3.538   2.204
  973SOL     OW 3817   0.250   4.632   0.333
  973SOL    HW1 3818   0.348   4.619   0.325
  973SOL    HW2 3819   0.230   4.690   0.412
  974SOL     OW 3820   5.392   6.590   2.332
  974SOL    HW1 3821   5.320   6.576   2.265
  974SOL    HW2 3822   5.448   6.507   2.339
  975SOL     OW 3823   0.882   6.629   6.649
  975SOL    HW1 3824   0.966   6.575   6.646
  975SOL    HW2 3825   0.872   6.679   6.563
  976SOL     OW 3826   6.643   3.528   3.121
  976SOL    HW1 3827   6.739   3.521   3.151
  976SOL    HW2 3828   6.583   3.520   3.200
  977SOL     OW 3829   1.382   0.802   2.281
  977SOL    HW1 3830   1.378   0.724   2.344
  977SOL    HW2 3831   1.419   0.771   2.193
  978SOL     OW 3832   4.281   3.849   5.674
  978SOL    HW1 3833   4.322   3.776   5.729
  978SOL    HW2 3834   4.279   3.934   5.727
  979SOL     OW 3835   6.971   1.930   0.816
  979SOL    HW1 3836   0.027   1.893   0.761
  979SOL    HW2 3837   7.000   2.017   0.856
  980SOL     OW 3838   4.482   2.370   4.415
  980SOL    HW1 3839   4.418   2.293   4.421
  980SOL    HW2 3840   4.567   2.340   4.373
  981SOL     OW 3841   0.262   1.875   4.799
  981SOL    HW1 3842   0.175   1.888   4.846
  981SOL    HW2 3843   0.321   1.816   4.854
  982SOL     OW 3844   2.777   2.337   4.237
  982SOL    HW1 3845   2.714   2.399   4.190
  982SOL    HW2 3846   2.812   2.269   4.173
  983SOL     OW 3847   5.884   2.345   5.389
  983SOL    HW1 3848   5.874   2.411   5.463
  983SOL    HW2 3849   5.835   2.261   5.412
  984SOL     OW 3850   2.213   1.562   4.881
  984SOL    HW1 3851   2.204   1.636   4.814
  984SOL    HW2 3852   2.296   1.511   4.863
  985SOL     OW 3853   5.687   3.932   5.211
  985SOL    HW1 3854   5.603   3.878   5.207
  985SOL    HW2 3855   5.695   3.975   5.301
  986SOL     OW 3856   6.053   4.618   1.166
  986SOL    HW1 3857   6.010   4.631   1.255
  986SOL    HW2 3858   5.997   4.557   1.110
  987SOL     OW 3859   4.760   6.793   1.939
  987SOL    HW1 3860   4.771   6.814   2.036
  987SOL    HW2 3861   4.749   6.878   1.887
  988SOL     OW 3862   3.439   3.563   2.716
  988SOL    HW1 3863   3.460   3.502   2.792
  988SOL    HW2 3864   3.339   3.567   2.704
  989SOL     OW 3865   6.021   0.948   5.826
  989SOL    HW1 3866   5.996   0.922   5.733
  989SOL    HW2 3867   5.952   0.913   5.890
  990SOL     OW 3868   3.765   0.589   2.149
  990SOL    HW1 3869   3.765   0.646   2.232
  990SOL    HW2 3870   3.788   0.645   2.070
  991SOL     OW 3871   0.886   2.656   5.513
  991SOL    HW1 3872   0.966   2.609   5.549
  991SOL    HW2 3873   0.816   2.589   5.488
  992SOL     OW 3874   6.848   2.823   2.145
  992SOL    HW1 3875   6.833   2.757   2.219
  992SOL    HW2 3876   6.831   2.779   2.057
  993SOL     OW 3877   0.794   4.567   1.283
  993SOL    HW1 3878   0.787   4.547   1.380
  993SOL    HW2 3879   0.847   4.651   1.270
  994SOL     OW 3880   3.950   4.357   1.495
  994SOL    HW1 3881   3.944   4.320   1.588
  994SOL    HW2 3882   3.873   4.322   1.441
  995SOL     OW 3883   3.915   3.022   4.750
  995SOL    HW1 3884   3.914   3.054   4.844
  995SOL    HW2 3885   3.950   2.928   4.747
  996SOL     OW 3886   2.954   5.053   4.545
  996SOL    HW1 3887   3.012   4.979   4.510
  996SOL    HW2 3888   2.865   5.016   4.570
  997SOL     OW 3889   0.925   1.046   2.842
  997SOL    HW1 3890   0.926   1.029   2.940
  997SOL    HW2 3891   1.001   0.997   2.799
  998SOL     OW 3892   4.577   0.242   4.183
  998SOL    HW1 3893   4.520   0.241   4.101
  998SOL    HW2 3894   4.628   0.156   4.189
  999SOL     OW 3895   4.922   3.908   2.811
  999SOL    HW1 3896   4.881   3.828   2.768
  999SOL    HW2 3897   4.926   3.983   2.745
 1000SOL     OW 3898   2.516   1.075   1.883
 1000SOL    HW1 3899   2.556   1.052   1.971
 1000SOL    HW2 3900   2.426   1.031   1.874
 1001SOL     OW 3901   4.748   5.703   0.318
 1001SOL    HW1 3902   4.829   5.643   0.319
 1001SOL    HW2 3903   4.775   5.793   0.286
 1002SOL     OW 3904   6.211   1.599   1.553
 1002SOL    HW1 3905   6.203   1.561   1.461
 1002SOL    HW2 3906   6.131   1.655   1.573
 1003SOL     OW 3907   2.024   6.445   2.295
 1003SOL    HW1 3908   2.036   6.442   2.394
 1003SOL    HW2 3909   1.929   6.424   2.272
 1004SOL     OW 3910   0.505   0.007   2.577
 1004SOL    HW1 3911   0.449   6.998   2.499
 1004SOL    HW2 3912   0.520   0.106   2.575
 1005SOL     OW 3913   2.212   2.894   4.069
 1005SOL    HW1 3914   2.221   2.968   4.135
 1005SOL    HW2 3915   2.230   2.928   3.977
 1006SOL     OW 3916   0.614   4.920   1.556
 1006SOL    HW1 3917   0.523   4.909   1.514
 1006SOL    HW2 3918   0.604   4.937   1.654
 1007SOL     OW 3919   4.440   6.786   4.858
 1007SOL    HW1 3920   4.529   6.818   4.892
 1007SOL    HW2 3921   4.397   6.858   4.804
 1008SOL     OW 3922   1.700   2.874   5.255
 1008SOL    HW1 3923   1.693   2.940   5.330
 1008SOL    HW2 3924   1.609   2.851   5.222
 1009SOL     OW 3925   0.530   5.445   4.951
 1009SOL    HW1 3926   0.516   5.348   4.930
 1009SOL    HW2 3927   0.520   5.499   4.867
 1010SOL     OW 3928   3.703   2.834   6.119
 1010SOL    HW1 3929   3.778   2.791   6.069
 1010SOL    HW2 3930   3.692   2.789   6.208
 1011SOL     OW 3931   2.463   4.490   2.561
 1011SOL    HW1 3932   2.454   4.445   2.650
 1011SOL    HW2 3933   2.469   4.589   2.573
 1012SOL     OW 3934   6.904   0.777   2.219
 1012SOL    HW1 3935   6.832   0.783   2.289
 1012SOL    HW2 3936   6.924   0.681   2.202
 1013SOL     OW 3937   1.386   0.658   5.452
 1013SOL    HW1 3938   1.355   0.627   5.362
 1013SOL    HW2 3939   1.310   0.655   5.517
 1014SOL     OW 3940   6.116   5.198   6.567
 1014SOL    HW1 3941   6.105   5.289   6.527
 1014SOL    HW2 3942   6.108   5.129   6.494
 1015SOL     OW 3943   2.229   6.686   5.957
 1015SOL    HW1 3944   2.181   6.658   6.040
 1015SOL    HW2 3945   2.296   6.616   5.933
 1016SOL     OW 3946   3.955   3.453   6.803
 1016SOL    HW1 3947   3.991   3.362   6.782
 1016SOL    HW2 3948   3.899   3.486   6.727
 1017SOL     OW 3949   4.227   2.692   1.242
 1017SOL    HW1 3950   4.310   2.637   1.231
 1017SOL    HW2 3951   4.178   2.662   1.324
 1018SOL     OW 3952   0.186   4.512   3.932
 1018SOL    HW1 3953   0.257   4.544   3.995
 1018SOL    HW2 3954   0.180   4.412   3.936
 1019SOL     OW 3955   6.913   6.758   0.967
 1019SOL    HW1 3956   6.997   6.784   0.919
 1019SOL    HW2 3957   6.858   6.839   0.985
 1020SOL     OW 3958   0.461   1.028   1.246
 1020SOL    HW1 3959   0.392   0.962   1.277
 1020SOL    HW2 3960   0.447   1.047   1.149
 1021SOL     OW 3961   5.598   0.449   1.370
 1021SOL    HW1 3962   5.631   0.430   1.278
 1021SOL    HW2 3963   5.498   0.454   1.369
 1022SOL     OW 3964   3.500   4.645   5.582
 1022SOL    HW1 3965   3.429   4.652   5.513
 1022SOL    HW2 3966   3.547   4.733   5.591
 1023SOL     OW 3967   1.171   7.005   3.082
 1023SOL    HW1 3968   1.120   7.009   2.997
 1023SOL    HW2 3969   1.107   7.006   3.160
 1024SOL     OW 3970   0.594   2.434   3.893
 1024SOL    HW1 3971   0.668   2.375   3.860
 1024SOL    HW2 3972   0.550   2.391   3.972
 1025SOL     OW 3973   3.412   3.264   1.113
 1025SOL    HW1 3974   3.511   3.252   1.123
 1025SOL    HW2 3975   3.366   3.229   1.195
 1026SOL     OW 3976   2.215   2.761   0.816
 1026SOL    HW1 3977   2.200   2.677   0.868
 1026SOL    HW2 3978   2.130   2.813   0.811
 1027SOL     OW 3979   3.160   6.396   1.352
 1027SOL    HW1 3980   3.173   6.349   1.440
 1027SOL    HW2 3981   3.066   6.431   1.347
 1028SOL     OW 3982   2.766   6.322   0.663
 1028SOL    HW1 3983   2.681   6.344   0.614
 1028SOL    HW2 3984   2.781   6.223   0.660
 1029SOL     OW 3985   1.738   0.195   6.839
 1029SOL    HW1 3986   1.835   0.197   6.818
 1029SOL    HW2 3987   1.725   0.202   6.938
 1030SOL     OW 3988   3.129   2.777   1.832
 1030SOL    HW1 3989   3.076   2.699   1.864
 1030SOL    HW2 3990   3.089   2.813   1.748
 1031SOL     OW 3991   5.519   4.363   1.098
 1031SOL    HW1 3992   5.560   4.421   1.168
 1031SOL    HW2 3993   5.583   4.351   1.023
 1032SOL     OW 3994   2.162   2.291   5.440
 1032SOL    HW1 3995   2.201   2.242   5.362
 1032SOL    HW2 3996   2.089   2.351   5.409
 1033SOL     OW 3997   1.447   6.806   1.336
 1033SOL    HW1 3998   1.503   6.733   1.297
 1033SOL    HW2 3999   1.492   6.844   1.416
 1034SOL     OW 4000   0.591   5.185   4.589
 1034SOL    HW1 4001   0.601   5.160   4.493
 1034SOL    HW2 4002   0.593   5.103   4.646
 1035SOL     OW 4003   0.136   0.836   5.024
 1035SOL    HW1 4004   0.078   0.763   5.058
 1035SOL    HW2 4005   0.126   0.917   5.083
 1036SOL     OW 4006   3.450   1.350   1.693
 1036SOL    HW1 4007   3.504   1.272   1.661
 1036SOL    HW2 4008   3.510   1.413   1.743
 1037SOL     OW 4009   1.843   1.222   1.751
 1037SOL    HW1 4010   1.902   1.301   1.735
 1037SOL    HW2 4011   1.793   1.235   1.837
 1038SOL     OW 4012   1.177   0.390   4.633
 1038SOL    HW1 4013   1.221   0.413   4.720
 1038SOL    HW2 4014   1.152   0.475   4.585
 1039SOL     OW 4015   3.345   3.879   5.490
 1039SOL    HW1 4016   3.316   3.905   5.397
 1039SOL    HW2 4017   3.348   3.960   5.548
 1040SOL     OW 4018   4.355   1.583   2.566
 1040SOL    HW1 4019   4.312   1.531   2.640
 1040SOL    HW2 4020   4.450   1.601   2.590
 1041SOL     OW 4021   6.958   0.040   3.773
 1041SOL    HW1 4022   6.884   0.010   3.833
 1041SOL    HW2 4023   6.921   0.063   3.683
 1042SOL     OW 4024   4.596   5.062   2.260
 1042SOL    HW1 4025   4.583   5.106   2.349
 1042SOL    HW2 4026   4.662   4.987   2.269
 1043SOL     OW 4027   3.695   1.285   5.077
 1043SOL    HW1 4028   3.771   1.305   5.016
 1043SOL    HW2 4029   3.612   1.330   5.043
 1044SOL     OW 4030   5.277   5.139   2.554
 1044SOL    HW1 4031   5.368   5.113   2.522
 1044SOL    HW2 4032   5.277   5.143   2.654
 1045SOL     OW 4033   4.179   6.509   2.230
 1045SOL    HW1 4034   4.189   6.593   2.176
 1045SOL    HW2 4035   4.083   6.498   2.257
 1046SOL     OW 4036   1.756   0.885   0.440
 1046SOL    HW1 4037   1.818   0.844   0.507
 1046SOL    HW2 4038   1.670   0.909   0.485
 1047SOL     OW 4039   1.713   1.279   3.499
 1047SOL    HW1 4040   1.758   1.222   3.430
 1047SOL    HW2 4041   1.781   1.337   3.543
 1048SOL     OW 4042   4.701   6.216   3.953
 1048SOL    HW1 4043   4.717   6.275   4.032
 1048SOL    HW2 4044   4.700   6.121   3.982
 1049SOL     OW 4045   6.417   6.273   3.752
 1049SOL    HW1 4046   6.512   6.273   3.780
 1049SOL    HW2 4047   6.409   6.233   3.660
 1050SOL     OW 4048   4.176   5.137   1.136
 1050SOL    HW1 4049   4.218   5.197   1.204
 1050SOL    HW2 4050   4.096   5.182   1.096
 1051SOL     OW 4051   2.222   6.300   0.945
 1051SOL    HW1 4052   2.226   6.223   1.008
 1051SOL    HW2 4053   2.298   6.294   0.880
 1052SOL     OW 4054   3.710   0.833   4.672
 1052SOL    HW1 4055   3.735   0.929   4.680
 1052SOL    HW2 4056   3.657   0.805   4.752
 1053SOL     OW 4057   5.849   5.298   3.157
 1053SOL    HW1 4058   5.832   5.248   3.072
 1053SOL    HW2 4059   5.868   5.233   3.230
 1054SOL     OW 4060   3.214   4.232   6.268
 1054SOL    HW1 4061   3.290   4.178   6.306
 1054SOL    HW2 4062   3.171   4.181   6.194
 1055SOL     OW 4063   3.539   6.710   4.969
 1055SOL    HW1 4064   3.514   6.805   4.990
 1055SOL    HW2 4065   3.456   6.655   4.961
 1056SOL     OW 4066   1.647   5.360   6.246
 1056SOL    HW1 4067   1.722   5.301   6.217
 1056SOL    HW2 4068   1.571   5.352   6.182
 1057SOL     OW 4069   2.855   3.432   1.863
 1057SOL    HW1 4070   2.897   3.414   1.952
 1057SOL    HW2 4071   2.922   3.477   1.804
 1058SOL     OW 4072   5.120   1.125   2.974
 1058SOL    HW1 4073   5.139   1.198   3.039
 1058SOL    HW2 4074   5.116   1.038   3.022
 1059SOL     OW 4075   2.518   0.555   1.588
 1059SOL    HW1 4076   2.421   0.533   1.592
 1059SOL    HW2 4077   2.532   0.637   1.532
 1060SOL     OW 4078   0.280   4.324   4.713
 1060SOL    HW1 4079   0.309   4.393   4.779
 1060SOL    HW2 4080   0.181   4.312   4.718
 1061SOL     OW 4081   6.058   2.737   0.780
 1061SOL    HW1 4082   6.135   2.776   0.831
 1061SOL    HW2 4083   6.093   2.671   0.713
 1062SOL     OW 4084   5.616   3.718   6.215
 1062SOL    HW1 4085   5.524   3.704   6.253
 1062SOL    HW2 4086   5.619   3.683   6.121
 1063SOL     OW 4087   1.800   4.949   1.885
 1063SOL    HW1 4088   1.783   5.037   1.929
 1063SOL    HW2 4089   1.888   4.912   1.916
 1064SOL     OW 4090   1.709   4.215   2.060
 1064SOL    HW1 4091   1.653   4.240   1.981
 1064SOL    HW2 4092   1.672   4.259   2.142
 1065SOL     OW 4093   3.510   6.980   3.885
 1065SOL    HW1 4094   3.492   0.061   3.883
 1065SOL    HW2 4095   3.585   6.959   3.823
 1066SOL     OW 4096   4.701   6.456   3.049
 1066SOL    HW1 4097   4.791   6.468   3.089
 1066SOL    HW2 4098   4.655   6.379   3.093
 1067SOL     OW 4099   0.865   3.295   0.799
 1067SOL    HW1 4100   0.774   3.304   0.841
 1067SOL    HW2 4101   0.935   3.317   0.867
 1068SOL     OW 4102   5.544   5.653   3.075
 1068SOL    HW1 4103   5.592   5.587   3.132
 1068SOL    HW2 4104   5.446   5.651   3.098
 1069SOL     OW 4105   4.294   5.289   1.318
 1069SOL    HW1 4106   4.287   5.251   1.410
 1069SOL    HW2 4107   4.338   5.379   1.322
 1070SOL     OW 4108   6.895   0.240   2.225
 1070SOL    HW1 4109   6.982   0.204   2.191
 1070SOL    HW2 4110   6.832   0.164   2.242
 1071SOL     OW 4111   1.130   0.510   3.874
 1071SOL    HW1 4112   1.157   0.441   3.941
 1071SOL    HW2 4113   1.212   0.547   3.830
 1072SOL     OW 4114   2.408   1.162   1.296
 1072SOL    HW1 4115   2.370   1.230   1.359
 1072SOL    HW2 4116   2.436   1.207   1.212
 1073SOL     OW 4117   5.159   6.931   2.072
 1073SOL    HW1 4118   5.229   6.931   2.144
 1073SOL    HW2 4119   5.144   0.007   2.041
 1074SOL     OW 4120   2.070   5.567   1.143
 1074SOL    HW1 4121   2.064   5.547   1.241
 1074SOL    HW2 4122   2.068   5.666   1.129
 1075SOL     OW 4123   5.188   6.953   3.968
 1075SOL    HW1 4124   5.287   6.946   3.967
 1075SOL    HW2 4125   5.149   6.895   3.897
 1076SOL     OW 4126   6.839   2.927   5.454
 1076SOL    HW1 4127   6.822   2.866   5.531
 1076SOL    HW2 4128   6.917   2.986   5.475
 1077SOL     OW 4129   5.827   0.786   1.191
 1077SOL    HW1 4130   5.885   0.866   1.207
 1077SOL    HW2 4131   5.854   0.712   1.253
 1078SOL     OW 4132   1.378   1.503   2.684
 1078SOL    HW1 4133   1.438   1.565   2.632
 1078SOL    HW2 4134   1.384   1.411   2.644
 1079SOL     OW 4135   2.299   6.096   2.380
 1079SOL    HW1 4136   2.243   6.048   2.313
 1079SOL    HW2 4137   2.241   6.156   2.435
 1080SOL     OW 4138   1.069   4.078   3.746
 1080SOL    HW1 4139   1.119   4.080   3.660
 1080SOL    HW2 4140   1.131   4.058   3.822
 1081SOL     OW 4141   0.528   5.530   5.781
 1081SOL    HW1 4142   0.440   5.573   5.798
 1081SOL    HW2 4143   0.556   5.548   5.686
 1082SOL     OW 4144   4.116   2.105   5.657
 1082SOL    HW1 4145   4.154   2.075   5.569
 1082SOL    HW2 4146   4.021   2.075   5.664
 1083SOL     OW 4147   4.024   3.894   0.098
 1083SOL    HW1 4148   4.003   3.815   0.155
 1083SOL    HW2 4149   4.098   3.871   0.035
 1084SOL     OW 4150   5.481   5.698   6.621
 1084SOL    HW1 4151   5.577   5.671   6.628
 1084SOL    HW2 4152   5.462   5.768   6.690
 1085SOL     OW 4153   1.401   3.472   4.140
 1085SOL    HW1 4154   1.475   3.469   4.073
 1085SOL    HW2 4155   1.401   3.561   4.185
 1086SOL     OW 4156   6.703   6.217   0.936
 1086SOL    HW1 4157   6.629   6.272   0.974
 1086SOL    HW2 4158   6.719   6.242   0.841
 1087SOL     OW 4159   5.471   1.568   4.594
 1087SOL    HW1 4160   5.412   1.630   4.645
 1087SOL    HW2 4161   5.534   1.522   4.656
 1088SOL     OW 4162   6.909   4.688   3.217
 1088SOL    HW1 4163   6.857   4.687   3.302
 1088SOL    HW2 4164   7.007   4.683   3.237
 1089SOL     OW 4165   1.892   6.425   4.197
 1089SOL    HW1 4166   1.988   6.407   4.174
 1089SOL    HW2 4167   1.857   6.352   4.256
 1090SOL     OW 4168   2.433   2.330   3.742
 1090SOL    HW1 4169   2.499   2.284   3.682
 1090SOL    HW2 4170   2.407   2.418   3.703
 1091SOL     OW 4171   3.329   1.418   4.907
 1091SOL    HW1 4172   3.279   1.503   4.889
 1091SOL    HW2 4173   3.317   1.393   5.004
 1092SOL     OW 4174   2.019   3.904   1.563
 1092SOL    HW1 4175   2.021   3.829   1.497
 1092SOL    HW2 4176   1.925   3.929   1.583
 1093SOL     OW 4177   2.158   1.464   1.899
 1093SOL    HW1 4178   2.206   1.381   1.928
 1093SOL    HW2 4179   2.186   1.541   1.957
 1094SOL     OW 4180   0.789   0.083   3.354
 1094SOL    HW1 4181   0.758   0.175   3.328
 1094SOL    HW2 4182   0.818   0.034   3.272
 1095SOL     OW 4183   0.555   2.599   6.488
 1095SOL    HW1 4184   0.510   2.683   6.459
 1095SOL    HW2 4185   0.486   2.531   6.513
 1096SOL     OW 4186   3.455   4.413   1.736
 1096SOL    HW1 4187   3.495   4.347   1.800
 1096SOL    HW2 4188   3.467   4.505   1.773
 1097SOL     OW 4189   2.136   4.416   3.998
 1097SOL    HW1 4190   2.159   4.512   3.981
 1097SOL    HW2 4191   2.077   4.410   4.079
 1098SOL     OW 4192   3.956   3.607   0.009
 1098SOL    HW1 4193   3.889   3.680   7.016
 1098SOL    HW2 4194   3.964   3.556   6.941
 1099SOL     OW 4195   4.060   1.695   5.545
 1099SOL    HW1 4196   3.969   1.677   5.582
 1099SOL    HW2 4197   4.129   1.673   5.614
 1100SOL     OW 4198   3.459   1.755   5.467
 1100SOL    HW1 4199   3.377   1.810   5.485
 1100SOL    HW2 4200   3.484   1.761   5.371
 1101SOL     OW 4201   6.227   2.290   6.936
 1101SOL    HW1 4202   6.189   2.198   6.931
 1101SOL    HW2 4203   6.302   2.299   6.871
 1102SOL     OW 4204   0.432   6.457   5.255
 1102SOL    HW1 4205   0.525   6.477   5.228
 1102SOL    HW2 4206   0.422   6.358   5.267
 1103SOL     OW 4207   3.718   1.722   0.175
 1103SOL    HW1 4208   3.625   1.737   0.206
 1103SOL    HW2 4209   3.731   1.625   0.154
 1104SOL     OW 4210   2.339   2.665   5.450
 1104SOL    HW1 4211   2.337   2.630   5.543
 1104SOL    HW2 4212   2.301   2.758   5.449
 1105SOL     OW 4213   6.487   3.983   5.258
 1105SOL    HW1 4214   6.477   3.930   5.174
 1105SOL    HW2 4215   6.452   4.076   5.243
 1106SOL     OW 4216   0.573   2.329   2.028
 1106SOL    HW1 4217   0.517   2.319   1.945
 1106SOL    HW2 4218   0.517   2.311   2.109
 1107SOL     OW 4219   1.019   0.672   6.774
 1107SOL    HW1 4220   1.032   0.713   6.684
 1107SOL    HW2 4221   1.080   0.717   6.840
 1108SOL     OW 4222   3.769   0.258   5.925
 1108SOL    HW1 4223   3.853   0.308   5.905
 1108SOL    HW2 4224   3.727   0.296   6.008
 1109SOL     OW 4225   5.193   0.731   4.533
 1109SOL    HW1 4226   5.266   0.688   4.586
 1109SOL    HW2 4227   5.231   0.806   4.479
 1110SOL     OW 4228   2.526   1.448   3.333
 1110SOL    HW1 4229   2.617   1.481   3.357
 1110SOL    HW2 4230   2.518   1.442   3.233
 1111SOL     OW 4231   4.445   5.244   6.186
 1111SOL    HW1 4232   4.381   5.198   6.125
 1111SOL    HW2 4233   4.521   5.283   6.133
 1112SOL     OW 4234   4.979   1.351   2.259
 1112SOL    HW1 4235   5.040   1.276   2.236
 1112SOL    HW2 4236   5.009   1.393   2.345
 1113SOL     OW 4237   6.128   3.935   1.907
 1113SOL    HW1 4238   6.170   3.976   1.826
 1113SOL    HW2 4239   6.196   3.881   1.957
 1114SOL     OW 4240   3.959   1.888   6.606
 1114SOL    HW1 4241   4.009   1.953   6.664
 1114SOL    HW2 4242   3.876   1.932   6.572
 1115SOL     OW 4243   4.120   3.262   6.501
 1115SOL    HW1 4244   4.060   3.269   6.421
 1115SOL    HW2 4245   4.189   3.333   6.497
 1116SOL     OW 4246   5.103   6.781   5.750
 1116SOL    HW1 4247   5.049   6.770   5.666
 1116SOL    HW2 4248   5.166   6.858   5.739
 1117SOL     OW 4249   2.182   2.240   2.504
 1117SOL    HW1 4250   2.275   2.272   2.484
 1117SOL    HW2 4251   2.137   2.212   2.419
 1118SOL     OW 4252   2.582   4.718   1.215
 1118SOL    HW1 4253   2.682   4.709   1.218
 1118SOL    HW2 4254   2.558   4.806   1.175
 1119SOL     OW 4255   4.170   4.439   1.360
 1119SOL    HW1 4256   4.092   4.418   1.418
 1119SOL    HW2 4257   4.222   4.355   1.342
 1120SOL     OW 4258   6.220   6.781   6.294
 1120SOL    HW1 4259   6.130   6.743   6.316
 1120SOL    HW2 4260   6.210   6.865   6.241
 1121SOL     OW 4261   5.084   4.979   3.391
 1121SOL    HW1 4262   5.156   5.035   3.350
 1121SOL    HW2 4263   5.039   4.925   3.321
 1122SOL     OW 4264   5.381   3.025   0.108
 1122SOL    HW1 4265   5.391   3.009   0.206
 1122SOL    HW2 4266   5.350   2.942   0.063
 1123SOL     OW 4267   4.732   0.936   3.175
 1123SOL    HW1 4268   4.709   0.844   3.144
 1123SOL    HW2 4269   4.675   0.960   3.253
 1124SOL     OW 4270   0.319   3.518   5.165
 1124SOL    HW1 4271   0.367   3.564   5.240
 1124SOL    HW2 4272   0.221   3.522   5.181
 1125SOL     OW 4273   3.428   2.130   4.441
 1125SOL    HW1 4274   3.359   2.157   4.508
 1125SOL    HW2 4275   3.382   2.083   4.364
 1126SOL     OW 4276   6.213   4.717   6.859
 1126SOL    HW1 4277   6.186   4.807   6.894
 1126SOL    HW2 4278   6.235   4.724   6.762
 1127SOL     OW 4279   5.404   5.287   4.948
 1127SOL    HW1 4280   5.497   5.310   4.978
 1127SOL    HW2 4281   5.349   5.371   4.947
 1128SOL     OW 4282   5.670   1.603   5.321
 1128SOL    HW1 4283   5.617   1.577   5.240
 1128SOL    HW2 4284   5.767   1.593   5.301
 1129SOL     OW 4285   1.890   0.528   6.890
 1129SOL    HW1 4286   1.987   0.545   6.870
 1129SOL    HW2 4287   1.837   0.528   6.806
 1130SOL     OW 4288   2.552   4.714   0.833
 1130SOL    HW1 4289   2.483   4.658   0.877
 1130SOL    HW2 4290   2.557   4.804   0.878
 1131SOL     OW 4291   0.199   5.457   5.953
 1131SOL    HW1 4292   0.244   5.450   5.864
 1131SOL    HW2 4293   0.183   5.553   5.975
 1132SOL     OW 4294   5.452   0.589   1.866
 1132SOL    HW1 4295   5.539   0.583   1.817
 1132SOL    HW2 4296   5.379   0.550   1.810
 1133SOL     OW 4297   0.798   0.153   1.314
 1133SOL    HW1 4298   0.839   0.235   1.275
 1133SOL    HW2 4299   0.860   0.114   1.382
 1134SOL     OW 4300   5.012   0.595   1.851
 1134SOL    HW1 4301   4.949   0.656   1.802
 1134SOL    HW2 4302   5.063   0.647   1.919
 1135SOL     OW 4303   2.696   0.638   2.607
 1135SOL    HW1 4304   2.724   0.618   2.700
 1135SOL    HW2 4305   2.756   0.591   2.543
 1136SOL     OW 4306   3.626   5.118   3.503
 1136SOL    HW1 4307   3.685   5.195   3.479
 1136SOL    HW2 4308   3.586   5.080   3.419
 1137SOL     OW 4309   1.401   0.906   6.476
 1137SOL    HW1 4310   1.377   0.934   6.383
 1137SOL    HW2 4311   1.498   0.927   6.493
 1138SOL     OW 4312   6.837   0.507   5.712
 1138SOL    HW1 4313   6.791   0.423   5.682
 1138SOL    HW2 4314   6.809   0.583   5.654
 1139SOL     OW 4315   3.274   5.092   1.672
 1139SOL    HW1 4316   3.362   5.047   1.686
 1139SOL    HW2 4317   3.221   5.040   1.604
 1140SOL     OW 4318   4.279   1.323   1.863
 1140SOL    HW1 4319   4.342   1.380   1.916
 1140SOL    HW2 4320   4.317   1.308   1.772
 1141SOL     OW 4321   0.386   5.996   6.803
 1141SOL    HW1 4322   0.300   6.006   6.854
 1141SOL    HW2 4323   0.431   6.085   6.796
 1142SOL     OW 4324   2.745   6.915   4.389
 1142SOL    HW1 4325   2.663   6.859   4.375
 1142SOL    HW2 4326   2.821   6.875   4.339
 1143SOL     OW 4327   1.544   3.727   2.647
 1143SOL    HW1 4328   1.561   3.825   2.656
 1143SOL    HW2 4329   1.610   3.688   2.584
 1144SOL     OW 4330   6.595   4.898   4.137
 1144SOL    HW1 4331   6.641   4.987   4.138
 1144SOL    HW2 4332   6.544   4.886   4.222
 1145SOL     OW 4333   6.731   3.483   2.577
 1145SOL    HW1 4334   6.633   3.503   2.571
 1145SOL    HW2 4335   6.744   3.385   2.590
 1146SOL     OW 4336   6.537   0.406   2.423
 1146SOL    HW1 4337   6.619   0.350   2.440
 1146SOL    HW2 4338   6.468   0.385   2.493
 1147SOL     OW 4339   2.554   4.962   1.455
 1147SOL    HW1 4340   2.472   4.907   1.472
 1147SOL    HW2 4341   2.573   5.019   1.536
 1148SOL     OW 4342   5.149   6.169   0.634
 1148SOL    HW1 4343   5.240   6.192   0.669
 1148SOL    HW2 4344   5.081   6.182   0.706
 1149SOL     OW 4345   6.982   4.179   3.289
 1149SOL    HW1 4346   0.036   4.238   3.326
 1149SOL    HW2 4347   6.896   4.196   3.338
 1150SOL     OW 4348   2.336   3.692   0.345
 1150SOL    HW1 4349   2.346   3.626   0.419
 1150SOL    HW2 4350   2.278   3.653   0.273
 1151SOL     OW 4351   5.099   4.624   6.783
 1151SOL    HW1 4352   5.042   4.556   6.737
 1151SOL    HW2 4353   5.041   4.698   6.817
 1152SOL     OW 4354   5.373   5.042   6.334
 1152SOL    HW1 4355   5.469   5.041   6.362
 1152SOL    HW2 4356   5.331   5.129   6.359
 1153SOL     OW 4357   1.639   0.725   1.639
 1153SOL    HW1 4358   1.652   0.822   1.620
 1153SOL    HW2 4359   1.717   0.689   1.690
 1154SOL     OW 4360   0.117   4.423   1.061
 1154SOL    HW1 4361   0.214   4.405   1.081
 1154SOL    HW2 4362   0.094   4.384   0.972
 1155SOL     OW 4363   2.581   5.702   6.870
 1155SOL    HW1 4364   2.483   5.710   6.884
 1155SOL    HW2 4365   2.602   5.619   6.818
 1156SOL     OW 4366   4.111   1.591   4.654
 1156SOL    HW1 4367   4.163   1.512   4.686
 1156SOL    HW2 4368   4.155   1.675   4.685
 1157SOL     OW 4369   5.648   0.849   5.454
 1157SOL    HW1 4370   5.579   0.776   5.453
 1157SOL    HW2 4371   5.629   0.914   5.381
 1158SOL     OW 4372   7.013   5.136   5.001
 1158SOL    HW1 4373   0.071   5.168   4.945
 1158SOL    HW2 4374   7.012   5.036   5.003
 1159SOL     OW 4375   6.375   6.796   4.055
 1159SOL    HW1 4376   6.460   6.763   4.011
 1159SOL    HW2 4377   6.340   6.725   4.115
 1160SOL     OW 4378   4.527   3.787   0.743
 1160SOL    HW1 4379   4.430   3.809   0.736
 1160SOL    HW2 4380   4.578   3.870   0.765
 1161SOL     OW 4381   6.297   0.171   6.406
 1161SOL    HW1 4382   6.274   0.189   6.501
 1161SOL    HW2 4383   6.347   0.084   6.399
 1162SOL     OW 4384   3.263   2.174   6.482
 1162SOL    HW1 4385   3.273   2.240   6.557
 1162SOL    HW2 4386   3.177   2.192   6.434
 1163SOL     OW 4387   6.464   3.255   2.019
 1163SOL    HW1 4388   6.368   3.228   2.031
 1163SOL    HW2 4389   6.523   3.192   2.068
 1164SOL     OW 4390   6.097   3.112   4.787
 1164SOL    HW1 4391   6.054   3.087   4.873
 1164SOL    HW2 4392   6.189   3.073   4.782
 1165SOL     OW 4393   3.030   4.959   3.841
 1165SOL    HW1 4394   3.090   4.985   3.916
 1165SOL    HW2 4395   2.998   5.040   3.793
 1166SOL     OW 4396   4.235   6.696   0.267
 1166SOL    HW1 4397   4.249   6.759   0.343
 1166SOL    HW2 4398   4.164   6.732   0.207
 1167SOL     OW 4399   4.023   6.584   6.781
 1167SOL    HW1 4400   4.115   6.616   6.804
 1167SOL    HW2 4401   4.028   6.491   6.746
 1168SOL     OW 4402   5.268   2.466   3.336
 1168SOL    HW1 4403   5.319   2.380   3.328
 1168SOL    HW2 4404   5.194   2.466   3.268
 1169SOL     OW 4405   5.021   2.271   5.796
 1169SOL    HW1 4406   4.989   2.268   5.891
 1169SOL    HW2 4407   4.984   2.193   5.746
 1170SOL     OW 4408   5.090   0.557   3.143
 1170SOL    HW1 4409   5.023   0.544   3.070
 1170SOL    HW2 4410   5.182   0.557   3.104
 1171SOL     OW 4411   2.974   6.111   0.164
 1171SOL    HW1 4412   3.045   6.081   0.101
 1171SOL    HW2 4413   3.013   6.177   0.229
 1172SOL     OW 4414   2.882   4.132   1.572
 1172SOL    HW1 4415   2.813   4.092   1.512
 1172SOL    HW2 4416   2.839   4.199   1.634
 1173SOL     OW 4417   2.795   0.629   6.592
 1173SOL    HW1 4418   2.764   0.595   6.681
 1173SOL    HW2 4419   2.723   0.615   6.524
 1174SOL     OW 4420   3.471   4.751   1.056
 1174SOL    HW1 4421   3.562   4.721   1.028
 1174SOL    HW2 4422   3.437   4.692   1.129
 1175SOL     OW 4423   3.760   3.809   6.974
 1175SOL    HW1 4424   3.797   3.898   7.000
 1175SOL    HW2 4425   3.673   3.822   6.926
 1176SOL     OW 4426   6.147   4.732   6.397
 1176SOL    HW1 4427   6.184   4.767   6.483
 1176SOL    HW2 4428   6.211   4.666   6.357
 1177SOL     OW 4429   6.990   1.855   5.277
 1177SOL    HW1 4430   0.040   1.898   5.217
 1177SOL    HW2 4431   6.899   1.870   5.240
 1178SOL     OW 4432   3.217   4.193   0.830
 1178SOL    HW1 4433   3.199   4.160   0.923
 1178SOL    HW2 4434   3.194   4.122   0.764
 1179SOL     OW 4435   3.237   6.182   0.740
 1179SOL    HW1 4436   3.175   6.222   0.807
 1179SOL    HW2 4437   3.322   6.234   0.738
 1180SOL     OW 4438   2.047   5.978   3.990
 1180SOL    HW1 4439   2.068   5.937   3.901
 1180SOL    HW2 4440   1.949   5.994   3.997
 1181SOL     OW 4441   0.284   3.242   6.030
 1181SOL    HW1 4442   0.287   3.205   5.937
 1181SOL    HW2 4443   0.189   3.251   6.059
 1182SOL     OW 4444   2.970   4.815   2.967
 1182SOL    HW1 4445   2.923   4.763   2.896
 1182SOL    HW2 4446   2.954   4.772   3.056
 1183SOL     OW 4447   3.575   5.419   2.361
 1183SOL    HW1 4448   3.635   5.498   2.347
 1183SOL    HW2 4449   3.514   5.438   2.439
 1184SOL     OW 4450   5.924   6.727   6.070
 1184SOL    HW1 4451   5.888   6.819   6.052
 1184SOL    HW2 4452   5.889   6.695   6.158
 1185SOL     OW 4453   0.687   0.858   0.636
 1185SOL    HW1 4454   0.696   0.891   0.730
 1185SOL    HW2 4455   0.682   0.936   0.574
 1186SOL     OW 4456   5.778   5.800   5.545
 1186SOL    HW1 4457   5.762   5.860   5.624
 1186SOL    HW2 4458   5.867   5.756   5.554
 1187SOL     OW 4459   5.064   6.259   5.820
 1187SOL    HW1 4460   5.021   6.247   5.731
 1187SOL    HW2 4461   5.042   6.182   5.879
 1188SOL     OW 4462   3.169   5.372   6.028
 1188SOL    HW1 4463   3.234   5.297   6.016
 1188SOL    HW2 4464   3.212   5.457   5.999
 1189SOL     OW 4465   6.439   0.637   0.822
 1189SOL    HW1 4466   6.497   0.558   0.840
 1189SOL    HW2 4467   6.355   0.629   0.875
 1190SOL     OW 4468   2.858   5.483   2.864
 1190SOL    HW1 4469   2.928   5.507   2.932
 1190SOL    HW2 4470   2.825   5.390   2.882
 1191SOL     OW 4471   2.658   6.370   4.614
 1191SOL    HW1 4472   2.729   6.300   4.601
 1191SOL    HW2 4473   2.576   6.327   4.653
 1192SOL     OW 4474   5.962   6.047   3.546
 1192SOL    HW1 4475   6.011   6.045   3.458
 1192SOL    HW2 4476   6.028   6.063   3.620
 1193SOL     OW 4477   0.221   0.646   5.206
 1193SOL    HW1 4478   0.220   0.742   5.178
 1193SOL    HW2 4479   0.309   0.605   5.181
 1194SOL     OW 4480   6.679   1.474   1.473
 1194SOL    HW1 4481   6.727   1.447   1.556
 1194SOL    HW2 4482   6.595   1.523   1.497
 1195SOL     OW 4483   6.940   3.327   0.528
 1195SOL    HW1 4484   6.891   3.350   0.612
 1195SOL    HW2 4485   6.915   3.392   0.456
 1196SOL     OW 4486   6.452   4.535   3.588
 1196SOL    HW1 4487   6.391   4.581   3.654
 1196SOL    HW2 4488   6.527   4.491   3.637
 1197SOL     OW 4489   4.527   6.397   4.416
 1197SOL    HW1 4490   4.458   6.469   4.419
 1197SOL    HW2 4491   4.617   6.437   4.431
 1198SOL     OW 4492   1.159   3.628   2.055
 1198SOL    HW1 4493   1.092   3.677   2.111
 1198SOL    HW2 4494   1.112   3.559   2.000
 1199SOL     OW 4495   3.183   3.809   2.787
 1199SOL    HW1 4496   3.280   3.788   2.800
 1199SOL    HW2 4497   3.169   3.908   2.790
 1200SOL     OW 4498   3.811   4.031   4.247
 1200SOL    HW1 4499   3.782   4.093   4.320
 1200SOL    HW2 4500   3.731   3.995   4.200
 1201SOL     OW 4501   6.535   1.143   4.993
 1201SOL    HW1 4502   6.445   1.183   4.976
 1201SOL    HW2 4503   6.553   1.072   4.924
 1202SOL     OW 4504   0.269   5.947   5.438
 1202SOL    HW1 4505   0.281   5.923   5.342
 1202SOL    HW2 4506   0.274   6.046   5.448
 1203SOL     OW 4507   0.631   6.533   0.466
 1203SOL    HW1 4508   0.534   6.532   0.440
 1203SOL    HW2 4509   0.683   6.582   0.396
 1204SOL     OW 4510   4.714   1.102   1.423
 1204SOL    HW1 4511   4.689   1.008   1.403
 1204SOL    HW2 4512   4.803   1.122   1.382
 1205SOL     OW 4513   3.459   3.934   0.377
 1205SOL    HW1 4514   3.405   3.869   0.431
 1205SOL    HW2 4515   3.430   4.027   0.398
 1206SOL     OW 4516   0.996   3.430   4.941
 1206SOL    HW1 4517   1.052   3.430   5.024
 1206SOL    HW2 4518   0.976   3.335   4.914
 1207SOL     OW 4519   0.446   0.776   0.564
 1207SOL    HW1 4520   0.533   0.815   0.594
 1207SOL    HW2 4521   0.438   0.787   0.465
 1208SOL     OW 4522   3.391   3.132   1.387
 1208SOL    HW1 4523   3.404   3.109   1.483
 1208SOL    HW2 4524   3.293   3.143   1.369
 1209SOL     OW 4525   5.269   6.975   4.392
 1209SOL    HW1 4526   5.306   0.012   4.467
 1209SOL    HW2 4527   5.341   6.915   4.357
 1210SOL     OW 4528   4.138   6.214   3.600
 1210SOL    HW1 4529   4.045   6.220   3.565
 1210SOL    HW2 4530   4.154   6.285   3.668
 1211SOL     OW 4531   0.514   3.331   2.927
 1211SOL    HW1 4532   0.454   3.267   2.879
 1211SOL    HW2 4533   0.558   3.285   3.004
 1212SOL     OW 4534   6.641   6.674   6.195
 1212SOL    HW1 4535   6.571   6.698   6.127
 1212SOL    HW2 4536   6.628   6.579   6.224
 1213SOL     OW 4537   5.643   2.493   1.966
 1213SOL    HW1 4538   5.625   2.525   1.874
 1213SOL    HW2 4539   5.582   2.539   2.031
 1214SOL     OW 4540   0.814   2.492   6.798
 1214SOL    HW1 4541   0.768   2.454   6.717
 1214SOL    HW2 4542   0.825   2.420   6.867
 1215SOL     OW 4543   1.398   4.835   2.803
 1215SOL    HW1 4544   1.412   4.870   2.710
 1215SOL    HW2 4545   1.366   4.740   2.798
 1216SOL     OW 4546   5.203   1.500   0.660
 1216SOL    HW1 4547   5.212   1.585   0.714
 1216SOL    HW2 4548   5.196   1.523   0.563
 1217SOL     OW 4549   2.488   4.923   0.577
 1217SOL    HW1 4550   2.521   5.003   0.627
 1217SOL    HW2 4551   2.548   4.907   0.498
 1218SOL     OW 4552   1.873   2.485   4.948
 1218SOL    HW1 4553   1.777   2.486   4.975
 1218SOL    HW2 4554   1.923   2.555   5.000
 1219SOL     OW 4555   5.721   5.649   1.879
 1219SOL    HW1 4556   5.636   5.607   1.848
 1219SOL    HW2 4557   5.731   5.739   1.837
 1220SOL     OW 4558   6.798   4.087   2.465
 1220SOL    HW1 4559   6.817   4.169   2.411
 1220SOL    HW2 4560   6.881   4.031   2.471
 1221SOL     OW 4561   5.144   3.637   6.230
 1221SOL    HW1 4562   5.241   3.614   6.219
 1221SOL    HW2 4563   5.135   3.712   6.296
 1222SOL     OW 4564   6.618   1.140   6.429
 1222SOL    HW1 4565   6.598   1.191   6.345
 1222SOL    HW2 4566   6.675   1.197   6.488
 1223SOL     OW 4567   4.113   1.062   0.105
 1223SOL    HW1 4568   4.131   0.981   0.161
 1223SOL    HW2 4569   4.200   1.104   0.078
 1224SOL     OW 4570   2.814   6.300   6.715
 1224SOL    HW1 4571   2.829   6.330   6.621
 1224SOL    HW2 4572   2.722   6.324   6.744
 1225SOL     OW 4573   3.504   2.575   6.779
 1225SOL    HW1 4574   3.456   2.492   6.808
 1225SOL    HW2 4575   3.597   2.574   6.815
 1226SOL     OW 4576   3.854   6.415   0.277
 1226SOL    HW1 4577   3.950   6.413   0.251
 1226SOL    HW2 4578   3.846   6.428   0.376
 1227SOL     OW 4579   4.980   4.837   5.682
 1227SOL    HW1 4580   5.074   4.801   5.687
 1227SOL    HW2 4581   4.973   4.901   5.606
 1228SOL     OW 4582   2.901   2.282   6.452
 1228SOL    HW1 4583   2.841   2.348   6.407
 1228SOL    HW2 4584   2.848   2.202   6.480
 1229SOL     OW 4585   2.303   5.406   0.149
 1229SOL    HW1 4586   2.298   5.433   0.052
 1229SOL    HW2 4587   2.235   5.457   0.201
 1230SOL     OW 4588   5.475   6.582   1.544
 1230SOL    HW1 4589   5.382   6.591   1.579
 1230SOL    HW2 4590   5.508   6.490   1.562
 1231SOL     OW 4591   1.927   1.975   5.326
 1231SOL    HW1 4592   1.898   2.017   5.240
 1231SOL    HW2 4593   1.885   1.885   5.335
 1232SOL     OW 4594   6.712   1.348   5.016
 1232SOL    HW1 4595   6.636   1.286   4.999
 1232SOL    HW2 4596   6.773   1.349   4.936
 1233SOL     OW 4597   0.840   5.468   4.867
 1233SOL    HW1 4598   0.758   5.489   4.919
 1233SOL    HW2 4599   0.817   5.455   4.771
 1234SOL     OW 4600   6.100   3.183   5.990
 1234SOL    HW1 4601   6.145   3.238   5.920
 1234SOL    HW2 4602   6.008   3.160   5.959
 1235SOL     OW 4603   5.922   5.331   1.939
 1235SOL    HW1 4604   5.964   5.375   1.860
 1235SOL    HW2 4605   5.993   5.301   2.002
 1236SOL     OW 4606   4.383   0.673   1.100
 1236SOL    HW1 4607   4.304   0.697   1.044
 1236SOL    HW2 4608   4.467   0.689   1.048
 1237SOL     OW 4609   1.908   4.311   6.148
 1237SOL    HW1 4610   1.937   4.270   6.062
 1237SOL    HW2 4611   1.808   4.313   6.152
 1238SOL     OW 4612   1.374   0.899   6.192
 1238SOL    HW1 4613   1.384   0.979   6.133
 1238SOL    HW2 4614   1.290   0.850   6.168
 1239SOL     OW 4615   0.415   0.326   0.339
 1239SOL    HW1 4616   0.378   0.258   0.277
 1239SOL    HW2 4617   0.341   0.383   0.375
 1240SOL     OW 4618   5.772   6.024   0.744
 1240SOL    HW1 4619   5.865   6.053   0.767
 1240SOL    HW2 4620   5.774   5.972   0.659
 1241SOL     OW 4621   5.514   4.177   5.505
 1241SOL    HW1 4622   5.440   4.178   5.437
 1241SOL    HW2 4623   5.593   4.130   5.467
 1242SOL     OW 4624   1.918   3.429   1.410
 1242SOL    HW1 4625   1.969   3.350   1.444
 1242SOL    HW2 4626   1.825   3.428   1.448
 1243SOL     OW 4627   0.857   0.218   5.038
 1243SOL    HW1 4628   0.829   0.299   4.986
 1243SOL    HW2 4629   0.825   0.136   4.991
 1244SOL     OW 4630   5.600   6.482   4.060
 1244SOL    HW1 4631   5.627   6.487   3.964
 1244SOL    HW2 4632   5.653   6.548   4.113
 1245SOL     OW 4633   5.481   4.138   0.188
 1245SOL    HW1 4634   5.382   4.121   0.187
 1245SOL    HW2 4635   5.523   4.087   0.263
 1246SOL     OW 4636   3.408   1.364   1.344
 1246SOL    HW1 4637   3.486   1.383   1.285
 1246SOL    HW2 4638   3.439   1.317   1.427
 1247SOL     OW 4639   0.084   6.381   5.804
 1247SOL    HW1 4640   0.023   6.399   5.882
 1247SOL    HW2 4641   0.089   6.462   5.746
 1248SOL     OW 4642   1.982   6.862   4.803
 1248SOL    HW1 4643   2.005   6.769   4.831
 1248SOL    HW2 4644   1.954   6.915   4.883
 1249SOL     OW 4645   6.836   2.169   2.250
 1249SOL    HW1 4646   6.739   2.190   2.234
 1249SOL    HW2 4647   6.850   2.070   2.240
 1250SOL     OW 4648   5.661   5.478   3.239
 1250SOL    HW1 4649   5.688   5.558   3.293
 1250SOL    HW2 4650   5.727   5.405   3.253
 1251SOL     OW 4651   2.746   0.825   3.220
 1251SOL    HW1 4652   2.723   0.886   3.144
 1251SOL    HW2 4653   2.717   0.732   3.199
 1252SOL     OW 4654   4.281   4.004   6.461
 1252SOL    HW1 4655   4.262   4.043   6.371
 1252SOL    HW2 4656   4.211   3.938   6.485
 1253SOL     OW 4657   3.206   6.404   1.806
 1253SOL    HW1 4658   3.302   6.378   1.816
 1253SOL    HW2 4659   3.166   6.356   1.728
 1254SOL     OW 4660   0.538   3.140   3.645
 1254SOL    HW1 4661   0.596   3.213   3.681
 1254SOL    HW2 4662   0.592   3.057   3.631
 1255SOL     OW 4663   6.011   1.264   6.030
 1255SOL    HW1 4664   5.946   1.339   6.039
 1255SOL    HW2 4665   6.081   1.288   5.962
 1256SOL     OW 4666   6.660   0.020   3.159
 1256SOL    HW1 4667   6.666   6.945   3.197
 1256SOL    HW2 4668   6.652   0.014   3.059
 1257SOL     OW 4669   0.172   5.092   4.456
 1257SOL    HW1 4670   0.125   5.136   4.533
 1257SOL    HW2 4671   0.109   5.033   4.407
 1258SOL     OW 4672   1.510   5.107   2.872
 1258SOL    HW1 4673   1.479   5.019   2.837
 1258SOL    HW2 4674   1.606   5.119   2.850
 1259SOL     OW 4675   3.044   0.551   4.325
 1259SOL    HW1 4676   3.087   0.522   4.411
 1259SOL    HW2 4677   3.115   0.564   4.255
 1260SOL     OW 4678   3.107   2.447   6.876
 1260SOL    HW1 4679   3.206   2.437   6.876
 1260SOL    HW2 4680   3.068   2.393   6.951
 1261SOL     OW 4681   6.848   5.409   6.492
 1261SOL    HW1 4682   6.797   5.384   6.574
 1261SOL    HW2 4683   6.799   5.483   6.444
 1262SOL     OW 4684   6.005   3.981   1.316
 1262SOL    HW1 4685   5.937   3.984   1.390
 1262SOL    HW2 4686   5.959   3.962   1.229
 1263SOL     OW 4687   0.273   2.083   1.500
 1263SOL    HW1 4688   0.187   2.125   1.473
 1263SOL    HW2 4689   0.255   1.999   1.552
 1264SOL     OW 4690   6.803   3.793   1.964
 1264SOL    HW1 4691   6.889   3.745   1.945
 1264SOL    HW2 4692   6.736   3.773   1.893
 1265SOL     OW 4693   4.741   5.936   3.973
 1265SOL    HW1 4694   4.760   5.871   3.899
 1265SOL    HW2 4695   4.827   5.963   4.017
 1266SOL     OW 4696   0.187   1.578   4.833
 1266SOL    HW1 4697   0.171   1.577   4.932
 1266SOL    HW2 4698   0.209   1.486   4.802
 1267SOL     OW 4699   4.707   6.514   1.160
 1267SOL    HW1 4700   4.657   6.597   1.135
 1267SOL    HW2 4701   4.739   6.522   1.255
 1268SOL     OW 4702   3.117   2.824   0.191
 1268SOL    HW1 4703   3.147   2.779   0.107
 1268SOL    HW2 4704   3.018   2.835   0.190
 1269SOL     OW 4705   5.589   5.094   5.227
 1269SOL    HW1 4706   5.586   5.031   5.149
 1269SOL    HW2 4707   5.681   5.131   5.236
 1270SOL     OW 4708   1.511   3.436   3.211
 1270SOL    HW1 4709   1.525   3.515   3.151
 1270SOL    HW2 4710   1.590   3.375   3.203
 1271SOL     OW 4711   2.967   2.212   3.709
 1271SOL    HW1 4712   3.002   2.222   3.803
 1271SOL    HW2 4713   2.903   2.286   3.689
 1272SOL     OW 4714   5.606   5.398   0.300
 1272SOL    HW1 4715   5.524   5.451   0.280
 1272SOL    HW2 4716   5.616   5.325   0.233
 1273SOL     OW 4717   0.143   3.634   0.464
 1273SOL    HW1 4718   0.109   3.701   0.531
 1273SOL    HW2 4719   0.149   3.544   0.507
 1274SOL     OW 4720   6.540   4.409   1.321
 1274SOL    HW1 4721   6.518   4.452   1.234
 1274SOL    HW2 4722   6.630   4.441   1.352
 1275SOL     OW 4723   3.645   1.653   4.752
 1275SOL    HW1 4724   3.685   1.730   4.802
 1275SOL    HW2 4725   3.582   1.687   4.683
 1276SOL     OW 4726   0.368   5.727   4.304
 1276SOL    HW1 4727   0.374   5.774   4.216
 1276SOL    HW2 4728   0.351   5.630   4.288
 1277SOL     OW 4729   1.290   5.738   6.324
 1277SOL    HW1 4730   1.235   5.658   6.349
 1277SOL    HW2 4731   1.381   5.708   6.295
 1278SOL     OW 4732   0.445   0.170   4.963
 1278SOL    HW1 4733   0.372   0.107   4.937
 1278SOL    HW2 4734   0.516   0.120   5.014
 1279SOL     OW 4735   2.215   5.910   0.717
 1279SOL    HW1 4736   2.297   5.910   0.774
 1279SOL    HW2 4737   2.136   5.884   0.772
 1280SOL     OW 4738   3.365   6.512   4.935
 1280SOL    HW1 4739   3.450   6.461   4.922
 1280SOL    HW2 4740   3.295   6.477   4.872
 1281SOL     OW 4741   2.118   6.583   3.335
 1281SOL    HW1 4742   2.081   6.674   3.354
 1281SOL    HW2 4743   2.169   6.585   3.249
 1282SOL     OW 4744   0.592   2.082   0.014
 1282SOL    HW1 4745   0.591   1.992   0.057
 1282SOL    HW2 4746   0.536   2.145   0.068
 1283SOL     OW 4747   0.555   3.359   5.639
 1283SOL    HW1 4748   0.458   3.364   5.616
 1283SOL    HW2 4749   0.579   3.265   5.663
 1284SOL     OW 4750   4.620   2.298   1.369
 1284SOL    HW1 4751   4.684   2.370   1.394
 1284SOL    HW2 4752   4.654   2.251   1.287
 1285SOL     OW 4753   4.658   2.518   6.234
 1285SOL    HW1 4754   4.687   2.510   6.139
 1285SOL    HW2 4755   4.577   2.577   6.240
 1286SOL     OW 4756   4.797   3.489   1.303
 1286SOL    HW1 4757   4.788   3.538   1.217
 1286SOL    HW2 4758   4.735   3.529   1.371
 1287SOL     OW 4759   6.012   5.525   5.513
 1287SOL    HW1 4760   6.038   5.550   5.420
 1287SOL    HW2 4761   5.968   5.436   5.513
 1288SOL     OW 4762   4.074   3.141   6.144
 1288SOL    HW1 4763   4.088   3.114   6.049
 1288SOL    HW2 4764   4.163   3.157   6.188
 1289SOL     OW 4765   0.167   6.728   1.469
 1289SOL    HW1 4766   0.169   6.731   1.370
 1289SOL    HW2 4767   0.261   6.724   1.505
 1290SOL     OW 4768   0.622   5.750   6.484
 1290SOL    HW1 4769   0.553   5.758   6.412
 1290SOL    HW2 4770   0.667   5.838   6.496
 1291SOL     OW 4771   0.048   3.963   4.849
 1291SOL    HW1 4772   6.984   3.980   4.904
 1291SOL    HW2 4773   0.036   4.003   4.759
 1292SOL     OW 4774   0.362   5.795   2.506
 1292SOL    HW1 4775   0.408   5.883   2.520
 1292SOL    HW2 4776   0.315   5.768   2.590
 1293SOL     OW 4777   0.695   1.701   0.043
 1293SOL    HW1 4778   0.787   1.683   0.078
 1293SOL    HW2 4779   0.667   1.627   7.000
 1294SOL     OW 4780   1.120   3.051   6.456
 1294SOL    HW1 4781   1.130   2.961   6.414
 1294SOL    HW2 4782   1.115   3.042   6.555
 1295SOL     OW 4783   6.963   3.534   2.015
 1295SOL    HW1 4784   6.913   3.524   2.101
 1295SOL    HW2 4785   0.044   3.529   2.033
 1296SOL     OW 4786   3.785   6.561   5.689
 1296SOL    HW1 4787   3.769   6.507   5.771
 1296SOL    HW2 4788   3.779   6.502   5.608
 1297SOL     OW 4789   6.925   0.950   1.626
 1297SOL    HW1 4790   6.926   0.941   1.725
 1297SOL    HW2 4791   6.887   0.867   1.585
 1298SOL     OW 4792   5.819   5.417   2.747
 1298SOL    HW1 4793   5.832   5.491   2.814
 1298SOL    HW2 4794   5.722   5.410   2.724
 1299SOL     OW 4795   1.621   3.714   2.957
 1299SOL    HW1 4796   1.668   3.789   2.910
 1299SOL    HW2 4797   1.546   3.681   2.901
 1300SOL     OW 4798   2.579   3.152   1.432
 1300SOL    HW1 4799   2.606   3.144   1.528
 1300SOL    HW2 4800   2.487   3.191   1.427
 1301SOL     OW 4801   0.528   6.733   0.987
 1301SOL    HW1 4802   0.464   6.673   0.939
 1301SOL    HW2 4803   0.594   6.770   0.921
 1302SOL     OW 4804   4.868   0.262   5.731
 1302SOL    HW1 4805   4.886   0.166   5.753
 1302SOL    HW2 4806   4.769   0.278   5.727
 1303SOL     OW 4807   4.378   2.287   1.527
 1303SOL    HW1 4808   4.469   2.288   1.486
 1303SOL    HW2 4809   4.384   2.258   1.622
 1304SOL     OW 4810   1.957   0.934   6.647
 1304SOL    HW1 4811   1.999   0.958   6.559
 1304SOL    HW2 4812   1.928   0.838   6.644
 1305SOL     OW 4813   5.602   3.707   0.291
 1305SOL    HW1 4814   5.699   3.726   0.302
 1305SOL    HW2 4815   5.566   3.669   0.376
 1306SOL     OW 4816   0.992   5.096   3.507
 1306SOL    HW1 4817   1.014   5.145   3.591
 1306SOL    HW2 4818   1.069   5.104   3.443
 1307SOL     OW 4819   0.942   4.697   3.839
 1307SOL    HW1 4820   0.992   4.757   3.776
 1307SOL    HW2 4821   0.858   4.666   3.795
 1308SOL     OW 4822   6.154   6.131   5.183
 1308SOL    HW1 4823   6.085   6.065   5.213
 1308SOL    HW2 4824   6.109   6.209   5.139
 1309SOL     OW 4825   5.567   3.928   5.671
 1309SOL    HW1 4826   5.514   3.970   5.597
 1309SOL    HW2 4827   5.612   3.846   5.637
 1310SOL     OW 4828   6.767   4.108   4.030
 1310SOL    HW1 4829   6.742   4.086   4.124
 1310SOL    HW2 4830   6.847   4.054   4.003
 1311SOL     OW 4831   0.452   6.253   4.966
 1311SOL    HW1 4832   0.375   6.283   4.911
 1311SOL    HW2 4833   0.525   6.321   4.961
 1312SOL     OW 4834   1.256   6.899   6.871
 1312SOL    HW1 4835   1.330   6.849   6.827
 1312SOL    HW2 4836   1.175   6.840   6.876
 1313SOL     OW 4837   0.451   4.393   3.153
 1313SOL    HW1 4838   0.425   4.297   3.142
 1313SOL    HW2 4839   0.549   4.399   3.171
 1314SOL     OW 4840   4.332   1.639   5.361
 1314SOL    HW1 4841   4.368   1.731   5.351
 1314SOL    HW2 4842   4.405   1.572   5.346
 1315SOL     OW 4843   0.685   1.307   2.113
 1315SOL    HW1 4844   0.742   1.375   2.159
 1315SOL    HW2 4845   0.591   1.341   2.105
 1316SOL     OW 4846   1.721   5.693   5.034
 1316SOL    HW1 4847   1.708   5.609   5.087
 1316SOL    HW2 4848   1.687   5.771   5.085
 1317SOL     OW 4849   2.535   4.642   6.411
 1317SOL    HW1 4850   2.601   4.568   6.399
 1317SOL    HW2 4851   2.536   4.672   6.507
 1318SOL     OW 4852   0.820   1.873   1.208
 1318SOL    HW1 4853   0.898   1.933   1.194
 1318SOL    HW2 4854   0.852   1.779   1.220
 1319SOL     OW 4855   6.838   6.860   0.263
 1319SOL    HW1 4856   6.931   6.895   0.275
 1319SOL    HW2 4857   6.775   6.912   0.320
 1320SOL     OW 4858   4.700   4.259   0.670
 1320SOL    HW1 4859   4.666   4.348   0.699
 1320SOL    HW2 4860   4.730   4.264   0.574
 1321SOL     OW 4861   5.751   1.463   6.311
 1321SOL    HW1 4862   5.795   1.376   6.337
 1321SOL    HW2 4863   5.746   1.469   6.212
 1322SOL     OW 4864   3.924   0.905   3.430
 1322SOL    HW1 4865   3.856   0.979   3.428
 1322SOL    HW2 4866   3.967   0.902   3.520
 1323SOL     OW 4867   4.421   0.597   5.594
 1323SOL    HW1 4868   4.479   0.600   5.676
 1323SOL    HW2 4869   4.436   0.510   5.547
 1324SOL     OW 4870   1.109   3.573   0.801
 1324SOL    HW1 4871   1.119   3.594   0.898
 1324SOL    HW2 4872   1.176   3.504   0.775
 1325SOL     OW 4873   2.467   0.154   2.833
 1325SOL    HW1 4874   2.461   0.116   2.741
 1325SOL    HW2 4875   2.447   0.083   2.900
 1326SOL     OW 4876   4.871   3.304   4.948
 1326SOL    HW1 4877   4.968   3.316   4.967
 1326SOL    HW2 4878   4.819   3.381   4.987
 1327SOL     OW 4879   0.604   6.022   1.774
 1327SOL    HW1 4880   0.647   5.959   1.839
 1327SOL    HW2 4881   0.508   5.996   1.761
 1328SOL     OW 4882   1.574   3.108   0.299
 1328SOL    HW1 4883   1.644   3.088   0.368
 1328SOL    HW2 4884   1.487   3.066   0.327
 1329SOL     OW 4885   0.145   2.383   1.610
 1329SOL    HW1 4886   0.081   2.350   1.680
 1329SOL    HW2 4887   0.113   2.355   1.519
 1330SOL     OW 4888   0.679   1.503   1.774
 1330SOL    HW1 4889   0.661   1.530   1.679
 1330SOL    HW2 4890   0.623   1.424   1.797
 1331SOL     OW 4891   5.099   2.732   3.298
 1331SOL    HW1 4892   5.081   2.656   3.236
 1331SOL    HW2 4893   5.184   2.715   3.348
 1332SOL     OW 4894   2.676   6.887   6.520
 1332SOL    HW1 4895   2.736   6.954   6.476
 1332SOL    HW2 4896   2.582   6.900   6.486
 1333SOL     OW 4897   3.609   3.828   4.152
 1333SOL    HW1 4898   3.608   3.728   4.144
 1333SOL    HW2 4899   3.554   3.856   4.230
 1334SOL     OW 4900   6.221   1.693   4.464
 1334SOL    HW1 4901   6.183   1.661   4.551
 1334SOL    HW2 4902   6.182   1.783   4.442
 1335SOL     OW 4903   2.418   2.112   3.059
 1335SOL    HW1 4904   2.358   2.190   3.037
 1335SOL    HW2 4905   2.439   2.113   3.156
 1336SOL     OW 4906   1.589   2.875   4.863
 1336SOL    HW1 4907   1.557   2.809   4.932
 1336SOL    HW2 4908   1.672   2.920   4.896
 1337SOL     OW 4909   1.756   2.469   4.675
 1337SOL    HW1 4910   1.693   2.391   4.681
 1337SOL    HW2 4911   1.804   2.480   4.762
 1338SOL     OW 4912   5.178   2.203   5.168
 1338SOL    HW1 4913   5.164   2.110   5.132
 1338SOL    HW2 4914   5.276   2.224   5.168
 1339SOL     OW 4915   0.234   1.945   6.403
 1339SOL    HW1 4916   0.290   1.914   6.326
 1339SOL    HW2 4917   0.256   1.891   6.484
 1340SOL     OW 4918   6.747   2.223   2.565
 1340SOL    HW1 4919   6.787   2.211   2.656
 1340SOL    HW2 4920   6.796   2.165   2.500
 1341SOL     OW 4921   5.388   6.550   6.083
 1341SOL    HW1 4922   5.481   6.582   6.065
 1341SOL    HW2 4923   5.322   6.611   6.039
 1342SOL     OW 4924   2.321   5.745   5.671
 1342SOL    HW1 4925   2.314   5.844   5.665
 1342SOL    HW2 4926   2.290   5.715   5.760
 1343SOL     OW 4927   4.419   5.742   2.773
 1343SOL    HW1 4928   4.518   5.755   2.769
 1343SOL    HW2 4929   4.383   5.784   2.857
 1344SOL     OW 4930   6.535   5.563   4.273
 1344SOL    HW1 4931   6.577   5.647   4.304
 1344SOL    HW2 4932   6.506   5.508   4.352
 1345SOL     OW 4933   1.849   0.738   2.883
 1345SOL    HW1 4934   1.819   0.830   2.860
 1345SOL    HW2 4935   1.903   0.700   2.807
 1346SOL     OW 4936   0.849   6.197   4.889
 1346SOL    HW1 4937   0.840   6.292   4.861
 1346SOL    HW2 4938   0.824   6.187   4.985
 1347SOL     OW 4939   6.570   6.580   4.971
 1347SOL    HW1 4940   6.486   6.556   5.021
 1347SOL    HW2 4941   6.644   6.595   5.035
 1348SOL     OW 4942   5.527   5.672   2.521
 1348SOL    HW1 4943   5.456   5.675   2.450
 1348SOL    HW2 4944   5.603   5.614   2.490
 1349SOL     OW 4945   4.464   2.456   5.922
 1349SOL    HW1 4946   4.552   2.503   5.924
 1349SOL    HW2 4947   4.462   2.393   5.844
 1350SOL     OW 4948   5.172   4.949   5.296
 1350SOL    HW1 4949   5.243   4.970   5.229
 1350SOL    HW2 4950   5.111   4.878   5.260
 1351SOL     OW 4951   5.879   1.653   3.362
 1351SOL    HW1 4952   5.804   1.625   3.421
 1351SOL    HW2 4953   5.912   1.744   3.391
 1352SOL     OW 4954   0.031   6.483   2.364
 1352SOL    HW1 4955   6.990   6.512   2.439
 1352SOL    HW2 4956   0.022   6.548   2.288
 1353SOL     OW 4957   0.600   3.037   0.474
 1353SOL    HW1 4958   0.673   2.972   0.451
 1353SOL    HW2 4959   0.610   3.066   0.569
 1354SOL     OW 4960   0.967   3.619   1.352
 1354SOL    HW1 4961   0.938   3.523   1.348
 1354SOL    HW2 4962   1.045   3.628   1.415
 1355SOL     OW 4963   6.813   2.871   4.725
 1355SOL    HW1 4964   6.829   2.969   4.717
 1355SOL    HW2 4965   6.894   2.821   4.696
 1356SOL     OW 4966   3.040   3.105   2.941
 1356SOL    HW1 4967   2.947   3.081   2.968
 1356SOL    HW2 4968   3.037   3.170   2.865
 1357SOL     OW 4969   1.483   3.038   5.684
 1357SOL    HW1 4970   1.410   3.061   5.620
 1357SOL    HW2 4971   1.518   3.122   5.725
 1358SOL     OW 4972   4.226   0.206   5.759
 1358SOL    HW1 4973   4.244   0.196   5.662
 1358SOL    HW2 4974   4.289   0.274   5.798
 1359SOL     OW 4975   5.695   4.478   1.892
 1359SOL    HW1 4976   5.605   4.517   1.874
 1359SOL    HW2 4977   5.760   4.512   1.825
 1360SOL     OW 4978   3.690   2.768   0.142
 1360SOL    HW1 4979   3.620   2.807   0.082
 1360SOL    HW2 4980   3.652   2.752   0.233
 1361SOL     OW 4981   0.177   5.304   4.867
 1361SOL    HW1 4982   0.203   5.388   4.819
 1361SOL    HW2 4983   0.185   5.318   4.966
 1362SOL     OW 4984   3.430   4.157   4.223
 1362SOL    HW1 4985   3.504   4.124   4.165
 1362SOL    HW2 4986   3.343   4.148   4.176
 1363SOL     OW 4987   6.849   5.665   3.129
 1363SOL    HW1 4988   6.779   5.728   3.096
 1363SOL    HW2 4989   6.860   5.677   3.228
 1364SOL     OW 4990   6.362   2.916   1.244
 1364SOL    HW1 4991   6.400   2.955   1.160
 1364SOL    HW2 4992   6.262   2.927   1.244
 1365SOL     OW 4993   1.489   3.320   6.457
 1365SOL    HW1 4994   1.419   3.384   6.425
 1365SOL    HW2 4995   1.567   3.372   6.492
 1366SOL     OW 4996   0.937   4.626   6.903
 1366SOL    HW1 4997   0.964   4.714   6.863
 1366SOL    HW2 4998   1.003   4.556   6.875
 1367SOL     OW 4999   2.317   6.940   2.702
 1367SOL    HW1 5000   2.329   6.901   2.794
 1367SOL    HW2 5001   2.221   6.963   2.688
 1368SOL     OW 5002   6.558   0.425   3.595
 1368SOL    HW1 5003   6.523   0.356   3.658
 1368SOL    HW2 5004   6.575   0.383   3.506
 1369SOL     OW 5005   2.379   0.104   1.721
 1369SOL    HW1 5006   2.463   0.091   1.669
 1369SOL    HW2 5007   2.379   0.195   1.762
 1370SOL     OW 5008   4.416   1.765   1.549
 1370SOL    HW1 5009   4.395   1.806   1.637
 1370SOL    HW2 5010   4.360   1.808   1.478
 1371SOL     OW 5011   6.153   1.480   4.319
 1371SOL    HW1 5012   6.166   1.563   4.373
 1371SOL    HW2 5013   6.138   1.505   4.223
 1372SOL     OW 5014   1.270   3.345   0.580
 1372SOL    HW1 5015   1.242   3.249   0.570
 1372SOL    HW2 5016   1.211   3.402   0.523
 1373SOL     OW 5017   4.737   2.332   6.891
 1373SOL    HW1 5018   4.670   2.286   6.833
 1373SOL    HW2 5019   4.808   2.372   6.834
 1374SOL     OW 5020   5.150   1.973   0.224
 1374SOL    HW1 5021   5.187   2.065   0.212
 1374SOL    HW2 5022   5.070   1.961   0.166
 1375SOL     OW 5023   0.575   4.132   6.505
 1375SOL    HW1 5024   0.649   4.112   6.441
 1375SOL    HW2 5025   0.608   4.118   6.599
 1376SOL     OW 5026   4.081   4.780   5.086
 1376SOL    HW1 5027   4.009   4.800   5.019
 1376SOL    HW2 5028   4.147   4.716   5.046
 1377SOL     OW 5029   0.710   3.582   5.747
 1377SOL    HW1 5030   0.653   3.511   5.706
 1377SOL    HW2 5031   0.652   3.645   5.799
 1378SOL     OW 5032   5.899   0.694   4.889
 1378SOL    HW1 5033   5.990   0.660   4.913
 1378SOL    HW2 5034   5.901   0.794   4.884
 1379SOL     OW 5035   3.791   0.155   3.108
 1379SOL    HW1 5036   3.825   0.147   3.014
 1379SOL    HW2 5037   3.861   0.198   3.165
 1380SOL     OW 5038   0.207   6.766   2.446
 1380SOL    HW1 5039   0.166   6.849   2.485
 1380SOL    HW2 5040   0.238   6.707   2.520
 1381SOL     OW 5041   6.014   2.457   7.004
 1381SOL    HW1 5042   6.001   2.408   0.072
 1381SOL    HW2 5043   6.086   2.413   6.950
 1382SOL     OW 5044   4.636   3.537   0.143
 1382SOL    HW1 5045   4.620   3.607   0.073
 1382SOL    HW2 5046   4.734   3.526   0.157
 1383SOL     OW 5047   1.190   0.628   2.020
 1383SOL    HW1 5048   1.155   0.560   1.955
 1383SOL    HW2 5049   1.114   0.664   2.074
 1384SOL     OW 5050   4.630   0.059   1.578
 1384SOL    HW1 5051   4.575   0.091   1.500
 1384SOL    HW2 5052   4.591   0.096   1.663
 1385SOL     OW 5053   1.848   3.865   3.874
 1385SOL    HW1 5054   1.899   3.950   3.860
 1385SOL    HW2 5055   1.882   3.820   3.956
 1386SOL     OW 5056   3.392   0.772   4.278
 1386SOL    HW1 5057   3.469   0.769   4.341
 1386SOL    HW2 5058   3.334   0.851   4.300
 1387SOL     OW 5059   3.682   5.694   2.322
 1387SOL    HW1 5060   3.622   5.724   2.248
 1387SOL    HW2 5061   3.771   5.670   2.284
 1388SOL     OW 5062   0.717   6.957   3.042
 1388SOL    HW1 5063   0.666   6.874   3.065
 1388SOL    HW2 5064   0.735   6.958   2.944
 1389SOL     OW 5065   0.054   0.853   3.627
 1389SOL    HW1 5066   0.012   0.939   3.657
 1389SOL    HW2 5067   0.026   0.779   3.688
 1390SOL     OW 5068   5.701   3.265   6.223
 1390SOL    HW1 5069   5.669   3.358   6.204
 1390SOL    HW2 5070   5.800   3.260   6.210
 1391SOL     OW 5071   6.116   6.859   5.229
 1391SOL    HW1 5072   6.049   6.787   5.209
 1391SOL    HW2 5073   6.207   6.828   5.202
 1392SOL     OW 5074   5.649   6.505   6.682
 1392SOL    HW1 5075   5.616   6.599   6.689
 1392SOL    HW2 5076   5.609   6.461   6.602
 1393SOL     OW 5077   6.472   3.639   5.999
 1393SOL    HW1 5078   6.408   3.694   5.946
 1393SOL    HW2 5079   6.504   3.692   6.078
 1394SOL     OW 5080   3.926   5.686   4.424
 1394SOL    HW1 5081   3.992   5.742   4.473
 1394SOL    HW2 5082   3.971   5.642   4.346
 1395SOL     OW 5083   1.516   4.337   4.011
 1395SOL    HW1 5084   1.545   4.303   3.921
 1395SOL    HW2 5085   1.427   4.381   4.003
 1396SOL     OW 5086   0.507   0.540   4.329
 1396SOL    HW1 5087   0.594   0.534   4.281
 1396SOL    HW2 5088   0.440   0.587   4.272
 1397SOL     OW 5089   0.652   5.789   4.810
 1397SOL    HW1 5090   0.605   5.855   4.751
 1397SOL    HW2 5091   0.664   5.704   4.759
 1398SOL     OW 5092   2.072   1.846   6.454
 1398SOL    HW1 5093   2.150   1.786   6.435
 1398SOL    HW2 5094   2.093   1.938   6.421
 1399SOL     OW 5095   3.750   6.786   0.296
 1399SOL    HW1 5096   3.742   6.705   0.238
 1399SOL    HW2 5097   3.659   6.813   0.327
 1400SOL     OW 5098   0.169   2.340   4.534
 1400SOL    HW1 5099   0.079   2.322   4.493
 1400SOL    HW2 5100   0.235   2.360   4.461
 1401SOL     OW 5101   5.889   6.700   4.353
 1401SOL    HW1 5102   5.924   6.792   4.333
 1401SOL    HW2 5103   5.961   6.633   4.337
 1402SOL     OW 5104   5.713   4.409   5.949
 1402SOL    HW1 5105   5.772   4.487   5.971
 1402SOL    HW2 5106   5.623   4.443   5.922
 1403SOL     OW 5107   1.995   2.069   1.545
 1403SOL    HW1 5108   1.988   2.151   1.488
 1403SOL    HW2 5109   1.904   2.031   1.561
 1404SOL     OW 5110   6.721   0.065   0.152
 1404SOL    HW1 5111   6.715   0.164   0.139
 1404SOL    HW2 5112   6.666   0.039   0.231
 1405SOL     OW 5113   2.558   4.351   0.793
 1405SOL    HW1 5114   2.597   4.383   0.707
 1405SOL    HW2 5115   2.591   4.258   0.813
 1406SOL     OW 5116   1.807   5.620   1.434
 1406SOL    HW1 5117   1.813   5.704   1.380
 1406SOL    HW2 5118   1.896   5.573   1.433
 1407SOL     OW 5119   1.813   4.109   3.419
 1407SOL    HW1 5120   1.892   4.158   3.455
 1407SOL    HW2 5121   1.783   4.041   3.486
 1408SOL     OW 5122   5.817   6.955   6.278
 1408SOL    HW1 5123   5.869   7.008   6.211
 1408SOL    HW2 5124   5.879   6.920   6.348
 1409SOL     OW 5125   7.006   0.343   5.286
 1409SOL    HW1 5126   6.998   0.346   5.187
 1409SOL    HW2 5127   7.005   0.436   5.323
 1410SOL     OW 5128   2.969   4.071   0.126
 1410SOL    HW1 5129   3.043   4.040   0.186
 1410SOL    HW2 5130   2.973   4.170   0.117
 1411SOL     OW 5131   3.355   5.670   6.779
 1411SOL    HW1 5132   3.348   5.577   6.743
 1411SOL    HW2 5133   3.401   5.668   6.868
 1412SOL     OW 5134   0.843   3.895   1.462
 1412SOL    HW1 5135   0.849   3.970   1.396
 1412SOL    HW2 5136   0.919   3.832   1.448
 1413SOL     OW 5137   2.004   1.570   4.470
 1413SOL    HW1 5138   1.980   1.485   4.516
 1413SOL    HW2 5139   2.094   1.600   4.501
 1414SOL     OW 5140   2.613   2.008   1.798
 1414SOL    HW1 5141   2.638   2.092   1.847
 1414SOL    HW2 5142   2.696   1.966   1.761
 1415SOL     OW 5143   3.005   1.175   4.238
 1415SOL    HW1 5144   3.036   1.217   4.153
 1415SOL    HW2 5145   2.923   1.222   4.270
 1416SOL     OW 5146   3.651   6.935   4.793
 1416SOL    HW1 5147   3.563   6.980   4.808
 1416SOL    HW2 5148   3.641   6.837   4.804
 1417SOL     OW 5149   3.106   2.955   6.779
 1417SOL    HW1 5150   3.154   3.021   6.837
 1417SOL    HW2 5151   3.075   3.001   6.695
 1418SOL     OW 5152   2.952   3.976   0.479
 1418SOL    HW1 5153   2.891   3.943   0.551
 1418SOL    HW2 5154   2.899   4.002   0.399
 1419SOL     OW 5155   2.884   5.849   3.969
 1419SOL    HW1 5156   2.855   5.879   3.878
 1419SOL    HW2 5157   2.969   5.797   3.962
 1420SOL     OW 5158   3.419   5.838   3.329
 1420SOL    HW1 5159   3.322   5.851   3.350
 1420SOL    HW2 5160   3.455   5.921   3.286
 1421SOL     OW 5161   0.849   4.215   3.637
 1421SOL    HW1 5162   0.924   4.175   3.689
 1421SOL    HW2 5163   0.830   4.307   3.671
 1422SOL     OW 5164   3.092   4.628   6.730
 1422SOL    HW1 5165   3.108   4.719   6.692
 1422SOL    HW2 5166   3.155   4.612   6.806
 1423SOL     OW 5167   3.630   0.748   4.409
 1423SOL    HW1 5168   3.665   0.770   4.501
 1423SOL    HW2 5169   3.664   0.817   4.344
 1424SOL     OW 5170   6.928   3.812   6.394
 1424SOL    HW1 5171   6.959   3.759   6.473
 1424SOL    HW2 5172   6.830   3.832   6.405
 1425SOL     OW 5173   2.106   5.510   5.060
 1425SOL    HW1 5174   2.166   5.436   5.091
 1425SOL    HW2 5175   2.070   5.559   5.139
 1426SOL     OW 5176   2.417   1.955   5.617
 1426SOL    HW1 5177   2.400   1.861   5.648
 1426SOL    HW2 5178   2.436   2.012   5.696
 1427SOL     OW 5179   6.890   6.731   4.035
 1427SOL    HW1 5180   6.972   6.759   3.985
 1427SOL    HW2 5181   6.866   6.801   4.103
 1428SOL     OW 5182   0.837   1.803   1.703
 1428SOL    HW1 5183   0.769   1.802   1.776
 1428SOL    HW2 5184   0.793   1.825   1.616
 1429SOL     OW 5185   6.247   1.746   0.249
 1429SOL    HW1 5186   6.279   1.824   0.302
 1429SOL    HW2 5187   6.257   1.766   0.151
 1430SOL     OW 5188   2.178   4.942   3.564
 1430SOL    HW1 5189   2.205   5.038   3.555
 1430SOL    HW2 5190   2.138   4.927   3.654
 1431SOL     OW 5191   2.744   2.615   6.132
 1431SOL    HW1 5192   2.684   2.592   6.209
 1431SOL    HW2 5193   2.722   2.707   6.099
 1432SOL     OW 5194   2.897   0.687   0.936
 1432SOL    HW1 5195   2.918   0.714   1.029
 1432SOL    HW2 5196   2.817   0.737   0.903
 1433SOL     OW 5197   4.343   6.986   4.695
 1433SOL    HW1 5198   4.442   6.984   4.685
 1433SOL    HW2 5199   4.301   7.005   4.607
 1434SOL     OW 5200   0.376   0.628   5.896
 1434SOL    HW1 5201   0.428   0.600   5.815
 1434SOL    HW2 5202   0.321   0.551   5.928
 1435SOL     OW 5203   6.722   0.252   2.990
 1435SOL    HW1 5204   6.806   0.279   3.037
 1435SOL    HW2 5205   6.667   0.195   3.051
 1436SOL     OW 5206   5.340   3.729   7.008
 1436SOL    HW1 5207   5.346   3.653   0.055
 1436SOL    HW2 5208   5.432   3.754   6.978
 1437SOL     OW 5209   2.795   0.892   6.213
 1437SOL    HW1 5210   2.719   0.834   6.184
 1437SOL    HW2 5211   2.843   0.928   6.133
 1438SOL     OW 5212   2.646   0.300   1.349
 1438SOL    HW1 5213   2.734   0.327   1.310
 1438SOL    HW2 5214   2.575   0.362   1.317
 1439SOL     OW 5215   0.495   5.172   0.891
 1439SOL    HW1 5216   0.399   5.185   0.913
 1439SOL    HW2 5217   0.545   5.143   0.973
 1440SOL     OW 5218   3.184   3.100   5.509
 1440SOL    HW1 5219   3.167   3.166   5.435
 1440SOL    HW2 5220   3.115   3.028   5.506
 1441SOL     OW 5221   6.275   3.788   4.707
 1441SOL    HW1 5222   6.255   3.695   4.675
 1441SOL    HW2 5223   6.208   3.852   4.671
 1442SOL     OW 5224   6.493   4.945   6.757
 1442SOL    HW1 5225   6.592   4.963   6.752
 1442SOL    HW2 5226   6.451   5.008   6.822
 1443SOL     OW 5227   0.964   2.317   5.122
 1443SOL    HW1 5228   0.897   2.382   5.157
 1443SOL    HW2 5229   1.048   2.324   5.175
 1444SOL     OW 5230   4.289   5.592   1.658
 1444SOL    HW1 5231   4.234   5.664   1.700
 1444SOL    HW2 5232   4.266   5.585   1.561
 1445SOL     OW 5233   6.994   2.748   2.406
 1445SOL    HW1 5234   0.069   2.733   2.440
 1445SOL    HW2 5235   6.969   2.673   2.345
 1446SOL     OW 5236   5.065   2.158   6.601
 1446SOL    HW1 5237   5.143   2.109   6.639
 1446SOL    HW2 5238   5.045   2.238   6.657
 1447SOL     OW 5239   6.038   6.759   5.648
 1447SOL    HW1 5240   6.054   6.842   5.595
 1447SOL    HW2 5241   5.946   6.725   5.630
 1448SOL     OW 5242   6.635   2.639   6.998
 1448SOL    HW1 5243   6.665   2.553   6.956
 1448SOL    HW2 5244   6.562   2.680   6.944
 1449SOL     OW 5245   6.095   0.941   0.034
 1449SOL    HW1 5246   6.083   1.025   0.087
 1449SOL    HW2 5247   6.009   0.890   0.033
 1450SOL     OW 5248   0.979   2.314   2.372
 1450SOL    HW1 5249   0.992   2.315   2.273
 1450SOL    HW2 5250   0.881   2.309   2.393
 1451SOL     OW 5251   3.004   0.965   2.697
 1451SOL    HW1 5252   2.936   1.021   2.744
 1451SOL    HW2 5253   3.068   1.024   2.648
 1452SOL     OW 5254   4.167   1.222   4.003
 1452SOL    HW1 5255   4.184   1.321   4.005
 1452SOL    HW2 5256   4.223   1.181   3.931
 1453SOL     OW 5257   0.056   3.438   5.473
 1453SOL    HW1 5258   7.005   3.423   5.544
 1453SOL    HW2 5259   0.055   3.534   5.445
 1454SOL     OW 5260   6.030   2.366   3.083
 1454SOL    HW1 5261   6.124   2.397   3.095
 1454SOL    HW2 5262   5.995   2.398   2.994
 1455SOL     OW 5263   1.706   0.682   1.293
 1455SOL    HW1 5264   1.757   0.692   1.378
 1455SOL    HW2 5265   1.608   0.674   1.312
 1456SOL     OW 5266   6.327   6.956   5.449
 1456SOL    HW1 5267   6.237   6.959   5.405
 1456SOL    HW2 5268   6.340   0.021   5.504
 1457SOL     OW 5269   1.492   0.126   1.306
 1457SOL    HW1 5270   1.465   0.089   1.217
 1457SOL    HW2 5271   1.565   0.069   1.345
 1458SOL     OW 5272   6.359   6.590   3.552
 1458SOL    HW1 5273   6.270   6.550   3.533
 1458SOL    HW2 5274   6.351   6.652   3.631
 1459SOL     OW 5275   2.208   5.073   5.622
 1459SOL    HW1 5276   2.246   5.024   5.543
 1459SOL    HW2 5277   2.117   5.107   5.600
 1460SOL     OW 5278   0.253   4.947   5.636
 1460SOL    HW1 5279   0.191   5.023   5.654
 1460SOL    HW2 5280   0.329   4.978   5.579
 1461SOL     OW 5281   0.838   5.342   3.457
 1461SOL    HW1 5282   0.878   5.252   3.476
 1461SOL    HW2 5283   0.740   5.331   3.436
 1462SOL     OW 5284   0.722   0.696   5.674
 1462SOL    HW1 5285   0.631   0.659   5.692
 1462SOL    HW2 5286   0.791   0.639   5.719
 1463SOL     OW 5287   0.213   5.193   6.999
 1463SOL    HW1 5288   0.240   5.101   0.008
 1463SOL    HW2 5289   0.229   5.205   6.901
 1464SOL     OW 5290   6.255   6.585   0.989
 1464SOL    HW1 5291   6.247   6.683   1.009
 1464SOL    HW2 5292   6.169   6.551   0.953
 1465SOL     OW 5293   1.912   2.069   3.943
 1465SOL    HW1 5294   1.968   2.060   3.860
 1465SOL    HW2 5295   1.824   2.023   3.928
 1466SOL     OW 5296   1.345   0.996   2.532
 1466SOL    HW1 5297   1.419   0.932   2.550
 1466SOL    HW2 5298   1.379   1.090   2.539
 1467SOL     OW 5299   1.999   1.758   2.295
 1467SOL    HW1 5300   2.055   1.794   2.220
 1467SOL    HW2 5301   2.022   1.806   2.379
 1468SOL     OW 5302   5.353   5.269   3.050
 1468SOL    HW1 5303   5.389   5.358   3.077
 1468SOL    HW2 5304   5.413   5.229   2.980
 1469SOL     OW 5305   1.180   1.204   2.213
 1469SOL    HW1 5306   1.150   1.117   2.253
 1469SOL    HW2 5307   1.153   1.207   2.116
 1470SOL     OW 5308   1.827   1.263   3.108
 1470SOL    HW1 5309   1.746   1.319   3.122
 1470SOL    HW2 5310   1.850   1.261   3.011
 1471SOL     OW 5311   0.992   0.527   0.942
 1471SOL    HW1 5312   0.893   0.531   0.947
 1471SOL    HW2 5313   1.021   0.520   0.847
 1472SOL     OW 5314   3.906   5.873   5.172
 1472SOL    HW1 5315   3.842   5.831   5.108
 1472SOL    HW2 5316   3.902   5.973   5.161
 1473SOL     OW 5317   5.907   5.799   3.470
 1473SOL    HW1 5318   5.943   5.734   3.538
 1473SOL    HW2 5319   5.912   5.892   3.507
 1474SOL     OW 5320   6.130   5.952   2.996
 1474SOL    HW1 5321   6.224   5.983   3.008
 1474SOL    HW2 5322   6.125   5.889   2.919
 1475SOL     OW 5323   6.668   0.558   1.641
 1475SOL    HW1 5324   6.712   0.476   1.678
 1475SOL    HW2 5325   6.595   0.532   1.578
 1476SOL     OW 5326   2.260   1.699   1.565
 1476SOL    HW1 5327   2.223   1.761   1.634
 1476SOL    HW2 5328   2.297   1.617   1.610
 1477SOL     OW 5329   3.138   0.798   0.020
 1477SOL    HW1 5330   3.047   0.835   0.040
 1477SOL    HW2 5331   3.138   0.758   6.946
 1478SOL     OW 5332   5.434   4.603   0.189
 1478SOL    HW1 5333   5.385   4.531   0.139
 1478SOL    HW2 5334   5.379   4.633   0.267
 1479SOL     OW 5335   1.576   3.583   6.768
 1479SOL    HW1 5336   1.600   3.537   6.682
 1479SOL    HW2 5337   1.529   3.519   6.828
 1480SOL     OW 5338   2.952   0.303   5.991
 1480SOL    HW1 5339   3.045   0.331   5.967
 1480SOL    HW2 5340   2.938   0.316   6.089
 1481SOL     OW 5341   0.202   2.387   5.470
 1481SOL    HW1 5342   0.257   2.370   5.387
 1481SOL    HW2 5343   0.261   2.379   5.551
 1482SOL     OW 5344   5.117   2.438   0.891
 1482SOL    HW1 5345   5.165   2.350   0.890
 1482SOL    HW2 5346   5.178   2.510   0.861
 1483SOL     OW 5347   5.992   1.885   6.524
 1483SOL    HW1 5348   5.996   1.979   6.492
 1483SOL    HW2 5349   6.083   1.857   6.556
 1484SOL     OW 5350   5.716   5.140   3.716
 1484SOL    HW1 5351   5.693   5.098   3.803
 1484SOL    HW2 5352   5.793   5.091   3.675
 1485SOL     OW 5353   3.833   1.761   3.292
 1485SOL    HW1 5354   3.785   1.790   3.375
 1485SOL    HW2 5355   3.811   1.666   3.272
 1486SOL     OW 5356   5.218   2.356   2.932
 1486SOL    HW1 5357   5.127   2.331   2.897
 1486SOL    HW2 5358   5.248   2.287   2.997
 1487SOL     OW 5359   0.029   2.713   6.837
 1487SOL    HW1 5360   6.970   2.760   6.795
 1487SOL    HW2 5361   0.082   2.667   6.766
 1488SOL     OW 5362   5.338   1.932   3.511
 1488SOL    HW1 5363   5.323   1.886   3.598
 1488SOL    HW2 5364   5.432   1.965   3.506
 1489SOL     OW 5365   4.151   5.086   3.815
 1489SOL    HW1 5366   4.130   5.183   3.805
 1489SOL    HW2 5367   4.070   5.036   3.845
 1490SOL     OW 5368   1.428   2.982   1.209
 1490SOL    HW1 5369   1.485   2.920   1.154
 1490SOL    HW2 5370   1.339   2.938   1.226
 1491SOL     OW 5371   5.844   4.006   4.053
 1491SOL    HW1 5372   5.877   3.928   4.001
 1491SOL    HW2 5373   5.922   4.058   4.088
 1492SOL     OW 5374   5.696   1.555   2.652
 1492SOL    HW1 5375   5.696   1.548   2.552
 1492SOL    HW2 5376   5.608   1.592   2.683
 1493SOL     OW 5377   4.784   6.815   3.705
 1493SOL    HW1 5378   4.702   6.777   3.748
 1493SOL    HW2 5379   4.762   6.903   3.664
 1494SOL     OW 5380   5.720   1.957   5.704
 1494SOL    HW1 5381   5.798   2.015   5.680
 1494SOL    HW2 5382   5.656   2.010   5.760
 1495SOL     OW 5383   6.602   2.696   4.828
 1495SOL    HW1 5384   6.679   2.758   4.813
 1495SOL    HW2 5385   6.578   2.695   4.925
 1496SOL     OW 5386   0.944   1.784   2.587
 1496SOL    HW1 5387   1.023   1.752   2.533
 1496SOL    HW2 5388   0.969   1.788   2.683
 1497SOL     OW 5389   6.805   2.978   3.821
 1497SOL    HW1 5390   6.837   2.906   3.760
 1497SOL    HW2 5391   6.884   3.032   3.852
 1498SOL     OW 5392   2.003   4.684   6.496
 1498SOL    HW1 5393   1.959   4.595   6.484
 1498SOL    HW2 5394   2.084   4.689   6.437
 1499SOL     OW 5395   1.285   3.484   6.331
 1499SOL    HW1 5396   1.230   3.463   6.250
 1499SOL    HW2 5397   1.232   3.542   6.392
 1500SOL     OW 5398   6.794   6.685   6.931
 1500SOL    HW1 5399   6.762   6.651   0.002
 1500SOL    HW2 5400   6.788   6.784   6.929
 1501SOL     OW 5401   4.635   1.520   6.108
 1501SOL    HW1 5402   4.711   1.476   6.155
 1501SOL    HW2 5403   4.630   1.616   6.135
 1502SOL     OW 5404   6.101   0.420   1.072
 1502SOL    HW1 5405   6.087   0.514   1.105
 1502SOL    HW2 5406   6.012   0.377   1.058
 1503SOL     OW 5407   2.641   1.586   2.405
 1503SOL    HW1 5408   2.698   1.547   2.332
 1503SOL    HW2 5409   2.692   1.657   2.453
 1504SOL     OW 5410   0.803   0.713   4.536
 1504SOL    HW1 5411   0.717   0.761   4.518
 1504SOL    HW2 5412   0.865   0.774   4.585
 1505SOL     OW 5413   6.073   0.166   5.774
 1505SOL    HW1 5414   6.017   0.245   5.751
 1505SOL    HW2 5415   6.162   0.197   5.809
 1506SOL     OW 5416   2.022   5.414   1.377
 1506SOL    HW1 5417   2.102   5.416   1.437
 1506SOL    HW2 5418   2.034   5.344   1.307
 1507SOL     OW 5419   0.699   1.868   5.610
 1507SOL    HW1 5420   0.603   1.879   5.585
 1507SOL    HW2 5421   0.706   1.807   5.689
 1508SOL     OW 5422   6.948   0.628   1.782
 1508SOL    HW1 5423   6.866   0.641   1.836
 1508SOL    HW2 5424   6.924   0.623   1.685
 1509SOL     OW 5425   4.476   2.284   6.135
 1509SOL    HW1 5426   4.449   2.327   6.049
 1509SOL    HW2 5427   4.484   2.354   6.206
 1510SOL     OW 5428   5.825   2.776   5.049
 1510SOL    HW1 5429   5.763   2.717   5.102
 1510SOL    HW2 5430   5.798   2.772   4.952
 1511SOL     OW 5431   3.090   2.814   1.519
 1511SOL    HW1 5432   3.068   2.812   1.421
 1511SOL    HW2 5433   3.186   2.789   1.532
 1512SOL     OW 5434   0.066   6.053   1.761
 1512SOL    HW1 5435   6.994   6.098   1.764
 1512SOL    HW2 5436   0.064   5.971   1.819
 1513SOL     OW 5437   3.262   0.594   4.132
 1513SOL    HW1 5438   3.313   0.666   4.180
 1513SOL    HW2 5439   3.239   0.625   4.040
 1514SOL     OW 5440   4.913   2.441   5.561
 1514SOL    HW1 5441   4.941   2.391   5.642
 1514SOL    HW2 5442   4.936   2.389   5.479
 1515SOL     OW 5443   5.956   3.045   5.009
 1515SOL    HW1 5444   5.950   2.948   4.985
 1515SOL    HW2 5445   5.958   3.054   5.109
 1516SOL     OW 5446   0.559   0.121   0.960
 1516SOL    HW1 5447   0.548   0.218   0.942
 1516SOL    HW2 5448   0.656   0.098   0.960
 1517SOL     OW 5449   3.790   5.975   3.348
 1517SOL    HW1 5450   3.746   5.981   3.438
 1517SOL    HW2 5451   3.751   5.899   3.297
 1518SOL     OW 5452   0.774   2.746   0.615
 1518SOL    HW1 5453   0.727   2.662   0.590
 1518SOL    HW2 5454   0.785   2.803   0.533
 1519SOL     OW 5455   6.324   5.024   2.023
 1519SOL    HW1 5456   6.322   4.941   1.968
 1519SOL    HW2 5457   6.420   5.051   2.038
 1520SOL     OW 5458   0.471   3.612   2.338
 1520SOL    HW1 5459   0.396   3.573   2.392
 1520SOL    HW2 5460   0.532   3.662   2.399
 1521SOL     OW 5461   2.396   4.390   0.002
 1521SOL    HW1 5462   2.297   4.378   0.011
 1521SOL    HW2 5463   2.426   4.461   0.065
 1522SOL     OW 5464   6.395   0.013   4.982
 1522SOL    HW1 5465   6.347   6.952   4.945
 1522SOL    HW2 5466   6.329   0.081   5.015
 1523SOL     OW 5467   5.025   3.956   6.845
 1523SOL    HW1 5468   5.081   3.908   6.778
 1523SOL    HW2 5469   4.976   3.890   6.901
 1524SOL     OW 5470   1.272   2.171   1.769
 1524SOL    HW1 5471   1.221   2.184   1.854
 1524SOL    HW2 5472   1.327   2.088   1.775
 1525SOL     OW 5473   6.833   2.225   0.082
 1525SOL    HW1 5474   6.911   2.242   0.021
 1525SOL    HW2 5475   6.867   2.202   0.173
 1526SOL     OW 5476   0.946   0.409   6.593
 1526SOL    HW1 5477   0.854   0.410   6.553
 1526SOL    HW2 5478   0.978   0.315   6.600
 1527SOL     OW 5479   3.756   0.897   5.731
 1527SOL    HW1 5480   3.689   0.933   5.666
 1527SOL    HW2 5481   3.716   0.897   5.822
 1528SOL     OW 5482   5.402   5.864   2.292
 1528SOL    HW1 5483   5.446   5.777   2.274
 1528SOL    HW2 5484   5.355   5.896   2.210
 1529SOL     OW 5485   4.024   0.043   0.524
 1529SOL    HW1 5486   4.046   0.030   0.621
 1529SOL    HW2 5487   3.935   0.002   0.504
 1530SOL     OW 5488   3.300   1.080   2.843
 1530SOL    HW1 5489   3.239   1.159   2.833
 1530SOL    HW2 5490   3.269   1.006   2.784
 1531SOL     OW 5491   5.499   0.902   4.585
 1531SOL    HW1 5492   5.432   0.961   4.540
 1531SOL    HW2 5493   5.451   0.838   4.646
 1532SOL     OW 5494   2.859   3.630   5.896
 1532SOL    HW1 5495   2.862   3.595   5.990
 1532SOL    HW2 5496   2.772   3.679   5.882
 1533SOL     OW 5497   0.249   3.200   0.363
 1533SOL    HW1 5498   0.255   3.175   0.460
 1533SOL    HW2 5499   0.316   3.147   0.311
 1534SOL     OW 5500   1.385   4.967   6.346
 1534SOL    HW1 5501   1.342   4.982   6.257
 1534SOL    HW2 5502   1.331   5.009   6.418
 1535SOL     OW 5503   4.898   6.104   4.289
 1535SOL    HW1 5504   4.919   6.094   4.386
 1535SOL    HW2 5505   4.899   6.201   4.265
 1536SOL     OW 5506   4.185   4.403   5.354
 1536SOL    HW1 5507   4.223   4.472   5.416
 1536SOL    HW2 5508   4.236   4.404   5.268
 1537SOL     OW 5509   3.459   6.069   3.153
 1537SOL    HW1 5510   3.359   6.078   3.155
 1537SOL    HW2 5511   3.491   6.069   3.059
 1538SOL     OW 5512   3.413   5.761   6.064
 1538SOL    HW1 5513   3.447   5.705   6.140
 1538SOL    HW2 5514   3.346   5.709   6.011
 1539SOL     OW 5515   4.184   3.919   1.802
 1539SOL    HW1 5516   4.152   3.848   1.865
 1539SOL    HW2 5517   4.284   3.924   1.806
 1540SOL     OW 5518   1.110   0.133   5.626
 1540SOL    HW1 5519   1.021   0.178   5.622
 1540SOL    HW2 5520   1.177   0.187   5.575
 1541SOL     OW 5521   3.532   2.777   2.071
 1541SOL    HW1 5522   3.529   2.678   2.085
 1541SOL    HW2 5523   3.621   2.811   2.102
 1542SOL     OW 5524   6.554   6.404   1.673
 1542SOL    HW1 5525   6.548   6.504   1.685
 1542SOL    HW2 5526   6.479   6.373   1.615
 1543SOL     OW 5527   3.143   4.047   3.862
 1543SOL    HW1 5528   3.143   4.035   3.961
 1543SOL    HW2 5529   3.049   4.052   3.829
 1544SOL     OW 5530   3.204   3.603   2.218
 1544SOL    HW1 5531   3.223   3.510   2.249
 1544SOL    HW2 5532   3.105   3.614   2.205
 1545SOL     OW 5533   5.410   0.687   4.707
 1545SOL    HW1 5534   5.419   0.728   4.797
 1545SOL    HW2 5535   5.362   0.599   4.714
 1546SOL     OW 5536   4.834   6.627   6.134
 1546SOL    HW1 5537   4.835   6.575   6.049
 1546SOL    HW2 5538   4.928   6.639   6.166
 1547SOL     OW 5539   1.973   3.998   3.116
 1547SOL    HW1 5540   1.979   3.947   3.030
 1547SOL    HW2 5541   1.877   4.009   3.141
 1548SOL     OW 5542   4.450   3.963   6.000
 1548SOL    HW1 5543   4.357   3.935   6.028
 1548SOL    HW2 5544   4.447   4.002   5.909
 1549SOL     OW 5545   4.737   1.448   2.557
 1549SOL    HW1 5546   4.698   1.491   2.476
 1549SOL    HW2 5547   4.703   1.354   2.566
 1550SOL     OW 5548   2.954   5.479   6.618
 1550SOL    HW1 5549   3.039   5.532   6.615
 1550SOL    HW2 5550   2.947   5.422   6.536
 1551SOL     OW 5551   2.668   3.691   0.379
 1551SOL    HW1 5552   2.751   3.669   0.430
 1551SOL    HW2 5553   2.602   3.616   0.389
 1552SOL     OW 5554   0.348   0.468   1.268
 1552SOL    HW1 5555   0.345   0.378   1.310
 1552SOL    HW2 5556   0.274   0.476   1.201
 1553SOL     OW 5557   6.360   0.456   5.450
 1553SOL    HW1 5558   6.350   0.530   5.517
 1553SOL    HW2 5559   6.325   0.485   5.361
 1554SOL     OW 5560   3.758   2.093   3.572
 1554SOL    HW1 5561   3.684   2.033   3.601
 1554SOL    HW2 5562   3.809   2.124   3.653
 1555SOL     OW 5563   4.709   1.806   6.141
 1555SOL    HW1 5564   4.805   1.806   6.111
 1555SOL    HW2 5565   4.704   1.842   6.234
 1556SOL     OW 5566   3.896   1.215   0.243
 1556SOL    HW1 5567   3.960   1.171   0.180
 1556SOL    HW2 5568   3.914   1.184   0.336
 1557SOL     OW 5569   1.939   1.458   6.652
 1557SOL    HW1 5570   1.917   1.448   6.749
 1557SOL    HW2 5571   1.927   1.370   6.607
 1558SOL     OW 5572   5.634   1.208   4.015
 1558SOL    HW1 5573   5.705   1.144   4.042
 1558SOL    HW2 5574   5.644   1.293   4.068
 1559SOL     OW 5575   0.042   2.664   0.210
 1559SOL    HW1 5576   6.981   2.700   0.160
 1559SOL    HW2 5577   0.095   2.604   0.150
 1560SOL     OW 5578   3.298   1.095   6.455
 1560SOL    HW1 5579   3.199   1.103   6.443
 1560SOL    HW2 5580   3.333   1.019   6.400
 1561SOL     OW 5581   6.032   6.780   2.985
 1561SOL    HW1 5582   5.962   6.718   2.952
 1561SOL    HW2 5583   6.108   6.783   2.920
 1562SOL     OW 5584   4.200   6.395   1.427
 1562SOL    HW1 5585   4.282   6.421   1.479
 1562SOL    HW2 5586   4.191   6.295   1.429
 1563SOL     OW 5587   2.435   1.407   6.271
 1563SOL    HW1 5588   2.463   1.316   6.238
 1563SOL    HW2 5589   2.488   1.431   6.352
 1564SOL     OW 5590   1.620   2.340   2.507
 1564SOL    HW1 5591   1.634   2.292   2.420
 1564SOL    HW2 5592   1.531   2.385   2.507
 1565SOL     OW 5593   4.063   5.547   4.229
 1565SOL    HW1 5594   4.077   5.469   4.167
 1565SOL    HW2 5595   4.144   5.606   4.227
 1566SOL     OW 5596   5.965   4.885   4.755
 1566SOL    HW1 5597   6.045   4.853   4.705
 1566SOL    HW2 5598   5.897   4.812   4.760
 1567SOL     OW 5599   6.604   5.913   6.988
 1567SOL    HW1 5600   6.600   5.944   0.065
 1567SOL    HW2 5601   6.520   5.937   6.941
 1568SOL     OW 5602   1.753   6.529   1.609
 1568SOL    HW1 5603   1.669   6.538   1.662
 1568SOL    HW2 5604   1.783   6.619   1.577
 1569SOL     OW 5605   2.955   6.745   3.615
 1569SOL    HW1 5606   2.885   6.751   3.686
 1569SOL    HW2 5607   2.912   6.739   3.525
 1570SOL     OW 5608   2.424   6.874   0.281
 1570SOL    HW1 5609   2.436   6.776   0.297
 1570SOL    HW2 5610   2.344   6.889   0.223
 1571SOL     OW 5611   6.296   1.757   3.080
 1571SOL    HW1 5612   6.312   1.849   3.114
 1571SOL    HW2 5613   6.236   1.708   3.144
 1572SOL     OW 5614   1.989   6.043   1.112
 1572SOL    HW1 5615   1.914   6.086   1.162
 1572SOL    HW2 5616   2.075   6.063   1.159
 1573SOL     OW 5617   6.438   3.750   1.630
 1573SOL    HW1 5618   6.427   3.737   1.531
 1573SOL    HW2 5619   6.358   3.713   1.677
 1574SOL     OW 5620   6.435   2.086   4.081
 1574SOL    HW1 5621   6.412   2.171   4.128
 1574SOL    HW2 5622   6.402   2.008   4.135
 1575SOL     OW 5623   2.614   1.852   1.312
 1575SOL    HW1 5624   2.535   1.796   1.286
 1575SOL    HW2 5625   2.696   1.795   1.313
 1576SOL     OW 5626   1.414   0.396   3.189
 1576SOL    HW1 5627   1.316   0.419   3.191
 1576SOL    HW2 5628   1.467   0.479   3.206
 1577SOL     OW 5629   2.649   0.526   5.593
 1577SOL    HW1 5630   2.577   0.502   5.658
 1577SOL    HW2 5631   2.620   0.607   5.541
 1578SOL     OW 5632   5.112   1.675   5.491
 1578SOL    HW1 5633   5.114   1.598   5.554
 1578SOL    HW2 5634   5.126   1.642   5.397
 1579SOL     OW 5635   0.076   1.914   1.849
 1579SOL    HW1 5636   0.128   1.923   1.934
 1579SOL    HW2 5637   0.009   1.840   1.859
 1580SOL     OW 5638   3.701   4.132   3.759
 1580SOL    HW1 5639   3.633   4.205   3.752
 1580SOL    HW2 5640   3.750   4.125   3.672
 1581SOL     OW 5641   6.161   4.793   4.982
 1581SOL    HW1 5642   6.196   4.727   4.915
 1581SOL    HW2 5643   6.087   4.845   4.942
 1582SOL     OW 5644   1.891   6.458   4.890
 1582SOL    HW1 5645   1.838   6.437   4.972
 1582SOL    HW2 5646   1.853   6.408   4.812
 1583SOL     OW 5647   0.470   6.035   3.404
 1583SOL    HW1 5648   0.569   6.042   3.394
 1583SOL    HW2 5649   0.429   6.011   3.316
 1584SOL     OW 5650   0.698   5.766   5.455
 1584SOL    HW1 5651   0.717   5.678   5.498
 1584SOL    HW2 5652   0.771   5.831   5.477
 1585SOL     OW 5653   4.591   1.863   3.296
 1585SOL    HW1 5654   4.536   1.883   3.377
 1585SOL    HW2 5655   4.584   1.766   3.273
 1586SOL     OW 5656   3.531   4.967   2.446
 1586SOL    HW1 5657   3.609   5.023   2.474
 1586SOL    HW2 5658   3.481   4.935   2.527
 1587SOL     OW 5659   2.334   6.045   5.697
 1587SOL    HW1 5660   2.413   6.005   5.744
 1587SOL    HW2 5661   2.360   6.133   5.657
 1588SOL     OW 5662   4.348   0.889   2.287
 1588SOL    HW1 5663   4.343   0.975   2.237
 1588SOL    HW2 5664   4.324   0.813   2.226
 1589SOL     OW 5665   0.053   3.058   1.915
 1589SOL    HW1 5666   0.119   2.987   1.939
 1589SOL    HW2 5667   7.012   3.077   1.993
 1590SOL     OW 5668   4.392   0.213   3.968
 1590SOL    HW1 5669   4.303   0.247   3.939
 1590SOL    HW2 5670   4.435   0.163   3.893
 1591SOL     OW 5671   6.899   5.692   1.502
 1591SOL    HW1 5672   6.912   5.596   1.477
 1591SOL    HW2 5673   6.947   5.750   1.436
 1592SOL     OW 5674   2.714   3.978   6.469
 1592SOL    HW1 5675   2.797   3.922   6.463
 1592SOL    HW2 5676   2.718   4.051   6.401
 1593SOL     OW 5677   0.946   6.933   5.423
 1593SOL    HW1 5678   0.894   6.865   5.474
 1593SOL    HW2 5679   0.934   0.005   5.465
 1594SOL     OW 5680   1.304   6.678   1.666
 1594SOL    HW1 5681   1.383   6.736   1.650
 1594SOL    HW2 5682   1.247   6.718   1.738
 1595SOL     OW 5683   1.288   5.326   0.443
 1595SOL    HW1 5684   1.314   5.243   0.393
 1595SOL    HW2 5685   1.368   5.386   0.449
 1596SOL     OW 5686   0.283   3.277   4.239
 1596SOL    HW1 5687   0.192   3.250   4.270
 1596SOL    HW2 5688   0.275   3.351   4.172
 1597SOL     OW 5689   1.333   6.223   0.479
 1597SOL    HW1 5690   1.269   6.164   0.430
 1597SOL    HW2 5691   1.284   6.300   0.519
 1598SOL     OW 5692   0.001   4.465   5.869
 1598SOL    HW1 5693   6.965   4.530   5.815
 1598SOL    HW2 5694   0.037   4.394   5.808
 1599SOL     OW 5695   4.657   5.613   4.676
 1599SOL    HW1 5696   4.649   5.713   4.674
 1599SOL    HW2 5697   4.569   5.573   4.702
 1600SOL     OW 5698   3.614   1.146   3.691
 1600SOL    HW1 5699   3.549   1.082   3.732
 1600SOL    HW2 5700   3.646   1.211   3.760
 1601SOL     OW 5701   0.088   6.437   4.209
 1601SOL    HW1 5702   7.006   6.441   4.201
 1601SOL    HW2 5703   0.113   6.372   4.282
 1602SOL     OW 5704   4.124   5.042   4.199
 1602SOL    HW1 5705   4.107   4.947   4.173
 1602SOL    HW2 5706   4.182   5.045   4.280
 1603SOL     OW 5707   1.572   6.760   2.940
 1603SOL    HW1 5708   1.515   6.797   3.013
 1603SOL    HW2 5709   1.535   6.787   2.851
 1604SOL     OW 5710   4.992   4.266   1.471
 1604SOL    HW1 5711   5.087   4.264   1.438
 1604SOL    HW2 5712   4.993   4.273   1.571
 1605SOL     OW 5713   6.691   5.533   1.926
 1605SOL    HW1 5714   6.654   5.447   1.890
 1605SOL    HW2 5715   6.623   5.605   1.916
 1606SOL     OW 5716   4.020   6.348   5.915
 1606SOL    HW1 5717   4.063   6.370   5.828
 1606SOL    HW2 5718   3.977   6.430   5.953
 1607SOL     OW 5719   4.078   0.703   0.737
 1607SOL    HW1 5720   4.137   0.735   0.663
 1607SOL    HW2 5721   3.983   0.702   0.706
 1608SOL     OW 5722   0.221   1.215   3.742
 1608SOL    HW1 5723   0.205   1.158   3.823
 1608SOL    HW2 5724   0.300   1.182   3.692
 1609SOL     OW 5725   4.643   0.293   0.274
 1609SOL    HW1 5726   4.672   0.198   0.262
 1609SOL    HW2 5727   4.543   0.298   0.278
 1610SOL     OW 5728   6.040   4.573   0.039
 1610SOL    HW1 5729   6.094   4.623   6.989
 1610SOL    HW2 5730   5.954   4.542   7.015
 1611SOL     OW 5731   2.655   4.046   0.524
 1611SOL    HW1 5732   2.589   4.008   0.459
 1611SOL    HW2 5733   2.710   4.116   0.479
 1612SOL     OW 5734   2.547   0.580   0.684
 1612SOL    HW1 5735   2.560   0.514   0.758
 1612SOL    HW2 5736   2.549   0.673   0.721
 1613SOL     OW 5737   1.562   5.758   2.321
 1613SOL    HW1 5738   1.486   5.783   2.261
 1613SOL    HW2 5739   1.541   5.672   2.367
 1614SOL     OW 5740   5.172   2.019   6.174
 1614SOL    HW1 5741   5.212   2.046   6.087
 1614SOL    HW2 5742   5.199   2.083   6.245
 1615SOL     OW 5743   6.061   5.705   0.826
 1615SOL    HW1 5744   6.097   5.665   0.742
 1615SOL    HW2 5745   5.963   5.688   0.832
 1616SOL     OW 5746   3.692   1.046   5.253
 1616SOL    HW1 5747   3.629   1.114   5.215
 1616SOL    HW2 5748   3.732   0.993   5.179
 1617SOL     OW 5749   5.238   6.857   2.911
 1617SOL    HW1 5750   5.199   6.785   2.854
 1617SOL    HW2 5751   5.212   6.946   2.874
 1618SOL     OW 5752   1.629   5.979   2.665
 1618SOL    HW1 5753   1.709   5.994   2.607
 1618SOL    HW2 5754   1.638   6.033   2.749
 1619SOL     OW 5755   0.565   4.345   1.488
 1619SOL    HW1 5756   0.493   4.363   1.555
 1619SOL    HW2 5757   0.528   4.289   1.413
 1620SOL     OW 5758   2.732   4.339   1.684
 1620SOL    HW1 5759   2.640   4.377   1.676
 1620SOL    HW2 5760   2.785   4.393   1.750
 1621SOL     OW 5761   6.579   1.223   0.490
 1621SOL    HW1 5762   6.610   1.317   0.506
 1621SOL    HW2 5763   6.642   1.178   0.426
 1622SOL     OW 5764   0.561   3.451   5.351
 1622SOL    HW1 5765   0.510   3.368   5.332
 1622SOL    HW2 5766   0.583   3.455   5.449
 1623SOL     OW 5767   1.417   2.980   5.108
 1623SOL    HW1 5768   1.476   3.036   5.050
 1623SOL    HW2 5769   1.330   3.027   5.123
 1624SOL     OW 5770   3.588   1.384   4.775
 1624SOL    HW1 5771   3.504   1.397   4.828
 1624SOL    HW2 5772   3.638   1.471   4.770
 1625SOL     OW 5773   1.219   4.463   0.289
 1625SOL    HW1 5774   1.182   4.410   0.212
 1625SOL    HW2 5775   1.283   4.531   0.254
 1626SOL     OW 5776   3.883   1.197   0.604
 1626SOL    HW1 5777   3.847   1.275   0.655
 1626SOL    HW2 5778   3.958   1.155   0.656
 1627SOL     OW 5779   6.276   3.148   3.797
 1627SOL    HW1 5780   6.349   3.085   3.820
 1627SOL    HW2 5781   6.292   3.188   3.707
 1628SOL     OW 5782   4.474   5.036   0.479
 1628SOL    HW1 5783   4.508   5.112   0.534
 1628SOL    HW2 5784   4.420   4.975   0.537
 1629SOL     OW 5785   2.593   1.307   3.779
 1629SOL    HW1 5786   2.643   1.242   3.722
 1629SOL    HW2 5787   2.640   1.396   3.778
 1630SOL     OW 5788   0.908   4.859   6.184
 1630SOL    HW1 5789   0.841   4.826   6.117
 1630SOL    HW2 5790   0.962   4.782   6.219
 1631SOL     OW 5791   1.350   2.998   0.416
 1631SOL    HW1 5792   1.296   2.914   0.421
 1631SOL    HW2 5793   1.345   3.045   0.504
 1632SOL     OW 5794   5.587   2.323   1.319
 1632SOL    HW1 5795   5.682   2.299   1.299
 1632SOL    HW2 5796   5.544   2.246   1.367
 1633SOL     OW 5797   5.588   4.175   4.451
 1633SOL    HW1 5798   5.502   4.224   4.441
 1633SOL    HW2 5799   5.587   4.095   4.391
 1634SOL     OW 5800   4.292   5.699   4.236
 1634SOL    HW1 5801   4.272   5.781   4.289
 1634SOL    HW2 5802   4.383   5.708   4.194
 1635SOL     OW 5803   0.081   4.940   6.893
 1635SOL    HW1 5804   0.137   4.859   6.906
 1635SOL    HW2 5805   0.061   4.953   6.795
 1636SOL     OW 5806   3.168   4.427   1.086
 1636SOL    HW1 5807   3.265   4.442   1.068
 1636SOL    HW2 5808   3.121   4.406   1.000
 1637SOL     OW 5809   6.931   0.692   3.059
 1637SOL    HW1 5810   6.866   0.727   3.127
 1637SOL    HW2 5811   0.006   0.712   3.088
 1638SOL     OW 5812   0.092   4.380   3.435
 1638SOL    HW1 5813   0.151   4.429   3.371
 1638SOL    HW2 5814   0.009   4.433   3.452
 1639SOL     OW 5815   5.546   6.350   1.712
 1639SOL    HW1 5816   5.499   6.409   1.778
 1639SOL    HW2 5817   5.575   6.265   1.757
 1640SOL     OW 5818   6.088   0.459   6.701
 1640SOL    HW1 5819   6.172   0.476   6.753
 1640SOL    HW2 5820   6.064   0.540   6.648
 1641SOL     OW 5821   4.493   2.295   2.610
 1641SOL    HW1 5822   4.397   2.281   2.635
 1641SOL    HW2 5823   4.527   2.213   2.565
 1642SOL     OW 5824   0.298   3.399   6.946
 1642SOL    HW1 5825   0.280   3.335   6.870
 1642SOL    HW2 5826   0.250   3.485   6.929
 1643SOL     OW 5827   2.447   5.058   4.204
 1643SOL    HW1 5828   2.494   5.079   4.119
 1643SOL    HW2 5829   2.444   5.139   4.263
 1644SOL     OW 5830   5.909   4.146   6.573
 1644SOL    HW1 5831   5.831   4.163   6.512
 1644SOL    HW2 5832   5.986   4.204   6.546
 1645SOL     OW 5833   3.513   5.653   6.277
 1645SOL    HW1 5834   3.583   5.707   6.322
 1645SOL    HW2 5835   3.507   5.563   6.320
 1646SOL     OW 5836   2.604   0.009   0.156
 1646SOL    HW1 5837   2.539   7.000   0.226
 1646SOL    HW2 5838   2.673   0.069   0.196
 1647SOL     OW 5839   5.997   3.702   4.588
 1647SOL    HW1 5840   5.957   3.675   4.675
 1647SOL    HW2 5841   6.090   3.665   4.581
 1648SOL     OW 5842   5.640   5.596   0.501
 1648SOL    HW1 5843   5.648   5.528   0.428
 1648SOL    HW2 5844   5.620   5.550   0.588
 1649SOL     OW 5845   3.679   1.522   3.573
 1649SOL    HW1 5846   3.626   1.443   3.540
 1649SOL    HW2 5847   3.640   1.606   3.535
 1650SOL     OW 5848   1.120   6.159   5.259
 1650SOL    HW1 5849   1.132   6.116   5.349
 1650SOL    HW2 5850   1.030   6.135   5.223
 1651SOL     OW 5851   0.269   1.838   1.644
 1651SOL    HW1 5852   0.192   1.857   1.705
 1651SOL    HW2 5853   0.296   1.742   1.655
 1652SOL     OW 5854   0.942   3.199   2.848
 1652SOL    HW1 5855   0.989   3.287   2.860
 1652SOL    HW2 5856   0.974   3.155   2.764
 1653SOL     OW 5857   1.258   0.096   0.062
 1653SOL    HW1 5858   1.289   0.191   0.062
 1653SOL    HW2 5859   1.220   0.073   6.990
 1654SOL     OW 5860   0.185   3.512   2.147
 1654SOL    HW1 5861   0.182   3.412   2.150
 1654SOL    HW2 5862   0.270   3.544   2.190
 1655SOL     OW 5863   0.325   2.153   5.072
 1655SOL    HW1 5864   0.377   2.189   5.150
 1655SOL    HW2 5865   0.376   2.171   4.987
 1656SOL     OW 5866   2.423   4.455   2.834
 1656SOL    HW1 5867   2.421   4.403   2.919
 1656SOL    HW2 5868   2.431   4.552   2.854
 1657SOL     OW 5869   6.828   1.088   4.618
 1657SOL    HW1 5870   6.875   1.000   4.614
 1657SOL    HW2 5871   6.892   1.161   4.594
 1658SOL     OW 5872   6.676   0.181   1.451
 1658SOL    HW1 5873   6.619   0.203   1.531
 1658SOL    HW2 5874   6.668   0.084   1.431
 1659SOL     OW 5875   3.577   0.214   0.001
 1659SOL    HW1 5876   3.673   0.214   6.991
 1659SOL    HW2 5877   3.519   0.228   6.939
 1660SOL     OW 5878   1.861   5.994   2.509
 1660SOL    HW1 5879   1.887   6.071   2.451
 1660SOL    HW2 5880   1.845   5.913   2.452
 1661SOL     OW 5881   2.791   6.745   1.311
 1661SOL    HW1 5882   2.788   6.720   1.408
 1661SOL    HW2 5883   2.842   6.830   1.300
 1662SOL     OW 5884   0.600   0.859   4.200
 1662SOL    HW1 5885   0.575   0.817   4.288
 1662SOL    HW2 5886   0.563   0.804   4.125
 1663SOL     OW 5887   3.957   6.175   3.278
 1663SOL    HW1 5888   3.903   6.092   3.287
 1663SOL    HW2 5889   3.946   6.232   3.360
 1664SOL     OW 5890   2.175   6.547   5.158
 1664SOL    HW1 5891   2.149   6.465   5.208
 1664SOL    HW2 5892   2.119   6.624   5.188
 1665SOL     OW 5893   6.715   2.688   2.443
 1665SOL    HW1 5894   6.812   2.689   2.469
 1665SOL    HW2 5895   6.681   2.594   2.443
 1666SOL     OW 5896   5.080   1.769   6.078
 1666SOL    HW1 5897   5.084   1.685   6.132
 1666SOL    HW2 5898   5.093   1.848   6.138
 1667SOL     OW 5899   0.494   6.587   0.737
 1667SOL    HW1 5900   0.556   6.574   0.660
 1667SOL    HW2 5901   0.492   6.505   0.793
 1668SOL     OW 5902   4.783   6.246   3.254
 1668SOL    HW1 5903   4.847   6.322   3.243
 1668SOL    HW2 5904   4.833   6.160   3.260
 1669SOL     OW 5905   6.370   4.750   6.584
 1669SOL    HW1 5906   6.435   4.693   6.533
 1669SOL    HW2 5907   6.420   4.821   6.634
 1670SOL     OW 5908   0.564   3.773   5.851
 1670SOL    HW1 5909   0.475   3.755   5.892
 1670SOL    HW2 5910   0.587   3.869   5.861
 1671SOL     OW 5911   5.550   1.198   2.938
 1671SOL    HW1 5912   5.574   1.169   3.031
 1671SOL    HW2 5913   5.488   1.275   2.942
 1672SOL     OW 5914   1.509   2.854   0.980
 1672SOL    HW1 5915   1.493   2.889   0.888
 1672SOL    HW2 5916   1.484   2.757   0.983
 1673SOL     OW 5917   0.649   1.586   4.744
 1673SOL    HW1 5918   0.585   1.594   4.667
 1673SOL    HW2 5919   0.723   1.652   4.732
 1674SOL     OW 5920   0.985   2.886   2.534
 1674SOL    HW1 5921   0.954   2.905   2.627
 1674SOL    HW2 5922   1.025   2.795   2.530
 1675SOL     OW 5923   5.306   6.753   0.368
 1675SOL    HW1 5924   5.238   6.764   0.440
 1675SOL    HW2 5925   5.266   6.701   0.292
 1676SOL     OW 5926   2.432   2.675   1.535
 1676SOL    HW1 5927   2.509   2.676   1.471
 1676SOL    HW2 5928   2.416   2.768   1.570
 1677SOL     OW 5929   3.313   3.315   4.133
 1677SOL    HW1 5930   3.285   3.242   4.070
 1677SOL    HW2 5931   3.411   3.309   4.150
 1678SOL     OW 5932   6.248   4.307   3.565
 1678SOL    HW1 5933   6.186   4.299   3.642
 1678SOL    HW2 5934   6.325   4.365   3.590
 1679SOL     OW 5935   2.354   2.698   4.392
 1679SOL    HW1 5936   2.359   2.728   4.487
 1679SOL    HW2 5937   2.258   2.695   4.363
 1680SOL     OW 5938   7.004   2.972   5.150
 1680SOL    HW1 5939   0.004   3.066   5.121
 1680SOL    HW2 5940   0.028   2.957   5.240
 1681SOL     OW 5941   7.013   5.505   6.729
 1681SOL    HW1 5942   6.953   5.571   6.774
 1681SOL    HW2 5943   6.959   5.443   6.672
 1682SOL     OW 5944   1.908   0.505   5.267
 1682SOL    HW1 5945   1.900   0.589   5.320
 1682SOL    HW2 5946   1.836   0.441   5.294
 1683SOL     OW 5947   4.758   4.715   2.211
 1683SOL    HW1 5948   4.764   4.788   2.280
 1683SOL    HW2 5949   4.663   4.705   2.181
 1684SOL     OW 5950   1.285   6.112   2.426
 1684SOL    HW1 5951   1.358   6.074   2.371
 1684SOL    HW2 5952   1.196   6.081   2.391
 1685SOL     OW 5953   2.142   1.112   4.890
 1685SOL    HW1 5954   2.096   1.039   4.839
 1685SOL    HW2 5955   2.234   1.125   4.855
 1686SOL     OW 5956   2.440   5.917   4.293
 1686SOL    HW1 5957   2.484   5.873   4.215
 1686SOL    HW2 5958   2.342   5.927   4.275
 1687SOL     OW 5959   1.922   3.124   2.177
 1687SOL    HW1 5960   1.995   3.159   2.118
 1687SOL    HW2 5961   1.877   3.200   2.223
 1688SOL     OW 5962   2.392   2.157   4.288
 1688SOL    HW1 5963   2.481   2.115   4.270
 1688SOL    HW2 5964   2.389   2.247   4.244
 1689SOL     OW 5965   6.334   1.220   2.880
 1689SOL    HW1 5966   6.424   1.262   2.870
 1689SOL    HW2 5967   6.343   1.136   2.933
 1690SOL     OW 5968   1.248   2.940   4.534
 1690SOL    HW1 5969   1.166   2.883   4.534
 1690SOL    HW2 5970   1.260   2.982   4.444
 1691SOL     OW 5971   5.503   3.514   3.721
 1691SOL    HW1 5972   5.563   3.541   3.645
 1691SOL    HW2 5973   5.554   3.457   3.785
 1692SOL     OW 5974   5.327   6.400   1.338
 1692SOL    HW1 5975   5.274   6.481   1.363
 1692SOL    HW2 5976   5.371   6.415   1.250
 1693SOL     OW 5977   6.644   1.909   2.316
 1693SOL    HW1 5978   6.618   2.002   2.293
 1693SOL    HW2 5979   6.734   1.888   2.276
 1694SOL     OW 5980   5.740   1.242   2.708
 1694SOL    HW1 5981   5.761   1.337   2.687
 1694SOL    HW2 5982   5.690   1.237   2.795
 1695SOL     OW 5983   4.119   0.732   6.486
 1695SOL    HW1 5984   4.023   0.756   6.475
 1695SOL    HW2 5985   4.173   0.814   6.504
 1696SOL     OW 5986   4.232   5.732   0.510
 1696SOL    HW1 5987   4.331   5.747   0.511
 1696SOL    HW2 5988   4.192   5.770   0.593
 1697SOL     OW 5989   6.313   0.863   0.386
 1697SOL    HW1 5990   6.256   0.858   0.468
 1697SOL    HW2 5991   6.257   0.889   0.308
 1698SOL     OW 5992   3.267   0.385   0.021
 1698SOL    HW1 5993   3.344   0.446   0.003
 1698SOL    HW2 5994   3.219   0.415   0.103
 1699SOL     OW 5995   2.607   1.428   6.886
 1699SOL    HW1 5996   2.688   1.483   6.864
 1699SOL    HW2 5997   2.625   1.332   6.864
 1700SOL     OW 5998   6.217   3.785   3.926
 1700SOL    HW1 5999   6.264   3.872   3.946
 1700SOL    HW2 6000   6.144   3.801   3.860
 1701SOL     OW 6001   4.934   4.527   5.532
 1701SOL    HW1 6002   4.889   4.438   5.527
 1701SOL    HW2 6003   5.029   4.515   5.564
 1702SOL     OW 6004   6.305   1.212   0.523
 1702SOL    HW1 6005   6.400   1.208   0.491
 1702SOL    HW2 6006   6.289   1.299   0.569
 1703SOL     OW 6007   3.329   2.628   0.760
 1703SOL    HW1 6008   3.233   2.606   0.780
 1703SOL    HW2 6009   3.361   2.698   0.824
 1704SOL     OW 6010   1.172   1.893   1.469
 1704SOL    HW1 6011   1.223   1.818   1.510
 1704SOL    HW2 6012   1.225   1.978   1.478
 1705SOL     OW 6013   3.236   2.114   2.499
 1705SOL    HW1 6014   3.182   2.198   2.495
 1705SOL    HW2 6015   3.279   2.106   2.589
 1706SOL     OW 6016   5.112   1.152   2.169
 1706SOL    HW1 6017   5.182   1.125   2.236
 1706SOL    HW2 6018   5.128   1.104   2.083
 1707SOL     OW 6019   5.076   2.228   1.786
 1707SOL    HW1 6020   4.991   2.190   1.750
 1707SOL    HW2 6021   5.139   2.154   1.809
 1708SOL     OW 6022   5.063   5.273   2.133
 1708SOL    HW1 6023   5.124   5.321   2.195
 1708SOL    HW2 6024   4.978   5.325   2.122
 1709SOL     OW 6025   3.337   6.154   2.147
 1709SOL    HW1 6026   3.246   6.180   2.113
 1709SOL    HW2 6027   3.364   6.217   2.220
 1710SOL     OW 6028   5.028   4.577   3.598
 1710SOL    HW1 6029   5.062   4.671   3.598
 1710SOL    HW2 6030   5.034   4.539   3.691
 1711SOL     OW 6031   1.477   4.325   4.384
 1711SOL    HW1 6032   1.503   4.416   4.415
 1711SOL    HW2 6033   1.527   4.256   4.435
 1712SOL     OW 6034   6.409   2.140   4.990
 1712SOL    HW1 6035   6.360   2.053   4.996
 1712SOL    HW2 6036   6.491   2.127   4.934
 1713SOL     OW 6037   4.758   2.342   2.129
 1713SOL    HW1 6038   4.795   2.262   2.080
 1713SOL    HW2 6039   4.832   2.390   2.176
 1714SOL     OW 6040   3.547   0.963   5.969
 1714SOL    HW1 6041   3.461   1.012   5.951
 1714SOL    HW2 6042   3.527   0.868   5.990
 1715SOL     OW 6043   1.510   5.366   2.716
 1715SOL    HW1 6044   1.509   5.275   2.757
 1715SOL    HW2 6045   1.579   5.422   2.761
 1716SOL     OW 6046   4.763   0.197   2.629
 1716SOL    HW1 6047   4.795   0.289   2.605
 1716SOL    HW2 6048   4.725   0.198   2.721
 1717SOL     OW 6049   2.909   5.814   5.812
 1717SOL    HW1 6050   2.970   5.882   5.772
 1717SOL    HW2 6051   2.951   5.774   5.893
 1718SOL     OW 6052   2.980   1.502   1.808
 1718SOL    HW1 6053   2.986   1.536   1.714
 1718SOL    HW2 6054   3.001   1.404   1.809
 1719SOL     OW 6055   1.886   3.046   1.484
 1719SOL    HW1 6056   1.972   3.091   1.507
 1719SOL    HW2 6057   1.864   3.062   1.388
 1720SOL     OW 6058   0.457   3.021   0.242
 1720SOL    HW1 6059   0.457   2.925   0.215
 1720SOL    HW2 6060   0.504   3.031   0.329
 1721SOL     OW 6061   2.143   6.968   1.615
 1721SOL    HW1 6062   2.212   0.003   1.567
 1721SOL    HW2 6063   2.186   6.912   1.686
 1722SOL     OW 6064   3.093   1.280   3.718
 1722SOL    HW1 6065   3.029   1.341   3.671
 1722SOL    HW2 6066   3.140   1.223   3.651
 1723SOL     OW 6067   5.879   2.447   1.336
 1723SOL    HW1 6068   5.859   2.466   1.432
 1723SOL    HW2 6069   5.974   2.419   1.326
 1724SOL     OW 6070   6.505   3.032   2.177
 1724SOL    HW1 6071   6.562   2.994   2.249
 1724SOL    HW2 6072   6.537   2.999   2.088
 1725SOL     OW 6073   2.103   4.867   6.248
 1725SOL    HW1 6074   2.096   4.882   6.150
 1725SOL    HW2 6075   2.180   4.806   6.267
 1726SOL     OW 6076   6.416   4.617   5.370
 1726SOL    HW1 6077   6.333   4.569   5.341
 1726SOL    HW2 6078   6.416   4.627   5.469
 1727SOL     OW 6079   3.284   2.953   3.556
 1727SOL    HW1 6080   3.225   3.009   3.615
 1727SOL    HW2 6081   3.243   2.944   3.466
 1728SOL     OW 6082   5.414   5.297   5.271
 1728SOL    HW1 6083   5.432   5.368   5.202
 1728SOL    HW2 6084   5.468   5.216   5.250
 1729SOL     OW 6085   2.079   4.300   3.209
 1729SOL    HW1 6086   2.074   4.288   3.308
 1729SOL    HW2 6087   2.056   4.214   3.164
 1730SOL     OW 6088   1.406   6.995   5.614
 1730SOL    HW1 6089   1.408   0.074   5.589
 1730SOL    HW2 6090   1.373   6.941   5.536
 1731SOL     OW 6091   0.389   4.398   3.707
 1731SOL    HW1 6092   0.387   4.309   3.752
 1731SOL    HW2 6093   0.425   4.387   3.614
 1732SOL     OW 6094   2.266   4.836   5.757
 1732SOL    HW1 6095   2.351   4.788   5.737
 1732SOL    HW2 6096   2.270   4.929   5.721
 1733SOL     OW 6097   1.745   4.403   1.715
 1733SOL    HW1 6098   1.738   4.470   1.641
 1733SOL    HW2 6099   1.697   4.320   1.688
 1734SOL     OW 6100   4.658   3.123   0.947
 1734SOL    HW1 6101   4.646   3.219   0.970
 1734SOL    HW2 6102   4.577   3.071   0.974
 1735SOL     OW 6103   4.720   5.106   6.852
 1735SOL    HW1 6104   4.638   5.134   6.902
 1735SOL    HW2 6105   4.786   5.067   6.917
 1736SOL     OW 6106   3.512   3.892   0.861
 1736SOL    HW1 6107   3.539   3.829   0.788
 1736SOL    HW2 6108   3.443   3.849   0.919
 1737SOL     OW 6109   4.074   1.095   4.241
 1737SOL    HW1 6110   4.111   1.134   4.157
 1737SOL    HW2 6111   4.129   1.015   4.268
 1738SOL     OW 6112   1.785   2.856   4.147
 1738SOL    HW1 6113   1.845   2.792   4.195
 1738SOL    HW2 6114   1.719   2.895   4.211
 1739SOL     OW 6115   6.769   1.510   5.611
 1739SOL    HW1 6116   6.797   1.596   5.567
 1739SOL    HW2 6117   6.728   1.449   5.543
 1740SOL     OW 6118   6.938   2.406   5.505
 1740SOL    HW1 6119   0.012   2.406   5.464
 1740SOL    HW2 6120   6.882   2.476   5.459
 1741SOL     OW 6121   2.329   0.591   3.859
 1741SOL    HW1 6122   2.398   0.663   3.859
 1741SOL    HW2 6123   2.373   0.503   3.877
 1742SOL     OW 6124   5.590   0.667   6.146
 1742SOL    HW1 6125   5.502   0.620   6.153
 1742SOL    HW2 6126   5.574   0.765   6.137
 1743SOL     OW 6127   0.708   2.323   2.508
 1743SOL    HW1 6128   0.746   2.400   2.559
 1743SOL    HW2 6129   0.692   2.247   2.571
 1744SOL     OW 6130   5.831   2.657   3.184
 1744SOL    HW1 6131   5.836   2.710   3.099
 1744SOL    HW2 6132   5.912   2.675   3.239
 1745SOL     OW 6133   5.523   5.652   2.163
 1745SOL    HW1 6134   5.621   5.669   2.161
 1745SOL    HW2 6135   5.506   5.553   2.163
 1746SOL     OW 6136   1.961   4.003   4.616
 1746SOL    HW1 6137   1.937   3.911   4.647
 1746SOL    HW2 6138   1.979   4.001   4.517
 1747SOL     OW 6139   4.674   1.650   2.963
 1747SOL    HW1 6140   4.672   1.664   2.864
 1747SOL    HW2 6141   4.752   1.700   3.002
 1748SOL     OW 6142   0.494   1.554   5.254
 1748SOL    HW1 6143   0.408   1.588   5.292
 1748SOL    HW2 6144   0.486   1.456   5.237
 1749SOL     OW 6145   2.364   6.880   5.107
 1749SOL    HW1 6146   2.297   6.944   5.145
 1749SOL    HW2 6147   2.378   6.805   5.172
 1750SOL     OW 6148   5.000   6.292   3.593
 1750SOL    HW1 6149   5.022   6.351   3.515
 1750SOL    HW2 6150   4.953   6.211   3.561
 1751SOL     OW 6151   3.919   0.427   4.060
 1751SOL    HW1 6152   3.930   0.523   4.035
 1751SOL    HW2 6153   3.827   0.411   4.095
 1752SOL     OW 6154   6.334   1.822   2.264
 1752SOL    HW1 6155   6.313   1.809   2.361
 1752SOL    HW2 6156   6.429   1.852   2.254
 1753SOL     OW 6157   6.535   1.140   1.102
 1753SOL    HW1 6158   6.547   1.228   1.149
 1753SOL    HW2 6159   6.483   1.078   1.162
 1754SOL     OW 6160   1.510   4.682   6.637
 1754SOL    HW1 6161   1.413   4.704   6.624
 1754SOL    HW2 6162   1.563   4.767   6.643
 1755SOL     OW 6163   0.288   6.369   1.189
 1755SOL    HW1 6164   0.379   6.403   1.215
 1755SOL    HW2 6165   0.285   6.270   1.202
 1756SOL     OW 6166   4.040   5.337   5.587
 1756SOL    HW1 6167   3.982   5.334   5.506
 1756SOL    HW2 6168   4.051   5.431   5.618
 1757SOL     OW 6169   2.080   5.331   4.341
 1757SOL    HW1 6170   2.173   5.355   4.370
 1757SOL    HW2 6171   2.018   5.406   4.365
 1758SOL     OW 6172   2.399   0.726   4.368
 1758SOL    HW1 6173   2.339   0.763   4.297
 1758SOL    HW2 6174   2.378   0.630   4.382
 1759SOL     OW 6175   1.969   6.635   5.318
 1759SOL    HW1 6176   1.988   6.629   5.416
 1759SOL    HW2 6177   1.872   6.654   5.304
 1760SOL     OW 6178   5.653   0.981   3.404
 1760SOL    HW1 6179   5.724   0.984   3.474
 1760SOL    HW2 6180   5.590   0.905   3.423
 1761SOL     OW 6181   0.315   0.795   1.314
 1761SOL    HW1 6182   0.235   0.761   1.265
 1761SOL    HW2 6183   0.368   0.718   1.348
 1762SOL     OW 6184   0.677   1.359   4.066
 1762SOL    HW1 6185   0.729   1.325   3.987
 1762SOL    HW2 6186   0.584   1.382   4.037
 1763SOL     OW 6187   0.795   4.656   4.077
 1763SOL    HW1 6188   0.817   4.698   3.989
 1763SOL    HW2 6189   0.700   4.625   4.076
 1764SOL     OW 6190   2.129   3.296   2.472
 1764SOL    HW1 6191   2.030   3.289   2.485
 1764SOL    HW2 6192   2.170   3.205   2.468
 1765SOL     OW 6193   3.864   1.165   1.731
 1765SOL    HW1 6194   3.798   1.226   1.776
 1765SOL    HW2 6195   3.826   1.073   1.724
 1766SOL     OW 6196   5.483   4.413   3.112
 1766SOL    HW1 6197   5.409   4.480   3.117
 1766SOL    HW2 6198   5.530   4.422   3.024
 1767SOL     OW 6199   0.889   3.998   2.585
 1767SOL    HW1 6200   0.984   3.999   2.553
 1767SOL    HW2 6201   0.865   3.905   2.612
 1768SOL     OW 6202   3.560   1.150   6.455
 1768SOL    HW1 6203   3.595   1.067   6.499
 1768SOL    HW2 6204   3.460   1.151   6.459
 1769SOL     OW 6205   4.451   1.566   6.546
 1769SOL    HW1 6206   4.361   1.588   6.584
 1769SOL    HW2 6207   4.440   1.504   6.468
 1770SOL     OW 6208   6.850   4.849   4.811
 1770SOL    HW1 6209   6.920   4.863   4.880
 1770SOL    HW2 6210   6.781   4.785   4.844
 1771SOL     OW 6211   1.710   5.603   0.879
 1771SOL    HW1 6212   1.689   5.658   0.798
 1771SOL    HW2 6213   1.804   5.569   0.873
 1772SOL     OW 6214   3.721   6.347   2.972
 1772SOL    HW1 6215   3.722   6.422   3.037
 1772SOL    HW2 6216   3.809   6.298   2.976
 1773SOL     OW 6217   2.879   3.123   6.333
 1773SOL    HW1 6218   2.852   3.218   6.318
 1773SOL    HW2 6219   2.827   3.063   6.272
 1774SOL     OW 6220   4.750   6.431   1.588
 1774SOL    HW1 6221   4.722   6.502   1.524
 1774SOL    HW2 6222   4.809   6.365   1.541
 1775SOL     OW 6223   2.063   4.750   5.393
 1775SOL    HW1 6224   2.112   4.726   5.309
 1775SOL    HW2 6225   2.128   4.762   5.467
 1776SOL     OW 6226   5.177   1.070   5.914
 1776SOL    HW1 6227   5.203   1.094   6.007
 1776SOL    HW2 6228   5.082   1.097   5.898
 1777SOL     OW 6229   3.341   6.058   5.812
 1777SOL    HW1 6230   3.323   5.961   5.795
 1777SOL    HW2 6231   3.305   6.083   5.902
 1778SOL     OW 6232   4.946   2.107   4.351
 1778SOL    HW1 6233   4.938   2.016   4.310
 1778SOL    HW2 6234   4.913   2.105   4.445
 1779SOL     OW 6235   4.172   1.171   4.733
 1779SOL    HW1 6236   4.254   1.181   4.678
 1779SOL    HW2 6237   4.195   1.185   4.830
 1780SOL     OW 6238   2.303   3.832   6.131
 1780SOL    HW1 6239   2.376   3.788   6.184
 1780SOL    HW2 6240   2.247   3.888   6.192
 1781SOL     OW 6241   5.309   5.382   3.822
 1781SOL    HW1 6242   5.319   5.476   3.788
 1781SOL    HW2 6243   5.293   5.384   3.920
 1782SOL     OW 6244   3.270   1.587   3.219
 1782SOL    HW1 6245   3.235   1.503   3.178
 1782SOL    HW2 6246   3.216   1.609   3.301
 1783SOL     OW 6247   2.683   3.258   6.097
 1783SOL    HW1 6248   2.649   3.345   6.134
 1783SOL    HW2 6249   2.740   3.276   6.017
 1784SOL     OW 6250   2.295   1.290   2.064
 1784SOL    HW1 6251   2.386   1.315   2.095
 1784SOL    HW2 6252   2.227   1.318   2.131
 1785SOL     OW 6253   6.158   6.019   3.735
 1785SOL    HW1 6254   6.154   6.109   3.777
 1785SOL    HW2 6255   6.253   5.989   3.729
 1786SOL     OW 6256   1.409   3.957   0.721
 1786SOL    HW1 6257   1.389   4.052   0.747
 1786SOL    HW2 6258   1.436   3.954   0.624
 1787SOL     OW 6259   2.566   1.621   5.476
 1787SOL    HW1 6260   2.634   1.688   5.448
 1787SOL    HW2 6261   2.489   1.667   5.520
 1788SOL     OW 6262   3.378   4.202   0.402
 1788SOL    HW1 6263   3.382   4.245   0.492
 1788SOL    HW2 6264   3.358   4.270   0.332
 1789SOL     OW 6265   5.440   2.801   1.972
 1789SOL    HW1 6266   5.342   2.787   1.955
 1789SOL    HW2 6267   5.452   2.865   2.048
 1790SOL     OW 6268   3.177   0.568   4.612
 1790SOL    HW1 6269   3.163   0.665   4.629
 1790SOL    HW2 6270   3.265   0.554   4.567
 1791SOL     OW 6271   6.433   1.160   4.139
 1791SOL    HW1 6272   6.414   1.063   4.127
 1791SOL    HW2 6273   6.356   1.204   4.186
 1792SOL     OW 6274   0.406   1.636   4.629
 1792SOL    HW1 6275   0.345   1.644   4.708
 1792SOL    HW2 6276   0.393   1.714   4.568
 1793SOL     OW 6277   6.418   0.865   4.168
 1793SOL    HW1 6278   6.518   0.870   4.170
 1793SOL    HW2 6279   6.385   0.840   4.259
 1794SOL     OW 6280   4.665   6.266   5.956
 1794SOL    HW1 6281   4.627   6.299   6.043
 1794SOL    HW2 6282   4.738   6.327   5.927
 1795SOL     OW 6283   6.448   5.289   2.374
 1795SOL    HW1 6284   6.517   5.340   2.323
 1795SOL    HW2 6285   6.481   5.197   2.393
 1796SOL     OW 6286   1.933   1.324   4.557
 1796SOL    HW1 6287   1.951   1.347   4.652
 1796SOL    HW2 6288   1.957   1.228   4.541
 1797SOL     OW 6289   1.646   6.880   5.636
 1797SOL    HW1 6290   1.663   6.854   5.731
 1797SOL    HW2 6291   1.584   6.958   5.634
 1798SOL     OW 6292   4.071   3.350   5.075
 1798SOL    HW1 6293   4.126   3.431   5.054
 1798SOL    HW2 6294   3.974   3.371   5.062
 1799SOL     OW 6295   5.607   3.058   6.398
 1799SOL    HW1 6296   5.640   3.135   6.344
 1799SOL    HW2 6297   5.534   3.011   6.349
 1800SOL     OW 6298   4.941   4.823   3.217
 1800SOL    HW1 6299   5.018   4.823   3.153
 1800SOL    HW2 6300   4.903   4.731   3.224
 1801SOL     OW 6301   1.210   1.562   3.058
 1801SOL    HW1 6302   1.286   1.624   3.039
 1801SOL    HW2 6303   1.167   1.535   2.972
 1802SOL     OW 6304   6.596   6.416   2.947
 1802SOL    HW1 6305   6.497   6.413   2.943
 1802SOL    HW2 6306   6.634   6.354   2.878
 1803SOL     OW 6307   6.526   6.701   2.466
 1803SOL    HW1 6308   6.561   6.715   2.374
 1803SOL    HW2 6309   6.456   6.769   2.486
 1804SOL     OW 6310   3.802   3.348   5.067
 1804SOL    HW1 6311   3.809   3.448   5.079
 1804SOL    HW2 6312   3.706   3.321   5.068
 1805SOL     OW 6313   1.257   4.492   5.971
 1805SOL    HW1 6314   1.169   4.515   6.013
 1805SOL    HW2 6315   1.313   4.575   5.964
 1806SOL     OW 6316   0.603   2.445   1.667
 1806SOL    HW1 6317   0.654   2.531   1.665
 1806SOL    HW2 6318   0.652   2.377   1.612
 1807SOL     OW 6319   6.806   2.053   6.284
 1807SOL    HW1 6320   6.781   1.992   6.360
 1807SOL    HW2 6321   6.772   2.016   6.198
 1808SOL     OW 6322   5.784   4.741   4.347
 1808SOL    HW1 6323   5.724   4.793   4.407
 1808SOL    HW2 6324   5.753   4.646   4.343
 1809SOL     OW 6325   3.044   1.882   4.883
 1809SOL    HW1 6326   3.038   1.784   4.901
 1809SOL    HW2 6327   3.065   1.931   4.967
 1810SOL     OW 6328   1.139   0.635   4.537
 1810SOL    HW1 6329   1.187   0.696   4.473
 1810SOL    HW2 6330   1.041   0.645   4.526
 1811SOL     OW 6331   5.153   4.427   2.717
 1811SOL    HW1 6332   5.143   4.424   2.617
 1811SOL    HW2 6333   5.133   4.338   2.756
 1812SOL     OW 6334   4.654   0.102   6.303
 1812SOL    HW1 6335   4.750   0.077   6.297
 1812SOL    HW2 6336   4.612   0.056   6.381
 1813SOL     OW 6337   4.888   5.100   1.694
 1813SOL    HW1 6338   4.922   5.056   1.777
 1813SOL    HW2 6339   4.965   5.128   1.637
 1814SOL     OW 6340   6.031   0.565   0.837
 1814SOL    HW1 6341   6.002   0.484   0.787
 1814SOL    HW2 6342   5.961   0.636   0.829
 1815SOL     OW 6343   6.075   0.437   2.807
 1815SOL    HW1 6344   6.107   0.381   2.730
 1815SOL    HW2 6345   6.153   0.475   2.855
 1816SOL     OW 6346   3.031   5.243   0.279
 1816SOL    HW1 6347   3.040   5.146   0.298
 1816SOL    HW2 6348   3.039   5.295   0.364
 1817SOL     OW 6349   4.512   0.446   2.788
 1817SOL    HW1 6350   4.489   0.369   2.729
 1817SOL    HW2 6351   4.470   0.433   2.878
 1818SOL     OW 6352   2.076   6.311   0.699
 1818SOL    HW1 6353   2.070   6.407   0.671
 1818SOL    HW2 6354   2.121   6.305   0.788
 1819SOL     OW 6355   1.524   6.530   2.033
 1819SOL    HW1 6356   1.492   6.501   2.124
 1819SOL    HW2 6357   1.563   6.621   2.039
 1820SOL     OW 6358   3.695   0.084   2.750
 1820SOL    HW1 6359   3.637   0.160   2.720
 1820SOL    HW2 6360   3.659   7.016   2.713
 1821SOL     OW 6361   2.600   1.453   1.455
 1821SOL    HW1 6362   2.544   1.377   1.488
 1821SOL    HW2 6363   2.590   1.532   1.516
 1822SOL     OW 6364   0.881   2.678   1.891
 1822SOL    HW1 6365   0.836   2.660   1.804
 1822SOL    HW2 6366   0.861   2.604   1.956
 1823SOL     OW 6367   3.180   6.130   3.170
 1823SOL    HW1 6368   3.177   6.080   3.257
 1823SOL    HW2 6369   3.154   6.070   3.095
 1824SOL     OW 6370   4.019   4.304   1.052
 1824SOL    HW1 6371   3.953   4.357   1.105
 1824SOL    HW2 6372   3.989   4.209   1.047
 1825SOL     OW 6373   0.711   2.539   4.603
 1825SOL    HW1 6374   0.740   2.446   4.624
 1825SOL    HW2 6375   0.700   2.549   4.504
 1826SOL     OW 6376   3.443   1.603   1.504
 1826SOL    HW1 6377   3.485   1.530   1.559
 1826SOL    HW2 6378   3.400   1.669   1.565
 1827SOL     OW 6379   6.180   5.426   1.233
 1827SOL    HW1 6380   6.206   5.353   1.171
 1827SOL    HW2 6381   6.179   5.392   1.327
 1828SOL     OW 6382   1.473   2.858   6.234
 1828SOL    HW1 6383   1.530   2.909   6.299
 1828SOL    HW2 6384   1.415   2.922   6.184
 1829SOL     OW 6385   4.145   0.617   2.845
 1829SOL    HW1 6386   4.105   0.695   2.798
 1829SOL    HW2 6387   4.184   0.647   2.932
 1830SOL     OW 6388   5.597   5.830   4.761
 1830SOL    HW1 6389   5.686   5.789   4.746
 1830SOL    HW2 6390   5.600   5.927   4.737
 1831SOL     OW 6391   5.678   6.745   2.563
 1831SOL    HW1 6392   5.634   6.784   2.483
 1831SOL    HW2 6393   5.618   6.676   2.604
 1832SOL     OW 6394   4.265   1.497   0.872
 1832SOL    HW1 6395   4.277   1.586   0.827
 1832SOL    HW2 6396   4.255   1.426   0.802
 1833SOL     OW 6397   5.928   0.573   1.673
 1833SOL    HW1 6398   5.876   0.555   1.757
 1833SOL    HW2 6399   5.962   0.667   1.676
 1834SOL     OW 6400   1.997   4.431   0.671
 1834SOL    HW1 6401   1.931   4.379   0.725
 1834SOL    HW2 6402   2.068   4.370   0.636
 1835SOL     OW 6403   0.463   4.718   1.922
 1835SOL    HW1 6404   0.506   4.807   1.907
 1835SOL    HW2 6405   0.532   4.651   1.948
 1836SOL     OW 6406   5.379   2.239   1.923
 1836SOL    HW1 6407   5.402   2.271   2.015
 1836SOL    HW2 6408   5.443   2.278   1.857
 1837SOL     OW 6409   1.252   6.837   5.462
 1837SOL    HW1 6410   1.276   6.742   5.482
 1837SOL    HW2 6411   1.160   6.840   5.423
 1838SOL     OW 6412   5.795   1.151   5.776
 1838SOL    HW1 6413   5.854   1.107   5.844
 1838SOL    HW2 6414   5.851   1.204   5.713
 1839SOL     OW 6415   0.178   1.048   5.606
 1839SOL    HW1 6416   0.267   1.094   5.611
 1839SOL    HW2 6417   0.174   0.993   5.523
 1840SOL     OW 6418   3.775   0.327   1.999
 1840SOL    HW1 6419   3.831   0.264   2.054
 1840SOL    HW2 6420   3.808   0.420   2.011
 1841SOL     OW 6421   2.623   0.585   3.130
 1841SOL    HW1 6422   2.607   0.619   3.037
 1841SOL    HW2 6423   2.538   0.546   3.167
 1842SOL     OW 6424   1.068   5.802   1.251
 1842SOL    HW1 6425   1.022   5.754   1.326
 1842SOL    HW2 6426   1.161   5.826   1.279
 1843SOL     OW 6427   5.711   0.458   4.803
 1843SOL    HW1 6428   5.803   0.494   4.819
 1843SOL    HW2 6429   5.647   0.533   4.792
 1844SOL     OW 6430   3.765   0.234   4.641
 1844SOL    HW1 6431   3.792   0.329   4.624
 1844SOL    HW2 6432   3.819   0.174   4.581
 1845SOL     OW 6433   2.378   6.489   4.665
 1845SOL    HW1 6434   2.416   6.513   4.754
 1845SOL    HW2 6435   2.341   6.396   4.668
 1846SOL     OW 6436   4.155   0.975   2.516
 1846SOL    HW1 6437   4.236   0.935   2.474
 1846SOL    HW2 6438   4.178   1.064   2.555
 1847SOL     OW 6439   1.976   0.116   5.668
 1847SOL    HW1 6440   2.028   0.198   5.692
 1847SOL    HW2 6441   1.922   0.087   5.748
 1848SOL     OW 6442   1.627   6.511   3.084
 1848SOL    HW1 6443   1.605   6.603   3.052
 1848SOL    HW2 6444   1.652   6.453   3.006
 1849SOL     OW 6445   4.532   2.547   1.316
 1849SOL    HW1 6446   4.504   2.590   1.402
 1849SOL    HW2 6447   4.515   2.449   1.320
 1850SOL     OW 6448   6.944   2.525   2.265
 1850SOL    HW1 6449   6.978   2.448   2.319
 1850SOL    HW2 6450   6.849   2.508   2.237
 1851SOL     OW 6451   0.866   3.368   0.335
 1851SOL    HW1 6452   0.931   3.417   0.393
 1851SOL    HW2 6453   0.909   3.286   0.298
 1852SOL     OW 6454   6.794   4.588   2.438
 1852SOL    HW1 6455   6.873   4.646   2.417
 1852SOL    HW2 6456   6.729   4.593   2.363
 1853SOL     OW 6457   6.414   2.732   3.098
 1853SOL    HW1 6458   6.513   2.720   3.093
 1853SOL    HW2 6459   6.372   2.690   3.017
 1854SOL     OW 6460   1.799   5.478   2.368
 1854SOL    HW1 6461   1.734   5.478   2.292
 1854SOL    HW2 6462   1.892   5.486   2.332
 1855SOL     OW 6463   5.629   3.407   5.208
 1855SOL    HW1 6464   5.618   3.327   5.149
 1855SOL    HW2 6465   5.727   3.426   5.219
 1856SOL     OW 6466   4.611   3.136   6.228
 1856SOL    HW1 6467   4.621   3.057   6.168
 1856SOL    HW2 6468   4.643   3.112   6.320
 1857SOL     OW 6469   3.962   1.894   0.290
 1857SOL    HW1 6470   3.872   1.857   0.267
 1857SOL    HW2 6471   4.032   1.827   0.268
 1858SOL     OW 6472   4.997   3.128   3.337
 1858SOL    HW1 6473   4.986   3.193   3.412
 1858SOL    HW2 6474   4.952   3.042   3.360
 1859SOL     OW 6475   4.214   1.674   3.770
 1859SOL    HW1 6476   4.216   1.669   3.670
 1859SOL    HW2 6477   4.163   1.755   3.798
 1860SOL     OW 6478   0.107   1.402   5.571
 1860SOL    HW1 6479   0.058   1.454   5.641
 1860SOL    HW2 6480   0.046   1.331   5.534
 1861SOL     OW 6481   5.370   0.359   2.713
 1861SOL    HW1 6482   5.389   0.263   2.692
 1861SOL    HW2 6483   5.457   0.409   2.722
 1862SOL     OW 6484   2.395   6.927   6.454
 1862SOL    HW1 6485   2.444   7.008   6.422
 1862SOL    HW2 6486   2.299   6.950   6.472
 1863SOL     OW 6487   0.009   2.894   3.471
 1863SOL    HW1 6488   6.975   2.842   3.539
 1863SOL    HW2 6489   0.081   2.836   3.432
 1864SOL     OW 6490   3.241   5.689   4.622
 1864SOL    HW1 6491   3.143   5.691   4.641
 1864SOL    HW2 6492   3.292   5.716   4.703
 1865SOL     OW 6493   3.763   0.389   0.257
 1865SOL    HW1 6494   3.755   0.466   0.321
 1865SOL    HW2 6495   3.846   0.399   0.202
 1866SOL     OW 6496   7.007   4.993   3.729
 1866SOL    HW1 6497   6.951   5.074   3.745
 1866SOL    HW2 6498   0.085   5.020   3.716
 1867SOL     OW 6499   1.566   4.395   1.251
 1867SOL    HW1 6500   1.528   4.456   1.321
 1867SOL    HW2 6501   1.666   4.398   1.255
 1868SOL     OW 6502   4.991   3.422   6.321
 1868SOL    HW1 6503   5.041   3.509   6.315
 1868SOL    HW2 6504   5.054   3.350   6.349
 1869SOL     OW 6505   5.954   3.331   4.992
 1869SOL    HW1 6506   6.030   3.344   4.929
 1869SOL    HW2 6507   5.933   3.233   5.000
 1870SOL     OW 6508   1.064   3.346   5.210
 1870SOL    HW1 6509   1.112   3.280   5.268
 1870SOL    HW2 6510   0.974   3.365   5.249
 1871SOL     OW 6511   0.285   0.302   0.647
 1871SOL    HW1 6512   0.225   0.259   0.714
 1871SOL    HW2 6513   0.379   0.272   0.662
 1872SOL     OW 6514   4.393   2.215   0.002
 1872SOL    HW1 6515   4.318   2.149   7.013
 1872SOL    HW2 6516   4.470   2.183   6.966
 1873SOL     OW 6517   5.803   0.659   5.714
 1873SOL    HW1 6518   5.831   0.744   5.670
 1873SOL    HW2 6519   5.817   0.666   5.812
 1874SOL     OW 6520   1.597   1.340   0.077
 1874SOL    HW1 6521   1.565   1.434   0.071
 1874SOL    HW2 6522   1.569   1.300   0.164
 1875SOL     OW 6523   6.286   0.450   0.607
 1875SOL    HW1 6524   6.280   0.408   0.698
 1875SOL    HW2 6525   6.239   0.538   0.608
 1876SOL     OW 6526   3.695   5.742   6.462
 1876SOL    HW1 6527   3.790   5.713   6.474
 1876SOL    HW2 6528   3.650   5.745   6.552
 1877SOL     OW 6529   1.167   1.735   3.650
 1877SOL    HW1 6530   1.086   1.783   3.683
 1877SOL    HW2 6531   1.149   1.700   3.558
 1878SOL     OW 6532   6.808   3.325   4.206
 1878SOL    HW1 6533   6.718   3.291   4.233
 1878SOL    HW2 6534   6.815   3.326   4.106
 1879SOL     OW 6535   2.870   6.401   4.130
 1879SOL    HW1 6536   2.949   6.456   4.104
 1879SOL    HW2 6537   2.839   6.347   4.051
 1880SOL     OW 6538   0.064   2.316   2.982
 1880SOL    HW1 6539   0.112   2.229   2.969
 1880SOL    HW2 6540   0.117   2.390   2.941
 1881SOL     OW 6541   1.373   2.048   3.956
 1881SOL    HW1 6542   1.280   2.044   3.919
 1881SOL    HW2 6543   1.394   2.142   3.982
 1882SOL     OW 6544   0.956   4.900   6.787
 1882SOL    HW1 6545   0.925   4.981   6.836
 1882SOL    HW2 6546   0.965   4.921   6.690
 1883SOL     OW 6547   1.257   3.404   3.886
 1883SOL    HW1 6548   1.300   3.433   3.971
 1883SOL    HW2 6549   1.176   3.460   3.869
 1884SOL     OW 6550   5.822   2.414   1.056
 1884SOL    HW1 6551   5.731   2.431   1.017
 1884SOL    HW2 6552   5.824   2.448   1.150
 1885SOL     OW 6553   0.370   2.164   0.385
 1885SOL    HW1 6554   0.305   2.192   0.455
 1885SOL    HW2 6555   0.463   2.171   0.421
 1886SOL     OW 6556   2.540   2.039   0.664
 1886SOL    HW1 6557   2.512   1.950   0.700
 1886SOL    HW2 6558   2.622   2.070   0.713
 1887SOL     OW 6559   0.719   4.611   5.156
 1887SOL    HW1 6560   0.735   4.671   5.235
 1887SOL    HW2 6561   0.717   4.516   5.187
 1888SOL     OW 6562   2.859   1.716   6.112
 1888SOL    HW1 6563   2.940   1.750   6.065
 1888SOL    HW2 6564   2.823   1.787   6.172
 1889SOL     OW 6565   5.469   2.677   6.656
 1889SOL    HW1 6566   5.528   2.724   6.722
 1889SOL    HW2 6567   5.381   2.724   6.651
 1890SOL     OW 6568   1.070   5.469   5.446
 1890SOL    HW1 6569   1.101   5.564   5.446
 1890SOL    HW2 6570   1.061   5.437   5.352
 1891SOL     OW 6571   5.422   3.261   4.365
 1891SOL    HW1 6572   5.507   3.253   4.418
 1891SOL    HW2 6573   5.357   3.192   4.396
 1892SOL     OW 6574   3.873   0.114   0.769
 1892SOL    HW1 6575   3.913   0.049   0.833
 1892SOL    HW2 6576   3.849   0.198   0.818
 1893SOL     OW 6577   3.110   1.424   5.518
 1893SOL    HW1 6578   3.197   1.474   5.508
 1893SOL    HW2 6579   3.098   1.363   5.440
 1894SOL     OW 6580   3.971   3.930   2.206
 1894SOL    HW1 6581   4.032   3.929   2.127
 1894SOL    HW2 6582   4.025   3.948   2.289
 1895SOL     OW 6583   5.057   1.112   2.529
 1895SOL    HW1 6584   4.971   1.163   2.529
 1895SOL    HW2 6585   5.132   1.174   2.508
 1896SOL     OW 6586   0.618   0.686   3.373
 1896SOL    HW1 6587   0.685   0.738   3.427
 1896SOL    HW2 6588   0.667   0.627   3.309
 1897SOL     OW 6589   0.865   5.106   2.346
 1897SOL    HW1 6590   0.812   5.048   2.284
 1897SOL    HW2 6591   0.906   5.050   2.418
 1898SOL     OW 6592   3.293   4.943   2.298
 1898SOL    HW1 6593   3.391   4.954   2.317
 1898SOL    HW2 6594   3.280   4.921   2.202
 1899SOL     OW 6595   0.817   2.535   2.621
 1899SOL    HW1 6596   0.831   2.594   2.542
 1899SOL    HW2 6597   0.905   2.514   2.663
 1900SOL     OW 6598   0.796   0.220   5.301
 1900SOL    HW1 6599   0.832   0.229   5.208
 1900SOL    HW2 6600   0.743   0.135   5.307
 1901SOL     OW 6601   2.441   1.501   1.693
 1901SOL    HW1 6602   2.485   1.414   1.716
 1901SOL    HW2 6603   2.494   1.577   1.732
 1902SOL     OW 6604   2.705   2.321   4.684
 1902SOL    HW1 6605   2.801   2.331   4.708
 1902SOL    HW2 6606   2.655   2.282   4.762
 1903SOL     OW 6607   6.567   4.092   3.826
 1903SOL    HW1 6608   6.631   4.110   3.901
 1903SOL    HW2 6609   6.561   3.994   3.810
 1904SOL     OW 6610   6.051   6.274   3.878
 1904SOL    HW1 6611   6.127   6.338   3.869
 1904SOL    HW2 6612   6.018   6.273   3.973
 1905SOL     OW 6613   1.573   1.559   4.522
 1905SOL    HW1 6614   1.583   1.465   4.556
 1905SOL    HW2 6615   1.501   1.561   4.452
 1906SOL     OW 6616   3.159   0.140   5.087
 1906SOL    HW1 6617   3.253   0.116   5.110
 1906SOL    HW2 6618   3.101   0.126   5.168
 1907SOL     OW 6619   3.644   6.955   3.240
 1907SOL    HW1 6620   3.661   6.902   3.157
 1907SOL    HW2 6621   3.641   0.035   3.216
 1908SOL     OW 6622   4.410   0.805   4.522
 1908SOL    HW1 6623   4.444   0.779   4.432
 1908SOL    HW2 6624   4.310   0.803   4.522
 1909SOL     OW 6625   1.248   3.998   2.789
 1909SOL    HW1 6626   1.286   3.990   2.881
 1909SOL    HW2 6627   1.243   3.907   2.748
 1910SOL     OW 6628   0.156   2.574   6.635
 1910SOL    HW1 6629   0.208   2.567   6.551
 1910SOL    HW2 6630   0.058   2.578   6.614
 1911SOL     OW 6631   6.082   2.283   5.643
 1911SOL    HW1 6632   6.043   2.372   5.619
 1911SOL    HW2 6633   6.182   2.291   5.648
 1912SOL     OW 6634   3.670   6.913   1.256
 1912SOL    HW1 6635   3.641   6.962   1.338
 1912SOL    HW2 6636   3.744   6.850   1.280
 1913SOL     OW 6637   1.288   5.799   5.652
 1913SOL    HW1 6638   1.196   5.790   5.689
 1913SOL    HW2 6639   1.355   5.778   5.723
 1914SOL     OW 6640   3.366   2.353   6.901
 1914SOL    HW1 6641   3.357   2.257   6.876
 1914SOL    HW2 6642   3.433   2.362   6.974
 1915SOL     OW 6643   3.758   1.576   5.220
 1915SOL    HW1 6644   3.707   1.492   5.200
 1915SOL    HW2 6645   3.733   1.646   5.153
 1916SOL     OW 6646   3.546   6.293   1.059
 1916SOL    HW1 6647   3.580   6.238   1.135
 1916SOL    HW2 6648   3.621   6.348   1.022
 1917SOL     OW 6649   3.177   3.172   3.953
 1917SOL    HW1 6650   3.162   3.152   3.856
 1917SOL    HW2 6651   3.215   3.091   3.997
 1918SOL     OW 6652   0.322   0.505   6.315
 1918SOL    HW1 6653   0.315   0.605   6.318
 1918SOL    HW2 6654   0.252   0.466   6.374
 1919SOL     OW 6655   1.972   0.017   1.395
 1919SOL    HW1 6656   2.044   6.993   1.450
 1919SOL    HW2 6657   1.997   0.112   1.375
 1920SOL     OW 6658   1.178   5.367   2.963
 1920SOL    HW1 6659   1.254   5.338   3.021
 1920SOL    HW2 6660   1.209   5.376   2.868
 1921SOL     OW 6661   1.478   4.570   0.145
 1921SOL    HW1 6662   1.560   4.516   0.164
 1921SOL    HW2 6663   1.458   4.567   0.047
 1922SOL     OW 6664   3.538   4.380   1.020
 1922SOL    HW1 6665   3.517   4.321   0.942
 1922SOL    HW2 6666   3.569   4.469   0.987
 1923SOL     OW 6667   3.191   0.835   6.055
 1923SOL    HW1 6668   3.265   0.794   6.002
 1923SOL    HW2 6669   3.173   0.927   6.022
 1924SOL     OW 6670   5.105   5.180   1.553
 1924SOL    HW1 6671   5.136   5.275   1.557
 1924SOL    HW2 6672   5.168   5.127   1.497
 1925SOL     OW 6673   2.548   3.869   1.651
 1925SOL    HW1 6674   2.587   3.824   1.571
 1925SOL    HW2 6675   2.470   3.817   1.684
 1926SOL     OW 6676   1.414   6.840   3.143
 1926SOL    HW1 6677   1.448   6.875   3.231
 1926SOL    HW2 6678   1.316   6.859   3.135
 1927SOL     OW 6679   3.342   5.281   6.302
 1927SOL    HW1 6680   3.423   5.337   6.322
 1927SOL    HW2 6681   3.358   5.229   6.218
 1928SOL     OW 6682   7.017   3.943   5.733
 1928SOL    HW1 6683   6.933   3.982   5.770
 1928SOL    HW2 6684   0.075   4.006   5.750
 1929SOL     OW 6685   0.755   6.462   1.582
 1929SOL    HW1 6686   0.711   6.473   1.493
 1929SOL    HW2 6687   0.822   6.388   1.577
 1930SOL     OW 6688   3.701   4.439   6.726
 1930SOL    HW1 6689   3.760   4.363   6.699
 1930SOL    HW2 6690   3.684   4.498   6.647
 1931SOL     OW 6691   6.926   2.984   2.534
 1931SOL    HW1 6692   6.921   2.913   2.464
 1931SOL    HW2 6693   6.889   2.948   2.620
 1932SOL     OW 6694   4.934   3.529   2.994
 1932SOL    HW1 6695   4.920   3.449   2.935
 1932SOL    HW2 6696   4.911   3.506   3.088
 1933SOL     OW 6697   2.380   4.498   0.912
 1933SOL    HW1 6698   2.443   4.438   0.863
 1933SOL    HW2 6699   2.307   4.528   0.850
 1934SOL     OW 6700   0.479   0.609   4.640
 1934SOL    HW1 6701   0.532   0.566   4.568
 1934SOL    HW2 6702   0.485   0.709   4.632
 1935SOL     OW 6703   3.536   6.911   4.417
 1935SOL    HW1 6704   3.558   6.939   4.323
 1935SOL    HW2 6705   3.513   6.991   4.472
 1936SOL     OW 6706   6.298   3.948   4.362
 1936SOL    HW1 6707   6.279   3.880   4.432
 1936SOL    HW2 6708   6.296   3.905   4.272
 1937SOL     OW 6709   5.112   0.563   0.705
 1937SOL    HW1 6710   5.039   0.564   0.772
 1937SOL    HW2 6711   5.186   0.623   0.735
 1938SOL     OW 6712   2.892   0.913   2.005
 1938SOL    HW1 6713   2.984   0.947   1.988
 1938SOL    HW2 6714   2.848   0.966   2.077
 1939SOL     OW 6715   0.321   6.970   4.367
 1939SOL    HW1 6716   0.223   6.982   4.353
 1939SOL    HW2 6717   0.345   6.874   4.354
 1940SOL     OW 6718   4.169   4.485   0.099
 1940SOL    HW1 6719   4.205   4.532   0.179
 1940SOL    HW2 6720   4.218   4.516   0.017
 1941SOL     OW 6721   0.180   4.494   3.189
 1941SOL    HW1 6722   0.267   4.446   3.181
 1941SOL    HW2 6723   0.131   4.489   3.103
 1942SOL     OW 6724   5.610   0.237   1.800
 1942SOL    HW1 6725   5.614   0.308   1.729
 1942SOL    HW2 6726   5.536   0.257   1.864
 1943SOL     OW 6727   2.521   6.464   2.304
 1943SOL    HW1 6728   2.430   6.447   2.265
 1943SOL    HW2 6729   2.577   6.514   2.238
 1944SOL     OW 6730   5.812   2.285   0.694
 1944SOL    HW1 6731   5.876   2.297   0.770
 1944SOL    HW2 6732   5.802   2.188   0.674
 1945SOL     OW 6733   3.397   5.486   2.134
 1945SOL    HW1 6734   3.374   5.532   2.220
 1945SOL    HW2 6735   3.443   5.399   2.153
 1946SOL     OW 6736   6.981   0.569   1.382
 1946SOL    HW1 6737   6.974   0.554   1.283
 1946SOL    HW2 6738   6.921   0.644   1.409
 1947SOL     OW 6739   4.554   6.794   4.461
 1947SOL    HW1 6740   4.616   6.769   4.387
 1947SOL    HW2 6741   4.504   6.877   4.436
 1948SOL     OW 6742   5.820   5.420   3.551
 1948SOL    HW1 6743   5.740   5.402   3.608
 1948SOL    HW2 6744   5.877   5.490   3.594
 1949SOL     OW 6745   3.431   4.554   6.450
 1949SOL    HW1 6746   3.331   4.557   6.443
 1949SOL    HW2 6747   3.471   4.545   6.359
 1950SOL     OW 6748   3.694   4.621   0.968
 1950SOL    HW1 6749   3.748   4.581   1.042
 1950SOL    HW2 6750   3.734   4.597   0.880
 1951SOL     OW 6751   5.956   4.143   6.871
 1951SOL    HW1 6752   5.974   4.111   6.778
 1951SOL    HW2 6753   5.860   4.171   6.878
 1952SOL     OW 6754   4.083   2.855   6.926
 1952SOL    HW1 6755   4.073   2.853   6.826
 1952SOL    HW2 6756   4.063   2.947   6.960
 1953SOL     OW 6757   5.728   1.604   0.183
 1953SOL    HW1 6758   5.773   1.567   0.102
 1953SOL    HW2 6759   5.733   1.538   0.257
 1954SOL     OW 6760   5.758   1.245   3.711
 1954SOL    HW1 6761   5.662   1.274   3.707
 1954SOL    HW2 6762   5.803   1.267   3.625
 1955SOL     OW 6763   0.967   1.412   2.390
 1955SOL    HW1 6764   1.038   1.479   2.410
 1955SOL    HW2 6765   1.003   1.343   2.327
 1956SOL     OW 6766   4.881   6.605   2.385
 1956SOL    HW1 6767   4.954   6.538   2.400
 1956SOL    HW2 6768   4.855   6.646   2.472
 1957SOL     OW 6769   5.972   5.174   4.675
 1957SOL    HW1 6770   5.930   5.174   4.584
 1957SOL    HW2 6771   5.983   5.080   4.707
 1958SOL     OW 6772   5.229   2.299   2.566
 1958SOL    HW1 6773   5.289   2.218   2.567
 1958SOL    HW2 6774   5.136   2.271   2.546
 1959SOL     OW 6775   0.199   1.097   4.808
 1959SOL    HW1 6776   0.245   1.098   4.897
 1959SOL    HW2 6777   0.255   1.148   4.743
 1960SOL     OW 6778   6.502   4.243   2.418
 1960SOL    HW1 6779   6.524   4.215   2.511
 1960SOL    HW2 6780   6.587   4.262   2.368
 1961SOL     OW 6781   6.006   4.306   4.215
 1961SOL    HW1 6782   6.065   4.369   4.266
 1961SOL    HW2 6783   5.910   4.329   4.231
 1962SOL     OW 6784   2.334   6.687   3.576
 1962SOL    HW1 6785   2.285   6.772   3.597
 1962SOL    HW2 6786   2.387   6.699   3.492
 1963SOL     OW 6787   0.727   1.110   1.865
 1963SOL    HW1 6788   0.761   1.168   1.939
 1963SOL    HW2 6789   0.715   1.017   1.898
 1964SOL     OW 6790   4.502   4.073   0.794
 1964SOL    HW1 6791   4.410   4.106   0.776
 1964SOL    HW2 6792   4.567   4.121   0.735
 1965SOL     OW 6793   1.030   3.565   4.496
 1965SOL    HW1 6794   1.119   3.521   4.491
 1965SOL    HW2 6795   1.036   3.657   4.457
 1966SOL     OW 6796   6.832   6.341   0.460
 1966SOL    HW1 6797   6.897   6.268   0.481
 1966SOL    HW2 6798   6.843   6.369   0.365
 1967SOL     OW 6799   5.357   2.549   5.102
 1967SOL    HW1 6800   5.379   2.638   5.143
 1967SOL    HW2 6801   5.374   2.553   5.004
 1968SOL     OW 6802   3.188   6.982   0.099
 1968SOL    HW1 6803   3.176   0.020   0.181
 1968SOL    HW2 6804   3.103   6.932   0.079
 1969SOL     OW 6805   1.389   1.699   1.752
 1969SOL    HW1 6806   1.344   1.679   1.665
 1969SOL    HW2 6807   1.364   1.629   1.820
 1970SOL     OW 6808   2.063   6.592   6.156
 1970SOL    HW1 6809   1.965   6.599   6.139
 1970SOL    HW2 6810   2.080   6.537   6.238
 1971SOL     OW 6811   0.068   6.961   5.695
 1971SOL    HW1 6812   0.082   6.945   5.597
 1971SOL    HW2 6813   0.128   6.901   5.748
 1972SOL     OW 6814   5.432   2.476   2.435
 1972SOL    HW1 6815   5.454   2.415   2.359
 1972SOL    HW2 6816   5.380   2.426   2.504
 1973SOL     OW 6817   2.880   2.580   0.109
 1973SOL    HW1 6818   2.973   2.543   0.106
 1973SOL    HW2 6819   2.873   2.657   0.045
 1974SOL     OW 6820   5.194   6.280   3.914
 1974SOL    HW1 6821   5.180   6.292   4.012
 1974SOL    HW2 6822   5.105   6.282   3.867
 1975SOL     OW 6823   2.473   1.773   3.912
 1975SOL    HW1 6824   2.387   1.823   3.903
 1975SOL    HW2 6825   2.485   1.744   4.007
 1976SOL     OW 6826   0.689   6.604   6.270
 1976SOL    HW1 6827   0.743   6.604   6.186
 1976SOL    HW2 6828   0.715   6.683   6.326
 1977SOL     OW 6829   0.647   3.660   4.302
 1977SOL    HW1 6830   0.719   3.692   4.240
 1977SOL    HW2 6831   0.579   3.732   4.314
 1978SOL     OW 6832   1.727   0.066   2.991
 1978SOL    HW1 6833   1.729   0.166   2.996
 1978SOL    HW2 6834   1.810   0.034   2.945
 1979SOL     OW 6835   6.375   4.406   5.949
 1979SOL    HW1 6836   6.374   4.313   5.986
 1979SOL    HW2 6837   6.470   4.436   5.940
 1980SOL     OW 6838   2.533   0.400   4.880
 1980SOL    HW1 6839   2.525   0.344   4.798
 1980SOL    HW2 6840   2.603   0.362   4.941
 1981SOL     OW 6841   6.582   1.892   2.808
 1981SOL    HW1 6842   6.483   1.879   2.809
 1981SOL    HW2 6843   6.614   1.898   2.714
 1982SOL     OW 6844   0.494   4.334   4.546
 1982SOL    HW1 6845   0.409   4.350   4.596
 1982SOL    HW2 6846   0.527   4.421   4.508
 1983SOL     OW 6847   0.561   1.572   2.755
 1983SOL    HW1 6848   0.544   1.483   2.713
 1983SOL    HW2 6849   0.634   1.564   2.822
 1984SOL     OW 6850   6.531   1.636   4.949
 1984SOL    HW1 6851   6.586   1.552   4.951
 1984SOL    HW2 6852   6.485   1.647   5.037
 1985SOL     OW 6853   1.545   6.079   2.334
 1985SOL    HW1 6854   1.572   5.988   2.365
 1985SOL    HW2 6855   1.549   6.082   2.234
 1986SOL     OW 6856   1.565   0.806   0.239
 1986SOL    HW1 6857   1.640   0.824   0.303
 1986SOL    HW2 6858   1.598   0.814   0.145
 1987SOL     OW 6859   1.934   2.461   2.288
 1987SOL    HW1 6860   1.943   2.504   2.378
 1987SOL    HW2 6861   1.993   2.380   2.285
 1988SOL     OW 6862   5.598   4.013   0.458
 1988SOL    HW1 6863   5.683   4.018   0.405
 1988SOL    HW2 6864   5.614   4.051   0.549
 1989SOL     OW 6865   2.397   6.205   4.624
 1989SOL    HW1 6866   2.321   6.185   4.686
 1989SOL    HW2 6867   2.454   6.123   4.616
 1990SOL     OW 6868   3.092   6.484   0.244
 1990SOL    HW1 6869   3.094   6.410   0.311
 1990SOL    HW2 6870   3.010   6.540   0.258
 1991SOL     OW 6871   4.233   4.429   6.198
 1991SOL    HW1 6872   4.213   4.389   6.287
 1991SOL    HW2 6873   4.260   4.524   6.209
 1992SOL     OW 6874   0.851   0.530   0.280
 1992SOL    HW1 6875   0.920   0.575   0.337
 1992SOL    HW2 6876   0.767   0.520   0.334
 1993SOL     OW 6877   3.652   3.051   4.622
 1993SOL    HW1 6878   3.584   3.093   4.683
 1993SOL    HW2 6879   3.736   3.032   4.673
 1994SOL     OW 6880   0.708   1.067   0.433
 1994SOL    HW1 6881   0.773   1.031   0.366
 1994SOL    HW2 6882   0.754   1.136   0.490
 1995SOL     OW 6883   5.475   2.286   3.246
 1995SOL    HW1 6884   5.546   2.331   3.192
 1995SOL    HW2 6885   5.413   2.236   3.185
 1996SOL     OW 6886   2.528   3.365   0.691
 1996SOL    HW1 6887   2.460   3.398   0.758
 1996SOL    HW2 6888   2.548   3.269   0.710
 1997SOL     OW 6889   4.398   1.416   4.755
 1997SOL    HW1 6890   4.385   1.415   4.656
 1997SOL    HW2 6891   4.484   1.370   4.778
 1998SOL     OW 6892   2.252   4.146   6.272
 1998SOL    HW1 6893   2.232   4.052   6.302
 1998SOL    HW2 6894   2.312   4.190   6.338
 1999SOL     OW 6895   3.289   7.012   1.088
 1999SOL    HW1 6896   3.219   6.942   1.096
 1999SOL    HW2 6897   3.358   6.983   1.022
 2000SOL     OW 6898   4.451   2.326   5.334
 2000SOL    HW1 6899   4.501   2.288   5.256
 2000SOL    HW2 6900   4.516   2.369   5.397
 2001SOL     OW 6901   2.935   1.674   2.009
 2001SOL    HW1 6902   2.959   1.612   1.934
 2001SOL    HW2 6903   2.883   1.751   1.973
 2002SOL     OW 6904   0.648   4.912   6.493
 2002SOL    HW1 6905   0.556   4.933   6.459
 2002SOL    HW2 6906   0.703   4.996   6.492
 2003SOL     OW 6907   6.034   6.052   2.080
 2003SOL    HW1 6908   5.968   6.015   2.145
 2003SOL    HW2 6909   6.122   6.008   2.093
 2004SOL     OW 6910   5.397   0.808   5.846
 2004SOL    HW1 6911   5.427   0.886   5.900
 2004SOL    HW2 6912   5.399   0.832   5.749
 2005SOL     OW 6913   1.027   4.990   0.025
 2005SOL    HW1 6914   1.076   4.942   6.971
 2005SOL    HW2 6915   0.989   5.075   7.007
 2006SOL     OW 6916   4.936   6.326   3.858
 2006SOL    HW1 6917   4.859   6.275   3.896
 2006SOL    HW2 6918   4.942   6.309   3.760
 2007SOL     OW 6919   4.218   4.644   0.859
 2007SOL    HW1 6920   4.286   4.709   0.828
 2007SOL    HW2 6921   4.235   4.620   0.954
 2008SOL     OW 6922   2.344   5.353   3.720
 2008SOL    HW1 6923   2.440   5.329   3.738
 2008SOL    HW2 6924   2.285   5.285   3.762
 2009SOL     OW 6925   5.723   0.662   2.479
 2009SOL    HW1 6926   5.784   0.650   2.557
 2009SOL    HW2 6927   5.631   0.682   2.511
 2010SOL     OW 6928   2.062   1.950   1.085
 2010SOL    HW1 6929   2.114   2.001   1.153
 2010SOL    HW2 6930   2.019   2.014   1.021
 2011SOL     OW 6931   6.834   0.345   4.663
 2011SOL    HW1 6932   6.803   0.412   4.596
 2011SOL    HW2 6933   6.875   0.392   4.741
 2012SOL     OW 6934   1.602   3.510   1.970
 2012SOL    HW1 6935   1.685   3.458   1.947
 2012SOL    HW2 6936   1.525   3.474   1.919
 2013SOL     OW 6937   6.324   2.224   3.554
 2013SOL    HW1 6938   6.242   2.175   3.527
 2013SOL    HW2 6939   6.400   2.160   3.562
 2014SOL     OW 6940   2.505   5.488   3.232
 2014SOL    HW1 6941   2.448   5.442   3.301
 2014SOL    HW2 6942   2.473   5.583   3.221
 2015SOL     OW 6943   1.962   1.369   0.382
 2015SOL    HW1 6944   1.925   1.459   0.405
 2015SOL    HW2 6945   1.923   1.339   0.295
 2016SOL     OW 6946   1.094   6.108   4.830
 2016SOL    HW1 6947   1.005   6.143   4.858
 2016SOL    HW2 6948   1.126   6.040   4.896
 2017SOL     OW 6949   3.046   0.101   4.027
 2017SOL    HW1 6950   3.028   0.007   3.999
 2017SOL    HW2 6951   3.105   0.145   3.959
 2018SOL     OW 6952   5.818   6.317   5.633
 2018SOL    HW1 6953   5.851   6.353   5.546
 2018SOL    HW2 6954   5.744   6.374   5.667
 2019SOL     OW 6955   5.383   3.078   0.405
 2019SOL    HW1 6956   5.353   3.173   0.394
 2019SOL    HW2 6957   5.305   3.022   0.433
 2020SOL     OW 6958   1.466   6.178   5.119
 2020SOL    HW1 6959   1.405   6.107   5.084
 2020SOL    HW2 6960   1.435   6.268   5.086
 2021SOL     OW 6961   1.485   5.952   3.361
 2021SOL    HW1 6962   1.415   6.005   3.313
 2021SOL    HW2 6963   1.443   5.876   3.410
 2022SOL     OW 6964   1.489   3.794   3.182
 2022SOL    HW1 6965   1.428   3.872   3.197
 2022SOL    HW2 6966   1.515   3.791   3.085
 2023SOL     OW 6967   6.406   1.060   6.185
 2023SOL    HW1 6968   6.402   0.991   6.258
 2023SOL    HW2 6969   6.326   1.051   6.126
 2024SOL     OW 6970   0.593   6.508   3.761
 2024SOL    HW1 6971   0.552   6.552   3.841
 2024SOL    HW2 6972   0.677   6.461   3.788
 2025SOL     OW 6973   2.489   2.018   3.325
 2025SOL    HW1 6974   2.417   1.949   3.333
 2025SOL    HW2 6975   2.491   2.074   3.408
 2026SOL     OW 6976   0.625   3.106   5.657
 2026SOL    HW1 6977   0.631   3.105   5.557
 2026SOL    HW2 6978   0.703   3.056   5.696
 2027SOL     OW 6979   0.464   1.181   0.407
 2027SOL    HW1 6980   0.541   1.119   0.424
 2027SOL    HW2 6981   0.488   1.274   0.436
 2028SOL     OW 6982   3.408   0.050   5.167
 2028SOL    HW1 6983   3.414   0.047   5.267
 2028SOL    HW2 6984   3.495   0.022   5.127
 2029SOL     OW 6985   6.377   0.285   0.221
 2029SOL    HW1 6986   6.424   0.260   0.306
 2029SOL    HW2 6987   6.329   0.372   0.234
 2030SOL     OW 6988   2.713   0.936   2.824
 2030SOL    HW1 6989   2.741   1.031   2.837
 2030SOL    HW2 6990   2.649   0.930   2.748
 2031SOL     OW 6991   6.347   5.764   1.423
 2031SOL    HW1 6992   6.442   5.738   1.438
 2031SOL    HW2 6993   6.341   5.828   1.346
 2032SOL     OW 6994   5.248   6.746   1.894
 2032SOL    HW1 6995   5.300   6.807   1.834
 2032SOL    HW2 6996   5.189   6.800   1.953
 2033SOL     OW 6997   3.217   4.048   6.620
 2033SOL    HW1 6998   3.267   4.065   6.705
 2033SOL    HW2 6999   3.282   4.034   6.546
 2034SOL     OW 7000   3.283   6.169   5.065
 2034SOL    HW1 7001   3.206   6.215   5.109
 2034SOL    HW2 7002   3.272   6.070   5.071
 2035SOL     OW 7003   0.723   0.426   2.969
 2035SOL    HW1 7004   0.647   0.468   2.919
 2035SOL    HW2 7005   0.705   0.328   2.978
 2036SOL     OW 7006   1.863   4.794   2.610
 2036SOL    HW1 7007   1.897   4.724   2.673
 2036SOL    HW2 7008   1.782   4.761   2.563
 2037SOL     OW 7009   6.577   3.080   5.328
 2037SOL    HW1 7010   6.656   3.037   5.372
 2037SOL    HW2 7011   6.557   3.033   5.242
 2038SOL     OW 7012   1.178   2.333   6.867
 2038SOL    HW1 7013   1.141   2.337   6.960
 2038SOL    HW2 7014   1.192   2.238   6.841
 2039SOL     OW 7015   0.836   5.655   3.103
 2039SOL    HW1 7016   0.849   5.593   3.180
 2039SOL    HW2 7017   0.909   5.642   3.036
 2040SOL     OW 7018   3.155   3.446   4.721
 2040SOL    HW1 7019   3.195   3.391   4.648
 2040SOL    HW2 7020   3.075   3.399   4.759
 2041SOL     OW 7021   0.442   6.189   5.230
 2041SOL    HW1 7022   0.462   6.197   5.133
 2041SOL    HW2 7023   0.525   6.164   5.280
 2042SOL     OW 7024   4.941   5.255   6.821
 2042SOL    HW1 7025   4.980   5.290   6.736
 2042SOL    HW2 7026   4.853   5.212   6.802
 2043SOL     OW 7027   6.859   3.716   3.830
 2043SOL    HW1 7028   6.919   3.642   3.799
 2043SOL    HW2 7029   6.792   3.679   3.896
 2044SOL     OW 7030   6.250   6.795   1.592
 2044SOL    HW1 7031   6.267   6.752   1.503
 2044SOL    HW2 7032   6.171   6.752   1.636
 2045SOL     OW 7033   2.783   4.921   3.946
 2045SOL    HW1 7034   2.871   4.941   3.902
 2045SOL    HW2 7035   2.781   4.825   3.973
 2046SOL     OW 7036   6.584   2.287   4.287
 2046SOL    HW1 7037   6.635   2.303   4.371
 2046SOL    HW2 7038   6.593   2.191   4.260
 2047SOL     OW 7039   6.465   1.735   6.762
 2047SOL    HW1 7040   6.554   1.718   6.803
 2047SOL    HW2 7041   6.434   1.653   6.714
 2048SOL     OW 7042   1.534   6.371   6.257
 2048SOL    HW1 7043   1.498   6.433   6.188
 2048SOL    HW2 7044   1.521   6.277   6.227
 2049SOL     OW 7045   5.881   1.531   5.614
 2049SOL    HW1 7046   5.786   1.551   5.589
 2049SOL    HW2 7047   5.895   1.432   5.613
 2050SOL     OW 7048   6.752   3.032   4.120
 2050SOL    HW1 7049   6.679   3.093   4.153
 2050SOL    HW2 7050   6.762   3.043   4.021
 2051SOL     OW 7051   0.987   5.654   0.530
 2051SOL    HW1 7052   0.889   5.670   0.523
 2051SOL    HW2 7053   1.009   5.564   0.492
 2052SOL     OW 7054   1.682   3.947   1.072
 2052SOL    HW1 7055   1.706   3.903   1.159
 2052SOL    HW2 7056   1.740   4.027   1.058
 2053SOL     OW 7057   5.694   6.434   4.684
 2053SOL    HW1 7058   5.727   6.400   4.596
 2053SOL    HW2 7059   5.654   6.359   4.737
 2054SOL     OW 7060   3.458   3.942   2.883
 2054SOL    HW1 7061   3.401   3.958   2.802
 2054SOL    HW2 7062   3.400   3.942   2.965
 2055SOL     OW 7063   5.862   3.498   3.190
 2055SOL    HW1 7064   5.762   3.507   3.190
 2055SOL    HW2 7065   5.903   3.587   3.208
 2056SOL     OW 7066   3.355   6.179   2.897
 2056SOL    HW1 7067   3.397   6.268   2.881
 2056SOL    HW2 7068   3.420   6.106   2.874
 2057SOL     OW 7069   5.535   4.166   5.051
 2057SOL    HW1 7070   5.592   4.118   4.985
 2057SOL    HW2 7071   5.449   4.117   5.063
 2058SOL     OW 7072   0.431   1.708   3.108
 2058SOL    HW1 7073   0.473   1.621   3.132
 2058SOL    HW2 7074   0.357   1.728   3.172
 2059SOL     OW 7075   1.562   5.697   6.581
 2059SOL    HW1 7076   1.601   5.785   6.554
 2059SOL    HW2 7077   1.470   5.711   6.617
 2060SOL     OW 7078   0.247   4.286   1.369
 2060SOL    HW1 7079   0.278   4.289   1.274
 2060SOL    HW2 7080   0.163   4.339   1.378
 2061SOL     OW 7081   0.253   2.018   3.616
 2061SOL    HW1 7082   0.278   2.006   3.519
 2061SOL    HW2 7083   0.154   2.029   3.624
 2062SOL     OW 7084   6.234   6.481   3.815
 2062SOL    HW1 7085   6.305   6.462   3.883
 2062SOL    HW2 7086   6.275   6.482   3.724
 2063SOL     OW 7087   1.983   0.357   6.330
 2063SOL    HW1 7088   1.968   0.265   6.295
 2063SOL    HW2 7089   1.926   0.421   6.279
 2064SOL     OW 7090   1.234   2.370   5.234
 2064SOL    HW1 7091   1.257   2.454   5.283
 2064SOL    HW2 7092   1.306   2.302   5.250
 2065SOL     OW 7093   6.321   2.240   5.412
 2065SOL    HW1 7094   6.263   2.296   5.353
 2065SOL    HW2 7095   6.328   2.283   5.502
 2066SOL     OW 7096   0.625   4.802   4.258
 2066SOL    HW1 7097   0.578   4.863   4.194
 2066SOL    HW2 7098   0.701   4.757   4.212
 2067SOL     OW 7099   6.312   4.712   1.183
 2067SOL    HW1 7100   6.213   4.710   1.171
 2067SOL    HW2 7101   6.335   4.759   1.269
 2068SOL     OW 7102   1.713   1.064   4.517
 2068SOL    HW1 7103   1.779   1.087   4.445
 2068SOL    HW2 7104   1.658   0.985   4.488
 2069SOL     OW 7105   0.202   2.654   3.907
 2069SOL    HW1 7106   0.255   2.703   3.838
 2069SOL    HW2 7107   0.185   2.561   3.876
 2070SOL     OW 7108   1.116   1.169   1.684
 2070SOL    HW1 7109   1.044   1.101   1.669
 2070SOL    HW2 7110   1.137   1.215   1.598
 2071SOL     OW 7111   6.509   6.211   6.059
 2071SOL    HW1 7112   6.497   6.304   6.025
 2071SOL    HW2 7113   6.581   6.210   6.128
 2072SOL     OW 7114   4.236   5.975   4.086
 2072SOL    HW1 7115   4.320   5.935   4.050
 2072SOL    HW2 7116   4.170   5.985   4.011
 2073SOL     OW 7117   3.903   7.015   4.672
 2073SOL    HW1 7118   3.814   7.005   4.716
 2073SOL    HW2 7119   3.943   6.924   4.656
 2074SOL     OW 7120   1.730   2.737   6.916
 2074SOL    HW1 7121   1.662   2.786   6.969
 2074SOL    HW2 7122   1.809   2.796   6.901
 2075SOL     OW 7123   6.158   3.327   2.546
 2075SOL    HW1 7124   6.227   3.343   2.475
 2075SOL    HW2 7125   6.190   3.365   2.633
 2076SOL     OW 7126   5.989   0.003   6.973
 2076SOL    HW1 7127   6.047   0.078   6.939
 2076SOL    HW2 7128   6.030   6.983   0.038
 2077SOL     OW 7129   5.382   2.778   2.917
 2077SOL    HW1 7130   5.402   2.684   2.888
 2077SOL    HW2 7131   5.420   2.792   3.008
 2078SOL     OW 7132   1.286   6.100   6.124
 2078SOL    HW1 7133   1.281   6.131   6.029
 2078SOL    HW2 7134   1.194   6.098   6.164
 2079SOL     OW 7135   5.524   2.473   3.476
 2079SOL    HW1 7136   5.595   2.541   3.455
 2079SOL    HW2 7137   5.519   2.406   3.402
 2080SOL     OW 7138   1.353   6.744   4.941
 2080SOL    HW1 7139   1.292   6.732   5.019
 2080SOL    HW2 7140   1.351   6.840   4.912
 2081SOL     OW 7141   1.467   5.042   4.414
 2081SOL    HW1 7142   1.545   5.009   4.361
 2081SOL    HW2 7143   1.500   5.100   4.489
 2082SOL     OW 7144   0.606   0.191   3.062
 2082SOL    HW1 7145   0.572   0.236   3.145
 2082SOL    HW2 7146   0.655   0.108   3.087
 2083SOL     OW 7147   6.599   4.686   6.172
 2083SOL    HW1 7148   6.599   4.586   6.176
 2083SOL    HW2 7149   6.691   4.720   6.192
 2084SOL     OW 7150   1.088   3.636   3.289
 2084SOL    HW1 7151   0.996   3.600   3.280
 2084SOL    HW2 7152   1.153   3.561   3.296
 2085SOL     OW 7153   4.475   0.242   6.892
 2085SOL    HW1 7154   4.494   0.340   6.879
 2085SOL    HW2 7155   4.388   0.232   6.939
 2086SOL     OW 7156   4.438   5.897   5.624
 2086SOL    HW1 7157   4.473   5.991   5.623
 2086SOL    HW2 7158   4.440   5.860   5.531
 2087SOL     OW 7159   5.255   0.862   1.366
 2087SOL    HW1 7160   5.296   0.821   1.285
 2087SOL    HW2 7161   5.325   0.877   1.435
 2088SOL     OW 7162   1.499   6.049   0.279
 2088SOL    HW1 7163   1.459   6.064   0.370
 2088SOL    HW2 7164   1.524   6.137   0.239
 2089SOL     OW 7165   5.299   2.023   6.688
 2089SOL    HW1 7166   5.338   2.113   6.666
 2089SOL    HW2 7167   5.333   1.993   6.777
 2090SOL     OW 7168   4.120   3.412   5.597
 2090SOL    HW1 7169   4.101   3.467   5.516
 2090SOL    HW2 7170   4.108   3.467   5.679
 2091SOL     OW 7171   6.910   5.456   1.100
 2091SOL    HW1 7172   6.883   5.393   1.173
 2091SOL    HW2 7173   6.834   5.519   1.082
 2092SOL     OW 7174   5.082   3.763   0.121
 2092SOL    HW1 7175   5.152   3.741   0.053
 2092SOL    HW2 7176   4.993   3.775   0.076
 2093SOL     OW 7177   2.837   2.267   1.606
 2093SOL    HW1 7178   2.834   2.361   1.640
 2093SOL    HW2 7179   2.857   2.205   1.681
 2094SOL     OW 7180   5.528   1.714   3.067
 2094SOL    HW1 7181   5.621   1.684   3.045
 2094SOL    HW2 7182   5.513   1.706   3.166
 2095SOL     OW 7183   6.084   6.463   5.293
 2095SOL    HW1 7184   6.020   6.392   5.322
 2095SOL    HW2 7185   6.173   6.422   5.273
 2096SOL     OW 7186   4.836   3.675   2.713
 2096SOL    HW1 7187   4.869   3.628   2.632
 2096SOL    HW2 7188   4.823   3.609   2.788
 2097SOL     OW 7189   3.150   3.705   6.654
 2097SOL    HW1 7190   3.172   3.797   6.689
 2097SOL    HW2 7191   3.125   3.646   6.731
 2098SOL     OW 7192   3.629   6.040   1.754
 2098SOL    HW1 7193   3.620   5.952   1.707
 2098SOL    HW2 7194   3.626   6.025   1.852
 2099SOL     OW 7195   3.088   2.952   6.408
 2099SOL    HW1 7196   3.096   2.881   6.338
 2099SOL    HW2 7197   3.005   3.005   6.392
 2100SOL     OW 7198   5.428   2.258   6.670
 2100SOL    HW1 7199   5.520   2.238   6.704
 2100SOL    HW2 7200   5.429   2.345   6.621
 2101SOL     OW 7201   1.523   6.876   1.591
 2101SOL    HW1 7202   1.609   6.920   1.564
 2101SOL    HW2 7203   1.467   6.941   1.642
 2102SOL     OW 7204   5.586   4.867   2.945
 2102SOL    HW1 7205   5.507   4.892   2.889
 2102SOL    HW2 7206   5.612   4.944   3.003
 2103SOL     OW 7207   3.729   4.422   6.288
 2103SOL    HW1 7208   3.762   4.465   6.371
 2103SOL    HW2 7209   3.649   4.473   6.254
 2104SOL     OW 7210   1.673   4.573   1.541
 2104SOL    HW1 7211   1.737   4.603   1.471
 2104SOL    HW2 7212   1.646   4.652   1.598
 2105SOL     OW 7213   5.787   5.429   5.038
 2105SOL    HW1 7214   5.780   5.404   4.941
 2105SOL    HW2 7215   5.818   5.351   5.091
 2106SOL     OW 7216   4.875   4.173   0.859
 2106SOL    HW1 7217   4.803   4.196   0.793
 2106SOL    HW2 7218   4.882   4.074   0.868
 2107SOL     OW 7219   5.642   2.867   5.543
 2107SOL    HW1 7220   5.571   2.831   5.483
 2107SOL    HW2 7221   5.610   2.953   5.584
 2108SOL     OW 7222   6.500   5.494   4.549
 2108SOL    HW1 7223   6.485   5.433   4.627
 2108SOL    HW2 7224   6.538   5.580   4.582
 2109SOL     OW 7225   4.259   5.985   2.292
 2109SOL    HW1 7226   4.198   6.063   2.284
 2109SOL    HW2 7227   4.253   5.947   2.385
 2110SOL     OW 7228   1.941   1.868   0.111
 2110SOL    HW1 7229   1.914   1.903   0.200
 2110SOL    HW2 7230   2.040   1.874   0.101
 2111SOL     OW 7231   1.848   2.483   6.659
 2111SOL    HW1 7232   1.785   2.531   6.598
 2111SOL    HW2 7233   1.911   2.549   6.700
 2112SOL     OW 7234   5.676   3.067   0.380
 2112SOL    HW1 7235   5.693   3.010   0.461
 2112SOL    HW2 7236   5.578   3.085   0.372
 2113SOL     OW 7237   2.559   1.792   4.438
 2113SOL    HW1 7238   2.588   1.708   4.483
 2113SOL    HW2 7239   2.568   1.869   4.501
 2114SOL     OW 7240   1.875   1.967   6.209
 2114SOL    HW1 7241   1.940   1.984   6.283
 2114SOL    HW2 7242   1.782   1.971   6.244
 2115SOL     OW 7243   1.700   4.081   3.178
 2115SOL    HW1 7244   1.670   3.987   3.161
 2115SOL    HW2 7245   1.745   4.085   3.268
 2116SOL     OW 7246   0.883   5.116   3.203
 2116SOL    HW1 7247   0.922   5.063   3.279
 2116SOL    HW2 7248   0.862   5.055   3.127
 2117SOL     OW 7249   6.964   4.579   1.998
 2117SOL    HW1 7250   6.980   4.565   1.900
 2117SOL    HW2 7251   0.034   4.589   2.045
 2118SOL     OW 7252   6.406   2.997   2.939
 2118SOL    HW1 7253   6.362   2.917   2.978
 2118SOL    HW2 7254   6.390   3.000   2.840
 2119SOL     OW 7255   1.235   0.342   1.096
 2119SOL    HW1 7256   1.259   0.286   1.176
 2119SOL    HW2 7257   1.208   0.433   1.127
 2120SOL     OW 7258   0.495   4.910   3.033
 2120SOL    HW1 7259   0.496   4.816   2.998
 2120SOL    HW2 7260   0.413   4.957   3.000
 2121SOL     OW 7261   1.601   4.138   6.579
 2121SOL    HW1 7262   1.637   4.102   6.492
 2121SOL    HW2 7263   1.675   4.184   6.629
 2122SOL     OW 7264   5.562   4.044   6.214
 2122SOL    HW1 7265   5.591   4.097   6.135
 2122SOL    HW2 7266   5.642   4.007   6.261
 2123SOL     OW 7267   6.792   5.048   2.378
 2123SOL    HW1 7268   6.695   5.029   2.365
 2123SOL    HW2 7269   6.806   5.090   2.468
 2124SOL     OW 7270   3.099   2.335   1.236
 2124SOL    HW1 7271   3.142   2.416   1.196
 2124SOL    HW2 7272   3.169   2.279   1.281
 2125SOL     OW 7273   1.985   0.777   2.639
 2125SOL    HW1 7274   1.986   0.795   2.541
 2125SOL    HW2 7275   1.997   0.862   2.689
 2126SOL     OW 7276   3.657   2.322   6.476
 2126SOL    HW1 7277   3.719   2.328   6.398
 2126SOL    HW2 7278   3.693   2.379   6.551
 2127SOL     OW 7279   0.964   2.277   5.429
 2127SOL    HW1 7280   1.041   2.333   5.460
 2127SOL    HW2 7281   0.947   2.204   5.496
 2128SOL     OW 7282   6.296   3.462   4.256
 2128SOL    HW1 7283   6.372   3.485   4.317
 2128SOL    HW2 7284   6.331   3.408   4.179
 2129SOL     OW 7285   4.453   3.125   5.335
 2129SOL    HW1 7286   4.362   3.108   5.297
 2129SOL    HW2 7287   4.453   3.211   5.387
 2130SOL     OW 7288   3.979   0.303   3.234
 2130SOL    HW1 7289   4.063   0.261   3.199
 2130SOL    HW2 7290   3.984   0.310   3.334
 2131SOL     OW 7291   4.687   1.610   6.909
 2131SOL    HW1 7292   4.644   1.676   6.970
 2131SOL    HW2 7293   4.723   1.657   6.828
 2132SOL     OW 7294   3.651   0.535   0.610
 2132SOL    HW1 7295   3.633   0.526   0.708
 2132SOL    HW2 7296   3.594   0.470   0.560
 2133SOL     OW 7297   3.499   3.167   0.836
 2133SOL    HW1 7298   3.401   3.165   0.817
 2133SOL    HW2 7299   3.514   3.189   0.932
 2134SOL     OW 7300   0.487   0.572   5.648
 2134SOL    HW1 7301   0.548   0.541   5.574
 2134SOL    HW2 7302   0.394   0.581   5.613
 2135SOL     OW 7303   1.711   3.063   5.503
 2135SOL    HW1 7304   1.614   3.047   5.520
 2135SOL    HW2 7305   1.751   3.112   5.581
 2136SOL     OW 7306   0.859   4.139   4.296
 2136SOL    HW1 7307   0.779   4.197   4.275
 2136SOL    HW2 7308   0.877   4.078   4.219
 2137SOL     OW 7309   1.558   5.437   4.320
 2137SOL    HW1 7310   1.483   5.486   4.364
 2137SOL    HW2 7311   1.530   5.343   4.301
 2138SOL     OW 7312   6.850   0.935   2.554
 2138SOL    HW1 7313   6.819   0.854   2.505
 2138SOL    HW2 7314   6.797   1.014   2.526
 2139SOL     OW 7315   3.579   0.835   3.120
 2139SOL    HW1 7316   3.547   0.745   3.091
 2139SOL    HW2 7317   3.663   0.858   3.070
 2140SOL     OW 7318   3.840   6.243   3.991
 2140SOL    HW1 7319   3.911   6.308   4.014
 2140SOL    HW2 7320   3.770   6.242   4.062
 2141SOL     OW 7321   6.136   4.317   2.381
 2141SOL    HW1 7322   6.153   4.291   2.476
 2141SOL    HW2 7323   6.160   4.413   2.368
 2142SOL     OW 7324   1.131   2.334   3.219
 2142SOL    HW1 7325   1.038   2.350   3.186
 2142SOL    HW2 7326   1.196   2.369   3.153
 2143SOL     OW 7327   3.159   4.376   1.396
 2143SOL    HW1 7328   3.062   4.380   1.421
 2143SOL    HW2 7329   3.169   4.394   1.298
 2144SOL     OW 7330   1.293   5.283   3.924
 2144SOL    HW1 7331   1.217   5.304   3.985
 2144SOL    HW2 7332   1.261   5.230   3.846
 2145SOL     OW 7333   4.219   5.954   4.371
 2145SOL    HW1 7334   4.220   5.987   4.276
 2145SOL    HW2 7335   4.270   6.017   4.429
 2146SOL     OW 7336   2.733   3.589   1.562
 2146SOL    HW1 7337   2.827   3.571   1.589
 2146SOL    HW2 7338   2.671   3.527   1.610
 2147SOL     OW 7339   6.908   1.554   6.078
 2147SOL    HW1 7340   6.839   1.512   6.019
 2147SOL    HW2 7341   6.874   1.642   6.112
 2148SOL     OW 7342   5.297   1.857   5.754
 2148SOL    HW1 7343   5.227   1.788   5.736
 2148SOL    HW2 7344   5.351   1.872   5.672
 2149SOL     OW 7345   3.256   2.526   1.125
 2149SOL    HW1 7346   3.267   2.614   1.077
 2149SOL    HW2 7347   3.336   2.509   1.183
 2150SOL     OW 7348   3.078   1.736   2.381
 2150SOL    HW1 7349   3.060   1.660   2.443
 2150SOL    HW2 7350   2.994   1.759   2.331
 2151SOL     OW 7351   1.747   0.837   4.803
 2151SOL    HW1 7352   1.669   0.793   4.758
 2151SOL    HW2 7353   1.740   0.936   4.791
 2152SOL     OW 7354   3.925   5.824   1.361
 2152SOL    HW1 7355   3.847   5.760   1.366
 2152SOL    HW2 7356   3.918   5.891   1.435
 2153SOL     OW 7357   3.753   0.485   3.478
 2153SOL    HW1 7358   3.825   0.462   3.544
 2153SOL    HW2 7359   3.723   0.401   3.432
 2154SOL     OW 7360   4.835   6.970   4.817
 2154SOL    HW1 7361   4.920   6.918   4.822
 2154SOL    HW2 7362   4.855   0.049   4.830
 2155SOL     OW 7363   1.952   6.157   0.074
 2155SOL    HW1 7364   1.975   6.191   0.165
 2155SOL    HW2 7365   1.889   6.220   0.030
 2156SOL     OW 7366   2.947   1.077   4.741
 2156SOL    HW1 7367   3.003   1.136   4.799
 2156SOL    HW2 7368   2.991   1.068   4.651
 2157SOL     OW 7369   6.182   1.188   3.824
 2157SOL    HW1 7370   6.089   1.150   3.828
 2157SOL    HW2 7371   6.243   1.122   3.779
 2158SOL     OW 7372   4.397   6.115   0.945
 2158SOL    HW1 7373   4.473   6.095   0.884
 2158SOL    HW2 7374   4.323   6.049   0.929
 2159SOL     OW 7375   1.914   6.485   5.660
 2159SOL    HW1 7376   1.931   6.573   5.705
 2159SOL    HW2 7377   1.875   6.421   5.726
 2160SOL     OW 7378   3.753   4.013   0.617
 2160SOL    HW1 7379   3.716   3.949   0.548
 2160SOL    HW2 7380   3.775   3.963   0.700
 2161SOL     OW 7381   5.224   4.394   3.323
 2161SOL    HW1 7382   5.266   4.319   3.273
 2161SOL    HW2 7383   5.234   4.479   3.271
 2162SOL     OW 7384   2.364   0.967   1.477
 2162SOL    HW1 7385   2.401   1.042   1.422
 2162SOL    HW2 7386   2.434   0.937   1.542
 2163SOL     OW 7387   0.662   4.442   6.684
 2163SOL    HW1 7388   0.744   4.386   6.689
 2163SOL    HW2 7389   0.686   4.538   6.694
 2164SOL     OW 7390   1.326   3.443   6.894
 2164SOL    HW1 7391   1.255   3.399   6.949
 2164SOL    HW2 7392   1.303   3.539   6.881
 2165SOL     OW 7393   0.299   2.482   2.943
 2165SOL    HW1 7394   0.387   2.477   2.896
 2165SOL    HW2 7395   0.260   2.573   2.932
 2166SOL     OW 7396   1.315   2.434   4.729
 2166SOL    HW1 7397   1.341   2.521   4.686
 2166SOL    HW2 7398   1.238   2.449   4.791
 2167SOL     OW 7399   1.608   1.779   3.625
 2167SOL    HW1 7400   1.623   1.702   3.688
 2167SOL    HW2 7401   1.516   1.816   3.639
 2168SOL     OW 7402   0.602   1.968   3.943
 2168SOL    HW1 7403   0.693   2.003   3.963
 2168SOL    HW2 7404   0.607   1.868   3.932
 2169SOL     OW 7405   5.351   1.800   6.019
 2169SOL    HW1 7406   5.256   1.773   6.028
 2169SOL    HW2 7407   5.367   1.839   5.928
 2170SOL     OW 7408   6.817   5.223   5.555
 2170SOL    HW1 7409   6.787   5.140   5.508
 2170SOL    HW2 7410   6.752   5.246   5.627
 2171SOL     OW 7411   0.511   3.630   1.858
 2171SOL    HW1 7412   0.572   3.612   1.936
 2171SOL    HW2 7413   0.523   3.724   1.829
 2172SOL     OW 7414   2.945   2.485   0.442
 2172SOL    HW1 7415   2.898   2.399   0.427
 2172SOL    HW2 7416   2.918   2.551   0.371
 2173SOL     OW 7417   3.768   0.510   4.453
 2173SOL    HW1 7418   3.744   0.598   4.413
 2173SOL    HW2 7419   3.838   0.523   4.523
 2174SOL     OW 7420   5.603   5.594   5.412
 2174SOL    HW1 7421   5.678   5.655   5.441
 2174SOL    HW2 7422   5.539   5.582   5.488
 2175SOL     OW 7423   2.038   2.928   4.452
 2175SOL    HW1 7424   1.970   2.959   4.519
 2175SOL    HW2 7425   2.119   2.894   4.501
 2176SOL     OW 7426   1.141   2.818   0.379
 2176SOL    HW1 7427   1.126   2.783   0.286
 2176SOL    HW2 7428   1.059   2.804   0.433
 2177SOL     OW 7429   5.978   1.495   3.681
 2177SOL    HW1 7430   5.949   1.436   3.605
 2177SOL    HW2 7431   6.077   1.492   3.690
 2178SOL     OW 7432   1.223   3.613   0.261
 2178SOL    HW1 7433   1.319   3.636   0.270
 2178SOL    HW2 7434   1.214   3.521   0.222
 2179SOL     OW 7435   1.655   5.558   4.808
 2179SOL    HW1 7436   1.693   5.594   4.893
 2179SOL    HW2 7437   1.722   5.566   4.734
 2180SOL     OW 7438   2.361   2.805   1.859
 2180SOL    HW1 7439   2.298   2.853   1.920
 2180SOL    HW2 7440   2.357   2.847   1.768
 2181SOL     OW 7441   4.225   4.992   5.179
 2181SOL    HW1 7442   4.170   5.043   5.245
 2181SOL    HW2 7443   4.171   4.917   5.142
 2182SOL     OW 7444   0.965   3.219   4.392
 2182SOL    HW1 7445   0.904   3.292   4.420
 2182SOL    HW2 7446   1.045   3.257   4.345
 2183SOL     OW 7447   2.607   4.237   5.978
 2183SOL    HW1 7448   2.520   4.189   5.990
 2183SOL    HW2 7449   2.589   4.336   5.969
 2184SOL     OW 7450   4.593   2.013   6.948
 2184SOL    HW1 7451   4.683   2.036   6.911
 2184SOL    HW2 7452   4.533   1.984   6.874
 2185SOL     OW 7453   1.577   2.181   1.122
 2185SOL    HW1 7454   1.594   2.125   1.041
 2185SOL    HW2 7455   1.501   2.142   1.174
 2186SOL     OW 7456   0.286   5.303   2.006
 2186SOL    HW1 7457   0.219   5.244   2.051
 2186SOL    HW2 7458   0.362   5.247   1.972
 2187SOL     OW 7459   6.568   1.202   2.646
 2187SOL    HW1 7460   6.659   1.221   2.609
 2187SOL    HW2 7461   6.544   1.273   2.712
 2188SOL     OW 7462   5.738   6.110   4.943
 2188SOL    HW1 7463   5.658   6.164   4.972
 2188SOL    HW2 7464   5.737   6.099   4.844
 2189SOL     OW 7465   1.894   0.231   0.527
 2189SOL    HW1 7466   1.969   0.276   0.478
 2189SOL    HW2 7467   1.817   0.295   0.534
 2190SOL     OW 7468   0.450   2.688   2.007
 2190SOL    HW1 7469   0.457   2.626   1.929
 2190SOL    HW2 7470   0.455   2.636   2.092
 2191SOL     OW 7471   2.813   1.858   6.594
 2191SOL    HW1 7472   2.779   1.824   6.682
 2191SOL    HW2 7473   2.836   1.781   6.535
 2192SOL     OW 7474   3.999   1.205   2.996
 2192SOL    HW1 7475   3.909   1.238   3.024
 2192SOL    HW2 7476   4.066   1.279   3.007
 2193SOL     OW 7477   6.839   5.527   5.782
 2193SOL    HW1 7478   6.801   5.583   5.709
 2193SOL    HW2 7479   6.912   5.578   5.829
 2194SOL     OW 7480   2.519   4.902   6.613
 2194SOL    HW1 7481   2.439   4.868   6.564
 2194SOL    HW2 7482   2.489   4.955   6.693
 2195SOL     OW 7483   6.996   0.414   3.689
 2195SOL    HW1 7484   6.931   0.472   3.640
 2195SOL    HW2 7485   0.046   0.379   3.624
 2196SOL     OW 7486   3.120   0.371   4.827
 2196SOL    HW1 7487   3.149   0.442   4.762
 2196SOL    HW2 7488   3.190   0.300   4.832
 2197SOL     OW 7489   3.198   3.790   0.968
 2197SOL    HW1 7490   3.164   3.715   1.025
 2197SOL    HW2 7491   3.166   3.778   0.874
 2198SOL     OW 7492   6.476   1.329   0.103
 2198SOL    HW1 7493   6.566   1.364   0.079
 2198SOL    HW2 7494   6.435   1.386   0.174
 2199SOL     OW 7495   5.472   1.145   3.293
 2199SOL    HW1 7496   5.404   1.082   3.256
 2199SOL    HW2 7497   5.548   1.093   3.331
 2200SOL     OW 7498   2.920   0.240   4.650
 2200SOL    HW1 7499   2.897   0.202   4.740
 2200SOL    HW2 7500   3.000   0.299   4.659
 2201SOL     OW 7501   6.262   2.694   3.506
 2201SOL    HW1 7502   6.328   2.706   3.581
 2201SOL    HW2 7503   6.282   2.760   3.434
 2202SOL     OW 7504   2.809   4.810   2.456
 2202SOL    HW1 7505   2.712   4.833   2.463
 2202SOL    HW2 7506   2.836   4.807   2.360
 2203SOL     OW 7507   2.156   2.888   1.420
 2203SOL    HW1 7508   2.189   2.950   1.349
 2203SOL    HW2 7509   2.095   2.820   1.380
 2204SOL     OW 7510   4.365   0.939   0.190
 2204SOL    HW1 7511   4.423   0.944   0.272
 2204SOL    HW2 7512   4.421   0.915   0.111
 2205SOL     OW 7513   1.380   0.267   5.608
 2205SOL    HW1 7514   1.396   0.258   5.706
 2205SOL    HW2 7515   1.453   0.324   5.568
 2206SOL     OW 7516   2.924   4.439   6.309
 2206SOL    HW1 7517   2.903   4.512   6.244
 2206SOL    HW2 7518   3.017   4.450   6.344
 2207SOL     OW 7519   3.339   4.579   6.887
 2207SOL    HW1 7520   3.394   4.559   6.968
 2207SOL    HW2 7521   3.377   4.530   6.809
 2208SOL     OW 7522   1.637   6.002   2.078
 2208SOL    HW1 7523   1.646   5.926   2.014
 2208SOL    HW2 7524   1.682   6.083   2.040
 2209SOL     OW 7525   1.794   6.176   5.573
 2209SOL    HW1 7526   1.800   6.222   5.663
 2209SOL    HW2 7527   1.807   6.078   5.585
 2210SOL     OW 7528   6.555   5.238   4.092
 2210SOL    HW1 7529   6.565   5.170   4.020
 2210SOL    HW2 7530   6.465   5.228   4.135
 2211SOL     OW 7531   5.148   0.517   6.945
 2211SOL    HW1 7532   5.240   0.495   6.914
 2211SOL    HW2 7533   5.154   0.578   0.006
 2212SOL     OW 7534   1.806   6.327   6.920
 2212SOL    HW1 7535   1.725   6.290   6.874
 2212SOL    HW2 7536   1.780   6.408   6.973
 2213SOL     OW 7537   3.700   2.878   5.208
 2213SOL    HW1 7538   3.609   2.846   5.181
 2213SOL    HW2 7539   3.691   2.941   5.285
 2214SOL     OW 7540   3.867   3.069   5.029
 2214SOL    HW1 7541   3.875   3.166   5.054
 2214SOL    HW2 7542   3.804   3.023   5.092
 2215SOL     OW 7543   6.638   2.042   6.981
 2215SOL    HW1 7544   6.545   2.048   7.018
 2215SOL    HW2 7545   6.701   2.092   0.024
 2216SOL     OW 7546   1.830   0.434   5.771
 2216SOL    HW1 7547   1.917   0.389   5.750
 2216SOL    HW2 7548   1.762   0.409   5.702
 2217SOL     OW 7549   3.770   6.803   1.596
 2217SOL    HW1 7550   3.776   6.790   1.694
 2217SOL    HW2 7551   3.682   6.768   1.563
 2218SOL     OW 7552   0.783   0.195   0.441
 2218SOL    HW1 7553   0.811   0.127   0.374
 2218SOL    HW2 7554   0.864   0.230   0.488
 2219SOL     OW 7555   6.147   2.163   2.218
 2219SOL    HW1 7556   6.208   2.218   2.274
 2219SOL    HW2 7557   6.182   2.069   2.211
 2220SOL     OW 7558   1.458   6.989   4.151
 2220SOL    HW1 7559   1.360   6.968   4.153
 2220SOL    HW2 7560   1.475   0.054   4.204
 2221SOL     OW 7561   6.055   0.784   5.163
 2221SOL    HW1 7562   6.124   0.845   5.126
 2221SOL    HW2 7563   5.977   0.837   5.196
 2222SOL     OW 7564   4.386   0.149   0.840
 2222SOL    HW1 7565   4.383   0.235   0.789
 2222SOL    HW2 7566   4.346   0.076   0.785
 2223SOL     OW 7567   6.001   0.541   4.578
 2223SOL    HW1 7568   5.920   0.599   4.580
 2223SOL    HW2 7569   6.008   0.491   4.665
 2224SOL     OW 7570   1.863   4.327   1.234
 2224SOL    HW1 7571   1.898   4.256   1.295
 2224SOL    HW2 7572   1.934   4.396   1.219
 2225SOL     OW 7573   6.311   6.423   2.879
 2225SOL    HW1 7574   6.243   6.421   2.953
 2225SOL    HW2 7575   6.277   6.370   2.801
 2226SOL     OW 7576   3.850   4.912   0.974
 2226SOL    HW1 7577   3.895   4.834   0.931
 2226SOL    HW2 7578   3.762   4.929   0.929
 2227SOL     OW 7579   5.701   3.790   0.823
 2227SOL    HW1 7580   5.670   3.695   0.831
 2227SOL    HW2 7581   5.778   3.804   0.886
 2228SOL     OW 7582   2.677   5.028   1.237
 2228SOL    HW1 7583   2.703   5.121   1.263
 2228SOL    HW2 7584   2.608   4.994   1.301
 2229SOL     OW 7585   4.330   1.389   4.496
 2229SOL    HW1 7586   4.367   1.442   4.419
 2229SOL    HW2 7587   4.234   1.370   4.480
 2230SOL     OW 7588   6.154   5.574   6.130
 2230SOL    HW1 7589   6.126   5.580   6.225
 2230SOL    HW2 7590   6.110   5.647   6.077
 2231SOL     OW 7591   0.476   0.641   2.284
 2231SOL    HW1 7592   0.392   0.614   2.332
 2231SOL    HW2 7593   0.453   0.684   2.197
 2232SOL     OW 7594   0.599   3.206   4.959
 2232SOL    HW1 7595   0.659   3.285   4.969
 2232SOL    HW2 7596   0.634   3.130   5.014
 2233SOL     OW 7597   2.684   4.414   1.285
 2233SOL    HW1 7598   2.710   4.506   1.315
 2233SOL    HW2 7599   2.686   4.409   1.186
 2234SOL     OW 7600   4.181   2.266   2.041
 2234SOL    HW1 7601   4.097   2.220   2.011
 2234SOL    HW2 7602   4.207   2.335   1.974
 2235SOL     OW 7603   2.246   0.710   1.414
 2235SOL    HW1 7604   2.197   0.792   1.444
 2235SOL    HW2 7605   2.332   0.736   1.372
 2236SOL     OW 7606   0.900   4.415   6.484
 2236SOL    HW1 7607   0.854   4.503   6.494
 2236SOL    HW2 7608   0.896   4.365   6.571
 2237SOL     OW 7609   5.340   4.963   4.012
 2237SOL    HW1 7610   5.264   4.979   4.075
 2237SOL    HW2 7611   5.327   5.017   3.929
 2238SOL     OW 7612   5.297   4.524   0.943
 2238SOL    HW1 7613   5.388   4.502   0.908
 2238SOL    HW2 7614   5.238   4.444   0.936
 2239SOL     OW 7615   3.195   5.002   3.046
 2239SOL    HW1 7616   3.155   4.922   3.000
 2239SOL    HW2 7617   3.191   4.989   3.145
 2240SOL     OW 7618   4.934   6.032   3.534
 2240SOL    HW1 7619   4.837   6.015   3.545
 2240SOL    HW2 7620   4.960   6.018   3.438
 2241SOL     OW 7621   0.174   0.035   2.577
 2241SOL    HW1 7622   0.213   0.110   2.524
 2241SOL    HW2 7623   0.184   0.055   2.675
 2242SOL     OW 7624   4.926   1.443   3.004
 2242SOL    HW1 7625   4.852   1.508   3.018
 2242SOL    HW2 7626   4.893   1.365   2.950
 2243SOL     OW 7627   2.861   6.125   5.497
 2243SOL    HW1 7628   2.817   6.037   5.513
 2243SOL    HW2 7629   2.825   6.166   5.413
 2244SOL     OW 7630   2.293   6.423   2.147
 2244SOL    HW1 7631   2.287   6.488   2.072
 2244SOL    HW2 7632   2.201   6.402   2.181
 2245SOL     OW 7633   0.701   2.038   2.219
 2245SOL    HW1 7634   0.747   2.125   2.200
 2245SOL    HW2 7635   0.611   2.038   2.174
 2246SOL     OW 7636   1.066   1.264   5.873
 2246SOL    HW1 7637   0.981   1.254   5.821
 2246SOL    HW2 7638   1.048   1.312   5.958
 2247SOL     OW 7639   2.958   3.098   5.167
 2247SOL    HW1 7640   2.965   3.190   5.128
 2247SOL    HW2 7641   2.868   3.087   5.210
 2248SOL     OW 7642   3.653   4.215   5.753
 2248SOL    HW1 7643   3.752   4.224   5.767
 2248SOL    HW2 7644   3.634   4.129   5.705
 2249SOL     OW 7645   6.223   6.716   2.750
 2249SOL    HW1 7646   6.166   6.646   2.708
 2249SOL    HW2 7647   6.318   6.684   2.754
 2250SOL     OW 7648   4.196   3.518   0.098
 2250SOL    HW1 7649   4.104   3.547   0.072
 2250SOL    HW2 7650   4.249   3.598   0.125
 2251SOL     OW 7651   5.135   1.112   0.146
 2251SOL    HW1 7652   5.081   1.103   0.229
 2251SOL    HW2 7653   5.105   1.044   0.079
 2252SOL     OW 7654   5.488   2.505   2.918
 2252SOL    HW1 7655   5.421   2.435   2.945
 2252SOL    HW2 7656   5.536   2.538   3.000
 2253SOL     OW 7657   1.376   3.748   6.608
 2253SOL    HW1 7658   1.301   3.707   6.555
 2253SOL    HW2 7659   1.353   3.746   6.705
 2254SOL     OW 7660   3.592   3.782   5.198
 2254SOL    HW1 7661   3.669   3.824   5.247
 2254SOL    HW2 7662   3.619   3.764   5.103
 2255SOL     OW 7663   4.993   2.418   6.707
 2255SOL    HW1 7664   5.025   2.442   6.615
 2255SOL    HW2 7665   5.070   2.421   6.771
 2256SOL     OW 7666   4.762   5.988   1.638
 2256SOL    HW1 7667   4.740   5.890   1.645
 2256SOL    HW2 7668   4.731   6.022   1.549
 2257SOL     OW 7669   0.108   1.988   4.342
 2257SOL    HW1 7670   0.201   1.959   4.365
 2257SOL    HW2 7671   0.046   1.962   4.417
 2258SOL     OW 7672   1.265   5.513   5.980
 2258SOL    HW1 7673   1.335   5.446   6.005
 2258SOL    HW2 7674   1.199   5.522   6.054
 2259SOL     OW 7675   5.221   4.077   6.577
 2259SOL    HW1 7676   5.121   4.086   6.576
 2259SOL    HW2 7677   5.261   4.141   6.512
 2260SOL     OW 7678   5.784   4.744   3.309
 2260SOL    HW1 7679   5.774   4.644   3.304
 2260SOL    HW2 7680   5.861   4.772   3.251
 2261SOL     OW 7681   6.590   5.918   0.663
 2261SOL    HW1 7682   6.583   6.008   0.620
 2261SOL    HW2 7683   6.657   5.922   0.737
 2262SOL     OW 7684   5.386   1.528   1.789
 2262SOL    HW1 7685   5.328   1.448   1.772
 2262SOL    HW2 7686   5.421   1.524   1.883
 2263SOL     OW 7687   2.615   5.968   6.779
 2263SOL    HW1 7688   2.674   6.009   6.849
 2263SOL    HW2 7689   2.608   5.869   6.796
 2264SOL     OW 7690   3.364   3.590   0.731
 2264SOL    HW1 7691   3.378   3.495   0.703
 2264SOL    HW2 7692   3.270   3.603   0.763
 2265SOL     OW 7693   0.885   1.027   4.399
 2265SOL    HW1 7694   0.972   1.034   4.448
 2265SOL    HW2 7695   0.880   0.938   4.353
 2266SOL     OW 7696   6.311   2.155   1.325
 2266SOL    HW1 7697   6.281   2.249   1.309
 2266SOL    HW2 7698   6.232   2.097   1.344
 2267SOL     OW 7699   5.305   2.473   4.826
 2267SOL    HW1 7700   5.348   2.457   4.737
 2267SOL    HW2 7701   5.209   2.499   4.812
 2268SOL     OW 7702   6.683   3.805   6.514
 2268SOL    HW1 7703   6.656   3.781   6.607
 2268SOL    HW2 7704   6.641   3.892   6.488
 2269SOL     OW 7705   5.883   5.880   4.989
 2269SOL    HW1 7706   5.847   5.973   4.982
 2269SOL    HW2 7707   5.859   5.828   4.907
 2270SOL     OW 7708   3.602   2.552   6.216
 2270SOL    HW1 7709   3.599   2.610   6.298
 2270SOL    HW2 7710   3.513   2.509   6.202
 2271SOL     OW 7711   6.423   4.617   0.626
 2271SOL    HW1 7712   6.372   4.569   0.554
 2271SOL    HW2 7713   6.386   4.709   0.637
 2272SOL     OW 7714   6.149   1.542   5.482
 2272SOL    HW1 7715   6.058   1.529   5.522
 2272SOL    HW2 7716   6.141   1.605   5.404
 2273SOL     OW 7717   1.659   0.288   2.008
 2273SOL    HW1 7718   1.721   0.228   2.060
 2273SOL    HW2 7719   1.659   0.379   2.049
 2274SOL     OW 7720   1.030   2.968   5.925
 2274SOL    HW1 7721   1.016   2.871   5.945
 2274SOL    HW2 7722   1.074   3.012   6.004
 2275SOL     OW 7723   5.875   0.636   4.095
 2275SOL    HW1 7724   5.778   0.622   4.115
 2275SOL    HW2 7725   5.928   0.559   4.132
 2276SOL     OW 7726   3.212   5.285   1.266
 2276SOL    HW1 7727   3.141   5.353   1.283
 2276SOL    HW2 7728   3.205   5.252   1.172
 2277SOL     OW 7729   3.161   3.328   5.329
 2277SOL    HW1 7730   3.147   3.381   5.413
 2277SOL    HW2 7731   3.093   3.355   5.261
 2278SOL     OW 7732   6.588   5.438   3.900
 2278SOL    HW1 7733   6.613   5.371   3.970
 2278SOL    HW2 7734   6.669   5.491   3.875
 2279SOL     OW 7735   4.593   6.288   4.710
 2279SOL    HW1 7736   4.572   6.383   4.690
 2279SOL    HW2 7737   4.610   6.238   4.625
 2280SOL     OW 7738   0.102   5.974   4.383
 2280SOL    HW1 7739   0.172   5.948   4.451
 2280SOL    HW2 7740   0.026   6.019   4.430
 2281SOL     OW 7741   3.651   1.458   1.172
 2281SOL    HW1 7742   3.690   1.440   1.262
 2281SOL    HW2 7743   3.668   1.381   1.111
 2282SOL     OW 7744   4.617   6.421   5.059
 2282SOL    HW1 7745   4.637   6.334   5.013
 2282SOL    HW2 7746   4.697   6.482   5.051
 2283SOL     OW 7747   6.457   4.320   2.113
 2283SOL    HW1 7748   6.374   4.268   2.131
 2283SOL    HW2 7749   6.512   4.273   2.045
 2284SOL     OW 7750   1.999   2.391   0.187
 2284SOL    HW1 7751   1.924   2.440   0.143
 2284SOL    HW2 7752   1.997   2.407   0.285
 2285SOL     OW 7753   1.829   2.348   0.682
 2285SOL    HW1 7754   1.858   2.385   0.593
 2285SOL    HW2 7755   1.904   2.356   0.747
 2286SOL     OW 7756   0.439   0.002   4.623
 2286SOL    HW1 7757   0.395   0.039   4.541
 2286SOL    HW2 7758   0.391   0.035   4.704
 2287SOL     OW 7759   1.902   1.631   2.890
 2287SOL    HW1 7760   1.951   1.612   2.975
 2287SOL    HW2 7761   1.853   1.717   2.898
 2288SOL     OW 7762   5.821   5.245   4.448
 2288SOL    HW1 7763   5.868   5.324   4.409
 2288SOL    HW2 7764   5.731   5.273   4.483
 2289SOL     OW 7765   6.662   4.362   2.715
 2289SOL    HW1 7766   6.628   4.272   2.688
 2289SOL    HW2 7767   6.759   4.368   2.694
 2290SOL     OW 7768   1.405   3.759   2.179
 2290SOL    HW1 7769   1.334   3.710   2.130
 2290SOL    HW2 7770   1.478   3.784   2.115
 2291SOL     OW 7771   2.491   2.414   6.640
 2291SOL    HW1 7772   2.417   2.472   6.675
 2291SOL    HW2 7773   2.567   2.414   6.705
 2292SOL     OW 7774   5.954   3.037   4.052
 2292SOL    HW1 7775   5.867   2.988   4.050
 2292SOL    HW2 7776   6.007   3.015   3.971
 2293SOL     OW 7777   5.626   6.595   1.022
 2293SOL    HW1 7778   5.717   6.563   0.995
 2293SOL    HW2 7779   5.615   6.586   1.121
 2294SOL     OW 7780   3.908   0.922   6.372
 2294SOL    HW1 7781   3.888   1.003   6.428
 2294SOL    HW2 7782   3.872   0.840   6.417
 2295SOL     OW 7783   0.373   1.775   2.812
 2295SOL    HW1 7784   0.370   1.770   2.912
 2295SOL    HW2 7785   0.444   1.713   2.778
 2296SOL     OW 7786   3.315   5.889   2.199
 2296SOL    HW1 7787   3.253   5.856   2.271
 2296SOL    HW2 7788   3.292   5.984   2.176
 2297SOL     OW 7789   5.244   4.289   4.876
 2297SOL    HW1 7790   5.305   4.360   4.842
 2297SOL    HW2 7791   5.244   4.211   4.813
 2298SOL     OW 7792   3.799   3.750   1.804
 2298SOL    HW1 7793   3.853   3.780   1.725
 2298SOL    HW2 7794   3.707   3.789   1.797
 2299SOL     OW 7795   4.731   4.303   5.032
 2299SOL    HW1 7796   4.824   4.284   5.002
 2299SOL    HW2 7797   4.683   4.356   4.962
 2300SOL     OW 7798   2.276   6.055   2.717
 2300SOL    HW1 7799   2.361   6.090   2.757
 2300SOL    HW2 7800   2.201   6.065   2.782
 2301SOL     OW 7801   3.538   2.926   2.848
 2301SOL    HW1 7802   3.520   2.905   2.945
 2301SOL    HW2 7803   3.451   2.939   2.800
 2302SOL     OW 7804   3.884   0.414   1.280
 2302SOL    HW1 7805   3.958   0.458   1.331
 2302SOL    HW2 7806   3.835   0.352   1.341
 2303SOL     OW 7807   2.340   3.244   0.109
 2303SOL    HW1 7808   2.333   3.254   0.208
 2303SOL    HW2 7809   2.323   3.149   0.084
 2304SOL     OW 7810   5.799   6.777   4.006
 2304SOL    HW1 7811   5.882   6.747   3.959
 2304SOL    HW2 7812   5.822   6.804   4.099
 2305SOL     OW 7813   2.661   0.200   2.599
 2305SOL    HW1 7814   2.750   0.205   2.645
 2305SOL    HW2 7815   2.670   0.147   2.515
 2306SOL     OW 7816   2.226   5.021   1.759
 2306SOL    HW1 7817   2.160   4.946   1.751
 2306SOL    HW2 7818   2.253   5.032   1.855
 2307SOL     OW 7819   0.025   3.206   4.306
 2307SOL    HW1 7820   0.030   3.242   4.400
 2307SOL    HW2 7821   6.950   3.215   4.272
 2308SOL     OW 7822   2.050   4.791   1.701
 2308SOL    HW1 7823   2.055   4.801   1.602
 2308SOL    HW2 7824   2.046   4.694   1.725
 2309SOL     OW 7825   1.510   0.787   5.941
 2309SOL    HW1 7826   1.475   0.843   6.016
 2309SOL    HW2 7827   1.434   0.743   5.894
 2310SOL     OW 7828   5.799   5.351   0.714
 2310SOL    HW1 7829   5.829   5.280   0.778
 2310SOL    HW2 7830   5.766   5.431   0.766
 2311SOL     OW 7831   2.260   0.165   1.226
 2311SOL    HW1 7832   2.189   0.235   1.219
 2311SOL    HW2 7833   2.340   0.194   1.173
 2312SOL     OW 7834   4.570   6.095   3.357
 2312SOL    HW1 7835   4.619   6.177   3.327
 2312SOL    HW2 7836   4.475   6.119   3.377
 2313SOL     OW 7837   5.443   5.778   1.558
 2313SOL    HW1 7838   5.419   5.788   1.655
 2313SOL    HW2 7839   5.364   5.800   1.502
 2314SOL     OW 7840   5.342   5.958   3.824
 2314SOL    HW1 7841   5.379   5.883   3.880
 2314SOL    HW2 7842   5.245   5.943   3.808
 2315SOL     OW 7843   5.178   3.070   6.799
 2315SOL    HW1 7844   5.259   3.053   6.743
 2315SOL    HW2 7845   5.200   3.138   6.869
 2316SOL     OW 7846   4.548   1.617   4.067
 2316SOL    HW1 7847   4.569   1.521   4.048
 2316SOL    HW2 7848   4.507   1.659   3.986
 2317SOL     OW 7849   0.798   6.565   3.174
 2317SOL    HW1 7850   0.777   6.496   3.105
 2317SOL    HW2 7851   0.827   6.520   3.258
 2318SOL     OW 7852   1.093   2.855   3.620
 2318SOL    HW1 7853   1.041   2.918   3.677
 2318SOL    HW2 7854   1.032   2.813   3.552
 2319SOL     OW 7855   1.763   4.730   3.829
 2319SOL    HW1 7856   1.758   4.740   3.928
 2319SOL    HW2 7857   1.672   4.713   3.792
 2320SOL     OW 7858   1.075   2.380   4.367
 2320SOL    HW1 7859   1.050   2.470   4.331
 2320SOL    HW2 7860   1.174   2.367   4.359
 2321SOL     OW 7861   2.832   0.033   6.344
 2321SOL    HW1 7862   2.767   0.102   6.312
 2321SOL    HW2 7863   2.912   0.079   6.385
 2322SOL     OW 7864   3.027   1.661   5.046
 2322SOL    HW1 7865   2.962   1.651   5.121
 2322SOL    HW2 7866   3.040   1.573   5.001
 2323SOL     OW 7867   2.555   5.168   2.055
 2323SOL    HW1 7868   2.611   5.247   2.080
 2323SOL    HW2 7869   2.465   5.200   2.024
 2324SOL     OW 7870   6.036   6.656   1.693
 2324SOL    HW1 7871   6.024   6.585   1.623
 2324SOL    HW2 7872   5.950   6.704   1.707
 2325SOL     OW 7873   1.205   4.454   2.299
 2325SOL    HW1 7874   1.181   4.517   2.225
 2325SOL    HW2 7875   1.294   4.413   2.281
 2326SOL     OW 7876   3.279   5.451   5.479
 2326SOL    HW1 7877   3.271   5.371   5.420
 2326SOL    HW2 7878   3.285   5.421   5.574
 2327SOL     OW 7879   5.987   3.340   5.408
 2327SOL    HW1 7880   6.078   3.365   5.440
 2327SOL    HW2 7881   5.927   3.321   5.487
 2328SOL     OW 7882   3.361   2.113   3.108
 2328SOL    HW1 7883   3.343   2.016   3.129
 2328SOL    HW2 7884   3.459   2.127   3.098
 2329SOL     OW 7885   1.546   3.754   5.144
 2329SOL    HW1 7886   1.578   3.772   5.050
 2329SOL    HW2 7887   1.498   3.835   5.178
 2330SOL     OW 7888   0.947   3.693   2.253
 2330SOL    HW1 7889   0.901   3.607   2.274
 2330SOL    HW2 7890   0.881   3.768   2.256
 2331SOL     OW 7891   6.288   4.012   0.714
 2331SOL    HW1 7892   6.263   4.109   0.716
 2331SOL    HW2 7893   6.241   3.968   0.638
 2332SOL     OW 7894   4.513   1.789   5.763
 2332SOL    HW1 7895   4.420   1.754   5.751
 2332SOL    HW2 7896   4.509   1.883   5.796
 2333SOL     OW 7897   0.175   5.727   3.106
 2333SOL    HW1 7898   0.093   5.770   3.067
 2333SOL    HW2 7899   0.168   5.728   3.206
 2334SOL     OW 7900   2.154   0.482   0.143
 2334SOL    HW1 7901   2.176   0.492   0.046
 2334SOL    HW2 7902   2.237   0.464   0.195
 2335SOL     OW 7903   6.050   1.225   3.294
 2335SOL    HW1 7904   6.066   1.129   3.271
 2335SOL    HW2 7905   6.080   1.283   3.218
 2336SOL     OW 7906   4.139   1.787   5.058
 2336SOL    HW1 7907   4.168   1.715   4.995
 2336SOL    HW2 7908   4.112   1.746   5.145
 2337SOL     OW 7909   4.345   0.807   3.464
 2337SOL    HW1 7910   4.376   0.900   3.443
 2337SOL    HW2 7911   4.404   0.741   3.416
 2338SOL     OW 7912   1.478   1.314   6.454
 2338SOL    HW1 7913   1.517   1.352   6.537
 2338SOL    HW2 7914   1.409   1.376   6.418
 2339SOL     OW 7915   3.258   3.933   5.247
 2339SOL    HW1 7916   3.307   3.850   5.222
 2339SOL    HW2 7917   3.232   3.983   5.164
 2340SOL     OW 7918   5.601   5.073   6.453
 2340SOL    HW1 7919   5.628   4.996   6.511
 2340SOL    HW2 7920   5.608   5.158   6.505
 2341SOL     OW 7921   5.686   4.454   1.310
 2341SOL    HW1 7922   5.712   4.458   1.406
 2341SOL    HW2 7923   5.769   4.446   1.253
 2342SOL     OW 7924   6.964   6.263   4.994
 2342SOL    HW1 7925   6.900   6.196   5.032
 2342SOL    HW2 7926   6.970   6.342   5.054
 2343SOL     OW 7927   1.475   6.485   2.282
 2343SOL    HW1 7928   1.489   6.420   2.357
 2343SOL    HW2 7929   1.422   6.563   2.315
 2344SOL     OW 7930   1.703   0.960   1.187
 2344SOL    HW1 7931   1.671   0.866   1.182
 2344SOL    HW2 7932   1.758   0.972   1.270
 2345SOL     OW 7933   2.117   5.448   5.406
 2345SOL    HW1 7934   2.182   5.524   5.392
 2345SOL    HW2 7935   2.133   5.378   5.337
 2346SOL     OW 7936   4.824   3.212   4.650
 2346SOL    HW1 7937   4.816   3.226   4.749
 2346SOL    HW2 7938   4.911   3.248   4.618
 2347SOL     OW 7939   2.332   3.710   1.732
 2347SOL    HW1 7940   2.233   3.721   1.725
 2347SOL    HW2 7941   2.354   3.620   1.769
 2348SOL     OW 7942   3.615   5.973   3.883
 2348SOL    HW1 7943   3.541   5.906   3.895
 2348SOL    HW2 7944   3.703   5.925   3.886
 2349SOL     OW 7945   0.730   5.256   6.232
 2349SOL    HW1 7946   0.818   5.213   6.212
 2349SOL    HW2 7947   0.658   5.212   6.180
 2350SOL     OW 7948   5.268   6.948   6.454
 2350SOL    HW1 7949   5.356   6.936   6.500
 2350SOL    HW2 7950   5.267   6.894   6.369
 2351SOL     OW 7951   3.715   5.213   2.483
 2351SOL    HW1 7952   3.815   5.218   2.489
 2351SOL    HW2 7953   3.681   5.292   2.433
 2352SOL     OW 7954   1.170   3.734   2.399
 2352SOL    HW1 7955   1.093   3.690   2.353
 2352SOL    HW2 7956   1.186   3.824   2.361
 2353SOL     OW 7957   2.739   4.898   4.911
 2353SOL    HW1 7958   2.772   4.810   4.944
 2353SOL    HW2 7959   2.735   4.897   4.811
 2354SOL     OW 7960   2.916   1.676   6.437
 2354SOL    HW1 7961   2.986   1.651   6.370
 2354SOL    HW2 7962   2.825   1.657   6.400
 2355SOL     OW 7963   1.168   5.417   6.814
 2355SOL    HW1 7964   1.136   5.511   6.829
 2355SOL    HW2 7965   1.255   5.420   6.765
 2356SOL     OW 7966   2.189   4.289   0.568
 2356SOL    HW1 7967   2.220   4.196   0.549
 2356SOL    HW2 7968   2.257   4.354   0.534
 2357SOL     OW 7969   4.041   5.334   3.784
 2357SOL    HW1 7970   4.008   5.424   3.810
 2357SOL    HW2 7971   3.967   5.283   3.741
 2358SOL     OW 7972   2.418   5.185   4.675
 2358SOL    HW1 7973   2.416   5.113   4.606
 2358SOL    HW2 7974   2.500   5.175   4.731
 2359SOL     OW 7975   0.005   0.831   5.666
 2359SOL    HW1 7976   0.079   0.898   5.660
 2359SOL    HW2 7977   0.020   0.772   5.745
 2360SOL     OW 7978   4.884   6.192   5.620
 2360SOL    HW1 7979   4.804   6.132   5.622
 2360SOL    HW2 7980   4.856   6.287   5.626
 2361SOL     OW 7981   3.101   6.789   4.741
 2361SOL    HW1 7982   3.020   6.841   4.715
 2361SOL    HW2 7983   3.170   6.796   4.669
 2362SOL     OW 7984   3.441   6.438   5.577
 2362SOL    HW1 7985   3.417   6.473   5.486
 2362SOL    HW2 7986   3.363   6.389   5.616
 2363SOL     OW 7987   4.551   2.670   5.539
 2363SOL    HW1 7988   4.578   2.702   5.449
 2363SOL    HW2 7989   4.603   2.718   5.609
 2364SOL     OW 7990   0.068   2.671   3.263
 2364SOL    HW1 7991   0.074   2.652   3.361
 2364SOL    HW2 7992   0.156   2.706   3.230
 2365SOL     OW 7993   5.623   2.371   6.223
 2365SOL    HW1 7994   5.534   2.347   6.184
 2365SOL    HW2 7995   5.693   2.367   6.152
 2366SOL     OW 7996   1.416   4.157   5.413
 2366SOL    HW1 7997   1.484   4.214   5.367
 2366SOL    HW2 7998   1.441   4.061   5.405
 2367SOL     OW 7999   2.799   3.701   6.894
 2367SOL    HW1 8000   2.764   3.698   6.987
 2367SOL    HW2 8001   2.766   3.784   6.849
 2368SOL     OW 8002   4.531   0.487   3.535
 2368SOL    HW1 8003   4.567   0.400   3.501
 2368SOL    HW2 8004   4.523   0.483   3.635
 2369SOL     OW 8005   2.095   2.620   4.420
 2369SOL    HW1 8006   2.091   2.714   4.453
 2369SOL    HW2 8007   2.008   2.574   4.437
 2370SOL     OW 8008   4.338   4.163   6.224
 2370SOL    HW1 8009   4.331   4.102   6.145
 2370SOL    HW2 8010   4.330   4.258   6.193
 2371SOL     OW 8011   1.240   6.474   1.994
 2371SOL    HW1 8012   1.308   6.548   1.990
 2371SOL    HW2 8013   1.274   6.396   1.942
 2372SOL     OW 8014   1.201   2.484   1.094
 2372SOL    HW1 8015   1.239   2.419   1.160
 2372SOL    HW2 8016   1.104   2.462   1.078
 2373SOL     OW 8017   5.848   0.352   6.699
 2373SOL    HW1 8018   5.926   0.406   6.728
 2373SOL    HW2 8019   5.809   0.304   6.778
 2374SOL     OW 8020   6.410   0.633   3.706
 2374SOL    HW1 8021   6.467   0.574   3.650
 2374SOL    HW2 8022   6.437   0.729   3.692
 2375SOL     OW 8023   1.755   0.109   4.336
 2375SOL    HW1 8024   1.725   0.066   4.421
 2375SOL    HW2 8025   1.675   0.146   4.288
 2376SOL     OW 8026   6.289   2.464   4.358
 2376SOL    HW1 8027   6.345   2.495   4.281
 2376SOL    HW2 8028   6.226   2.537   4.384
 2377SOL     OW 8029   3.416   4.153   3.536
 2377SOL    HW1 8030   3.394   4.205   3.618
 2377SOL    HW2 8031   3.421   4.056   3.558
 2378SOL     OW 8032   5.538   1.541   6.687
 2378SOL    HW1 8033   5.503   1.455   6.650
 2378SOL    HW2 8034   5.577   1.596   6.614
 2379SOL     OW 8035   0.273   1.322   6.255
 2379SOL    HW1 8036   0.273   1.296   6.159
 2379SOL    HW2 8037   0.341   1.394   6.270
 2380SOL     OW 8038   6.955   6.645   6.015
 2380SOL    HW1 8039   6.950   6.713   6.088
 2380SOL    HW2 8040   6.952   6.553   6.055
 2381SOL     OW 8041   2.280   4.155   4.188
 2381SOL    HW1 8042   2.267   4.064   4.148
 2381SOL    HW2 8043   2.287   4.223   4.115
 2382SOL     OW 8044   2.115   4.775   2.517
 2382SOL    HW1 8045   2.017   4.782   2.537
 2382SOL    HW2 8046   2.167   4.802   2.598
 2383SOL     OW 8047   5.204   6.011   6.772
 2383SOL    HW1 8048   5.184   6.042   6.864
 2383SOL    HW2 8049   5.260   6.080   6.725
 2384SOL     OW 8050   1.144   0.673   2.472
 2384SOL    HW1 8051   1.174   0.625   2.554
 2384SOL    HW2 8052   1.110   0.764   2.496
 2385SOL     OW 8053   6.279   0.271   0.874
 2385SOL    HW1 8054   6.225   0.334   0.929
 2385SOL    HW2 8055   6.235   0.180   0.874
 2386SOL     OW 8056   4.270   5.227   4.471
 2386SOL    HW1 8057   4.331   5.296   4.432
 2386SOL    HW2 8058   4.298   5.207   4.565
 2387SOL     OW 8059   6.747   2.746   4.464
 2387SOL    HW1 8060   6.728   2.821   4.528
 2387SOL    HW2 8061   6.823   2.691   4.499
 2388SOL     OW 8062   1.080   1.806   4.893
 2388SOL    HW1 8063   1.170   1.793   4.850
 2388SOL    HW2 8064   1.080   1.766   4.984
 2389SOL     OW 8065   5.082   4.124   3.766
 2389SOL    HW1 8066   5.143   4.045   3.774
 2389SOL    HW2 8067   5.132   4.202   3.730
 2390SOL     OW 8068   3.438   3.565   4.424
 2390SOL    HW1 8069   3.478   3.625   4.494
 2390SOL    HW2 8070   3.375   3.502   4.467
 2391SOL     OW 8071   3.951   4.224   5.844
 2391SOL    HW1 8072   3.966   4.281   5.924
 2391SOL    HW2 8073   3.998   4.137   5.856
 2392SOL     OW 8074   3.025   6.038   5.705
 2392SOL    HW1 8075   3.043   6.106   5.776
 2392SOL    HW2 8076   2.973   6.081   5.631
 2393SOL     OW 8077   3.332   5.593   0.964
 2393SOL    HW1 8078   3.376   5.683   0.964
 2393SOL    HW2 8079   3.261   5.590   1.035
 2394SOL     OW 8080   1.519   3.400   4.861
 2394SOL    HW1 8081   1.459   3.367   4.788
 2394SOL    HW2 8082   1.563   3.323   4.907
 2395SOL     OW 8083   6.670   2.365   6.904
 2395SOL    HW1 8084   6.725   2.389   6.825
 2395SOL    HW2 8085   6.727   2.320   6.973
 2396SOL     OW 8086   4.912   5.513   0.418
 2396SOL    HW1 8087   4.858   5.486   0.498
 2396SOL    HW2 8088   4.954   5.433   0.377
 2397SOL     OW 8089   6.875   4.788   0.503
 2397SOL    HW1 8090   6.973   4.811   0.504
 2397SOL    HW2 8091   6.833   4.813   0.590
 2398SOL     OW 8092   2.742   4.886   5.769
 2398SOL    HW1 8093   2.822   4.882   5.828
 2398SOL    HW2 8094   2.681   4.959   5.801
 2399SOL     OW 8095   4.575   1.588   1.727
 2399SOL    HW1 8096   4.599   1.643   1.647
 2399SOL    HW2 8097   4.488   1.620   1.765
 2400SOL     OW 8098   3.940   4.701   0.831
 2400SOL    HW1 8099   4.036   4.674   0.823
 2400SOL    HW2 8100   3.885   4.648   0.766
 2401SOL     OW 8101   3.964   0.521   5.735
 2401SOL    HW1 8102   3.994   0.453   5.802
 2401SOL    HW2 8103   3.978   0.613   5.772
 2402SOL     OW 8104   6.856   2.801   4.176
 2402SOL    HW1 8105   6.800   2.883   4.186
 2402SOL    HW2 8106   6.856   2.750   4.262
 2403SOL     OW 8107   2.810   2.870   6.645
 2403SOL    HW1 8108   2.812   2.787   6.700
 2403SOL    HW2 8109   2.862   2.942   6.691
 2404SOL     OW 8110   5.565   1.268   2.444
 2404SOL    HW1 8111   5.660   1.294   2.463
 2404SOL    HW2 8112   5.552   1.260   2.346
 2405SOL     OW 8113   3.849   3.932   4.711
 2405SOL    HW1 8114   3.885   3.924   4.618
 2405SOL    HW2 8115   3.821   4.027   4.728
 2406SOL     OW 8116   1.825   0.500   3.675
 2406SOL    HW1 8117   1.840   0.590   3.717
 2406SOL    HW2 8118   1.896   0.484   3.607
 2407SOL     OW 8119   4.751   2.098   3.309
 2407SOL    HW1 8120   4.787   2.094   3.402
 2407SOL    HW2 8121   4.690   2.020   3.294
 2408SOL     OW 8122   3.914   5.086   3.042
 2408SOL    HW1 8123   3.878   5.126   2.958
 2408SOL    HW2 8124   3.918   4.986   3.033
 2409SOL     OW 8125   2.177   2.884   2.098
 2409SOL    HW1 8126   2.161   2.983   2.103
 2409SOL    HW2 8127   2.106   2.841   2.043
 2410SOL     OW 8128   6.647   2.574   5.608
 2410SOL    HW1 8129   6.567   2.536   5.656
 2410SOL    HW2 8130   6.636   2.560   5.510
 2411SOL     OW 8131   3.832   4.805   5.734
 2411SOL    HW1 8132   3.813   4.720   5.783
 2411SOL    HW2 8133   3.872   4.785   5.645
 2412SOL     OW 8134   2.718   4.358   6.709
 2412SOL    HW1 8135   2.744   4.453   6.725
 2412SOL    HW2 8136   2.796   4.298   6.726
 2413SOL     OW 8137   6.672   3.019   0.043
 2413SOL    HW1 8138   6.766   3.042   0.069
 2413SOL    HW2 8139   6.615   3.013   0.125
 2414SOL     OW 8140   5.623   3.768   2.839
 2414SOL    HW1 8141   5.534   3.794   2.877
 2414SOL    HW2 8142   5.642   3.822   2.757
 2415SOL     OW 8143   1.446   0.036   0.999
 2415SOL    HW1 8144   1.371   0.010   1.060
 2415SOL    HW2 8145   1.436   7.005   0.912
 2416SOL     OW 8146   2.729   1.322   4.907
 2416SOL    HW1 8147   2.687   1.413   4.909
 2416SOL    HW2 8148   2.662   1.253   4.933
 2417SOL     OW 8149   4.351   2.657   0.412
 2417SOL    HW1 8150   4.340   2.618   0.320
 2417SOL    HW2 8151   4.371   2.755   0.404
 2418SOL     OW 8152   3.169   3.572   4.182
 2418SOL    HW1 8153   3.091   3.510   4.172
 2418SOL    HW2 8154   3.252   3.528   4.149
 2419SOL     OW 8155   0.496   6.659   3.983
 2419SOL    HW1 8156   0.476   6.740   3.928
 2419SOL    HW2 8157   0.411   6.609   3.999
 2420SOL     OW 8158   4.265   6.884   2.477
 2420SOL    HW1 8159   4.351   6.932   2.492
 2420SOL    HW2 8160   4.224   6.914   2.390
 2421SOL     OW 8161   2.696   0.571   4.536
 2421SOL    HW1 8162   2.712   0.489   4.480
 2421SOL    HW2 8163   2.734   0.651   4.489
 2422SOL     OW 8164   5.387   0.674   1.153
 2422SOL    HW1 8165   5.384   0.615   1.234
 2422SOL    HW2 8166   5.480   0.679   1.119
 2423SOL     OW 8167   0.958   6.264   3.179
 2423SOL    HW1 8168   1.017   6.270   3.260
 2423SOL    HW2 8169   1.003   6.310   3.102
 2424SOL     OW 8170   5.632   5.530   6.250
 2424SOL    HW1 8171   5.652   5.613   6.302
 2424SOL    HW2 8172   5.705   5.514   6.184
 2425SOL     OW 8173   6.236   6.926   4.477
 2425SOL    HW1 8174   6.204   7.000   4.417
 2425SOL    HW2 8175   6.160   6.863   4.496
 2426SOL     OW 8176   1.259   4.717   4.417
 2426SOL    HW1 8177   1.294   4.767   4.338
 2426SOL    HW2 8178   1.160   4.702   4.406
 2427SOL     OW 8179   6.675   5.628   0.238
 2427SOL    HW1 8180   6.586   5.675   0.238
 2427SOL    HW2 8181   6.677   5.561   0.164
 2428SOL     OW 8182   1.079   0.131   3.374
 2428SOL    HW1 8183   1.160   0.124   3.433
 2428SOL    HW2 8184   1.033   0.042   3.371
 2429SOL     OW 8185   6.507   5.705   3.340
 2429SOL    HW1 8186   6.563   5.720   3.259
 2429SOL    HW2 8187   6.463   5.616   3.334
 2430SOL     OW 8188   6.208   2.567   1.524
 2430SOL    HW1 8189   6.123   2.518   1.507
 2430SOL    HW2 8190   6.263   2.515   1.590
 2431SOL     OW 8191   4.136   0.361   1.982
 2431SOL    HW1 8192   4.143   0.461   1.980
 2431SOL    HW2 8193   4.153   0.324   1.891
 2432SOL     OW 8194   4.218   6.123   2.874
 2432SOL    HW1 8195   4.277   6.127   2.794
 2432SOL    HW2 8196   4.207   6.215   2.912
 2433SOL     OW 8197   3.457   6.800   0.357
 2433SOL    HW1 8198   3.467   6.843   0.267
 2433SOL    HW2 8199   3.446   6.871   0.427
 2434SOL     OW 8200   5.145   1.523   3.344
 2434SOL    HW1 8201   5.110   1.469   3.420
 2434SOL    HW2 8202   5.223   1.578   3.375
 2435SOL     OW 8203   4.737   5.427   6.956
 2435SOL    HW1 8204   4.705   5.486   6.881
 2435SOL    HW2 8205   4.828   5.393   6.935
 2436SOL     OW 8206   2.120   0.555   0.589
 2436SOL    HW1 8207   2.186   0.489   0.626
 2436SOL    HW2 8208   2.170   0.626   0.539
 2437SOL     OW 8209   5.270   5.503   0.545
 2437SOL    HW1 8210   5.343   5.520   0.611
 2437SOL    HW2 8211   5.268   5.406   0.521
 2438SOL     OW 8212   3.998   1.045   5.657
 2438SOL    HW1 8213   3.989   1.117   5.589
 2438SOL    HW2 8214   3.910   0.998   5.668
 2439SOL     OW 8215   1.167   4.092   0.280
 2439SOL    HW1 8216   1.118   4.104   0.366
 2439SOL    HW2 8217   1.151   4.000   0.245
 2440SOL     OW 8218   3.631   6.383   4.900
 2440SOL    HW1 8219   3.661   6.345   4.987
 2440SOL    HW2 8220   3.621   6.310   4.833
 2441SOL     OW 8221   6.387   1.508   6.620
 2441SOL    HW1 8222   6.377   1.449   6.700
 2441SOL    HW2 8223   6.383   1.453   6.537
 2442SOL     OW 8224   6.392   5.866   3.653
 2442SOL    HW1 8225   6.448   5.868   3.736
 2442SOL    HW2 8226   6.337   5.782   3.652
 2443SOL     OW 8227   3.100   0.060   6.455
 2443SOL    HW1 8228   3.158   0.106   6.522
 2443SOL    HW2 8229   3.079   6.986   6.488
 2444SOL     OW 8230   3.779   4.167   6.395
 2444SOL    HW1 8231   3.798   4.085   6.341
 2444SOL    HW2 8232   3.748   4.240   6.334
 2445SOL     OW 8233   0.178   1.223   2.434
 2445SOL    HW1 8234   0.256   1.285   2.428
 2445SOL    HW2 8235   0.206   1.131   2.407
 2446SOL     OW 8236   0.838   2.881   4.245
 2446SOL    HW1 8237   0.750   2.833   4.237
 2446SOL    HW2 8238   0.848   2.915   4.339
 2447SOL     OW 8239   3.041   0.806   1.167
 2447SOL    HW1 8240   3.132   0.776   1.140
 2447SOL    HW2 8241   3.035   0.906   1.160
 2448SOL     OW 8242   0.429   0.702   4.057
 2448SOL    HW1 8243   0.426   0.691   3.958
 2448SOL    HW2 8244   0.336   0.695   4.094
 2449SOL     OW 8245   6.274   4.366   3.014
 2449SOL    HW1 8246   6.294   4.268   3.013
 2449SOL    HW2 8247   6.310   4.408   2.931
 2450SOL     OW 8248   3.100   5.416   5.015
 2450SOL    HW1 8249   3.040   5.415   4.935
 2450SOL    HW2 8250   3.077   5.339   5.075
 2451SOL     OW 8251   0.643   0.409   3.900
 2451SOL    HW1 8252   0.692   0.347   3.839
 2451SOL    HW2 8253   0.550   0.422   3.865
 2452SOL     OW 8254   2.828   2.256   3.218
 2452SOL    HW1 8255   2.924   2.263   3.191
 2452SOL    HW2 8256   2.808   2.162   3.245
 2453SOL     OW 8257   6.514   2.996   1.030
 2453SOL    HW1 8258   6.604   2.968   1.062
 2453SOL    HW2 8259   6.505   3.096   1.039
 2454SOL     OW 8260   3.352   0.799   0.370
 2454SOL    HW1 8261   3.421   0.802   0.298
 2454SOL    HW2 8262   3.271   0.851   0.341
 2455SOL     OW 8263   4.848   0.694   1.222
 2455SOL    HW1 8264   4.906   0.758   1.273
 2455SOL    HW2 8265   4.755   0.699   1.259
 2456SOL     OW 8266   5.733   1.434   0.443
 2456SOL    HW1 8267   5.634   1.443   0.440
 2456SOL    HW2 8268   5.768   1.478   0.526
 2457SOL     OW 8269   6.836   5.968   6.275
 2457SOL    HW1 8270   6.805   5.928   6.189
 2457SOL    HW2 8271   6.928   5.936   6.295
 2458SOL     OW 8272   2.388   5.887   3.867
 2458SOL    HW1 8273   2.315   5.853   3.807
 2458SOL    HW2 8274   2.395   5.986   3.859
 2459SOL     OW 8275   2.763   6.013   5.948
 2459SOL    HW1 8276   2.668   5.987   5.966
 2459SOL    HW2 8277   2.805   5.945   5.888
 2460SOL     OW 8278   1.646   1.491   1.760
 2460SOL    HW1 8279   1.581   1.452   1.695
 2460SOL    HW2 8280   1.739   1.474   1.728
 2461SOL     OW 8281   4.703   0.032   2.888
 2461SOL    HW1 8282   4.783   6.990   2.894
 2461SOL    HW2 8283   4.623   7.003   2.926
 2462SOL     OW 8284   1.806   5.825   0.523
 2462SOL    HW1 8285   1.743   5.787   0.591
 2462SOL    HW2 8286   1.818   5.923   0.540
 2463SOL     OW 8287   6.536   2.420   5.078
 2463SOL    HW1 8288   6.504   2.336   5.035
 2463SOL    HW2 8289   6.481   2.497   5.047
 2464SOL     OW 8290   1.975   4.143   1.977
 2464SOL    HW1 8291   2.018   4.193   1.902
 2464SOL    HW2 8292   1.885   4.183   1.997
 2465SOL     OW 8293   0.759   0.256   1.963
 2465SOL    HW1 8294   0.825   0.321   2.000
 2465SOL    HW2 8295   0.802   0.201   1.892
 2466SOL     OW 8296   2.722   1.678   2.903
 2466SOL    HW1 8297   2.804   1.718   2.864
 2466SOL    HW2 8298   2.652   1.749   2.914
 2467SOL     OW 8299   5.218   1.376   4.297
 2467SOL    HW1 8300   5.274   1.332   4.367
 2467SOL    HW2 8301   5.190   1.467   4.330
 2468SOL     OW 8302   4.964   6.312   1.933
 2468SOL    HW1 8303   4.991   6.256   2.011
 2468SOL    HW2 8304   4.884   6.272   1.889
 2469SOL     OW 8305   4.144   4.127   5.357
 2469SOL    HW1 8306   4.144   4.226   5.342
 2469SOL    HW2 8307   4.236   4.098   5.384
 2470SOL     OW 8308   3.630   4.996   6.045
 2470SOL    HW1 8309   3.556   5.063   6.058
 2470SOL    HW2 8310   3.707   5.040   5.999
 2471SOL     OW 8311   2.572   5.995   1.108
 2471SOL    HW1 8312   2.646   6.010   1.043
 2471SOL    HW2 8313   2.592   5.915   1.164
 2472SOL     OW 8314   5.398   2.471   4.574
 2472SOL    HW1 8315   5.354   2.404   4.514
 2472SOL    HW2 8316   5.497   2.462   4.567
 2473SOL     OW 8317   2.102   3.778   4.881
 2473SOL    HW1 8318   2.044   3.784   4.962
 2473SOL    HW2 8319   2.178   3.843   4.889
 2474SOL     OW 8320   0.476   6.331   0.866
 2474SOL    HW1 8321   0.455   6.299   0.958
 2474SOL    HW2 8322   0.500   6.253   0.808
 2475SOL     OW 8323   5.168   1.119   1.492
 2475SOL    HW1 8324   5.230   1.040   1.485
 2475SOL    HW2 8325   5.199   1.179   1.566
 2476SOL     OW 8326   6.972   2.047   3.554
 2476SOL    HW1 8327   0.011   2.106   3.497
 2476SOL    HW2 8328   6.877   2.078   3.550
 2477SOL     OW 8329   4.686   1.706   2.690
 2477SOL    HW1 8330   4.696   1.614   2.654
 2477SOL    HW2 8331   4.718   1.772   2.622
 2478SOL     OW 8332   6.353   1.132   2.124
 2478SOL    HW1 8333   6.435   1.097   2.077
 2478SOL    HW2 8334   6.363   1.117   2.223
 2479SOL     OW 8335   1.760   3.763   1.278
 2479SOL    HW1 8336   1.844   3.726   1.318
 2479SOL    HW2 8337   1.686   3.756   1.344
 2480SOL     OW 8338   6.284   3.911   0.964
 2480SOL    HW1 8339   6.282   3.959   0.877
 2480SOL    HW2 8340   6.377   3.912   1.001
 2481SOL     OW 8341   2.962   1.189   0.322
 2481SOL    HW1 8342   2.973   1.216   0.418
 2481SOL    HW2 8343   3.044   1.140   0.292
 2482SOL     OW 8344   4.344   2.995   5.864
 2482SOL    HW1 8345   4.423   3.050   5.838
 2482SOL    HW2 8346   4.265   3.054   5.880
 2483SOL     OW 8347   2.086   2.121   6.742
 2483SOL    HW1 8348   1.993   2.102   6.771
 2483SOL    HW2 8349   2.136   2.165   6.817
 2484SOL     OW 8350   2.571   0.661   0.165
 2484SOL    HW1 8351   2.504   0.634   0.233
 2484SOL    HW2 8352   2.631   0.584   0.145
 2485SOL     OW 8353   5.549   3.713   1.843
 2485SOL    HW1 8354   5.493   3.780   1.893
 2485SOL    HW2 8355   5.564   3.746   1.750
 2486SOL     OW 8356   2.277   4.814   4.155
 2486SOL    HW1 8357   2.343   4.741   4.173
 2486SOL    HW2 8358   2.307   4.898   4.200
 2487SOL     OW 8359   3.974   6.030   0.241
 2487SOL    HW1 8360   3.966   6.069   0.332
 2487SOL    HW2 8361   4.011   6.099   0.178
 2488SOL     OW 8362   1.955   4.381   2.423
 2488SOL    HW1 8363   1.985   4.292   2.388
 2488SOL    HW2 8364   1.878   4.367   2.487
 2489SOL     OW 8365   1.768   5.578   3.246
 2489SOL    HW1 8366   1.768   5.668   3.291
 2489SOL    HW2 8367   1.693   5.574   3.180
 2490SOL     OW 8368   6.412   5.083   1.753
 2490SOL    HW1 8369   6.488   5.119   1.808
 2490SOL    HW2 8370   6.346   5.039   1.813
 2491SOL     OW 8371   2.590   5.356   0.943
 2491SOL    HW1 8372   2.579   5.408   1.027
 2491SOL    HW2 8373   2.506   5.306   0.923
 2492SOL     OW 8374   4.428   2.782   6.838
 2492SOL    HW1 8375   4.374   2.781   6.922
 2492SOL    HW2 8376   4.525   2.777   6.860
 2493SOL     OW 8377   6.410   0.071   2.305
 2493SOL    HW1 8378   6.335   0.135   2.320
 2493SOL    HW2 8379   6.470   0.105   2.233
 2494SOL     OW 8380   5.992   4.167   1.982
 2494SOL    HW1 8381   5.995   4.072   1.949
 2494SOL    HW2 8382   5.964   4.227   1.907
 2495SOL     OW 8383   5.292   0.450   4.721
 2495SOL    HW1 8384   5.301   0.382   4.794
 2495SOL    HW2 8385   5.228   0.417   4.652
 2496SOL     OW 8386   0.380   3.939   6.465
 2496SOL    HW1 8387   0.313   3.954   6.538
 2496SOL    HW2 8388   0.457   4.002   6.478
 2497SOL     OW 8389   0.250   1.428   0.729
 2497SOL    HW1 8390   0.201   1.394   0.649
 2497SOL    HW2 8391   0.246   1.528   0.730
 2498SOL     OW 8392   3.423   2.150   3.995
 2498SOL    HW1 8393   3.522   2.142   3.987
 2498SOL    HW2 8394   3.397   2.246   4.006
 2499SOL     OW 8395   5.029   2.583   4.355
 2499SOL    HW1 8396   4.960   2.556   4.422
 2499SOL    HW2 8397   5.069   2.502   4.313
 2500SOL     OW 8398   4.451   2.686   6.544
 2500SOL    HW1 8399   4.517   2.611   6.557
 2500SOL    HW2 8400   4.425   2.724   6.632
 2501SOL     OW 8401   6.862   5.925   6.887
 2501SOL    HW1 8402   6.900   5.834   6.907
 2501SOL    HW2 8403   6.765   5.925   6.910
 2502SOL     OW 8404   2.386   6.003   3.100
 2502SOL    HW1 8405   2.354   6.079   3.158
 2502SOL    HW2 8406   2.476   6.026   3.062
 2503SOL     OW 8407   2.967   5.222   5.345
 2503SOL    HW1 8408   2.892   5.258   5.400
 2503SOL    HW2 8409   2.935   5.206   5.252
 2504SOL     OW 8410   2.414   5.048   5.172
 2504SOL    HW1 8411   2.464   4.979   5.120
 2504SOL    HW2 8412   2.326   5.065   5.128
 2505SOL     OW 8413   1.767   6.024   3.969
 2505SOL    HW1 8414   1.741   5.966   4.046
 2505SOL    HW2 8415   1.708   6.002   3.891
 2506SOL     OW 8416   5.890   3.301   6.510
 2506SOL    HW1 8417   5.935   3.215   6.485
 2506SOL    HW2 8418   5.857   3.347   6.428
 2507SOL     OW 8419   1.128   4.096   0.879
 2507SOL    HW1 8420   1.030   4.105   0.899
 2507SOL    HW2 8421   1.175   4.054   0.956
 2508SOL     OW 8422   2.803   1.508   2.175
 2508SOL    HW1 8423   2.828   1.422   2.131
 2508SOL    HW2 8424   2.838   1.585   2.121
 2509SOL     OW 8425   5.938   2.520   2.604
 2509SOL    HW1 8426   5.891   2.494   2.520
 2509SOL    HW2 8427   5.914   2.614   2.628
 2510SOL     OW 8428   3.403   4.235   1.476
 2510SOL    HW1 8429   3.394   4.142   1.512
 2510SOL    HW2 8430   3.391   4.233   1.377
 2511SOL     OW 8431   2.637   1.794   4.175
 2511SOL    HW1 8432   2.736   1.783   4.177
 2511SOL    HW2 8433   2.600   1.787   4.268
 2512SOL     OW 8434   4.696   5.290   5.431
 2512SOL    HW1 8435   4.706   5.191   5.443
 2512SOL    HW2 8436   4.599   5.314   5.429
 2513SOL     OW 8437   1.380   3.143   5.435
 2513SOL    HW1 8438   1.303   3.089   5.402
 2513SOL    HW2 8439   1.438   3.169   5.357
 2514SOL     OW 8440   6.261   3.738   4.194
 2514SOL    HW1 8441   6.230   3.742   4.099
 2514SOL    HW2 8442   6.264   3.643   4.224
 2515SOL     OW 8443   1.522   6.700   0.092
 2515SOL    HW1 8444   1.545   6.687   0.189
 2515SOL    HW2 8445   1.491   6.795   0.078
 2516SOL     OW 8446   6.077   0.280   3.548
 2516SOL    HW1 8447   6.052   0.376   3.560
 2516SOL    HW2 8448   6.012   0.235   3.487
 2517SOL     OW 8449   1.186   5.805   5.984
 2517SOL    HW1 8450   1.281   5.836   5.972
 2517SOL    HW2 8451   1.186   5.721   6.039
 2518SOL     OW 8452   2.693   3.713   0.125
 2518SOL    HW1 8453   2.664   3.715   0.221
 2518SOL    HW2 8454   2.614   3.690   0.067
 2519SOL     OW 8455   4.472   5.925   3.914
 2519SOL    HW1 8456   4.475   5.974   3.827
 2519SOL    HW2 8457   4.565   5.915   3.950
 2520SOL     OW 8458   0.900   3.128   0.227
 2520SOL    HW1 8459   0.837   3.116   0.151
 2520SOL    HW2 8460   0.994   3.114   0.195
 2521SOL     OW 8461   1.026   6.198   5.645
 2521SOL    HW1 8462   1.041   6.278   5.587
 2521SOL    HW2 8463   0.971   6.224   5.724
 2522SOL     OW 8464   6.804   3.055   5.899
 2522SOL    HW1 8465   6.799   3.005   5.812
 2522SOL    HW2 8466   6.739   3.131   5.897
 2523SOL     OW 8467   0.155   3.061   1.447
 2523SOL    HW1 8468   0.076   3.121   1.431
 2523SOL    HW2 8469   0.134   2.969   1.416
 2524SOL     OW 8470   0.817   5.338   4.622
 2524SOL    HW1 8471   0.888   5.320   4.553
 2524SOL    HW2 8472   0.744   5.271   4.612
 2525SOL     OW 8473   0.967   2.606   4.281
 2525SOL    HW1 8474   0.969   2.614   4.181
 2525SOL    HW2 8475   0.876   2.579   4.311
 2526SOL     OW 8476   1.757   4.171   5.779
 2526SOL    HW1 8477   1.685   4.213   5.724
 2526SOL    HW2 8478   1.734   4.075   5.795
 2527SOL     OW 8479   5.197   6.556   5.270
 2527SOL    HW1 8480   5.113   6.604   5.295
 2527SOL    HW2 8481   5.230   6.502   5.348
 2528SOL     OW 8482   6.364   4.194   1.232
 2528SOL    HW1 8483   6.303   4.242   1.169
 2528SOL    HW2 8484   6.445   4.250   1.249
 2529SOL     OW 8485   6.989   5.755   6.458
 2529SOL    HW1 8486   6.945   5.729   6.544
 2529SOL    HW2 8487   7.016   5.673   6.408
 2530SOL     OW 8488   1.162   6.018   4.586
 2530SOL    HW1 8489   1.249   5.982   4.618
 2530SOL    HW2 8490   1.121   6.075   4.658
 2531SOL     OW 8491   5.255   5.790   4.165
 2531SOL    HW1 8492   5.323   5.755   4.100
 2531SOL    HW2 8493   5.186   5.720   4.181
 2532SOL     OW 8494   1.070   6.083   0.817
 2532SOL    HW1 8495   1.061   6.036   0.729
 2532SOL    HW2 8496   0.988   6.137   0.835
 2533SOL     OW 8497   4.175   0.085   3.163
 2533SOL    HW1 8498   4.206   0.039   3.080
 2533SOL    HW2 8499   4.093   0.040   3.198
 2534SOL     OW 8500   2.367   0.423   2.871
 2534SOL    HW1 8501   2.400   0.329   2.877
 2534SOL    HW2 8502   2.421   0.473   2.802
 2535SOL     OW 8503   2.524   2.876   6.600
 2535SOL    HW1 8504   2.622   2.860   6.595
 2535SOL    HW2 8505   2.478   2.824   6.528
 2536SOL     OW 8506   6.963   2.469   3.686
 2536SOL    HW1 8507   0.032   2.429   3.715
 2536SOL    HW2 8508   6.894   2.396   3.679
 2537SOL     OW 8509   5.016   6.534   6.484
 2537SOL    HW1 8510   5.052   6.555   6.393
 2537SOL    HW2 8511   4.996   6.619   6.532
 2538SOL     OW 8512   1.615   4.098   4.548
 2538SOL    HW1 8513   1.693   4.092   4.610
 2538SOL    HW2 8514   1.583   4.006   4.525
 2539SOL     OW 8515   4.605   0.250   5.750
 2539SOL    HW1 8516   4.553   0.300   5.819
 2539SOL    HW2 8517   4.547   0.181   5.707
 2540SOL     OW 8518   4.787   1.143   2.264
 2540SOL    HW1 8519   4.710   1.137   2.200
 2540SOL    HW2 8520   4.843   1.223   2.241
 2541SOL     OW 8521   1.694   6.706   5.392
 2541SOL    HW1 8522   1.695   6.759   5.477
 2541SOL    HW2 8523   1.656   6.763   5.318
 2542SOL     OW 8524   4.675   1.784   5.542
 2542SOL    HW1 8525   4.614   1.762   5.618
 2542SOL    HW2 8526   4.628   1.848   5.481
 2543SOL     OW 8527   1.920   1.541   3.153
 2543SOL    HW1 8528   1.932   1.612   3.223
 2543SOL    HW2 8529   1.825   1.509   3.155
 2544SOL     OW 8530   0.071   5.212   2.348
 2544SOL    HW1 8531   0.056   5.310   2.354
 2544SOL    HW2 8532   0.001   5.164   2.402
 2545SOL     OW 8533   2.177   1.027   0.794
 2545SOL    HW1 8534   2.185   1.107   0.854
 2545SOL    HW2 8535   2.190   1.055   0.699
 2546SOL     OW 8536   0.038   2.335   2.395
 2546SOL    HW1 8537   0.064   2.319   2.490
 2546SOL    HW2 8538   0.099   2.282   2.335
 2547SOL     OW 8539   5.973   5.124   0.100
 2547SOL    HW1 8540   6.028   5.182   0.160
 2547SOL    HW2 8541   5.887   5.171   0.077
 2548SOL     OW 8542   2.737   6.515   5.387
 2548SOL    HW1 8543   2.795   6.534   5.467
 2548SOL    HW2 8544   2.641   6.524   5.413
 2549SOL     OW 8545   2.347   1.741   1.315
 2549SOL    HW1 8546   2.399   1.667   1.273
 2549SOL    HW2 8547   2.334   1.721   1.412
 2550SOL     OW 8548   6.622   0.425   6.565
 2550SOL    HW1 8549   6.550   0.443   6.632
 2550SOL    HW2 8550   6.581   0.419   6.474
 2551SOL     OW 8551   2.556   5.681   0.474
 2551SOL    HW1 8552   2.515   5.710   0.387
 2551SOL    HW2 8553   2.649   5.718   0.480
 2552SOL     OW 8554   1.185   6.033   5.503
 2552SOL    HW1 8555   1.241   5.993   5.576
 2552SOL    HW2 8556   1.143   6.118   5.536
 2553SOL     OW 8557   3.269   3.537   0.087
 2553SOL    HW1 8558   3.197   3.497   0.032
 2553SOL    HW2 8559   3.326   3.597   0.030
 2554SOL     OW 8560   1.513   5.803   6.917
 2554SOL    HW1 8561   1.537   5.895   6.950
 2554SOL    HW2 8562   1.467   5.810   6.829
 2555SOL     OW 8563   6.016   6.211   6.073
 2555SOL    HW1 8564   6.086   6.282   6.073
 2555SOL    HW2 8565   6.003   6.177   5.980
 2556SOL     OW 8566   4.138   6.289   0.427
 2556SOL    HW1 8567   4.111   6.330   0.340
 2556SOL    HW2 8568   4.228   6.246   0.416
 2557SOL     OW 8569   2.463   2.026   6.413
 2557SOL    HW1 8570   2.402   2.076   6.475
 2557SOL    HW2 8571   2.451   1.928   6.426
 2558SOL     OW 8572   3.672   3.167   6.103
 2558SOL    HW1 8573   3.578   3.155   6.135
 2558SOL    HW2 8574   3.734   3.114   6.161
 2559SOL     OW 8575   6.373   2.914   4.787
 2559SOL    HW1 8576   6.449   2.957   4.835
 2559SOL    HW2 8577   6.374   2.815   4.804
 2560SOL     OW 8578   5.279   3.474   4.443
 2560SOL    HW1 8579   5.320   3.566   4.437
 2560SOL    HW2 8580   5.346   3.406   4.415
 2561SOL     OW 8581   3.417   0.233   3.948
 2561SOL    HW1 8582   3.489   0.290   3.908
 2561SOL    HW2 8583   3.420   0.240   4.048
 2562SOL     OW 8584   1.962   5.632   2.177
 2562SOL    HW1 8585   1.930   5.586   2.094
 2562SOL    HW2 8586   2.062   5.643   2.172
 2563SOL     OW 8587   4.376   1.669   6.959
 2563SOL    HW1 8588   4.437   1.593   6.935
 2563SOL    HW2 8589   4.287   1.654   6.915
 2564SOL     OW 8590   1.272   0.230   6.293
 2564SOL    HW1 8591   1.336   0.222   6.217
 2564SOL    HW2 8592   1.251   0.326   6.310
 2565SOL     OW 8593   6.988   0.679   0.438
 2565SOL    HW1 8594   0.043   0.735   0.477
 2565SOL    HW2 8595   6.932   0.641   0.513
 2566SOL     OW 8596   1.513   0.277   0.895
 2566SOL    HW1 8597   1.540   0.210   0.825
 2566SOL    HW2 8598   1.489   0.229   0.979
 2567SOL     OW 8599   1.207   1.499   2.057
 2567SOL    HW1 8600   1.243   1.429   2.119
 2567SOL    HW2 8601   1.137   1.458   1.999
 2568SOL     OW 8602   2.638   0.879   6.618
 2568SOL    HW1 8603   2.640   0.780   6.605
 2568SOL    HW2 8604   2.652   0.900   6.715
 2569SOL     OW 8605   2.815   0.543   1.958
 2569SOL    HW1 8606   2.743   0.487   1.999
 2569SOL    HW2 8607   2.830   0.513   1.863
 2570SOL     OW 8608   5.776   0.814   6.556
 2570SOL    HW1 8609   5.847   0.829   6.624
 2570SOL    HW2 8610   5.715   0.893   6.553
 2571SOL     OW 8611   2.683   3.696   5.386
 2571SOL    HW1 8612   2.666   3.793   5.374
 2571SOL    HW2 8613   2.760   3.683   5.449
 2572SOL     OW 8614   2.154   6.532   1.091
 2572SOL    HW1 8615   2.106   6.509   1.175
 2572SOL    HW2 8616   2.175   6.448   1.041
 2573SOL     OW 8617   6.290   1.763   2.538
 2573SOL    HW1 8618   6.321   1.770   2.633
 2573SOL    HW2 8619   6.196   1.797   2.530
 2574SOL     OW 8620   0.277   3.101   0.628
 2574SOL    HW1 8621   0.372   3.089   0.657
 2574SOL    HW2 8622   0.238   3.011   0.608
 2575SOL     OW 8623   5.097   4.182   6.963
 2575SOL    HW1 8624   5.171   4.196   6.897
 2575SOL    HW2 8625   5.040   4.104   6.934
 2576SOL     OW 8626   3.902   6.928   3.781
 2576SOL    HW1 8627   3.876   6.870   3.858
 2576SOL    HW2 8628   3.821   6.954   3.729
 2577SOL     OW 8629   4.096   6.247   2.260
 2577SOL    HW1 8630   4.166   6.317   2.274
 2577SOL    HW2 8631   4.012   6.275   2.307
 2578SOL     OW 8632   4.581   2.863   5.307
 2578SOL    HW1 8633   4.542   2.930   5.371
 2578SOL    HW2 8634   4.508   2.825   5.250
 2579SOL     OW 8635   1.209   0.776   3.602
 2579SOL    HW1 8636   1.263   0.718   3.664
 2579SOL    HW2 8637   1.168   0.720   3.531
 2580SOL     OW 8638   2.210   2.478   0.024
 2580SOL    HW1 8639   2.126   2.468   0.076
 2580SOL    HW2 8640   2.284   2.507   0.084
 2581SOL     OW 8641   6.720   4.612   1.807
 2581SOL    HW1 8642   6.805   4.567   1.777
 2581SOL    HW2 8643   6.702   4.691   1.748
 2582SOL     OW 8644   1.310   4.450   2.570
 2582SOL    HW1 8645   1.270   4.494   2.489
 2582SOL    HW2 8646   1.296   4.351   2.565
 2583SOL     OW 8647   0.554   1.834   1.106
 2583SOL    HW1 8648   0.646   1.856   1.140
 2583SOL    HW2 8649   0.560   1.766   1.033
 2584SOL     OW 8650   3.808   5.840   0.359
 2584SOL    HW1 8651   3.838   5.920   0.307
 2584SOL    HW2 8652   3.871   5.764   0.344
 2585SOL     OW 8653   3.471   1.226   0.154
 2585SOL    HW1 8654   3.476   1.318   0.115
 2585SOL    HW2 8655   3.414   1.227   0.236
 2586SOL     OW 8656   4.110   1.959   3.485
 2586SOL    HW1 8657   4.054   2.026   3.436
 2586SOL    HW2 8658   4.055   1.916   3.557
 2587SOL     OW 8659   6.776   0.577   3.628
 2587SOL    HW1 8660   6.693   0.524   3.611
 2587SOL    HW2 8661   6.754   0.657   3.683
 2588SOL     OW 8662   4.818   6.952   6.677
 2588SOL    HW1 8663   4.750   6.904   6.732
 2588SOL    HW2 8664   4.813   0.032   6.694
 2589SOL     OW 8665   0.421   5.810   5.616
 2589SOL    HW1 8666   0.496   5.876   5.624
 2589SOL    HW2 8667   0.363   5.836   5.539
 2590SOL     OW 8668   3.455   6.111   1.569
 2590SOL    HW1 8669   3.551   6.109   1.598
 2590SOL    HW2 8670   3.396   6.092   1.647
 2591SOL     OW 8671   6.807   5.900   2.141
 2591SOL    HW1 8672   6.782   5.883   2.236
 2591SOL    HW2 8673   6.727   5.934   2.091
 2592SOL     OW 8674   3.078   6.982   1.367
 2592SOL    HW1 8675   2.982   6.997   1.342
 2592SOL    HW2 8676   3.086   6.980   1.467
 2593SOL     OW 8677   2.910   6.488   1.424
 2593SOL    HW1 8678   2.823   6.482   1.376
 2593SOL    HW2 8679   2.906   6.561   1.492
 2594SOL     OW 8680   6.989   5.732   5.879
 2594SOL    HW1 8681   0.033   5.711   5.954
 2594SOL    HW2 8682   0.024   5.758   5.798
 2595SOL     OW 8683   6.268   1.299   5.045
 2595SOL    HW1 8684   6.303   1.325   4.955
 2595SOL    HW2 8685   6.316   1.351   5.115
 2596SOL     OW 8686   3.945   2.110   1.984
 2596SOL    HW1 8687   3.954   2.030   2.044
 2596SOL    HW2 8688   3.853   2.149   1.993
 2597SOL     OW 8689   2.422   3.770   6.769
 2597SOL    HW1 8690   2.499   3.834   6.759
 2597SOL    HW2 8691   2.406   3.753   6.866
 2598SOL     OW 8692   5.826   0.765   4.350
 2598SOL    HW1 8693   5.917   0.756   4.308
 2598SOL    HW2 8694   5.766   0.692   4.316
 2599SOL     OW 8695   2.969   0.633   0.610
 2599SOL    HW1 8696   2.930   0.542   0.597
 2599SOL    HW2 8697   2.930   0.676   0.691
 2600SOL     OW 8698   5.071   3.340   4.554
 2600SOL    HW1 8699   5.142   3.393   4.508
 2600SOL    HW2 8700   5.017   3.400   4.613
 2601SOL     OW 8701   2.516   1.772   6.571
 2601SOL    HW1 8702   2.582   1.803   6.640
 2601SOL    HW2 8703   2.556   1.696   6.519
 2602SOL     OW 8704   6.557   4.796   3.899
 2602SOL    HW1 8705   6.573   4.832   3.991
 2602SOL    HW2 8706   6.642   4.758   3.862
 2603SOL     OW 8707   2.332   1.938   2.307
 2603SOL    HW1 8708   2.406   2.003   2.287
 2603SOL    HW2 8709   2.343   1.903   2.400
 2604SOL     OW 8710   4.904   1.144   3.432
 2604SOL    HW1 8711   4.910   1.053   3.392
 2604SOL    HW2 8712   4.837   1.198   3.382
 2605SOL     OW 8713   2.373   4.368   3.105
 2605SOL    HW1 8714   2.285   4.385   3.151
 2605SOL    HW2 8715   2.369   4.279   3.059
 2606SOL     OW 8716   6.488   4.536   1.085
 2606SOL    HW1 8717   6.418   4.602   1.112
 2606SOL    HW2 8718   6.560   4.584   1.034
 2607SOL     OW 8719   0.296   1.232   5.947
 2607SOL    HW1 8720   0.227   1.241   5.876
 2607SOL    HW2 8721   0.381   1.197   5.907
 2608SOL     OW 8722   4.355   5.005   2.128
 2608SOL    HW1 8723   4.316   5.083   2.079
 2608SOL    HW2 8724   4.445   5.029   2.164
 2609SOL     OW 8725   0.327   1.576   1.681
 2609SOL    HW1 8726   0.395   1.513   1.719
 2609SOL    HW2 8727   0.237   1.533   1.681
 2610SOL     OW 8728   0.002   5.294   4.040
 2610SOL    HW1 8729   0.006   5.394   4.039
 2610SOL    HW2 8730   0.093   5.257   4.056
 2611SOL     OW 8731   4.382   6.389   0.828
 2611SOL    HW1 8732   4.292   6.406   0.789
 2611SOL    HW2 8733   4.375   6.316   0.896
 2612SOL     OW 8734   6.484   6.598   5.752
 2612SOL    HW1 8735   6.561   6.662   5.747
 2612SOL    HW2 8736   6.407   6.635   5.701
 2613SOL     OW 8737   2.454   6.569   0.721
 2613SOL    HW1 8738   2.354   6.574   0.713
 2613SOL    HW2 8739   2.489   6.500   0.658
 2614SOL     OW 8740   6.282   0.700   5.992
 2614SOL    HW1 8741   6.250   0.686   6.086
 2614SOL    HW2 8742   6.373   0.660   5.982
 2615SOL     OW 8743   6.431   3.532   3.639
 2615SOL    HW1 8744   6.505   3.476   3.678
 2615SOL    HW2 8745   6.449   3.547   3.542
 2616SOL     OW 8746   3.639   3.522   4.246
 2616SOL    HW1 8747   3.572   3.533   4.319
 2616SOL    HW2 8748   3.635   3.428   4.211
 2617SOL     OW 8749   3.872   6.752   0.530
 2617SOL    HW1 8750   3.831   6.823   0.587
 2617SOL    HW2 8751   3.841   6.762   0.435
 2618SOL     OW 8752   0.321   6.698   4.290
 2618SOL    HW1 8753   0.238   6.666   4.334
 2618SOL    HW2 8754   0.333   6.650   4.203
 2619SOL     OW 8755   4.047   1.518   2.941
 2619SOL    HW1 8756   3.963   1.554   2.902
 2619SOL    HW2 8757   4.101   1.593   2.979
 2620SOL     OW 8758   0.039   6.472   2.820
 2620SOL    HW1 8759   0.081   6.532   2.752
 2620SOL    HW2 8760   7.002   6.403   2.774
 2621SOL     OW 8761   1.084   5.741   2.519
 2621SOL    HW1 8762   1.120   5.751   2.612
 2621SOL    HW2 8763   0.989   5.774   2.517
 2622SOL     OW 8764   2.357   2.549   5.698
 2622SOL    HW1 8765   2.331   2.534   5.793
 2622SOL    HW2 8766   2.387   2.463   5.657
 2623SOL     OW 8767   2.410   1.251   5.517
 2623SOL    HW1 8768   2.352   1.327   5.487
 2623SOL    HW2 8769   2.506   1.276   5.503
 2624SOL     OW 8770   6.567   2.102   5.380
 2624SOL    HW1 8771   6.626   2.126   5.303
 2624SOL    HW2 8772   6.489   2.164   5.384
 2625SOL     OW 8773   2.729   1.963   5.571
 2625SOL    HW1 8774   2.633   1.938   5.569
 2625SOL    HW2 8775   2.758   1.977   5.666
 2626SOL     OW 8776   0.213   0.147   5.268
 2626SOL    HW1 8777   0.154   0.222   5.300
 2626SOL    HW2 8778   0.308   0.177   5.270
 2627SOL     OW 8779   1.392   1.477   5.463
 2627SOL    HW1 8780   1.389   1.514   5.370
 2627SOL    HW2 8781   1.476   1.425   5.476
 2628SOL     OW 8782   2.239   5.125   6.118
 2628SOL    HW1 8783   2.287   5.038   6.111
 2628SOL    HW2 8784   2.216   5.143   6.214
 2629SOL     OW 8785   3.033   3.756   1.972
 2629SOL    HW1 8786   3.066   3.673   1.928
 2629SOL    HW2 8787   2.994   3.733   2.062
 2630SOL     OW 8788   2.949   1.487   3.179
 2630SOL    HW1 8789   2.851   1.469   3.174
 2630SOL    HW2 8790   2.975   1.553   3.109
 2631SOL     OW 8791   4.863   0.425   5.086
 2631SOL    HW1 8792   4.898   0.466   5.002
 2631SOL    HW2 8793   4.922   0.349   5.114
 2632SOL     OW 8794   3.293   1.958   6.084
 2632SOL    HW1 8795   3.387   1.936   6.062
 2632SOL    HW2 8796   3.281   2.058   6.085
 2633SOL     OW 8797   6.614   1.003   4.792
 2633SOL    HW1 8798   6.659   0.915   4.807
 2633SOL    HW2 8799   6.670   1.060   4.732
 2634SOL     OW 8800   1.146   3.815   3.083
 2634SOL    HW1 8801   1.228   3.798   3.028
 2634SOL    HW2 8802   1.130   3.736   3.143
 2635SOL     OW 8803   6.534   5.854   5.705
 2635SOL    HW1 8804   6.500   5.760   5.710
 2635SOL    HW2 8805   6.464   5.913   5.664
 2636SOL     OW 8806   5.020   0.185   5.106
 2636SOL    HW1 8807   5.075   0.267   5.123
 2636SOL    HW2 8808   5.042   0.116   5.176
 2637SOL     OW 8809   5.313   1.598   3.559
 2637SOL    HW1 8810   5.235   1.606   3.621
 2637SOL    HW2 8811   5.361   1.512   3.576
 2638SOL     OW 8812   6.577   0.275   3.370
 2638SOL    HW1 8813   6.526   0.227   3.300
 2638SOL    HW2 8814   6.655   0.322   3.328
 2639SOL     OW 8815   0.710   6.779   1.363
 2639SOL    HW1 8816   0.767   6.698   1.375
 2639SOL    HW2 8817   0.741   6.829   1.282
 2640SOL     OW 8818   0.312   5.844   4.549
 2640SOL    HW1 8819   0.334   5.784   4.472
 2640SOL    HW2 8820   0.392   5.899   4.572
 2641SOL     OW 8821   4.908   3.219   2.017
 2641SOL    HW1 8822   4.843   3.143   2.013
 2641SOL    HW2 8823   4.922   3.246   2.112
 2642SOL     OW 8824   4.250   0.041   4.188
 2642SOL    HW1 8825   4.280   0.098   4.111
 2642SOL    HW2 8826   4.313   6.981   4.198
 2643SOL     OW 8827   0.145   3.454   2.725
 2643SOL    HW1 8828   0.054   3.479   2.759
 2643SOL    HW2 8829   0.210   3.452   2.802
 2644SOL     OW 8830   6.197   5.213   5.982
 2644SOL    HW1 8831   6.292   5.231   5.958
 2644SOL    HW2 8832   6.182   5.114   5.985
 2645SOL     OW 8833   4.250   5.566   4.929
 2645SOL    HW1 8834   4.276   5.662   4.939
 2645SOL    HW2 8835   4.304   5.510   4.992
 2646SOL     OW 8836   6.164   0.751   6.677
 2646SOL    HW1 8837   6.074   0.792   6.692
 2646SOL    HW2 8838   6.223   0.768   6.755
 2647SOL     OW 8839   6.466   0.454   1.514
 2647SOL    HW1 8840   6.495   0.400   1.434
 2647SOL    HW2 8841   6.445   0.392   1.590
 2648SOL     OW 8842   0.145   0.483   4.005
 2648SOL    HW1 8843   0.167   0.459   4.100
 2648SOL    HW2 8844   0.100   0.406   3.960
 2649SOL     OW 8845   5.905   2.899   6.730
 2649SOL    HW1 8846   5.957   2.838   6.790
 2649SOL    HW2 8847   5.861   2.970   6.784
 2650SOL     OW 8848   0.652   4.284   4.242
 2650SOL    HW1 8849   0.623   4.342   4.166
 2650SOL    HW2 8850   0.581   4.218   4.264
 2651SOL     OW 8851   0.655   1.261   0.128
 2651SOL    HW1 8852   0.688   1.187   0.187
 2651SOL    HW2 8853   0.732   1.319   0.101
 2652SOL     OW 8854   3.564   4.061   4.007
 2652SOL    HW1 8855   3.561   3.976   4.060
 2652SOL    HW2 8856   3.646   4.061   3.949
 2653SOL     OW 8857   5.189   6.472   5.715
 2653SOL    HW1 8858   5.160   6.549   5.772
 2653SOL    HW2 8859   5.156   6.386   5.755
 2654SOL     OW 8860   4.995   5.360   1.044
 2654SOL    HW1 8861   5.021   5.311   1.128
 2654SOL    HW2 8862   4.897   5.381   1.048
 2655SOL     OW 8863   4.612   5.651   4.033
 2655SOL    HW1 8864   4.664   5.668   3.949
 2655SOL    HW2 8865   4.551   5.572   4.018
 2656SOL     OW 8866   3.366   5.025   3.926
 2656SOL    HW1 8867   3.370   4.977   4.014
 2656SOL    HW2 8868   3.433   4.985   3.864
 2657SOL     OW 8869   1.392   3.966   6.449
 2657SOL    HW1 8870   1.377   3.884   6.503
 2657SOL    HW2 8871   1.436   4.036   6.505
 2658SOL     OW 8872   4.940   4.589   0.180
 2658SOL    HW1 8873   4.841   4.603   0.181
 2658SOL    HW2 8874   4.961   4.501   0.137
 2659SOL     OW 8875   6.046   2.804   4.752
 2659SOL    HW1 8876   5.952   2.797   4.720
 2659SOL    HW2 8877   6.100   2.857   4.686
 2660SOL     OW 8878   1.052   1.031   0.937
 2660SOL    HW1 8879   0.983   0.961   0.956
 2660SOL    HW2 8880   1.142   0.989   0.932
 2661SOL     OW 8881   2.564   0.113   0.920
 2661SOL    HW1 8882   2.599   0.091   1.011
 2661SOL    HW2 8883   2.547   0.028   0.870
 2662SOL     OW 8884   4.611   6.677   5.841
 2662SOL    HW1 8885   4.700   6.632   5.841
 2662SOL    HW2 8886   4.593   6.716   5.931
 2663SOL     OW 8887   2.784   3.842   0.644
 2663SOL    HW1 8888   2.741   3.926   0.611
 2663SOL    HW2 8889   2.714   3.773   0.661
 2664SOL     OW 8890   3.874   4.352   5.384
 2664SOL    HW1 8891   3.964   4.373   5.347
 2664SOL    HW2 8892   3.806   4.412   5.341
 2665SOL     OW 8893   2.535   2.763   5.263
 2665SOL    HW1 8894   2.464   2.725   5.323
 2665SOL    HW2 8895   2.509   2.856   5.238
 2666SOL     OW 8896   5.749   4.241   0.933
 2666SOL    HW1 8897   5.681   4.208   0.867
 2666SOL    HW2 8898   5.838   4.202   0.913
 2667SOL     OW 8899   1.594   6.156   4.193
 2667SOL    HW1 8900   1.543   6.163   4.107
 2667SOL    HW2 8901   1.688   6.186   4.179
 2668SOL     OW 8902   6.504   3.533   4.401
 2668SOL    HW1 8903   6.522   3.631   4.394
 2668SOL    HW2 8904   6.587   3.485   4.427
 2669SOL     OW 8905   2.797   4.332   5.308
 2669SOL    HW1 8906   2.721   4.396   5.307
 2669SOL    HW2 8907   2.883   4.382   5.302
 2670SOL     OW 8908   6.081   2.760   6.465
 2670SOL    HW1 8909   6.091   2.736   6.368
 2670SOL    HW2 8910   5.986   2.783   6.485
 2671SOL     OW 8911   3.858   5.345   6.253
 2671SOL    HW1 8912   3.824   5.415   6.191
 2671SOL    HW2 8913   3.958   5.338   6.243
 2672SOL     OW 8914   0.554   5.336   0.684
 2672SOL    HW1 8915   0.530   5.284   0.767
 2672SOL    HW2 8916   0.582   5.428   0.710
 2673SOL     OW 8917   6.292   1.380   3.966
 2673SOL    HW1 8918   6.235   1.461   3.949
 2673SOL    HW2 8919   6.255   1.303   3.914
 2674SOL     OW 8920   1.139   4.330   3.511
 2674SOL    HW1 8921   1.178   4.385   3.437
 2674SOL    HW2 8922   1.156   4.233   3.493
 2675SOL     OW 8923   6.617   5.328   3.612
 2675SOL    HW1 8924   6.567   5.319   3.698
 2675SOL    HW2 8925   6.562   5.381   3.547
 2676SOL     OW 8926   4.303   1.656   0.610
 2676SOL    HW1 8927   4.390   1.641   0.657
 2676SOL    HW2 8928   4.320   1.686   0.516
 2677SOL     OW 8929   3.136   3.406   0.529
 2677SOL    HW1 8930   3.059   3.424   0.590
 2677SOL    HW2 8931   3.206   3.355   0.579
 2678SOL     OW 8932   0.503   2.819   1.299
 2678SOL    HW1 8933   0.496   2.830   1.398
 2678SOL    HW2 8934   0.598   2.805   1.274
 2679SOL     OW 8935   3.210   4.877   1.030
 2679SOL    HW1 8936   3.174   4.875   0.936
 2679SOL    HW2 8937   3.304   4.843   1.030
 2680SOL     OW 8938   1.371   1.224   0.571
 2680SOL    HW1 8939   1.462   1.213   0.611
 2680SOL    HW2 8940   1.345   1.320   0.572
 2681SOL     OW 8941   1.145   2.924   5.001
 2681SOL    HW1 8942   1.093   2.839   4.989
 2681SOL    HW2 8943   1.218   2.928   4.933
 2682SOL     OW 8944   5.049   4.698   2.299
 2682SOL    HW1 8945   4.955   4.664   2.300
 2682SOL    HW2 8946   5.097   4.658   2.221
 2683SOL     OW 8947   2.847   4.625   1.324
 2683SOL    HW1 8948   2.922   4.673   1.279
 2683SOL    HW2 8949   2.882   4.546   1.374
 2684SOL     OW 8950   4.338   5.550   1.008
 2684SOL    HW1 8951   4.238   5.553   1.013
 2684SOL    HW2 8952   4.373   5.643   0.995
 2685SOL     OW 8953   6.375   6.283   6.860
 2685SOL    HW1 8954   6.405   6.337   6.781
 2685SOL    HW2 8955   6.287   6.317   6.893
 2686SOL     OW 8956   1.942   1.970   5.635
 2686SOL    HW1 8957   1.936   1.983   5.536
 2686SOL    HW2 8958   1.871   2.024   5.680
 2687SOL     OW 8959   4.799   4.164   2.059
 2687SOL    HW1 8960   4.715   4.217   2.046
 2687SOL    HW2 8961   4.847   4.156   1.972
 2688SOL     OW 8962   4.244   4.253   0.033
 2688SOL    HW1 8963   4.224   4.346   0.065
 2688SOL    HW2 8964   4.175   4.226   6.983
 2689SOL     OW 8965   1.700   3.288   3.472
 2689SOL    HW1 8966   1.609   3.322   3.448
 2689SOL    HW2 8967   1.695   3.240   3.559
 2690SOL     OW 8968   3.500   3.452   3.550
 2690SOL    HW1 8969   3.557   3.529   3.579
 2690SOL    HW2 8970   3.546   3.366   3.572
 2691SOL     OW 8971   0.994   5.686   1.974
 2691SOL    HW1 8972   0.974   5.651   2.065
 2691SOL    HW2 8973   1.088   5.665   1.950
 2692SOL     OW 8974   3.434   5.442   2.583
 2692SOL    HW1 8975   3.371   5.492   2.524
 2692SOL    HW2 8976   3.424   5.344   2.567
 2693SOL     OW 8977   2.067   5.176   2.481
 2693SOL    HW1 8978   1.981   5.188   2.532
 2693SOL    HW2 8979   2.059   5.095   2.422
 2694SOL     OW 8980   4.223   6.408   2.977
 2694SOL    HW1 8981   4.206   6.439   2.884
 2694SOL    HW2 8982   4.201   6.483   3.041
 2695SOL     OW 8983   5.157   0.406   2.319
 2695SOL    HW1 8984   5.113   0.446   2.399
 2695SOL    HW2 8985   5.086   0.371   2.257
 2696SOL     OW 8986   3.811   3.635   5.443
 2696SOL    HW1 8987   3.903   3.594   5.450
 2696SOL    HW2 8988   3.819   3.728   5.407
 2697SOL     OW 8989   3.594   1.775   3.028
 2697SOL    HW1 8990   3.687   1.754   3.056
 2697SOL    HW2 8991   3.540   1.690   3.025
 2698SOL     OW 8992   2.413   6.616   0.387
 2698SOL    HW1 8993   2.444   6.532   0.342
 2698SOL    HW2 8994   2.313   6.617   0.392
 2699SOL     OW 8995   2.814   6.961   0.725
 2699SOL    HW1 8996   2.779   6.915   0.643
 2699SOL    HW2 8997   2.844   6.894   0.792
 2700SOL     OW 8998   2.250   3.920   0.729
 2700SOL    HW1 8999   2.271   3.977   0.650
 2700SOL    HW2 9000   2.214   3.978   0.803
 2701SOL     OW 9001   5.139   1.223   6.521
 2701SOL    HW1 9002   5.061   1.284   6.530
 2701SOL    HW2 9003   5.212   1.252   6.583
 2702SOL     OW 9004   0.786   3.192   3.859
 2702SOL    HW1 9005   0.781   3.149   3.949
 2702SOL    HW2 9006   0.721   3.268   3.853
 2703SOL     OW 9007   1.707   0.598   2.038
 2703SOL    HW1 9008   1.614   0.634   2.032
 2703SOL    HW2 9009   1.757   0.622   1.955
 2704SOL     OW 9010   6.939   6.603   1.363
 2704SOL    HW1 9011   6.881   6.557   1.431
 2704SOL    HW2 9012   7.004   6.663   1.410
 2705SOL     OW 9013   0.114   5.377   4.339
 2705SOL    HW1 9014   0.076   5.426   4.418
 2705SOL    HW2 9015   0.133   5.282   4.365
 2706SOL     OW 9016   0.280   6.907   1.705
 2706SOL    HW1 9017   0.356   6.892   1.642
 2706SOL    HW2 9018   0.218   6.974   1.665
 2707SOL     OW 9019   3.087   0.023   4.307
 2707SOL    HW1 9020   3.024   0.077   4.250
 2707SOL    HW2 9021   3.136   6.975   4.250
 2708SOL     OW 9022   0.414   2.359   6.541
 2708SOL    HW1 9023   0.482   2.337   6.611
 2708SOL    HW2 9024   0.419   2.292   6.467
 2709SOL     OW 9025   6.615   6.733   0.201
 2709SOL    HW1 9026   6.710   6.760   0.216
 2709SOL    HW2 9027   6.554   6.804   0.236
 2710SOL     OW 9028   0.848   3.788   3.690
 2710SOL    HW1 9029   0.908   3.733   3.748
 2710SOL    HW2 9030   0.903   3.852   3.637
 2711SOL     OW 9031   2.152   1.293   4.168
 2711SOL    HW1 9032   2.144   1.341   4.081
 2711SOL    HW2 9033   2.190   1.202   4.153
 2712SOL     OW 9034   2.950   4.344   0.923
 2712SOL    HW1 9035   2.890   4.381   0.995
 2712SOL    HW2 9036   2.923   4.250   0.902
 2713SOL     OW 9037   2.452   2.427   4.654
 2713SOL    HW1 9038   2.551   2.427   4.664
 2713SOL    HW2 9039   2.421   2.339   4.618
 2714SOL     OW 9040   4.248   2.296   0.435
 2714SOL    HW1 9041   4.331   2.337   0.475
 2714SOL    HW2 9042   4.170   2.355   0.453
 2715SOL     OW 9043   5.186   1.422   1.325
 2715SOL    HW1 9044   5.120   1.369   1.271
 2715SOL    HW2 9045   5.269   1.368   1.337
 2716SOL     OW 9046   5.196   4.167   2.889
 2716SOL    HW1 9047   5.194   4.178   2.988
 2716SOL    HW2 9048   5.289   4.184   2.856
 2717SOL     OW 9049   1.150   5.863   2.278
 2717SOL    HW1 9050   1.185   5.805   2.205
 2717SOL    HW2 9051   1.126   5.807   2.357
 2718SOL     OW 9052   2.204   1.922   5.413
 2718SOL    HW1 9053   2.116   1.955   5.379
 2718SOL    HW2 9054   2.237   1.983   5.485
 2719SOL     OW 9055   6.702   5.669   1.030
 2719SOL    HW1 9056   6.697   5.682   1.129
 2719SOL    HW2 9057   6.703   5.758   0.984
 2720SOL     OW 9058   2.095   5.889   2.234
 2720SOL    HW1 9059   2.012   5.877   2.288
 2720SOL    HW2 9060   2.120   5.802   2.191
 2721SOL     OW 9061   2.686   0.403   3.883
 2721SOL    HW1 9062   2.688   0.441   3.976
 2721SOL    HW2 9063   2.780   0.391   3.850
 2722SOL     OW 9064   6.515   5.419   1.604
 2722SOL    HW1 9065   6.522   5.385   1.510
 2722SOL    HW2 9066   6.554   5.511   1.609
 2723SOL     OW 9067   0.869   6.986   5.900
 2723SOL    HW1 9068   0.958   6.951   5.873
 2723SOL    HW2 9069   0.801   6.913   5.893
 2724SOL     OW 9070   1.945   6.817   6.830
 2724SOL    HW1 9071   1.863   6.872   6.840
 2724SOL    HW2 9072   2.011   6.865   6.772
 2725SOL     OW 9073   5.245   5.108   4.772
 2725SOL    HW1 9074   5.168   5.052   4.803
 2725SOL    HW2 9075   5.267   5.177   4.842
 2726SOL     OW 9076   6.896   2.589   1.230
 2726SOL    HW1 9077   6.848   2.571   1.316
 2726SOL    HW2 9078   6.873   2.517   1.164
 2727SOL     OW 9079   0.466   5.284   2.945
 2727SOL    HW1 9080   0.414   5.351   2.892
 2727SOL    HW2 9081   0.456   5.194   2.903
 2728SOL     OW 9082   4.350   6.410   5.621
 2728SOL    HW1 9083   4.337   6.396   5.719
 2728SOL    HW2 9084   4.386   6.501   5.605
 2729SOL     OW 9085   6.732   6.328   1.259
 2729SOL    HW1 9086   6.729   6.402   1.192
 2729SOL    HW2 9087   6.817   6.276   1.246
 2730SOL     OW 9088   1.655   5.543   1.648
 2730SOL    HW1 9089   1.723   5.549   1.575
 2730SOL    HW2 9090   1.654   5.629   1.699
 2731SOL     OW 9091   4.090   3.238   2.585
 2731SOL    HW1 9092   4.061   3.188   2.667
 2731SOL    HW2 9093   4.090   3.175   2.507
 2732SOL     OW 9094   5.562   1.972   1.826
 2732SOL    HW1 9095   5.512   1.968   1.739
 2732SOL    HW2 9096   5.571   2.067   1.855
 2733SOL     OW 9097   6.948   6.978   4.158
 2733SOL    HW1 9098   6.878   0.031   4.170
 2733SOL    HW2 9099   0.018   0.004   4.139
 2734SOL     OW 9100   2.362   6.343   1.871
 2734SOL    HW1 9101   2.453   6.363   1.906
 2734SOL    HW2 9102   2.301   6.420   1.892
 2735SOL     OW 9103   1.080   3.445   2.823
 2735SOL    HW1 9104   1.122   3.429   2.912
 2735SOL    HW2 9105   1.009   3.515   2.832
 2736SOL     OW 9106   4.807   6.635   5.102
 2736SOL    HW1 9107   4.904   6.645   5.122
 2736SOL    HW2 9108   4.770   6.721   5.067
 2737SOL     OW 9109   3.550   3.527   5.440
 2737SOL    HW1 9110   3.620   3.590   5.404
 2737SOL    HW2 9111   3.578   3.496   5.531
 2738SOL     OW 9112   5.082   5.410   3.011
 2738SOL    HW1 9113   5.167   5.394   3.061
 2738SOL    HW2 9114   5.020   5.333   3.026
 2739SOL     OW 9115   0.039   5.176   1.130
 2739SOL    HW1 9116   6.987   5.156   1.061
 2739SOL    HW2 9117   0.111   5.231   1.088
 2740SOL     OW 9118   6.746   3.801   2.744
 2740SOL    HW1 9119   6.676   3.837   2.806
 2740SOL    HW2 9120   6.702   3.763   2.663
 2741SOL     OW 9121   6.340   0.220   5.550
 2741SOL    HW1 9122   6.326   0.247   5.646
 2741SOL    HW2 9123   6.351   0.303   5.494
 2742SOL     OW 9124   1.895   5.318   6.586
 2742SOL    HW1 9125   1.970   5.382   6.600
 2742SOL    HW2 9126   1.816   5.366   6.551
 2743SOL     OW 9127   6.804   5.241   2.150
 2743SOL    HW1 9128   6.764   5.324   2.187
 2743SOL    HW2 9129   6.828   5.179   2.225
 2744SOL     OW 9130   5.088   1.693   6.393
 2744SOL    HW1 9131   5.003   1.731   6.430
 2744SOL    HW2 9132   5.165   1.750   6.422
 2745SOL     OW 9133   0.161   6.801   5.971
 2745SOL    HW1 9134   0.219   6.795   6.052
 2745SOL    HW2 9135   0.096   6.725   5.971
 2746SOL     OW 9136   2.577   2.049   4.089
 2746SOL    HW1 9137   2.591   1.950   4.094
 2746SOL    HW2 9138   2.501   2.069   4.028
 2747SOL     OW 9139   6.272   3.800   6.292
 2747SOL    HW1 9140   6.194   3.769   6.346
 2747SOL    HW2 9141   6.275   3.900   6.291
 2748SOL     OW 9142   5.576   1.675   1.170
 2748SOL    HW1 9143   5.483   1.654   1.139
 2748SOL    HW2 9144   5.617   1.743   1.109
 2749SOL     OW 9145   6.530   4.957   2.923
 2749SOL    HW1 9146   6.595   4.923   2.855
 2749SOL    HW2 9147   6.579   5.002   2.997
 2750SOL     OW 9148   0.477   5.347   1.262
 2750SOL    HW1 9149   0.457   5.271   1.200
 2750SOL    HW2 9150   0.394   5.370   1.313
 2751SOL     OW 9151   0.547   6.463   1.398
 2751SOL    HW1 9152   0.464   6.450   1.454
 2751SOL    HW2 9153   0.574   6.559   1.400
 2752SOL     OW 9154   4.384   4.607   5.954
 2752SOL    HW1 9155   4.419   4.522   5.915
 2752SOL    HW2 9156   4.402   4.683   5.892
 2753SOL     OW 9157   0.153   6.583   5.370
 2753SOL    HW1 9158   0.081   6.577   5.300
 2753SOL    HW2 9159   0.242   6.565   5.328
 2754SOL     OW 9160   0.266   0.720   2.985
 2754SOL    HW1 9161   0.232   0.790   3.048
 2754SOL    HW2 9162   0.346   0.756   2.936
 2755SOL     OW 9163   2.008   6.819   3.342
 2755SOL    HW1 9164   1.918   6.843   3.307
 2755SOL    HW2 9165   2.054   6.902   3.375
 2756SOL     OW 9166   5.777   4.318   6.190
 2756SOL    HW1 9167   5.771   4.350   6.096
 2756SOL    HW2 9168   5.858   4.357   6.234
 2757SOL     OW 9169   2.293   0.927   6.227
 2757SOL    HW1 9170   2.358   0.943   6.152
 2757SOL    HW2 9171   2.337   0.946   6.314
 2758SOL     OW 9172   4.883   6.072   2.936
 2758SOL    HW1 9173   4.791   6.069   2.975
 2758SOL    HW2 9174   4.943   6.123   2.996
 2759SOL     OW 9175   5.127   5.554   5.555
 2759SOL    HW1 9176   5.034   5.528   5.581
 2759SOL    HW2 9177   5.168   5.608   5.628
 2760SOL     OW 9178   0.146   5.946   2.876
 2760SOL    HW1 9179   0.158   6.029   2.820
 2760SOL    HW2 9180   0.049   5.928   2.888
 2761SOL     OW 9181   2.076   4.072   4.957
 2761SOL    HW1 9182   2.171   4.049   4.978
 2761SOL    HW2 9183   2.056   4.164   4.991
 2762SOL     OW 9184   2.118   0.693   6.084
 2762SOL    HW1 9185   2.152   0.600   6.102
 2762SOL    HW2 9186   2.165   0.758   6.144
 2763SOL     OW 9187   4.653   2.374   4.869
 2763SOL    HW1 9188   4.735   2.406   4.917
 2763SOL    HW2 9189   4.582   2.350   4.935
 2764SOL     OW 9190   6.893   1.121   1.387
 2764SOL    HW1 9191   6.853   1.212   1.397
 2764SOL    HW2 9192   6.906   1.080   1.477
 2765SOL     OW 9193   6.365   6.683   0.595
 2765SOL    HW1 9194   6.419   6.607   0.631
 2765SOL    HW2 9195   6.423   6.763   0.584
 2766SOL     OW 9196   4.692   2.766   0.464
 2766SOL    HW1 9197   4.631   2.707   0.411
 2766SOL    HW2 9198   4.653   2.781   0.555
 2767SOL     OW 9199   6.454   5.462   0.423
 2767SOL    HW1 9200   6.506   5.528   0.479
 2767SOL    HW2 9201   6.517   5.413   0.364
 2768SOL     OW 9202   4.638   0.307   1.427
 2768SOL    HW1 9203   4.686   0.357   1.499
 2768SOL    HW2 9204   4.591   0.371   1.367
 2769SOL     OW 9205   1.578   4.775   6.317
 2769SOL    HW1 9206   1.504   4.841   6.327
 2769SOL    HW2 9207   1.650   4.794   6.384
 2770SOL     OW 9208   4.357   5.395   5.768
 2770SOL    HW1 9209   4.373   5.380   5.670
 2770SOL    HW2 9210   4.353   5.307   5.815
 2771SOL     OW 9211   5.898   1.146   4.529
 2771SOL    HW1 9212   5.979   1.099   4.493
 2771SOL    HW2 9213   5.829   1.078   4.555
 2772SOL     OW 9214   3.810   1.405   0.767
 2772SOL    HW1 9215   3.896   1.456   0.768
 2772SOL    HW2 9216   3.760   1.421   0.852
 2773SOL     OW 9217   6.503   2.142   4.573
 2773SOL    HW1 9218   6.514   2.240   4.561
 2773SOL    HW2 9219   6.406   2.118   4.568
 2774SOL     OW 9220   5.367   2.744   3.459
 2774SOL    HW1 9221   5.387   2.787   3.547
 2774SOL    HW2 9222   5.395   2.648   3.461
 2775SOL     OW 9223   6.968   3.964   5.470
 2775SOL    HW1 9224   6.872   3.964   5.445
 2775SOL    HW2 9225   6.977   3.967   5.570
 2776SOL     OW 9226   4.807   4.123   5.853
 2776SOL    HW1 9227   4.778   4.180   5.776
 2776SOL    HW2 9228   4.730   4.110   5.915
 2777SOL     OW 9229   2.972   1.938   1.317
 2777SOL    HW1 9230   2.925   2.026   1.324
 2777SOL    HW2 9231   2.947   1.893   1.231
 2778SOL     OW 9232   1.810   7.011   5.895
 2778SOL    HW1 9233   1.761   6.924   5.891
 2778SOL    HW2 9234   1.888   7.002   5.956
 2779SOL     OW 9235   5.401   6.171   2.512
 2779SOL    HW1 9236   5.380   6.198   2.606
 2779SOL    HW2 9237   5.348   6.089   2.488
 2780SOL     OW 9238   0.674   6.781   5.904
 2780SOL    HW1 9239   0.712   6.689   5.893
 2780SOL    HW2 9240   0.586   6.786   5.857
 2781SOL     OW 9241   6.106   0.449   1.928
 2781SOL    HW1 9242   6.100   0.350   1.942
 2781SOL    HW2 9243   6.032   0.479   1.867
 2782SOL     OW 9244   4.492   0.989   5.019
 2782SOL    HW1 9245   4.590   1.002   5.034
 2782SOL    HW2 9246   4.457   0.925   5.088
 2783SOL     OW 9247   5.098   4.048   2.431
 2783SOL    HW1 9248   5.078   4.090   2.519
 2783SOL    HW2 9249   5.152   3.965   2.444
 2784SOL     OW 9250   3.713   1.508   2.256
 2784SOL    HW1 9251   3.688   1.447   2.331
 2784SOL    HW2 9252   3.699   1.603   2.285
 2785SOL     OW 9253   6.009   2.367   0.874
 2785SOL    HW1 9254   5.946   2.369   0.951
 2785SOL    HW2 9255   6.098   2.334   0.905
 2786SOL     OW 9256   5.477   6.839   2.376
 2786SOL    HW1 9257   5.440   6.860   2.466
 2786SOL    HW2 9258   5.449   6.747   2.349
 2787SOL     OW 9259   5.401   6.556   5.576
 2787SOL    HW1 9260   5.325   6.520   5.630
 2787SOL    HW2 9261   5.486   6.547   5.628
 2788SOL     OW 9262   2.310   6.348   5.802
 2788SOL    HW1 9263   2.406   6.338   5.828
 2788SOL    HW2 9264   2.298   6.434   5.751
 2789SOL     OW 9265   1.835   2.280   4.119
 2789SOL    HW1 9266   1.846   2.207   4.052
 2789SOL    HW2 9267   1.799   2.242   4.204
 2790SOL     OW 9268   3.595   5.748   1.682
 2790SOL    HW1 9269   3.574   5.694   1.763
 2790SOL    HW2 9270   3.626   5.687   1.609
 2791SOL     OW 9271   0.333   2.933   2.538
 2791SOL    HW1 9272   0.356   2.963   2.446
 2791SOL    HW2 9273   0.255   2.986   2.573
 2792SOL     OW 9274   2.070   0.532   3.985
 2792SOL    HW1 9275   2.023   0.446   3.965
 2792SOL    HW2 9276   2.167   0.524   3.963
 2793SOL     OW 9277   5.271   3.685   1.201
 2793SOL    HW1 9278   5.235   3.719   1.114
 2793SOL    HW2 9279   5.285   3.763   1.263
 2794SOL     OW 9280   6.658   1.892   6.436
 2794SOL    HW1 9281   6.677   1.839   6.518
 2794SOL    HW2 9282   6.590   1.962   6.456
 2795SOL     OW 9283   1.039   3.376   1.014
 2795SOL    HW1 9284   0.992   3.324   1.085
 2795SOL    HW2 9285   1.060   3.468   1.048
 2796SOL     OW 9286   0.453   6.299   3.382
 2796SOL    HW1 9287   0.421   6.205   3.380
 2796SOL    HW2 9288   0.445   6.339   3.291
 2797SOL     OW 9289   5.135   5.177   5.116
 2797SOL    HW1 9290   5.120   5.142   5.209
 2797SOL    HW2 9291   5.228   5.214   5.110
 2798SOL     OW 9292   6.347   5.486   2.569
 2798SOL    HW1 9293   6.334   5.442   2.657
 2798SOL    HW2 9294   6.360   5.416   2.498
 2799SOL     OW 9295   5.643   5.088   5.986
 2799SOL    HW1 9296   5.560   5.044   5.952
 2799SOL    HW2 9297   5.684   5.143   5.913
 2800SOL     OW 9298   4.606   6.298   6.214
 2800SOL    HW1 9299   4.593   6.359   6.292
 2800SOL    HW2 9300   4.519   6.253   6.192
 2801SOL     OW 9301   0.074   5.165   5.696
 2801SOL    HW1 9302   0.137   5.243   5.696
 2801SOL    HW2 9303   7.012   5.186   5.640
 2802SOL     OW 9304   5.215   6.322   5.483
 2802SOL    HW1 9305   5.197   6.385   5.557
 2802SOL    HW2 9306   5.312   6.297   5.483
 2803SOL     OW 9307   4.167   5.439   6.131
 2803SOL    HW1 9308   4.121   5.509   6.186
 2803SOL    HW2 9309   4.260   5.469   6.109
 2804SOL     OW 9310   1.077   4.318   5.227
 2804SOL    HW1 9311   1.052   4.376   5.304
 2804SOL    HW2 9312   1.058   4.366   5.141
 2805SOL     OW 9313   5.708   3.530   2.897
 2805SOL    HW1 9314   5.677   3.624   2.881
 2805SOL    HW2 9315   5.728   3.487   2.809
 2806SOL     OW 9316   1.708   4.008   6.087
 2806SOL    HW1 9317   1.737   3.960   6.004
 2806SOL    HW2 9318   1.631   3.959   6.128
 2807SOL     OW 9319   3.770   6.762   3.954
 2807SOL    HW1 9320   3.708   6.806   4.019
 2807SOL    HW2 9321   3.719   6.740   3.870
 2808SOL     OW 9322   6.319   5.439   2.096
 2808SOL    HW1 9323   6.332   5.456   2.193
 2808SOL    HW2 9324   6.249   5.369   2.083
 2809SOL     OW 9325   5.306   2.637   0.833
 2809SOL    HW1 9326   5.253   2.722   0.822
 2809SOL    HW2 9327   5.388   2.657   0.887
 2810SOL     OW 9328   2.269   5.613   2.958
 2810SOL    HW1 9329   2.319   5.527   2.942
 2810SOL    HW2 9330   2.234   5.647   2.871
 2811SOL     OW 9331   1.635   1.997   3.930
 2811SOL    HW1 9332   1.544   2.029   3.956
 2811SOL    HW2 9333   1.630   1.899   3.908
 2812SOL     OW 9334   5.773   3.103   0.133
 2812SOL    HW1 9335   5.871   3.103   0.152
 2812SOL    HW2 9336   5.725   3.051   0.204
 2813SOL     OW 9337   0.944   0.687   6.394
 2813SOL    HW1 9338   0.873   0.715   6.458
 2813SOL    HW2 9339   0.917   0.602   6.349
 2814SOL     OW 9340   3.361   4.200   5.501
 2814SOL    HW1 9341   3.358   4.245   5.412
 2814SOL    HW2 9342   3.375   4.268   5.573
 2815SOL     OW 9343   6.906   5.413   6.184
 2815SOL    HW1 9344   6.902   5.377   6.091
 2815SOL    HW2 9345   6.868   5.346   6.248
 2816SOL     OW 9346   6.695   5.824   3.531
 2816SOL    HW1 9347   6.627   5.775   3.477
 2816SOL    HW2 9348   6.651   5.869   3.608
 2817SOL     OW 9349   3.063   0.322   1.920
 2817SOL    HW1 9350   3.053   0.388   1.995
 2817SOL    HW2 9351   3.158   0.323   1.888
 2818SOL     OW 9352   0.382   0.649   2.626
 2818SOL    HW1 9353   0.396   0.742   2.660
 2818SOL    HW2 9354   0.293   0.642   2.581
 2819SOL     OW 9355   2.224   0.553   1.632
 2819SOL    HW1 9356   2.133   0.527   1.663
 2819SOL    HW2 9357   2.216   0.621   1.558
 2820SOL     OW 9358   1.160   2.247   3.760
 2820SOL    HW1 9359   1.116   2.160   3.782
 2820SOL    HW2 9360   1.134   2.275   3.668
 2821SOL     OW 9361   3.917   4.996   5.929
 2821SOL    HW1 9362   3.901   4.913   5.876
 2821SOL    HW2 9363   3.976   5.058   5.877
 2822SOL     OW 9364   4.024   1.698   6.979
 2822SOL    HW1 9365   3.957   1.771   6.993
 2822SOL    HW2 9366   4.065   1.672   0.048
 2823SOL     OW 9367   5.227   1.048   1.135
 2823SOL    HW1 9368   5.253   1.042   1.232
 2823SOL    HW2 9369   5.308   1.065   1.080
 2824SOL     OW 9370   2.226   1.984   4.612
 2824SOL    HW1 9371   2.173   2.038   4.546
 2824SOL    HW2 9372   2.246   1.894   4.573
 2825SOL     OW 9373   5.249   6.399   6.509
 2825SOL    HW1 9374   5.183   6.470   6.533
 2825SOL    HW2 9375   5.201   6.323   6.464
 2826SOL     OW 9376   4.896   2.253   0.083
 2826SOL    HW1 9377   4.989   2.262   0.047
 2826SOL    HW2 9378   4.830   2.277   0.012
 2827SOL     OW 9379   0.419   1.161   6.417
 2827SOL    HW1 9380   0.377   1.201   6.336
 2827SOL    HW2 9381   0.474   1.082   6.390
 2828SOL     OW 9382   2.272   2.338   0.423
 2828SOL    HW1 9383   2.340   2.292   0.479
 2828SOL    HW2 9384   2.238   2.275   0.352
 2829SOL     OW 9385   3.511   2.838   3.374
 2829SOL    HW1 9386   3.589   2.880   3.421
 2829SOL    HW2 9387   3.457   2.786   3.439
 2830SOL     OW 9388   2.963   4.061   5.181
 2830SOL    HW1 9389   2.875   4.108   5.170
 2830SOL    HW2 9390   3.007   4.092   5.265
 2831SOL     OW 9391   0.615   3.554   3.093
 2831SOL    HW1 9392   0.636   3.466   3.049
 2831SOL    HW2 9393   0.520   3.578   3.075
 2832SOL     OW 9394   0.564   2.914   2.060
 2832SOL    HW1 9395   0.514   2.836   2.022
 2832SOL    HW2 9396   0.642   2.935   2.001
 2833SOL     OW 9397   3.025   1.533   2.561
 2833SOL    HW1 9398   2.986   1.442   2.571
 2833SOL    HW2 9399   3.067   1.561   2.648
 2834SOL     OW 9400   3.918   6.202   5.663
 2834SOL    HW1 9401   3.833   6.254   5.660
 2834SOL    HW2 9402   3.897   6.104   5.659
 2835SOL     OW 9403   0.412   6.916   1.175
 2835SOL    HW1 9404   0.457   7.000   1.206
 2835SOL    HW2 9405   0.474   6.865   1.116
 2836SOL     OW 9406   0.741   6.698   1.750
 2836SOL    HW1 9407   0.658   6.754   1.754
 2836SOL    HW2 9408   0.718   6.609   1.712
 2837SOL     OW 9409   4.874   4.422   2.467
 2837SOL    HW1 9410   4.841   4.373   2.547
 2837SOL    HW2 9411   4.928   4.360   2.410
 2838SOL     OW 9412   3.998   3.704   0.800
 2838SOL    HW1 9413   3.986   3.664   0.709
 2838SOL    HW2 9414   3.924   3.768   0.818
 2839SOL     OW 9415   6.876   2.240   3.164
 2839SOL    HW1 9416   6.959   2.257   3.111
 2839SOL    HW2 9417   6.828   2.160   3.127
 2840SOL     OW 9418   2.028   0.053   1.846
 2840SOL    HW1 9419   2.093   0.032   1.773
 2840SOL    HW2 9420   1.969   0.129   1.817
 2841SOL     OW 9421   6.173   2.258   6.392
 2841SOL    HW1 9422   6.118   2.179   6.368
 2841SOL    HW2 9423   6.114   2.334   6.420
 2842SOL     OW 9424   0.075   4.822   4.011
 2842SOL    HW1 9425   0.153   4.763   3.989
 2842SOL    HW2 9426   0.083   4.908   3.961
 2843SOL     OW 9427   2.641   2.453   3.018
 2843SOL    HW1 9428   2.698   2.473   3.098
 2843SOL    HW2 9429   2.545   2.468   3.041
 2844SOL     OW 9430   6.191   5.563   0.341
 2844SOL    HW1 9431   6.147   5.498   0.278
 2844SOL    HW2 9432   6.279   5.526   0.370
 2845SOL     OW 9433   5.504   3.280   2.102
 2845SOL    HW1 9434   5.506   3.344   2.179
 2845SOL    HW2 9435   5.414   3.282   2.059
 2846SOL     OW 9436   4.330   0.327   0.643
 2846SOL    HW1 9437   4.247   0.349   0.695
 2846SOL    HW2 9438   4.305   0.308   0.548
 2847SOL     OW 9439   5.355   3.857   2.911
 2847SOL    HW1 9440   5.259   3.837   2.930
 2847SOL    HW2 9441   5.362   3.903   2.822
 2848SOL     OW 9442   2.464   2.481   5.036
 2848SOL    HW1 9443   2.386   2.503   5.095
 2848SOL    HW2 9444   2.458   2.536   4.952
 2849SOL     OW 9445   3.776   0.284   0.952
 2849SOL    HW1 9446   3.730   0.373   0.950
 2849SOL    HW2 9447   3.822   0.272   1.040
 2850SOL     OW 9448   1.872   0.221   2.768
 2850SOL    HW1 9449   1.885   0.320   2.780
 2850SOL    HW2 9450   1.825   0.204   2.681
 2851SOL     OW 9451   5.877   2.186   6.530
 2851SOL    HW1 9452   5.894   2.284   6.525
 2851SOL    HW2 9453   5.822   2.158   6.450
 2852SOL     OW 9454   6.653   4.147   6.863
 2852SOL    HW1 9455   6.746   4.172   6.889
 2852SOL    HW2 9456   6.634   4.053   6.890
 2853SOL     OW 9457   1.883   2.372   5.949
 2853SOL    HW1 9458   1.865   2.464   5.915
 2853SOL    HW2 9459   1.980   2.365   5.976
 2854SOL     OW 9460   4.141   1.163   5.908
 2854SOL    HW1 9461   4.071   1.137   5.841
 2854SOL    HW2 9462   4.192   1.082   5.936
 2855SOL     OW 9463   1.880   1.639   5.532
 2855SOL    HW1 9464   1.960   1.691   5.561
 2855SOL    HW2 9465   1.836   1.685   5.454
 2856SOL     OW 9466   0.698   3.482   5.015
 2856SOL    HW1 9467   0.735   3.439   5.097
 2856SOL    HW2 9468   0.644   3.562   5.041
 2857SOL     OW 9469   0.889   2.467   1.067
 2857SOL    HW1 9470   0.872   2.519   0.983
 2857SOL    HW2 9471   0.849   2.515   1.145
 2858SOL     OW 9472   4.234   5.145   2.501
 2858SOL    HW1 9473   4.153   5.101   2.462
 2858SOL    HW2 9474   4.213   5.176   2.594
 2859SOL     OW 9475   6.744   0.107   6.306
 2859SOL    HW1 9476   6.782   0.063   6.388
 2859SOL    HW2 9477   6.688   0.185   6.334
 2860SOL     OW 9478   2.160   1.453   2.274
 2860SOL    HW1 9479   2.171   1.539   2.224
 2860SOL    HW2 9480   2.234   1.442   2.340
 2861SOL     OW 9481   2.907   5.587   5.146
 2861SOL    HW1 9482   2.984   5.530   5.117
 2861SOL    HW2 9483   2.839   5.592   5.072
 2862SOL     OW 9484   4.417   1.971   1.331
 2862SOL    HW1 9485   4.498   1.994   1.276
 2862SOL    HW2 9486   4.364   2.054   1.348
 2863SOL     OW 9487   4.658   1.365   6.542
 2863SOL    HW1 9488   4.626   1.458   6.559
 2863SOL    HW2 9489   4.581   1.301   6.548
 2864SOL     OW 9490   4.873   2.226   1.178
 2864SOL    HW1 9491   4.912   2.316   1.163
 2864SOL    HW2 9492   4.910   2.188   1.264
 2865SOL     OW 9493   4.338   6.234   4.116
 2865SOL    HW1 9494   4.293   6.146   4.105
 2865SOL    HW2 9495   4.298   6.282   4.195
 2866SOL     OW 9496   5.743   4.867   6.529
 2866SOL    HW1 9497   5.780   4.804   6.460
 2866SOL    HW2 9498   5.730   4.819   6.615
 2867SOL     OW 9499   6.305   6.226   2.654
 2867SOL    HW1 9500   6.224   6.168   2.649
 2867SOL    HW2 9501   6.385   6.171   2.676
 2868SOL     OW 9502   1.796   1.083   5.968
 2868SOL    HW1 9503   1.789   1.032   5.882
 2868SOL    HW2 9504   1.850   1.166   5.953
 2869SOL     OW 9505   6.825   1.262   2.960
 2869SOL    HW1 9506   6.821   1.212   2.873
 2869SOL    HW2 9507   6.843   1.197   3.035
 2870SOL     OW 9508   0.750   1.370   5.480
 2870SOL    HW1 9509   0.723   1.461   5.449
 2870SOL    HW2 9510   0.849   1.358   5.466
 2871SOL     OW 9511   5.840   0.816   0.016
 2871SOL    HW1 9512   5.758   0.763   7.016
 2871SOL    HW2 9513   5.819   0.890   0.080
 2872SOL     OW 9514   2.467   2.160   1.611
 2872SOL    HW1 9515   2.517   2.143   1.526
 2872SOL    HW2 9516   2.511   2.112   1.687
 2873SOL     OW 9517   6.204   6.642   2.220
 2873SOL    HW1 9518   6.143   6.618   2.145
 2873SOL    HW2 9519   6.278   6.700   2.186
 2874SOL     OW 9520   4.190   6.539   2.711
 2874SOL    HW1 9521   4.252   6.587   2.649
 2874SOL    HW2 9522   4.167   6.450   2.672
 2875SOL     OW 9523   5.527   6.846   0.886
 2875SOL    HW1 9524   5.594   6.776   0.914
 2875SOL    HW2 9525   5.463   6.805   0.821
 2876SOL     OW 9526   2.029   0.469   2.610
 2876SOL    HW1 9527   2.070   0.446   2.698
 2876SOL    HW2 9528   1.960   0.540   2.622
 2877SOL     OW 9529   2.676   1.203   5.680
 2877SOL    HW1 9530   2.764   1.197   5.727
 2877SOL    HW2 9531   2.604   1.219   5.747
 2878SOL     OW 9532   3.110   4.054   5.436
 2878SOL    HW1 9533   3.152   3.981   5.382
 2878SOL    HW2 9534   3.181   4.110   5.477
 2879SOL     OW 9535   4.977   5.495   6.030
 2879SOL    HW1 9536   5.075   5.480   6.036
 2879SOL    HW2 9537   4.930   5.428   6.088
 2880SOL     OW 9538   0.169   2.101   2.863
 2880SOL    HW1 9539   0.146   2.088   2.767
 2880SOL    HW2 9540   0.263   2.133   2.871
 2881SOL     OW 9541   4.174   5.868   0.105
 2881SOL    HW1 9542   4.116   5.796   0.143
 2881SOL    HW2 9543   4.141   5.958   0.136
 2882SOL     OW 9544   6.935   5.658   1.793
 2882SOL    HW1 9545   6.937   5.670   1.693
 2882SOL    HW2 9546   6.854   5.606   1.819
 2883SOL     OW 9547   5.982   0.066   4.030
 2883SOL    HW1 9548   5.976   0.029   3.937
 2883SOL    HW2 9549   6.053   0.136   4.034
 2884SOL     OW 9550   1.016   6.838   2.896
 2884SOL    HW1 9551   0.953   6.783   2.841
 2884SOL    HW2 9552   1.096   6.783   2.920
 2885SOL     OW 9553   1.754   3.133   3.699
 2885SOL    HW1 9554   1.735   3.041   3.667
 2885SOL    HW2 9555   1.777   3.131   3.797
 2886SOL     OW 9556   1.911   3.396   6.440
 2886SOL    HW1 9557   1.924   3.468   6.371
 2886SOL    HW2 9558   1.993   3.339   6.445
 2887SOL     OW 9559   0.621   6.738   5.199
 2887SOL    HW1 9560   0.547   6.763   5.261
 2887SOL    HW2 9561   0.582   6.704   5.113
 2888SOL     OW 9562   0.216   3.930   6.801
 2888SOL    HW1 9563   0.194   3.913   6.897
 2888SOL    HW2 9564   0.291   3.871   6.772
 2889SOL     OW 9565   3.020   6.056   2.257
 2889SOL    HW1 9566   3.025   6.013   2.166
 2889SOL    HW2 9567   2.925   6.081   2.276
 2890SOL     OW 9568   1.878   6.460   0.359
 2890SOL    HW1 9569   1.931   6.375   0.350
 2890SOL    HW2 9570   1.810   6.449   0.431
 2891SOL     OW 9571   0.454   4.465   3.427
 2891SOL    HW1 9572   0.466   4.439   3.331
 2891SOL    HW2 9573   0.528   4.525   3.456
 2892SOL     OW 9574   6.413   2.646   0.841
 2892SOL    HW1 9575   6.337   2.708   0.824
 2892SOL    HW2 9576   6.466   2.632   0.757
 2893SOL     OW 9577   0.779   5.290   4.121
 2893SOL    HW1 9578   0.777   5.353   4.044
 2893SOL    HW2 9579   0.791   5.197   4.089
 2894SOL     OW 9580   6.938   3.071   2.174
 2894SOL    HW1 9581   6.888   2.985   2.168
 2894SOL    HW2 9582   0.000   3.060   2.233
 2895SOL     OW 9583   5.023   0.922   5.334
 2895SOL    HW1 9584   5.043   1.001   5.390
 2895SOL    HW2 9585   4.925   0.919   5.314
 2896SOL     OW 9586   4.441   6.627   5.377
 2896SOL    HW1 9587   4.437   6.651   5.474
 2896SOL    HW2 9588   4.534   6.601   5.352
 2897SOL     OW 9589   4.038   4.781   2.761
 2897SOL    HW1 9590   4.081   4.745   2.678
 2897SOL    HW2 9591   3.957   4.835   2.736
 2898SOL     OW 9592   4.417   4.551   4.493
 2898SOL    HW1 9593   4.483   4.598   4.553
 2898SOL    HW2 9594   4.467   4.493   4.429
 2899SOL     OW 9595   0.648   1.697   0.622
 2899SOL    HW1 9596   0.637   1.598   0.632
 2899SOL    HW2 9597   0.639   1.722   0.526
 2900SOL     OW 9598   2.827   4.600   6.765
 2900SOL    HW1 9599   2.926   4.606   6.747
 2900SOL    HW2 9600   2.809   4.619   6.861
 2901SOL     OW 9601   2.242   4.831   3.183
 2901SOL    HW1 9602   2.287   4.920   3.175
 2901SOL    HW2 9603   2.264   4.791   3.273
 2902SOL     OW 9604   5.906   5.060   3.298
 2902SOL    HW1 9605   5.979   5.019   3.243
 2902SOL    HW2 9606   5.919   5.034   3.394
 2903SOL     OW 9607   4.564   6.722   0.567
 2903SOL    HW1 9608   4.511   6.651   0.522
 2903SOL    HW2 9609   4.660   6.714   0.540
 2904SOL     OW 9610   2.470   4.967   4.514
 2904SOL    HW1 9611   2.458   4.969   4.414
 2904SOL    HW2 9612   2.393   4.919   4.556
 2905SOL     OW 9613   1.424   3.716   4.235
 2905SOL    HW1 9614   1.372   3.796   4.265
 2905SOL    HW2 9615   1.516   3.744   4.210
 2906SOL     OW 9616   4.604   4.702   2.567
 2906SOL    HW1 9617   4.607   4.604   2.584
 2906SOL    HW2 9618   4.541   4.746   2.631
 2907SOL     OW 9619   0.357   1.817   3.796
 2907SOL    HW1 9620   0.337   1.733   3.746
 2907SOL    HW2 9621   0.334   1.896   3.738
 2908SOL     OW 9622   5.336   6.405   3.711
 2908SOL    HW1 9623   5.305   6.384   3.804
 2908SOL    HW2 9624   5.258   6.402   3.648
 2909SOL     OW 9625   1.600   5.905   3.759
 2909SOL    HW1 9626   1.627   5.839   3.689
 2909SOL    HW2 9627   1.525   5.962   3.723
 2910SOL     OW 9628   5.483   0.653   4.408
 2910SOL    HW1 9629   5.408   0.587   4.414
 2910SOL    HW2 9630   5.503   0.690   4.498
 2911SOL     OW 9631   1.451   6.251   3.137
 2911SOL    HW1 9632   1.534   6.275   3.188
 2911SOL    HW2 9633   1.415   6.332   3.092
 2912SOL     OW 9634   5.889   6.382   0.398
 2912SOL    HW1 9635   5.875   6.292   0.357
 2912SOL    HW2 9636   5.802   6.432   0.399
 2913SOL     OW 9637   3.825   4.928   1.803
 2913SOL    HW1 9638   3.799   4.903   1.709
 2913SOL    HW2 9639   3.791   4.858   1.866
 2914SOL     OW 9640   6.697   5.982   6.509
 2914SOL    HW1 9641   6.738   5.918   6.575
 2914SOL    HW2 9642   6.732   5.962   6.418
 2915SOL     OW 9643   3.310   2.043   3.610
 2915SOL    HW1 9644   3.250   2.120   3.587
 2915SOL    HW2 9645   3.280   1.962   3.560
 2916SOL     OW 9646   1.219   5.821   0.536
 2916SOL    HW1 9647   1.274   5.753   0.488
 2916SOL    HW2 9648   1.127   5.784   0.552
 2917SOL     OW 9649   2.537   0.090   3.509
 2917SOL    HW1 9650   2.453   0.058   3.554
 2917SOL    HW2 9651   2.607   0.106   3.578
 2918SOL     OW 9652   6.389   4.175   5.095
 2918SOL    HW1 9653   6.412   4.240   5.169
 2918SOL    HW2 9654   6.290   4.173   5.082
 2919SOL     OW 9655   5.827   0.394   2.440
 2919SOL    HW1 9656   5.789   0.486   2.427
 2919SOL    HW2 9657   5.919   0.401   2.477
 2920SOL     OW 9658   3.024   1.067   1.171
 2920SOL    HW1 9659   3.123   1.084   1.168
 2920SOL    HW2 9660   2.976   1.149   1.141
 2921SOL     OW 9661   0.676   6.442   4.633
 2921SOL    HW1 9662   0.601   6.447   4.567
 2921SOL    HW2 9663   0.743   6.374   4.603
 2922SOL     OW 9664   4.773   6.819   1.496
 2922SOL    HW1 9665   4.711   6.873   1.552
 2922SOL    HW2 9666   4.834   6.881   1.446
 2923SOL     OW 9667   6.169   5.280   2.989
 2923SOL    HW1 9668   6.120   5.352   3.038
 2923SOL    HW2 9669   6.176   5.199   3.048
 2924SOL     OW 9670   6.651   2.261   5.673
 2924SOL    HW1 9671   6.703   2.310   5.603
 2924SOL    HW2 9672   6.683   2.288   5.764
 2925SOL     OW 9673   5.837   2.052   0.607
 2925SOL    HW1 9674   5.746   2.039   0.568
 2925SOL    HW2 9675   5.841   2.009   0.697
 2926SOL     OW 9676   6.022   1.548   6.452
 2926SOL    HW1 9677   6.071   1.606   6.387
 2926SOL    HW2 9678   5.924   1.549   6.430
 2927SOL     OW 9679   1.544   4.190   1.452
 2927SOL    HW1 9680   1.527   4.241   1.368
 2927SOL    HW2 9681   1.461   4.186   1.507
 2928SOL     OW 9682   0.541   0.762   6.628
 2928SOL    HW1 9683   0.479   0.841   6.629
 2928SOL    HW2 9684   0.497   0.686   6.677
 2929SOL     OW 9685   1.225   2.473   6.353
 2929SOL    HW1 9686   1.160   2.519   6.292
 2929SOL    HW2 9687   1.181   2.392   6.392
 2930SOL     OW 9688   5.307   6.976   5.769
 2930SOL    HW1 9689   5.281   0.054   5.767
 2930SOL    HW2 9690   5.354   6.952   5.684
 2931SOL     OW 9691   5.127   4.786   0.039
 2931SOL    HW1 9692   5.139   4.688   0.055
 2931SOL    HW2 9693   5.153   4.837   0.121
 2932SOL     OW 9694   1.084   6.089   1.936
 2932SOL    HW1 9695   1.130   6.176   1.954
 2932SOL    HW2 9696   1.024   6.066   2.013
 2933SOL     OW 9697   1.545   5.538   2.499
 2933SOL    HW1 9698   1.639   5.520   2.470
 2933SOL    HW2 9699   1.506   5.455   2.539
 2934SOL     OW 9700   5.059   1.709   6.880
 2934SOL    HW1 9701   5.154   1.721   6.852
 2934SOL    HW2 9702   5.030   1.615   6.861
 2935SOL     OW 9703   6.812   2.376   6.250
 2935SOL    HW1 9704   6.803   2.277   6.240
 2935SOL    HW2 9705   6.838   2.398   6.344
 2936SOL     OW 9706   4.814   6.200   0.269
 2936SOL    HW1 9707   4.736   6.173   0.325
 2936SOL    HW2 9708   4.863   6.118   0.238
 2937SOL     OW 9709   5.659   4.736   1.703
 2937SOL    HW1 9710   5.559   4.742   1.705
 2937SOL    HW2 9711   5.698   4.827   1.717
 2938SOL     OW 9712   4.984   5.112   6.411
 2938SOL    HW1 9713   4.910   5.100   6.477
 2938SOL    HW2 9714   5.044   5.032   6.413
 2939SOL     OW 9715   2.481   0.794   2.307
 2939SOL    HW1 9716   2.382   0.789   2.291
 2939SOL    HW2 9717   2.521   0.703   2.298
 2940SOL     OW 9718   5.689   4.892   5.473
 2940SOL    HW1 9719   5.686   4.991   5.485
 2940SOL    HW2 9720   5.597   4.857   5.455
 2941SOL     OW 9721   1.849   2.489   4.403
 2941SOL    HW1 9722   1.795   2.523   4.326
 2941SOL    HW2 9723   1.788   2.452   4.473
 2942SOL     OW 9724   4.082   2.024   0.534
 2942SOL    HW1 9725   4.162   2.074   0.503
 2942SOL    HW2 9726   4.039   1.978   0.456
 2943SOL     OW 9727   5.565   4.015   3.736
 2943SOL    HW1 9728   5.567   4.088   3.805
 2943SOL    HW2 9729   5.571   3.926   3.781
 2944SOL     OW 9730   2.830   6.145   4.547
 2944SOL    HW1 9731   2.898   6.185   4.485
 2944SOL    HW2 9732   2.792   6.062   4.506
 2945SOL     OW 9733   3.469   3.670   2.452
 2945SOL    HW1 9734   3.485   3.657   2.550
 2945SOL    HW2 9735   3.388   3.726   2.439
 2946SOL     OW 9736   1.413   5.050   6.027
 2946SOL    HW1 9737   1.347   5.036   5.953
 2946SOL    HW2 9738   1.506   5.048   5.990
 2947SOL     OW 9739   0.102   5.087   1.388
 2947SOL    HW1 9740   0.071   5.118   1.298
 2947SOL    HW2 9741   0.028   5.099   1.454
 2948SOL     OW 9742   0.328   4.102   4.110
 2948SOL    HW1 9743   0.382   4.018   4.119
 2948SOL    HW2 9744   0.352   4.165   4.184
 2949SOL     OW 9745   1.346   5.291   0.943
 2949SOL    HW1 9746   1.361   5.297   0.844
 2949SOL    HW2 9747   1.318   5.381   0.977
 2950SOL     OW 9748   5.317   5.419   4.473
 2950SOL    HW1 9749   5.226   5.437   4.511
 2950SOL    HW2 9750   5.329   5.321   4.459
 2951SOL     OW 9751   4.993   1.751   2.526
 2951SOL    HW1 9752   4.988   1.731   2.624
 2951SOL    HW2 9753   4.906   1.787   2.494
 2952SOL     OW 9754   0.186   5.351   5.124
 2952SOL    HW1 9755   0.155   5.446   5.124
 2952SOL    HW2 9756   0.142   5.302   5.199
 2953SOL     OW 9757   5.903   4.145   2.340
 2953SOL    HW1 9758   5.948   4.232   2.364
 2953SOL    HW2 9759   5.967   4.088   2.289
 2954SOL     OW 9760   0.999   5.341   1.846
 2954SOL    HW1 9761   0.991   5.298   1.936
 2954SOL    HW2 9762   0.909   5.374   1.816
 2955SOL     OW 9763   0.800   4.048   1.704
 2955SOL    HW1 9764   0.818   4.043   1.606
 2955SOL    HW2 9765   0.702   4.042   1.721
 2956SOL     OW 9766   5.880   6.243   2.740
 2956SOL    HW1 9767   5.828   6.328   2.737
 2956SOL    HW2 9768   5.879   6.207   2.833
 2957SOL     OW 9769   5.418   4.392   1.376
 2957SOL    HW1 9770   5.506   4.422   1.341
 2957SOL    HW2 9771   5.426   4.372   1.474
 2958SOL     OW 9772   2.290   4.193   3.459
 2958SOL    HW1 9773   2.335   4.273   3.418
 2958SOL    HW2 9774   2.291   4.117   3.395
 2959SOL     OW 9775   4.882   3.901   0.890
 2959SOL    HW1 9776   4.958   3.858   0.842
 2959SOL    HW2 9777   4.888   3.879   0.988
 2960SOL     OW 9778   3.237   0.693   0.611
 2960SOL    HW1 9779   3.284   0.714   0.526
 2960SOL    HW2 9780   3.143   0.665   0.592
 2961SOL     OW 9781   6.005   4.809   3.133
 2961SOL    HW1 9782   5.954   4.770   3.056
 2961SOL    HW2 9783   6.081   4.864   3.098
 2962SOL     OW 9784   4.578   6.730   3.403
 2962SOL    HW1 9785   4.648   6.671   3.444
 2962SOL    HW2 9786   4.488   6.696   3.431
 2963SOL     OW 9787   1.503   1.104   6.032
 2963SOL    HW1 9788   1.596   1.077   6.005
 2963SOL    HW2 9789   1.507   1.187   6.086
 2964SOL     OW 9790   0.258   1.101   5.184
 2964SOL    HW1 9791   0.211   1.188   5.168
 2964SOL    HW2 9792   0.332   1.090   5.118
 2965SOL     OW 9793   0.540   1.119   4.241
 2965SOL    HW1 9794   0.599   1.039   4.228
 2965SOL    HW2 9795   0.596   1.198   4.263
 2966SOL     OW 9796   4.498   4.704   3.655
 2966SOL    HW1 9797   4.584   4.748   3.632
 2966SOL    HW2 9798   4.432   4.718   3.581
 2967SOL     OW 9799   6.182   1.039   4.782
 2967SOL    HW1 9800   6.084   1.017   4.789
 2967SOL    HW2 9801   6.205   1.109   4.850
 2968SOL     OW 9802   1.196   3.058   0.653
 2968SOL    HW1 9803   1.150   3.098   0.732
 2968SOL    HW2 9804   1.174   2.961   0.647
 2969SOL     OW 9805   5.057   2.874   4.620
 2969SOL    HW1 9806   5.062   2.945   4.549
 2969SOL    HW2 9807   4.967   2.877   4.664
 2970SOL     OW 9808   2.668   2.530   5.212
 2970SOL    HW1 9809   2.610   2.500   5.137
 2970SOL    HW2 9810   2.633   2.616   5.250
 2971SOL     OW 9811   5.223   4.095   0.157
 2971SOL    HW1 9812   5.160   4.098   0.079
 2971SOL    HW2 9813   5.199   4.017   0.215
 2972SOL     OW 9814   0.147   4.756   6.239
 2972SOL    HW1 9815   0.232   4.705   6.248
 2972SOL    HW2 9816   0.154   4.820   6.162
 2973SOL     OW 9817   5.044   5.986   1.745
 2973SOL    HW1 9818   5.127   6.037   1.768
 2973SOL    HW2 9819   4.964   6.039   1.773
 2974SOL     OW 9820   0.646   4.631   3.809
 2974SOL    HW1 9821   0.616   4.550   3.860
 2974SOL    HW2 9822   0.661   4.606   3.713
 2975SOL     OW 9823   5.185   3.632   4.088
 2975SOL    HW1 9824   5.208   3.550   4.037
 2975SOL    HW2 9825   5.090   3.626   4.121
 2976SOL     OW 9826   4.105   2.242   2.940
 2976SOL    HW1 9827   4.185   2.223   2.997
 2976SOL    HW2 9828   4.024   2.250   2.999
 2977SOL     OW 9829   1.788   0.343   2.346
 2977SOL    HW1 9830   1.749   0.275   2.408
 2977SOL    HW2 9831   1.887   0.329   2.338
 2978SOL     OW 9832   3.993   4.976   7.007
 2978SOL    HW1 9833   4.010   4.894   6.954
 2978SOL    HW2 9834   4.022   4.961   0.084
 2979SOL     OW 9835   3.813   1.363   3.762
 2979SOL    HW1 9836   3.782   1.407   3.678
 2979SOL    HW2 9837   3.911   1.378   3.772
 2980SOL     OW 9838   1.452   5.138   4.994
 2980SOL    HW1 9839   1.441   5.065   4.927
 2980SOL    HW2 9840   1.547   5.142   5.024
 2981SOL     OW 9841   2.974   1.217   6.334
 2981SOL    HW1 9842   3.032   1.292   6.367
 2981SOL    HW2 9843   2.908   1.252   6.267
 2982SOL     OW 9844   3.218   5.976   1.718
 2982SOL    HW1 9845   3.154   5.914   1.674
 2982SOL    HW2 9846   3.255   5.933   1.800
 2983SOL     OW 9847   6.187   2.338   2.698
 2983SOL    HW1 9848   6.109   2.400   2.689
 2983SOL    HW2 9849   6.237   2.359   2.781
 2984SOL     OW 9850   6.238   4.392   0.110
 2984SOL    HW1 9851   6.194   4.302   0.109
 2984SOL    HW2 9852   6.171   4.461   0.139
 2985SOL     OW 9853   1.986   2.734   4.714
 2985SOL    HW1 9854   1.895   2.725   4.673
 2985SOL    HW2 9855   1.980   2.720   4.812
 2986SOL     OW 9856   3.573   4.150   3.127
 2986SOL    HW1 9857   3.489   4.170   3.177
 2986SOL    HW2 9858   3.652   4.158   3.188
 2987SOL     OW 9859   1.029   1.919   4.147
 2987SOL    HW1 9860   1.057   1.878   4.234
 2987SOL    HW2 9861   0.953   1.868   4.109
 2988SOL     OW 9862   1.709   6.359   2.878
 2988SOL    HW1 9863   1.794   6.328   2.921
 2988SOL    HW2 9864   1.727   6.382   2.782
 2989SOL     OW 9865   5.426   5.535   5.630
 2989SOL    HW1 9866   5.376   5.615   5.662
 2989SOL    HW2 9867   5.395   5.454   5.680
 2990SOL     OW 9868   3.551   1.813   4.540
 2990SOL    HW1 9869   3.635   1.869   4.541
 2990SOL    HW2 9870   3.522   1.799   4.445
 2991SOL     OW 9871   6.577   3.624   5.721
 2991SOL    HW1 9872   6.568   3.618   5.820
 2991SOL    HW2 9873   6.550   3.716   5.691
 2992SOL     OW 9874   1.587   5.211   4.654
 2992SOL    HW1 9875   1.659   5.252   4.599
 2992SOL    HW2 9876   1.546   5.281   4.713
 2993SOL     OW 9877   0.340   4.945   1.166
 2993SOL    HW1 9878   0.405   5.019   1.153
 2993SOL    HW2 9879   0.247   4.980   1.155
 2994SOL     OW 9880   3.772   6.691   6.921
 2994SOL    HW1 9881   3.831   6.644   6.855
 2994SOL    HW2 9882   3.689   6.722   6.875
 2995SOL     OW 9883   3.208   1.411   6.452
 2995SOL    HW1 9884   3.282   1.462   6.497
 2995SOL    HW2 9885   3.173   1.341   6.514
 2996SOL     OW 9886   0.795   1.361   4.856
 2996SOL    HW1 9887   0.878   1.381   4.909
 2996SOL    HW2 9888   0.752   1.446   4.827
 2997SOL     OW 9889   5.239   0.240   3.041
 2997SOL    HW1 9890   5.214   0.329   3.003
 2997SOL    HW2 9891   5.299   0.192   2.977
 2998SOL     OW 9892   5.527   6.473   3.494
 2998SOL    HW1 9893   5.569   6.555   3.531
 2998SOL    HW2 9894   5.444   6.452   3.546
 2999SOL     OW 9895   2.185   5.008   5.038
 2999SOL    HW1 9896   2.239   4.939   4.990
 2999SOL    HW2 9897   2.112   4.964   5.091
 3000SOL     OW 9898   3.393   3.998   6.371
 3000SOL    HW1 9899   3.432   4.013   6.280
 3000SOL    HW2 9900   3.464   3.962   6.431
 3001SOL     OW 9901   6.784   0.882   6.031
 3001SOL    HW1 9902   6.821   0.974   6.035
 3001SOL    HW2 9903   6.851   0.817   6.068
 3002SOL     OW 9904   3.063   1.647   6.685
 3002SOL    HW1 9905   3.046   1.732   6.735
 3002SOL    HW2 9906   3.026   1.655   6.592
 3003SOL     OW 9907   1.321   6.689   1.116
 3003SOL    HW1 9908   1.355   6.746   1.190
 3003SOL    HW2 9909   1.392   6.676   1.047
 3004SOL     OW 9910   0.406   3.870   2.958
 3004SOL    HW1 9911   0.420   3.785   2.909
 3004SOL    HW2 9912   0.343   3.854   3.034
 3005SOL     OW 9913   1.760   3.094   6.875
 3005SOL    HW1 9914   1.718   3.042   6.801
 3005SOL    HW2 9915   1.691   3.118   6.943
 3006SOL     OW 9916   5.477   1.890   4.282
 3006SOL    HW1 9917   5.518   1.953   4.216
 3006SOL    HW2 9918   5.514   1.909   4.373
 3007SOL     OW 9919   5.625   4.031   0.738
 3007SOL    HW1 9920   5.648   3.938   0.764
 3007SOL    HW2 9921   5.560   4.069   0.804
 3008SOL     OW 9922   3.305   2.255   6.076
 3008SOL    HW1 9923   3.231   2.319   6.058
 3008SOL    HW2 9924   3.378   2.269   6.010
 3009SOL     OW 9925   6.739   2.585   2.834
 3009SOL    HW1 9926   6.796   2.566   2.913
 3009SOL    HW2 9927   6.774   2.535   2.755
 3010SOL     OW 9928   2.956   5.546   3.176
 3010SOL    HW1 9929   2.869   5.497   3.178
 3010SOL    HW2 9930   3.022   5.493   3.123
 3011SOL     OW 9931   6.045   1.233   2.833
 3011SOL    HW1 9932   6.001   1.320   2.813
 3011SOL    HW2 9933   6.143   1.247   2.848
 3012SOL     OW 9934   2.197   3.591   6.701
 3012SOL    HW1 9935   2.232   3.547   6.619
 3012SOL    HW2 9936   2.268   3.648   6.742
 3013SOL     OW 9937   5.056   5.928   3.763
 3013SOL    HW1 9938   5.013   5.991   3.826
 3013SOL    HW2 9939   5.029   5.950   3.669
 3014SOL     OW 9940   4.726   2.433   5.284
 3014SOL    HW1 9941   4.634   2.469   5.303
 3014SOL    HW2 9942   4.775   2.497   5.226
 3015SOL     OW 9943   2.672   1.860   0.188
 3015SOL    HW1 9944   2.672   1.872   0.287
 3015SOL    HW2 9945   2.589   1.811   0.160
 3016SOL     OW 9946   2.982   6.247   4.332
 3016SOL    HW1 9947   2.975   6.338   4.372
 3016SOL    HW2 9948   2.918   6.239   4.256
 3017SOL     OW 9949   6.269   5.628   1.902
 3017SOL    HW1 9950   6.282   5.550   1.964
 3017SOL    HW2 9951   6.257   5.595   1.808
 3018SOL     OW 9952   2.634   6.972   5.881
 3018SOL    HW1 9953   2.607   6.879   5.856
 3018SOL    HW2 9954   2.626   0.013   5.800
 3019SOL     OW 9955   0.448   6.680   6.889
 3019SOL    HW1 9956   0.360   6.712   6.854
 3019SOL    HW2 9957   0.522   6.725   6.839
 3020SOL     OW 9958   3.961   2.578   1.036
 3020SOL    HW1 9959   3.989   2.483   1.044
 3020SOL    HW2 9960   3.969   2.607   0.940
 3021SOL     OW 9961   3.351   6.926   5.800
 3021SOL    HW1 9962   3.296   6.935   5.883
 3021SOL    HW2 9963   3.408   6.844   5.807
 3022SOL     OW 9964   4.149   5.653   5.189
 3022SOL    HW1 9965   4.129   5.614   5.099
 3022SOL    HW2 9966   4.088   5.730   5.206
 3023SOL     OW 9967   4.304   6.622   3.421
 3023SOL    HW1 9968   4.296   6.557   3.496
 3023SOL    HW2 9969   4.224   6.616   3.362
 3024SOL     OW 9970   5.011   6.347   4.986
 3024SOL    HW1 9971   5.051   6.437   5.005
 3024SOL    HW2 9972   4.926   6.337   5.037
 3025SOL     OW 9973   4.583   6.626   0.817
 3025SOL    HW1 9974   4.586   6.675   0.729
 3025SOL    HW2 9975   4.536   6.539   0.804
 3026SOL     OW 9976   1.302   1.071   5.863
 3026SOL    HW1 9977   1.362   1.087   5.941
 3026SOL    HW2 9978   1.228   1.138   5.863
 3027SOL     OW 9979   4.407   1.555   2.938
 3027SOL    HW1 9980   4.325   1.590   2.984
 3027SOL    HW2 9981   4.484   1.615   2.957
 3028SOL     OW 9982   1.640   3.576   5.877
 3028SOL    HW1 9983   1.720   3.617   5.920
 3028SOL    HW2 9984   1.568   3.564   5.945
 3029SOL     OW 9985   0.406   3.231   5.289
 3029SOL    HW1 9986   0.328   3.217   5.350
 3029SOL    HW2 9987   0.375   3.224   5.194
 3030SOL     OW 9988   0.507   3.443   0.567
 3030SOL    HW1 9989   0.592   3.477   0.607
 3030SOL    HW2 9990   0.529   3.382   0.491
 3031SOL     OW 9991   6.955   4.866   1.635
 3031SOL    HW1 9992   0.010   4.810   1.596
 3031SOL    HW2 9993   6.986   4.905   1.722
 3032SOL     OW 9994   2.452   6.764   1.554
 3032SOL    HW1 9995   2.427   6.837   1.491
 3032SOL    HW2 9996   2.505   6.802   1.629
 3033SOL     OW 9997   5.750   1.475   1.641
 3033SOL    HW1 9998   5.721   1.566   1.673
 3033SOL    HW2 9999   5.764   1.415   1.720
 3034SOL     OW10000   1.010   0.218   2.901
 3034SOL    HW110001   1.108   0.235   2.890
 3034SOL    HW210002   0.959   0.300   2.877
 3035SOL     OW10003   0.261   2.811   5.956
 3035SOL    HW110004   0.323   2.780   6.028
 3035SOL    HW210005   0.254   2.740   5.885
 3036SOL     OW10006   1.958   1.286   5.901
 3036SOL    HW110007   2.036   1.340   5.933
 3036SOL    HW210008   1.900   1.343   5.842
 3037SOL     OW10009   6.336   5.561   6.488
 3037SOL    HW110010   6.337   5.464   6.465
 3037SOL    HW210011   6.355   5.615   6.406
 3038SOL     OW10012   5.231   5.682   5.761
 3038SOL    HW110013   5.140   5.720   5.778
 3038SOL    HW210014   5.285   5.686   5.845
 3039SOL     OW10015   0.500   3.446   1.171
 3039SOL    HW110016   0.486   3.535   1.129
 3039SOL    HW210017   0.551   3.457   1.257
 3040SOL     OW10018   3.120   4.134   6.000
 3040SOL    HW110019   3.111   4.035   6.006
 3040SOL    HW210020   3.107   4.163   5.905
 3041SOL     OW10021   2.420   3.230   5.360
 3041SOL    HW110022   2.491   3.300   5.354
 3041SOL    HW210023   2.443   3.154   5.299
 3042SOL     OW10024   5.873   6.069   2.950
 3042SOL    HW110025   5.921   5.983   2.966
 3042SOL    HW210026   5.795   6.076   3.011
 3043SOL     OW10027   2.675   4.150   1.376
 3043SOL    HW110028   2.702   4.243   1.350
 3043SOL    HW210029   2.656   4.097   1.293
 3044SOL     OW10030   3.300   5.120   6.047
 3044SOL    HW110031   3.356   5.093   5.968
 3044SOL    HW210032   3.224   5.056   6.056
 3045SOL     OW10033   4.904   6.909   3.237
 3045SOL    HW110034   4.943   7.000   3.238
 3045SOL    HW210035   4.931   6.861   3.154
 3046SOL     OW10036   2.796   0.811   5.724
 3046SOL    HW110037   2.769   0.875   5.652
 3046SOL    HW210038   2.887   0.773   5.704
 3047SOL     OW10039   5.847   0.599   1.384
 3047SOL    HW110040   5.756   0.557   1.382
 3047SOL    HW210041   5.885   0.590   1.476
 3048SOL     OW10042   4.080   2.115   1.584
 3048SOL    HW110043   4.040   2.184   1.645
 3048SOL    HW210044   4.066   2.144   1.489
 3049SOL     OW10045   1.287   0.218   3.012
 3049SOL    HW110046   1.256   0.140   3.065
 3049SOL    HW210047   1.346   0.275   3.069
 3050SOL     OW10048   2.865   1.925   2.270
 3050SOL    HW110049   2.823   1.880   2.350
 3050SOL    HW210050   2.818   1.895   2.187
 3051SOL     OW10051   1.792   5.954   6.184
 3051SOL    HW110052   1.861   5.909   6.242
 3051SOL    HW210053   1.837   5.993   6.103
 3052SOL     OW10054   4.911   5.467   1.833
 3052SOL    HW110055   4.855   5.441   1.755
 3052SOL    HW210056   4.956   5.554   1.814
 3053SOL     OW10057   0.203   2.354   1.084
 3053SOL    HW110058   0.159   2.400   1.007
 3053SOL    HW210059   0.260   2.419   1.133
 3054SOL     OW10060   6.544   2.484   1.511
 3054SOL    HW110061   6.625   2.440   1.472
 3054SOL    HW210062   6.525   2.569   1.463
 3055SOL     OW10063   5.117   7.001   4.929
 3055SOL    HW110064   5.088   0.051   4.997
 3055SOL    HW210065   5.157   6.922   4.975
 3056SOL     OW10066   5.882   0.879   5.571
 3056SOL    HW110067   5.790   0.865   5.534
 3056SOL    HW210068   5.922   0.962   5.532
 3057SOL     OW10069   4.283   5.467   3.692
 3057SOL    HW110070   4.277   5.565   3.711
 3057SOL    HW210071   4.198   5.423   3.719
 3058SOL     OW10072   0.164   4.668   1.527
 3058SOL    HW110073   0.239   4.635   1.584
 3058SOL    HW210074   0.158   4.613   1.444
 3059SOL     OW10075   3.166   2.189   4.335
 3059SOL    HW110076   3.098   2.132   4.381
 3059SOL    HW210077   3.216   2.242   4.403
 3060SOL     OW10078   1.109   5.050   0.302
 3060SOL    HW110079   1.071   5.017   0.216
 3060SOL    HW210080   1.152   4.973   0.350
 3061SOL     OW10081   6.708   5.642   5.578
 3061SOL    HW110082   6.733   5.606   5.488
 3061SOL    HW210083   6.611   5.666   5.578
 3062SOL     OW10084   2.220   0.575   1.157
 3062SOL    HW110085   2.124   0.569   1.131
 3062SOL    HW210086   2.227   0.615   1.248
 3063SOL     OW10087   1.699   5.186   1.980
 3063SOL    HW110088   1.706   5.201   1.881
 3063SOL    HW210089   1.653   5.264   2.022
 3064SOL     OW10090   5.262   3.432   0.732
 3064SOL    HW110091   5.240   3.519   0.777
 3064SOL    HW210092   5.275   3.361   0.802
 3065SOL     OW10093   1.606   2.011   6.377
 3065SOL    HW110094   1.648   2.090   6.422
 3065SOL    HW210095   1.530   1.977   6.434
 3066SOL     OW10096   5.107   4.579   0.405
 3066SOL    HW110097   5.064   4.634   0.333
 3066SOL    HW210098   5.125   4.487   0.370
 3067SOL     OW10099   4.261   0.950   5.733
 3067SOL    HW110100   4.296   1.036   5.696
 3067SOL    HW210101   4.177   0.924   5.684
 3068SOL     OW10102   0.126   6.818   0.821
 3068SOL    HW110103   0.175   6.735   0.796
 3068SOL    HW210104   0.187   6.880   0.869
 3069SOL     OW10105   6.787   6.808   2.119
 3069SOL    HW110106   6.885   6.812   2.100
 3069SOL    HW210107   6.769   6.736   2.187
 3070SOL     OW10108   3.093   1.288   6.657
 3070SOL    HW110109   3.050   1.200   6.679
 3070SOL    HW210110   3.138   1.325   6.738
 3071SOL     OW10111   6.923   6.287   3.752
 3071SOL    HW110112   7.001   6.225   3.766
 3071SOL    HW210113   6.933   6.367   3.812
 3072SOL     OW10114   2.200   5.828   6.357
 3072SOL    HW110115   2.270   5.896   6.379
 3072SOL    HW210116   2.210   5.749   6.419
 3073SOL     OW10117   6.695   4.024   4.361
 3073SOL    HW110118   6.646   4.111   4.361
 3073SOL    HW210119   6.635   3.952   4.326
 3074SOL     OW10120   6.992   4.150   1.456
 3074SOL    HW110121   6.978   4.233   1.509
 3074SOL    HW210122   6.999   4.071   1.517
 3075SOL     OW10123   2.616   5.547   1.611
 3075SOL    HW110124   2.680   5.471   1.605
 3075SOL    HW210125   2.664   5.633   1.594
 3076SOL     OW10126   6.112   0.608   3.521
 3076SOL    HW110127   6.174   0.647   3.589
 3076SOL    HW210128   6.166   0.565   3.448
 3077SOL     OW10129   5.881   4.282   1.749
 3077SOL    HW110130   5.868   4.242   1.658
 3077SOL    HW210131   5.907   4.378   1.739
 3078SOL     OW10132   6.963   3.354   3.378
 3078SOL    HW110133   0.036   3.319   3.397
 3078SOL    HW210134   6.898   3.278   3.371
 3079SOL     OW10135   2.774   2.243   2.873
 3079SOL    HW110136   2.736   2.311   2.936
 3079SOL    HW210137   2.736   2.258   2.782
 3080SOL     OW10138   5.487   5.382   2.164
 3080SOL    HW110139   5.562   5.322   2.194
 3080SOL    HW210140   5.404   5.361   2.215
 3081SOL     OW10141   1.342   3.060   6.073
 3081SOL    HW110142   1.394   3.145   6.074
 3081SOL    HW210143   1.246   3.079   6.095
 3082SOL     OW10144   1.918   5.883   4.346
 3082SOL    HW110145   1.946   5.859   4.253
 3082SOL    HW210146   1.828   5.843   4.365
 3083SOL     OW10147   3.121   5.974   4.158
 3083SOL    HW110148   3.036   5.967   4.208
 3083SOL    HW210149   3.181   5.898   4.181
 3084SOL     OW10150   6.943   4.034   4.592
 3084SOL    HW110151   6.891   3.955   4.561
 3084SOL    HW210152   6.976   4.086   4.512
 3085SOL     OW10153   5.844   4.031   0.352
 3085SOL    HW110154   5.882   3.993   0.437
 3085SOL    HW210155   5.898   3.998   0.275
 3086SOL     OW10156   5.579   1.473   1.356
 3086SOL    HW110157   5.602   1.522   1.441
 3086SOL    HW210158   5.583   1.537   1.279
 3087SOL     OW10159   1.861   6.271   3.884
 3087SOL    HW110160   1.839   6.173   3.879
 3087SOL    HW210161   1.928   6.286   3.956
 3088SOL     OW10162   2.131   4.927   4.530
 3088SOL    HW110163   2.041   4.957   4.562
 3088SOL    HW210164   2.120   4.857   4.459
 3089SOL     OW10165   3.274   1.820   5.087
 3089SOL    HW110166   3.223   1.742   5.050
 3089SOL    HW210167   3.211   1.883   5.132
 3090SOL     OW10168   2.168   1.897   2.093
 3090SOL    HW110169   2.203   1.933   2.006
 3090SOL    HW210170   2.237   1.908   2.164
 3091SOL     OW10171   1.479   1.350   1.103
 3091SOL    HW110172   1.480   1.250   1.106
 3091SOL    HW210173   1.570   1.383   1.075
 3092SOL     OW10174   5.849   1.024   0.821
 3092SOL    HW110175   5.834   1.031   0.920
 3092SOL    HW210176   5.775   1.069   0.772
 3093SOL     OW10177   5.957   6.171   6.909
 3093SOL    HW110178   6.000   6.217   6.831
 3093SOL    HW210179   5.928   6.239   6.976
 3094SOL     OW10180   2.206   0.248   4.116
 3094SOL    HW110181   2.180   0.235   4.021
 3094SOL    HW210182   2.306   0.240   4.125
 3095SOL     OW10183   2.347   4.343   5.846
 3095SOL    HW110184   2.332   4.412   5.917
 3095SOL    HW210185   2.350   4.252   5.888
 3096SOL     OW10186   0.893   5.127   5.490
 3096SOL    HW110187   0.880   5.223   5.468
 3096SOL    HW210188   0.947   5.083   5.419
 3097SOL     OW10189   5.330   3.255   6.989
 3097SOL    HW110190   5.372   3.196   0.040
 3097SOL    HW210191   5.370   3.346   6.995
 3098SOL     OW10192   2.042   2.332   0.868
 3098SOL    HW110193   2.084   2.410   0.914
 3098SOL    HW210194   2.105   2.254   0.871
 3099SOL     OW10195   0.964   6.766   4.160
 3099SOL    HW110196   1.055   6.746   4.126
 3099SOL    HW210197   0.947   6.713   4.243
 3100SOL     OW10198   0.143   6.884   3.617
 3100SOL    HW110199   0.146   6.784   3.621
 3100SOL    HW210200   0.056   6.916   3.655
 3101SOL     OW10201   6.291   5.813   6.598
 3101SOL    HW110202   6.322   5.736   6.542
 3101SOL    HW210203   6.306   5.792   6.694
 3102SOL     OW10204   6.530   6.520   1.970
 3102SOL    HW110205   6.472   6.480   1.898
 3102SOL    HW210206   6.555   6.613   1.943
 3103SOL     OW10207   4.347   1.120   2.150
 3103SOL    HW110208   4.272   1.180   2.121
 3103SOL    HW210209   4.435   1.162   2.127
 3104SOL     OW10210   4.587   0.608   5.878
 3104SOL    HW110211   4.602   0.637   5.972
 3104SOL    HW210212   4.660   0.643   5.820
 3105SOL     OW10213   5.991   4.264   1.318
 3105SOL    HW110214   6.066   4.330   1.328
 3105SOL    HW210215   6.030   4.172   1.308
 3106SOL     OW10216   5.541   0.077   3.870
 3106SOL    HW110217   5.631   0.094   3.832
 3106SOL    HW210218   5.540   7.006   3.916
 3107SOL     OW10219   4.050   0.993   5.030
 3107SOL    HW110220   4.064   0.949   5.119
 3107SOL    HW210221   4.125   1.057   5.012
 3108SOL     OW10222   1.686   5.790   4.450
 3108SOL    HW110223   1.706   5.770   4.546
 3108SOL    HW210224   1.616   5.727   4.416
 3109SOL     OW10225   5.677   6.132   3.508
 3109SOL    HW110226   5.639   6.218   3.474
 3109SOL    HW210227   5.753   6.151   3.569
 3110SOL     OW10228   0.996   3.221   3.279
 3110SOL    HW110229   0.949   3.305   3.308
 3110SOL    HW210230   1.094   3.231   3.295
 3111SOL     OW10231   0.047   4.446   2.972
 3111SOL    HW110232   6.988   4.511   2.976
 3111SOL    HW210233   0.096   4.458   2.886
 3112SOL     OW10234   3.500   2.938   6.728
 3112SOL    HW110235   3.437   2.974   6.659
 3112SOL    HW210236   3.550   2.860   6.690
 3113SOL     OW10237   2.844   4.825   3.645
 3113SOL    HW110238   2.924   4.873   3.682
 3113SOL    HW210239   2.873   4.738   3.606
 3114SOL     OW10240   3.687   1.994   0.582
 3114SOL    HW110241   3.733   1.917   0.627
 3114SOL    HW210242   3.730   2.012   0.494
 3115SOL     OW10243   4.388   4.740   6.206
 3115SOL    HW110244   4.395   4.685   6.123
 3115SOL    HW210245   4.480   4.772   6.232
 3116SOL     OW10246   6.728   2.764   0.398
 3116SOL    HW110247   6.752   2.779   0.302
 3116SOL    HW210248   6.784   2.823   0.457
 3117SOL     OW10249   4.814   3.808   5.291
 3117SOL    HW110250   4.762   3.738   5.242
 3117SOL    HW210251   4.848   3.770   5.377
 3118SOL     OW10252   0.349   5.183   2.320
 3118SOL    HW110253   0.251   5.181   2.340
 3118SOL    HW210254   0.383   5.276   2.328
 3119SOL     OW10255   2.224   2.980   0.068
 3119SOL    HW110256   2.204   3.024   0.155
 3119SOL    HW210257   2.280   2.898   0.084
 3120SOL     OW10258   2.844   0.447   6.318
 3120SOL    HW110259   2.870   0.519   6.254
 3120SOL    HW210260   2.915   0.435   6.387
 3121SOL     OW10261   6.964   1.273   4.200
 3121SOL    HW110262   6.993   1.350   4.257
 3121SOL    HW210263   6.924   1.202   4.258
 3122SOL     OW10264   4.158   5.983   6.332
 3122SOL    HW110265   4.245   6.031   6.324
 3122SOL    HW210266   4.171   5.900   6.385
 3123SOL     OW10267   2.583   1.903   3.004
 3123SOL    HW110268   2.579   1.853   3.091
 3123SOL    HW210269   2.520   1.981   3.007
 3124SOL     OW10270   4.948   6.438   4.721
 3124SOL    HW110271   4.866   6.482   4.759
 3124SOL    HW210272   4.993   6.384   4.792
 3125SOL     OW10273   0.890   3.152   5.391
 3125SOL    HW110274   0.888   3.173   5.488
 3125SOL    HW210275   0.811   3.097   5.367
 3126SOL     OW10276   5.784   4.052   5.452
 3126SOL    HW110277   5.831   3.973   5.492
 3126SOL    HW210278   5.852   4.118   5.419
 3127SOL     OW10279   2.264   2.470   6.392
 3127SOL    HW110280   2.231   2.547   6.336
 3127SOL    HW210281   2.198   2.451   6.464
 3128SOL     OW10282   2.674   0.300   6.488
 3128SOL    HW110283   2.729   0.358   6.428
 3128SOL    HW210284   2.729   0.274   6.568
 3129SOL     OW10285   6.176   3.440   0.012
 3129SOL    HW110286   6.166   3.341   7.017
 3129SOL    HW210287   6.204   3.459   0.106
 3130SOL     OW10288   2.209   4.535   2.411
 3130SOL    HW110289   2.116   4.511   2.387
 3130SOL    HW210290   2.212   4.629   2.446
 3131SOL     OW10291   0.315   3.079   1.680
 3131SOL    HW110292   0.288   3.169   1.715
 3131SOL    HW210293   0.252   3.050   1.608
 3132SOL     OW10294   4.280   5.733   6.341
 3132SOL    HW110295   4.286   5.638   6.373
 3132SOL    HW210296   4.329   5.793   6.404
 3133SOL     OW10297   3.172   1.053   3.167
 3133SOL    HW110298   3.272   1.062   3.168
 3133SOL    HW210299   3.147   0.961   3.139
 3134SOL     OW10300   4.662   3.645   1.476
 3134SOL    HW110301   4.697   3.732   1.511
 3134SOL    HW210302   4.563   3.642   1.486
 3135SOL     OW10303   4.382   0.392   5.878
 3135SOL    HW110304   4.459   0.452   5.857
 3135SOL    HW210305   4.331   0.429   5.955
 3136SOL     OW10306   5.346   0.650   2.290
 3136SOL    HW110307   5.381   0.647   2.383
 3136SOL    HW210308   5.247   0.661   2.292
 3137SOL     OW10309   6.360   0.649   2.360
 3137SOL    HW110310   6.268   0.623   2.390
 3137SOL    HW210311   6.426   0.582   2.394
 3138SOL     OW10312   6.672   5.067   3.168
 3138SOL    HW110313   6.734   5.143   3.185
 3138SOL    HW210314   6.687   4.995   3.235
 3139SOL     OW10315   4.424   5.420   0.505
 3139SOL    HW110316   4.325   5.413   0.497
 3139SOL    HW210317   4.467   5.375   0.426
 3140SOL     OW10318   6.851   6.539   0.198
 3140SOL    HW110319   6.826   6.597   0.275
 3140SOL    HW210320   6.917   6.587   0.140
 3141SOL     OW10321   0.905   6.993   6.681
 3141SOL    HW110322   0.829   0.023   6.725
 3141SOL    HW210323   0.920   0.013   6.589
 3142SOL     OW10324   3.445   0.053   2.520
 3142SOL    HW110325   3.356   0.042   2.476
 3142SOL    HW210326   3.432   0.081   2.615
 3143SOL     OW10327   6.718   1.990   0.414
 3143SOL    HW110328   6.801   2.032   0.379
 3143SOL    HW210329   6.647   2.059   0.425
 3144SOL     OW10330   4.107   3.696   1.077
 3144SOL    HW110331   4.063   3.730   0.994
 3144SOL    HW210332   4.037   3.659   1.138
 3145SOL     OW10333   2.456   6.149   2.139
 3145SOL    HW110334   2.449   6.152   2.239
 3145SOL    HW210335   2.408   6.227   2.100
 3146SOL     OW10336   1.051   1.541   4.781
 3146SOL    HW110337   1.003   1.619   4.821
 3146SOL    HW210338   1.130   1.573   4.729
 3147SOL     OW10339   3.045   5.554   0.845
 3147SOL    HW110340   3.015   5.559   0.941
 3147SOL    HW210341   3.144   5.569   0.841
 3148SOL     OW10342   6.346   7.018   3.643
 3148SOL    HW110343   6.406   6.994   3.567
 3148SOL    HW210344   6.314   6.934   3.688
 3149SOL     OW10345   3.469   0.634   5.685
 3149SOL    HW110346   3.569   0.633   5.682
 3149SOL    HW210347   3.434   0.547   5.650
 3150SOL     OW10348   6.498   5.368   4.804
 3150SOL    HW110349   6.458   5.305   4.870
 3150SOL    HW210350   6.517   5.456   4.849
 3151SOL     OW10351   6.829   0.834   4.855
 3151SOL    HW110352   6.814   0.804   4.949
 3151SOL    HW210353   6.896   0.909   4.854
 3152SOL     OW10354   0.762   5.332   1.244
 3152SOL    HW110355   0.666   5.350   1.263
 3152SOL    HW210356   0.803   5.411   1.199
 3153SOL     OW10357   6.099   5.388   0.868
 3153SOL    HW110358   6.061   5.296   0.861
 3153SOL    HW210359   6.182   5.395   0.814
 3154SOL     OW10360   0.482   1.477   6.394
 3154SOL    HW110361   0.440   1.451   6.480
 3154SOL    HW210362   0.561   1.418   6.376
 3155SOL     OW10363   6.353   4.104   0.390
 3155SOL    HW110364   6.392   4.194   0.373
 3155SOL    HW210365   6.292   4.109   0.470
 3156SOL     OW10366   3.685   3.028   2.625
 3156SOL    HW110367   3.637   2.988   2.703
 3156SOL    HW210368   3.686   3.128   2.635
 3157SOL     OW10369   2.585   1.560   4.949
 3157SOL    HW110370   2.576   1.591   5.044
 3157SOL    HW210371   2.625   1.633   4.894
 3158SOL     OW10372   3.318   1.470   3.731
 3158SOL    HW110373   3.237   1.414   3.718
 3158SOL    HW210374   3.331   1.489   3.828
 3159SOL     OW10375   6.299   0.584   0.196
 3159SOL    HW110376   6.353   0.590   0.112
 3159SOL    HW210377   6.302   0.672   0.244
 3160SOL     OW10378   0.732   6.023   5.717
 3160SOL    HW110379   0.736   5.965   5.798
 3160SOL    HW210380   0.819   6.017   5.668
 3161SOL     OW10381   2.497   2.611   2.787
 3161SOL    HW110382   2.571   2.628   2.852
 3161SOL    HW210383   2.415   2.660   2.816
 3162SOL     OW10384   1.278   6.116   1.652
 3162SOL    HW110385   1.195   6.169   1.670
 3162SOL    HW210386   1.254   6.022   1.629
 3163SOL     OW10387   4.646   3.179   6.512
 3163SOL    HW110388   4.698   3.094   6.506
 3163SOL    HW210389   4.549   3.158   6.528
 3164SOL     OW10390   4.191   5.792   1.248
 3164SOL    HW110391   4.141   5.878   1.261
 3164SOL    HW210392   4.143   5.735   1.182
 3165SOL     OW10393   1.228   7.006   1.178
 3165SOL    HW110394   1.149   0.012   1.121
 3165SOL    HW210395   1.231   6.907   1.190
 3166SOL     OW10396   4.022   1.840   4.363
 3166SOL    HW110397   4.002   1.744   4.385
 3166SOL    HW210398   3.953   1.875   4.300
 3167SOL     OW10399   6.685   4.593   0.641
 3167SOL    HW110400   6.585   4.589   0.640
 3167SOL    HW210401   6.722   4.551   0.558
 3168SOL     OW10402   5.109   2.919   0.457
 3168SOL    HW110403   5.054   3.002   0.449
 3168SOL    HW210404   5.050   2.839   0.452
 3169SOL     OW10405   1.613   4.060   4.099
 3169SOL    HW110406   1.600   4.019   4.008
 3169SOL    HW210407   1.534   4.116   4.122
 3170SOL     OW10408   4.668   6.084   1.381
 3170SOL    HW110409   4.658   6.003   1.323
 3170SOL    HW210410   4.632   6.164   1.333
 3171SOL     OW10411   0.125   0.792   2.455
 3171SOL    HW110412   0.088   0.701   2.437
 3171SOL    HW210413   0.054   0.850   2.495
 3172SOL     OW10414   6.902   5.665   0.668
 3172SOL    HW110415   6.896   5.569   0.695
 3172SOL    HW210416   6.912   5.671   0.569
 3173SOL     OW10417   3.250   2.217   0.448
 3173SOL    HW110418   3.235   2.304   0.494
 3173SOL    HW210419   3.343   2.185   0.467
 3174SOL     OW10420   3.187   2.444   0.580
 3174SOL    HW110421   3.117   2.476   0.516
 3174SOL    HW210422   3.241   2.521   0.613
 3175SOL     OW10423   6.280   0.697   1.442
 3175SOL    HW110424   6.287   0.754   1.524
 3175SOL    HW210425   6.342   0.619   1.450
 3176SOL     OW10426   1.501   3.881   6.222
 3176SOL    HW110427   1.437   3.871   6.146
 3176SOL    HW210428   1.453   3.920   6.301
 3177SOL     OW10429   4.880   3.878   3.923
 3177SOL    HW110430   4.895   3.892   4.021
 3177SOL    HW210431   4.893   3.781   3.902
 3178SOL     OW10432   6.503   2.178   0.446
 3178SOL    HW110433   6.446   2.219   0.517
 3178SOL    HW210434   6.560   2.249   0.404
 3179SOL     OW10435   0.818   2.993   2.328
 3179SOL    HW110436   0.803   3.092   2.323
 3179SOL    HW210437   0.891   2.973   2.394
 3180SOL     OW10438   5.154   0.816   6.742
 3180SOL    HW110439   5.063   0.853   6.725
 3180SOL    HW210440   5.166   0.731   6.690
 3181SOL     OW10441   0.053   2.210   3.366
 3181SOL    HW110442   0.132   2.266   3.344
 3181SOL    HW210443   6.991   2.243   3.314
 3182SOL     OW10444   2.883   0.254   6.656
 3182SOL    HW110445   2.929   0.328   6.606
 3182SOL    HW210446   2.946   0.216   6.723
 3183SOL     OW10447   5.077   3.799   2.016
 3183SOL    HW110448   5.109   3.856   1.939
 3183SOL    HW210449   5.032   3.857   2.083
 3184SOL     OW10450   0.856   3.599   2.871
 3184SOL    HW110451   0.862   3.613   2.970
 3184SOL    HW210452   0.834   3.687   2.827
 3185SOL     OW10453   5.343   5.776   6.404
 3185SOL    HW110454   5.406   5.745   6.476
 3185SOL    HW210455   5.256   5.802   6.446
 3186SOL     OW10456   3.695   2.080   1.391
 3186SOL    HW110457   3.665   2.136   1.468
 3186SOL    HW210458   3.687   1.983   1.415
 3187SOL     OW10459   4.589   4.489   0.791
 3187SOL    HW110460   4.521   4.443   0.847
 3187SOL    HW210461   4.544   4.547   0.723
 3188SOL     OW10462   1.730   0.517   4.285
 3188SOL    HW110463   1.707   0.539   4.191
 3188SOL    HW210464   1.771   0.597   4.329
 3189SOL     OW10465   1.646   1.442   1.417
 3189SOL    HW110466   1.652   1.525   1.362
 3189SOL    HW210467   1.557   1.438   1.463
 3190SOL     OW10468   0.318   5.743   0.503
 3190SOL    HW110469   0.295   5.654   0.464
 3190SOL    HW210470   0.331   5.809   0.429
 3191SOL     OW10471   4.981   5.663   1.083
 3191SOL    HW110472   5.009   5.573   1.049
 3191SOL    HW210473   5.006   5.671   1.180
 3192SOL     OW10474   0.395   2.491   1.823
 3192SOL    HW110475   0.430   2.449   1.739
 3192SOL    HW210476   0.323   2.434   1.862
 3193SOL     OW10477   3.802   1.047   6.767
 3193SOL    HW110478   3.765   1.081   6.854
 3193SOL    HW210479   3.727   1.027   6.704
 3194SOL     OW10480   1.732   2.258   6.433
 3194SOL    HW110481   1.772   2.283   6.521
 3194SOL    HW210482   1.800   2.269   6.361
 3195SOL     OW10483   3.565   1.173   3.294
 3195SOL    HW110484   3.500   1.237   3.336
 3195SOL    HW210485   3.518   1.119   3.225
 3196SOL     OW10486   0.688   0.382   5.988
 3196SOL    HW110487   0.648   0.351   6.075
 3196SOL    HW210488   0.629   0.352   5.913
 3197SOL     OW10489   2.689   6.511   3.602
 3197SOL    HW110490   2.631   6.563   3.665
 3197SOL    HW210491   2.758   6.573   3.564
 3198SOL     OW10492   6.255   2.655   4.907
 3198SOL    HW110493   6.226   2.560   4.921
 3198SOL    HW210494   6.177   2.708   4.872
 3199SOL     OW10495   4.840   3.937   2.421
 3199SOL    HW110496   4.921   3.992   2.443
 3199SOL    HW210497   4.865   3.840   2.420
 3200SOL     OW10498   6.208   3.146   2.011
 3200SOL    HW110499   6.192   3.107   2.102
 3200SOL    HW210500   6.120   3.166   1.968
 3201SOL     OW10501   6.038   4.757   4.263
 3201SOL    HW110502   6.074   4.846   4.293
 3201SOL    HW210503   5.948   4.742   4.304
 3202SOL     OW10504   0.665   4.543   2.037
 3202SOL    HW110505   0.760   4.561   2.011
 3202SOL    HW210506   0.654   4.556   2.136
 3203SOL     OW10507   6.543   2.316   0.159
 3203SOL    HW110508   6.518   2.226   0.125
 3203SOL    HW210509   6.553   2.380   0.082
 3204SOL     OW10510   4.415   6.438   3.234
 3204SOL    HW110511   4.364   6.510   3.279
 3204SOL    HW210512   4.358   6.356   3.225
 3205SOL     OW10513   6.327   2.503   6.337
 3205SOL    HW110514   6.295   2.408   6.338
 3205SOL    HW210515   6.256   2.562   6.299
 3206SOL     OW10516   1.391   5.355   6.406
 3206SOL    HW110517   1.465   5.327   6.345
 3206SOL    HW210518   1.307   5.308   6.380
 3207SOL     OW10519   0.928   0.565   5.836
 3207SOL    HW110520   0.882   0.517   5.911
 3207SOL    HW210521   1.012   0.517   5.812
 3208SOL     OW10522   4.724   5.428   5.811
 3208SOL    HW110523   4.778   5.416   5.728
 3208SOL    HW210524   4.638   5.474   5.789
 3209SOL     OW10525   4.302   5.815   3.602
 3209SOL    HW110526   4.260   5.886   3.660
 3209SOL    HW210527   4.230   5.758   3.562
 3210SOL     OW10528   0.849   4.794   1.510
 3210SOL    HW110529   0.764   4.840   1.536
 3210SOL    HW210530   0.848   4.700   1.543
 3211SOL     OW10531   1.789   3.647   1.013
 3211SOL    HW110532   1.787   3.709   1.092
 3211SOL    HW210533   1.833   3.693   0.936
 3212SOL     OW10534   3.116   0.510   0.953
 3212SOL    HW110535   3.063   0.594   0.941
 3212SOL    HW210536   3.182   0.502   0.879
 3213SOL     OW10537   1.030   6.303   1.233
 3213SOL    HW110538   1.104   6.353   1.187
 3213SOL    HW210539   1.004   6.223   1.179
 3214SOL     OW10540   4.402   5.215   0.687
 3214SOL    HW110541   4.414   5.295   0.629
 3214SOL    HW210542   4.392   5.244   0.782
 3215SOL     OW10543   0.039   2.792   1.300
 3215SOL    HW110544   6.983   2.852   1.332
 3215SOL    HW210545   0.001   2.720   1.242
 3216SOL     OW10546   6.151   5.135   0.456
 3216SOL    HW110547   6.131   5.213   0.397
 3216SOL    HW210548   6.158   5.166   0.551
 3217SOL     OW10549   6.758   5.599   2.378
 3217SOL    HW110550   6.776   5.696   2.397
 3217SOL    HW210551   6.845   5.551   2.365
 3218SOL     OW10552   4.433   2.011   3.724
 3218SOL    HW110553   4.414   2.109   3.727
 3218SOL    HW210554   4.522   1.993   3.765
 3219SOL     OW10555   0.261   2.357   3.586
 3219SOL    HW110556   0.293   2.363   3.491
 3219SOL    HW210557   0.327   2.305   3.640
 3220SOL     OW10558   6.602   5.592   6.501
 3220SOL    HW110559   6.503   5.586   6.512
 3220SOL    HW210560   6.624   5.609   6.405
 3221SOL     OW10561   3.610   0.662   1.348
 3221SOL    HW110562   3.658   0.733   1.399
 3221SOL    HW210563   3.664   0.636   1.268
 3222SOL     OW10564   3.563   1.729   2.380
 3222SOL    HW110565   3.491   1.728   2.449
 3222SOL    HW210566   3.522   1.734   2.289
 3223SOL     OW10567   1.993   6.858   6.346
 3223SOL    HW110568   1.913   6.841   6.404
 3223SOL    HW210569   2.067   6.797   6.374
 3224SOL     OW10570   4.228   3.860   6.114
 3224SOL    HW110571   4.242   3.803   6.195
 3224SOL    HW210572   4.139   3.840   6.073
 3225SOL     OW10573   5.178   2.740   6.641
 3225SOL    HW110574   5.128   2.669   6.591
 3225SOL    HW210575   5.198   2.708   6.734
 3226SOL     OW10576   2.307   1.569   3.428
 3226SOL    HW110577   2.395   1.523   3.415
 3226SOL    HW210578   2.287   1.575   3.526
 3227SOL     OW10579   3.407   2.617   0.041
 3227SOL    HW110580   3.472   2.611   6.984
 3227SOL    HW210581   3.447   2.577   0.124
 3228SOL     OW10582   6.933   4.089   2.788
 3228SOL    HW110583   6.845   4.053   2.759
 3228SOL    HW210584   6.923   4.135   2.877
 3229SOL     OW10585   4.213   6.992   4.463
 3229SOL    HW110586   4.164   6.906   4.447
 3229SOL    HW210587   4.239   0.015   4.376
 3230SOL     OW10588   1.887   3.591   5.110
 3230SOL    HW110589   1.929   3.680   5.096
 3230SOL    HW210590   1.916   3.554   5.199
 3231SOL     OW10591   2.863   1.440   1.372
 3231SOL    HW110592   2.773   1.416   1.408
 3231SOL    HW210593   2.923   1.469   1.447
 3232SOL     OW10594   4.661   5.530   5.060
 3232SOL    HW110595   4.666   5.594   5.137
 3232SOL    HW210596   4.745   5.476   5.057
 3233SOL     OW10597   0.952   3.205   1.631
 3233SOL    HW110598   0.869   3.178   1.582
 3233SOL    HW210599   0.937   3.200   1.730
 3234SOL     OW10600   0.090   1.756   6.970
 3234SOL    HW110601   0.112   1.659   6.963
 3234SOL    HW210602   0.166   1.810   6.934
 3235SOL     OW10603   5.696   0.907   2.068
 3235SOL    HW110604   5.609   0.863   2.044
 3235SOL    HW210605   5.699   0.925   2.166
 3236SOL     OW10606   1.924   3.234   0.322
 3236SOL    HW110607   1.874   3.282   0.250
 3236SOL    HW210608   1.914   3.284   0.408
 3237SOL     OW10609   5.028   1.556   3.946
 3237SOL    HW110610   5.059   1.467   3.978
 3237SOL    HW210611   5.075   1.579   3.861
 3238SOL     OW10612   6.529   5.377   1.332
 3238SOL    HW110613   6.501   5.446   1.266
 3238SOL    HW210614   6.475   5.294   1.318
 3239SOL     OW10615   6.906   1.687   1.885
 3239SOL    HW110616   6.859   1.615   1.833
 3239SOL    HW210617   6.943   1.648   1.969
 3240SOL     OW10618   0.229   0.060   6.564
 3240SOL    HW110619   0.171   0.133   6.602
 3240SOL    HW210620   0.270   0.008   6.639
 3241SOL     OW10621   4.242   1.903   5.417
 3241SOL    HW110622   4.241   1.803   5.418
 3241SOL    HW210623   4.149   1.937   5.405
 3242SOL     OW10624   3.968   4.304   6.891
 3242SOL    HW110625   3.949   4.292   6.793
 3242SOL    HW210626   3.903   4.369   6.929
 3243SOL     OW10627   4.096   4.302   0.494
 3243SOL    HW110628   4.026   4.319   0.426
 3243SOL    HW210629   4.117   4.387   0.543
 3244SOL     OW10630   5.009   5.276   0.306
 3244SOL    HW110631   5.097   5.260   0.350
 3244SOL    HW210632   5.010   5.235   0.214
 3245SOL     OW10633   5.107   2.906   4.879
 3245SOL    HW110634   5.100   2.898   4.779
 3245SOL    HW210635   5.024   2.949   4.914
 3246SOL     OW10636   5.483   0.210   2.292
 3246SOL    HW110637   5.550   0.215   2.367
 3246SOL    HW210638   5.471   0.301   2.253
 3247SOL     OW10639   5.828   4.838   2.458
 3247SOL    HW110640   5.771   4.896   2.400
 3247SOL    HW210641   5.791   4.838   2.552
 3248SOL     OW10642   6.268   3.705   1.152
 3248SOL    HW110643   6.313   3.647   1.084
 3248SOL    HW210644   6.247   3.794   1.111
 3249SOL     OW10645   3.677   3.171   4.379
 3249SOL    HW110646   3.751   3.205   4.437
 3249SOL    HW210647   3.619   3.109   4.432
 3250SOL     OW10648   5.594   6.589   2.115
 3250SOL    HW110649   5.636   6.499   2.100
 3250SOL    HW210650   5.528   6.583   2.189
 3251SOL     OW10651   3.116   0.558   3.612
 3251SOL    HW110652   3.061   0.631   3.571
 3251SOL    HW210653   3.202   0.550   3.561
 3252SOL     OW10654   2.342   1.593   2.984
 3252SOL    HW110655   2.366   1.623   3.077
 3252SOL    HW210656   2.265   1.529   2.989
 3253SOL     OW10657   5.224   4.082   2.135
 3253SOL    HW110658   5.190   4.058   2.226
 3253SOL    HW210659   5.149   4.079   2.069
 3254SOL     OW10660   4.803   5.549   5.301
 3254SOL    HW110661   4.896   5.582   5.319
 3254SOL    HW210662   4.784   5.470   5.360
 3255SOL     OW10663   5.625   5.869   0.014
 3255SOL    HW110664   5.642   5.829   0.104
 3255SOL    HW210665   5.681   5.951   0.003
 3256SOL     OW10666   3.044   1.181   0.604
 3256SOL    HW110667   2.971   1.232   0.649
 3256SOL    HW210668   3.111   1.151   0.673
 3257SOL     OW10669   1.664   1.912   2.084
 3257SOL    HW110670   1.626   1.825   2.054
 3257SOL    HW210671   1.666   1.915   2.184
 3258SOL     OW10672   4.241   4.547   1.870
 3258SOL    HW110673   4.179   4.496   1.930
 3258SOL    HW210674   4.327   4.564   1.918
 3259SOL     OW10675   4.825   5.522   4.119
 3259SOL    HW110676   4.807   5.442   4.062
 3259SOL    HW210677   4.754   5.591   4.102
 3260SOL     OW10678   1.652   1.986   0.901
 3260SOL    HW110679   1.730   2.039   0.934
 3260SOL    HW210680   1.661   1.890   0.930
 3261SOL     OW10681   5.628   0.295   0.824
 3261SOL    HW110682   5.601   0.327   0.733
 3261SOL    HW210683   5.632   0.195   0.823
 3262SOL     OW10684   3.324   1.884   2.866
 3262SOL    HW110685   3.412   1.836   2.867
 3262SOL    HW210686   3.280   1.872   2.955
 3263SOL     OW10687   2.504   0.654   3.464
 3263SOL    HW110688   2.444   0.583   3.426
 3263SOL    HW210689   2.542   0.623   3.551
 3264SOL     OW10690   1.370   4.296   1.084
 3264SOL    HW110691   1.435   4.338   1.148
 3264SOL    HW210692   1.314   4.230   1.134
 3265SOL     OW10693   5.631   0.634   6.414
 3265SOL    HW110694   5.705   0.683   6.460
 3265SOL    HW210695   5.630   0.656   6.317
 3266SOL     OW10696   1.962   4.000   0.868
 3266SOL    HW110697   1.908   4.048   0.937
 3266SOL    HW210698   1.904   3.977   0.790
 3267SOL     OW10699   3.738   6.947   0.641
 3267SOL    HW110700   3.638   6.949   0.641
 3267SOL    HW210701   3.772   0.009   0.692
 3268SOL     OW10702   1.345   3.604   1.159
 3268SOL    HW110703   1.377   3.534   1.095
 3268SOL    HW210704   1.248   3.621   1.144
 3269SOL     OW10705   4.713   5.938   2.520
 3269SOL    HW110706   4.631   5.929   2.464
 3269SOL    HW210707   4.746   5.848   2.547
 3270SOL     OW10708   0.919   4.306   6.230
 3270SOL    HW110709   0.853   4.233   6.242
 3270SOL    HW210710   0.939   4.349   6.319
 3271SOL     OW10711   5.811   3.874   3.006
 3271SOL    HW110712   5.891   3.827   2.968
 3271SOL    HW210713   5.729   3.841   2.960
 3272SOL     OW10714   3.273   4.681   6.174
 3272SOL    HW110715   3.224   4.610   6.125
 3272SOL    HW210716   3.209   4.734   6.230
 3273SOL     OW10717   1.037   6.538   0.842
 3273SOL    HW110718   1.111   6.478   0.872
 3273SOL    HW210719   0.956   6.521   0.899
 3274SOL     OW10720   4.583   0.468   1.225
 3274SOL    HW110721   4.517   0.541   1.236
 3274SOL    HW210722   4.618   0.468   1.131
 3275SOL     OW10723   6.687   1.563   6.545
 3275SOL    HW110724   6.741   1.635   6.590
 3275SOL    HW210725   6.592   1.568   6.578
 3276SOL     OW10726   2.077   5.900   0.481
 3276SOL    HW110727   2.129   5.917   0.565
 3276SOL    HW210728   2.056   5.803   0.474
 3277SOL     OW10729   4.048   6.746   0.039
 3277SOL    HW110730   4.128   6.714   7.006
 3277SOL    HW210731   3.970   6.752   6.995
 3278SOL     OW10732   0.961   1.119   5.442
 3278SOL    HW110733   1.040   1.059   5.452
 3278SOL    HW210734   0.987   1.213   5.465
 3279SOL     OW10735   5.687   0.517   6.852
 3279SOL    HW110736   5.670   0.615   6.852
 3279SOL    HW210737   5.732   0.491   6.767
 3280SOL     OW10738   3.879   5.077   4.326
 3280SOL    HW110739   3.963   5.046   4.280
 3280SOL    HW210740   3.899   5.161   4.377
 3281SOL     OW10741   2.271   5.838   1.868
 3281SOL    HW110742   2.228   5.926   1.885
 3281SOL    HW210743   2.264   5.814   1.771
 3282SOL     OW10744   0.193   4.624   5.390
 3282SOL    HW110745   0.126   4.561   5.350
 3282SOL    HW210746   0.201   4.607   5.488
 3283SOL     OW10747   3.906   1.052   0.932
 3283SOL    HW110748   3.889   0.967   0.883
 3283SOL    HW210749   3.988   1.096   0.894
 3284SOL     OW10750   0.068   5.217   0.236
 3284SOL    HW110751   0.113   5.223   0.147
 3284SOL    HW210752   0.040   5.309   0.266
 3285SOL     OW10753   4.873   2.772   3.426
 3285SOL    HW110754   4.816   2.807   3.352
 3285SOL    HW210755   4.963   2.748   3.389
 3286SOL     OW10756   3.786   3.294   2.693
 3286SOL    HW110757   3.856   3.255   2.753
 3286SOL    HW210758   3.801   3.392   2.683
 3287SOL     OW10759   0.511   0.649   7.005
 3287SOL    HW110760   0.526   0.606   6.916
 3287SOL    HW210761   0.422   0.621   0.023
 3288SOL     OW10762   0.503   5.400   6.599
 3288SOL    HW110763   0.448   5.320   6.622
 3288SOL    HW210764   0.456   5.454   6.529
 3289SOL     OW10765   2.693   6.588   5.998
 3289SOL    HW110766   2.628   6.650   6.043
 3289SOL    HW210767   2.785   6.628   6.002
 3290SOL     OW10768   0.415   0.038   1.996
 3290SOL    HW110769   0.407   0.003   2.090
 3290SOL    HW210770   0.390   0.135   1.996
 3291SOL     OW10771   1.849   6.838   0.837
 3291SOL    HW110772   1.772   6.890   0.874
 3291SOL    HW210773   1.904   6.898   0.779
 3292SOL     OW10774   0.711   0.996   0.881
 3292SOL    HW110775   0.788   0.954   0.930
 3292SOL    HW210776   0.708   1.094   0.900
 3293SOL     OW10777   0.283   3.423   2.471
 3293SOL    HW110778   0.208   3.450   2.531
 3293SOL    HW210779   0.246   3.377   2.390
 3294SOL     OW10780   6.317   1.731   6.371
 3294SOL    HW110781   6.309   1.766   6.278
 3294SOL    HW210782   6.333   1.632   6.368
 3295SOL     OW10783   1.344   2.947   2.341
 3295SOL    HW110784   1.435   2.908   2.327
 3295SOL    HW210785   1.332   2.972   2.437
 3296SOL     OW10786   1.696   6.946   2.265
 3296SOL    HW110787   1.606   6.986   2.281
 3296SOL    HW210788   1.748   7.003   2.202
 3297SOL     OW10789   2.878   0.754   4.405
 3297SOL    HW110790   2.918   0.845   4.417
 3297SOL    HW210791   2.950   0.689   4.381
 3298SOL     OW10792   5.856   1.477   5.044
 3298SOL    HW110793   5.914   1.533   5.103
 3298SOL    HW210794   5.783   1.533   5.005
 3299SOL     OW10795   2.758   5.357   3.144
 3299SOL    HW110796   2.691   5.427   3.119
 3299SOL    HW210797   2.775   5.298   3.066
 3300SOL     OW10798   6.624   0.418   5.505
 3300SOL    HW110799   6.527   0.411   5.482
 3300SOL    HW210800   6.653   0.513   5.501
 3301SOL     OW10801   1.982   3.057   3.455
 3301SOL    HW110802   1.970   3.135   3.516
 3301SOL    HW210803   1.895   3.034   3.411
 3302SOL     OW10804   6.917   4.609   5.552
 3302SOL    HW110805   7.000   4.628   5.604
 3302SOL    HW210806   6.854   4.686   5.560
 3303SOL     OW10807   3.478   3.574   1.371
 3303SOL    HW110808   3.409   3.513   1.332
 3303SOL    HW210809   3.521   3.530   1.450
 3304SOL     OW10810   0.681   5.950   4.093
 3304SOL    HW110811   0.661   5.898   4.177
 3304SOL    HW210812   0.595   5.982   4.054
 3305SOL     OW10813   2.122   1.416   3.007
 3305SOL    HW110814   2.048   1.439   3.070
 3305SOL    HW210815   2.128   1.317   2.997
 3306SOL     OW10816   1.669   5.444   5.177
 3306SOL    HW110817   1.711   5.432   5.267
 3306SOL    HW210818   1.571   5.425   5.183
 3307SOL     OW10819   6.873   5.673   0.411
 3307SOL    HW110820   6.785   5.646   0.373
 3307SOL    HW210821   6.903   5.759   0.368
 3308SOL     OW10822   2.870   6.377   0.418
 3308SOL    HW110823   2.951   6.320   0.403
 3308SOL    HW210824   2.851   6.384   0.516
 3309SOL     OW10825   0.004   6.255   2.605
 3309SOL    HW110826   0.021   6.313   2.525
 3309SOL    HW210827   0.087   6.204   2.627
 3310SOL     OW10828   0.054   2.966   6.032
 3310SOL    HW110829   0.126   2.910   5.991
 3310SOL    HW210830   6.998   2.978   5.966
 3311SOL     OW10831   2.118   4.223   1.748
 3311SOL    HW110832   2.113   4.191   1.654
 3311SOL    HW210833   2.210   4.208   1.784
 3312SOL     OW10834   4.224   4.322   5.937
 3312SOL    HW110835   4.260   4.392   5.876
 3312SOL    HW210836   4.201   4.363   6.025
 3313SOL     OW10837   0.648   5.358   3.117
 3313SOL    HW110838   0.590   5.306   3.055
 3313SOL    HW210839   0.743   5.354   3.086
 3314SOL     OW10840   3.064   1.241   3.339
 3314SOL    HW110841   3.026   1.300   3.269
 3314SOL    HW210842   3.110   1.163   3.297
 3315SOL     OW10843   6.803   3.421   5.072
 3315SOL    HW110844   6.795   3.321   5.065
 3315SOL    HW210845   6.716   3.460   5.101
 3316SOL     OW10846   4.874   1.397   6.293
 3316SOL    HW110847   4.969   1.383   6.320
 3316SOL    HW210848   4.814   1.380   6.371
 3317SOL     OW10849   4.390   3.044   1.701
 3317SOL    HW110850   4.301   3.064   1.741
 3317SOL    HW210851   4.451   3.008   1.771
 3318SOL     OW10852   2.528   1.335   0.840
 3318SOL    HW110853   2.595   1.400   0.806
 3318SOL    HW210854   2.574   1.251   0.870
 3319SOL     OW10855   6.736   1.051   3.913
 3319SOL    HW110856   6.683   1.135   3.919
 3319SOL    HW210857   6.813   1.063   3.850
 3320SOL     OW10858   5.501   0.127   4.522
 3320SOL    HW110859   5.460   0.178   4.598
 3320SOL    HW210860   5.595   0.102   4.546
 3321SOL     OW10861   4.744   1.495   0.513
 3321SOL    HW110862   4.755   1.400   0.484
 3321SOL    HW210863   4.723   1.552   0.433
 3322SOL     OW10864   5.770   3.200   0.685
 3322SOL    HW110865   5.736   3.245   0.603
 3322SOL    HW210866   5.744   3.103   0.683
 3323SOL     OW10867   2.942   3.080   0.473
 3323SOL    HW110868   2.883   3.140   0.526
 3323SOL    HW210869   2.886   3.020   0.416
 3324SOL     OW10870   3.114   5.627   0.129
 3324SOL    HW110871   3.062   5.589   0.052
 3324SOL    HW210872   3.056   5.691   0.180
 3325SOL     OW10873   1.335   3.231   6.714
 3325SOL    HW110874   1.329   3.315   6.768
 3325SOL    HW210875   1.382   3.250   6.629
 3326SOL     OW10876   4.921   2.102   2.006
 3326SOL    HW110877   4.853   2.039   1.967
 3326SOL    HW210878   4.975   2.141   1.932
 3327SOL     OW10879   2.847   6.248   1.508
 3327SOL    HW110880   2.886   6.334   1.476
 3327SOL    HW210881   2.749   6.259   1.524
 3328SOL     OW10882   4.290   1.541   1.143
 3328SOL    HW110883   4.276   1.639   1.156
 3328SOL    HW210884   4.269   1.517   1.048
 3329SOL     OW10885   4.982   6.945   4.140
 3329SOL    HW110886   5.069   6.961   4.094
 3329SOL    HW210887   4.911   7.001   4.096
 3330SOL     OW10888   6.302   4.846   1.416
 3330SOL    HW110889   6.263   4.939   1.421
 3330SOL    HW210890   6.253   4.786   1.480
 3331SOL     OW10891   1.944   3.202   0.992
 3331SOL    HW110892   1.965   3.286   1.042
 3331SOL    HW210893   2.014   3.133   1.010
 3332SOL     OW10894   6.450   5.046   0.217
 3332SOL    HW110895   6.446   5.100   0.133
 3332SOL    HW210896   6.483   4.954   0.197
 3333SOL     OW10897   3.676   4.096   0.043
 3333SOL    HW110898   3.622   4.179   0.029
 3333SOL    HW210899   3.772   4.122   0.056
 3334SOL     OW10900   2.789   3.539   0.926
 3334SOL    HW110901   2.698   3.516   0.960
 3334SOL    HW210902   2.781   3.585   0.837
 3335SOL     OW10903   4.962   6.660   5.357
 3335SOL    HW110904   4.877   6.607   5.348
 3335SOL    HW210905   4.940   6.752   5.390
 3336SOL     OW10906   1.892   6.671   4.334
 3336SOL    HW110907   1.826   6.597   4.333
 3336SOL    HW210908   1.973   6.644   4.281
 3337SOL     OW10909   2.941   3.658   2.230
 3337SOL    HW110910   2.871   3.617   2.172
 3337SOL    HW210911   2.898   3.699   2.311
 3338SOL     OW10912   5.805   3.377   2.307
 3338SOL    HW110913   5.706   3.375   2.294
 3338SOL    HW210914   5.843   3.287   2.286
 3339SOL     OW10915   0.581   0.248   6.616
 3339SOL    HW110916   0.595   0.189   6.696
 3339SOL    HW210917   0.536   0.195   6.544
 3340SOL     OW10918   3.993   1.852   3.074
 3340SOL    HW110919   3.931   1.790   3.122
 3340SOL    HW210920   4.079   1.860   3.125
 3341SOL     OW10921   0.932   5.373   3.098
 3341SOL    HW110922   0.906   5.292   3.150
 3341SOL    HW210923   0.952   5.347   3.004
 3342SOL     OW10924   1.675   6.465   3.867
 3342SOL    HW110925   1.712   6.373   3.884
 3342SOL    HW210926   1.703   6.525   3.942
 3343SOL     OW10927   5.502   3.501   0.081
 3343SOL    HW110928   5.595   3.474   0.056
 3343SOL    HW210929   5.505   3.570   0.154
 3344SOL     OW10930   5.963   3.238   3.787
 3344SOL    HW110931   5.998   3.145   3.797
 3344SOL    HW210932   5.995   3.294   3.864
 3345SOL     OW10933   2.031   3.081   5.885
 3345SOL    HW110934   2.082   3.037   5.959
 3345SOL    HW210935   2.073   3.059   5.797
 3346SOL     OW10936   1.577   1.277   0.337
 3346SOL    HW110937   1.639   1.272   0.416
 3346SOL    HW210938   1.483   1.261   0.367
 3347SOL     OW10939   0.740   3.458   5.969
 3347SOL    HW110940   0.731   3.493   5.876
 3347SOL    HW210941   0.780   3.366   5.967
 3348SOL     OW10942   3.428   3.905   4.353
 3348SOL    HW110943   3.371   3.988   4.357
 3348SOL    HW210944   3.376   3.827   4.387
 3349SOL     OW10945   1.417   5.288   3.084
 3349SOL    HW110946   1.466   5.262   3.167
 3349SOL    HW210947   1.421   5.212   3.019
 3350SOL     OW10948   0.609   2.622   5.917
 3350SOL    HW110949   0.580   2.666   5.831
 3350SOL    HW210950   0.663   2.541   5.896
 3351SOL     OW10951   4.525   0.882   2.510
 3351SOL    HW110952   4.452   0.896   2.442
 3351SOL    HW210953   4.506   0.800   2.563
 3352SOL     OW10954   0.058   2.513   0.442
 3352SOL    HW110955   0.036   2.575   0.367
 3352SOL    HW210956   0.015   2.547   0.526
 3353SOL     OW10957   2.726   5.767   1.544
 3353SOL    HW110958   2.825   5.763   1.557
 3353SOL    HW210959   2.689   5.842   1.599
 3354SOL     OW10960   4.795   2.448   6.014
 3354SOL    HW110961   4.853   2.484   5.941
 3354SOL    HW210962   4.837   2.365   6.051
 3355SOL     OW10963   2.398   2.003   6.076
 3355SOL    HW110964   2.378   2.007   5.978
 3355SOL    HW210965   2.403   2.096   6.112
 3356SOL     OW10966   0.468   5.036   5.468
 3356SOL    HW110967   0.430   5.044   5.376
 3356SOL    HW210968   0.504   5.124   5.498
 3357SOL     OW10969   2.176   3.823   2.145
 3357SOL    HW110970   2.263   3.774   2.157
 3357SOL    HW210971   2.105   3.758   2.115
 3358SOL     OW10972   4.956   1.331   1.130
 3358SOL    HW110973   5.013   1.390   1.073
 3358SOL    HW210974   4.873   1.381   1.155
 3359SOL     OW10975   0.454   6.816   2.775
 3359SOL    HW110976   0.379   6.826   2.840
 3359SOL    HW210977   0.449   6.888   2.706
 3360SOL     OW10978   1.624   1.608   0.040
 3360SOL    HW110979   1.655   1.641   0.129
 3360SOL    HW210980   1.652   1.673   6.987
 3361SOL     OW10981   0.784   5.045   4.011
 3361SOL    HW110982   0.769   5.076   3.917
 3361SOL    HW210983   0.855   4.975   4.012
 3362SOL     OW10984   3.608   1.308   2.876
 3362SOL    HW110985   3.636   1.396   2.836
 3362SOL    HW210986   3.546   1.261   2.813
 3363SOL     OW10987   6.246   0.030   2.044
 3363SOL    HW110988   6.164   0.017   1.989
 3363SOL    HW210989   6.220   0.068   2.133
 3364SOL     OW10990   1.308   5.145   3.676
 3364SOL    HW110991   1.251   5.076   3.631
 3364SOL    HW210992   1.391   5.101   3.711
 3365SOL     OW10993   6.749   2.190   5.165
 3365SOL    HW110994   6.841   2.229   5.169
 3365SOL    HW210995   6.694   2.240   5.098
 3366SOL     OW10996   6.153   5.809   5.001
 3366SOL    HW110997   6.186   5.814   5.095
 3366SOL    HW210998   6.055   5.830   4.999
 3367SOL     OW10999   3.767   2.901   2.173
 3367SOL    HW111000   3.735   2.992   2.146
 3367SOL    HW211001   3.803   2.904   2.266
 3368SOL     OW11002   0.779   5.535   6.288
 3368SOL    HW111003   0.720   5.552   6.367
 3368SOL    HW211004   0.774   5.439   6.262
 3369SOL     OW11005   3.742   2.095   0.313
 3369SOL    HW111006   3.782   2.185   0.325
 3369SOL    HW211007   3.804   2.038   0.258
 3370SOL     OW11008   0.420   6.118   0.558
 3370SOL    HW111009   0.366   6.072   0.628
 3370SOL    HW211010   0.377   6.105   0.468
 3371SOL     OW11011   2.533   2.561   1.810
 3371SOL    HW111012   2.508   2.658   1.812
 3371SOL    HW211013   2.526   2.523   1.902
 3372SOL     OW11014   0.348   2.186   1.759
 3372SOL    HW111015   0.405   2.112   1.725
 3372SOL    HW211016   0.302   2.230   1.682
 3373SOL     OW11017   6.996   1.308   3.612
 3373SOL    HW111018   6.985   1.383   3.547
 3373SOL    HW211019   0.074   1.303   3.642
 3374SOL     OW11020   1.488   6.158   4.687
 3374SOL    HW111021   1.479   6.076   4.743
 3374SOL    HW211022   1.503   6.131   4.591
 3375SOL     OW11023   6.990   4.608   6.653
 3375SOL    HW111024   0.002   4.612   6.749
 3375SOL    HW211025   0.026   4.671   6.598
 3376SOL     OW11026   3.894   3.632   4.250
 3376SOL    HW111027   3.806   3.584   4.249
 3376SOL    HW211028   3.968   3.566   4.243
 3377SOL     OW11029   0.098   5.906   6.270
 3377SOL    HW111030   0.078   5.843   6.345
 3377SOL    HW211031   0.133   5.992   6.308
 3378SOL     OW11032   0.606   1.403   0.640
 3378SOL    HW111033   0.677   1.339   0.609
 3378SOL    HW211034   0.573   1.376   0.730
 3379SOL     OW11035   6.958   0.042   6.098
 3379SOL    HW111036   6.912   0.023   6.012
 3379SOL    HW211037   6.943   6.984   6.162
 3380SOL     OW11038   5.472   6.316   4.799
 3380SOL    HW111039   5.401   6.331   4.730
 3380SOL    HW211040   5.430   6.276   4.882
 3381SOL     OW11041   0.754   2.681   1.642
 3381SOL    HW111042   0.834   2.731   1.609
 3381SOL    HW211043   0.671   2.732   1.617
 3382SOL     OW11044   1.080   2.555   0.637
 3382SOL    HW111045   1.089   2.505   0.551
 3382SOL    HW211046   1.154   2.529   0.699
 3383SOL     OW11047   4.646   5.850   1.184
 3383SOL    HW111048   4.730   5.869   1.132
 3383SOL    HW211049   4.580   5.805   1.124
 3384SOL     OW11050   2.801   3.398   6.373
 3384SOL    HW111051   2.862   3.417   6.450
 3384SOL    HW211052   2.723   3.343   6.404
 3385SOL     OW11053   6.612   3.155   4.621
 3385SOL    HW111054   6.564   3.107   4.547
 3385SOL    HW211055   6.564   3.140   4.707
 3386SOL     OW11056   5.715   4.257   6.908
 3386SOL    HW111057   5.649   4.187   6.883
 3386SOL    HW211058   5.714   4.270   7.007
 3387SOL     OW11059   2.976   0.246   2.845
 3387SOL    HW111060   3.021   0.171   2.893
 3387SOL    HW211061   2.923   0.301   2.910
 3388SOL     OW11062   5.370   2.673   1.618
 3388SOL    HW111063   5.326   2.727   1.546
 3388SOL    HW211064   5.300   2.639   1.681
 3389SOL     OW11065   5.826   5.248   6.353
 3389SOL    HW111066   5.761   5.173   6.346
 3389SOL    HW211067   5.870   5.263   6.264
 3390SOL     OW11068   5.745   6.075   6.662
 3390SOL    HW111069   5.826   6.101   6.609
 3390SOL    HW211070   5.755   5.981   6.695
 3391SOL     OW11071   4.873   3.014   4.943
 3391SOL    HW111072   4.820   2.958   5.006
 3391SOL    HW211073   4.847   3.110   4.953
 3392SOL     OW11074   2.669   0.601   3.697
 3392SOL    HW111075   2.648   0.680   3.755
 3392SOL    HW211076   2.680   0.520   3.755
 3393SOL     OW11077   0.628   6.278   0.608
 3393SOL    HW111078   0.545   6.229   0.582
 3393SOL    HW211079   0.645   6.353   0.544
 3394SOL     OW11080   5.559   3.277   1.444
 3394SOL    HW111081   5.535   3.181   1.439
 3394SOL    HW211082   5.477   3.333   1.433
 3395SOL     OW11083   5.228   3.653   3.288
 3395SOL    HW111084   5.212   3.554   3.283
 3395SOL    HW211085   5.201   3.695   3.202
 3396SOL     OW11086   5.284   2.155   3.089
 3396SOL    HW111087   5.197   2.146   3.137
 3396SOL    HW211088   5.307   2.068   3.045
 3397SOL     OW11089   3.005   6.290   5.833
 3397SOL    HW111090   2.917   6.308   5.789
 3397SOL    HW211091   2.996   6.304   5.932
 3398SOL     OW11092   1.099   6.575   4.795
 3398SOL    HW111093   1.175   6.605   4.851
 3398SOL    HW211094   1.126   6.493   4.743
 3399SOL     OW11095   5.727   3.814   3.412
 3399SOL    HW111096   5.649   3.810   3.350
 3399SOL    HW211097   5.727   3.901   3.461
 3400SOL     OW11098   4.128   3.180   5.868
 3400SOL    HW111099   4.168   3.261   5.825
 3400SOL    HW211100   4.041   3.158   5.823
 3401SOL     OW11101   0.981   2.838   1.596
 3401SOL    HW111102   0.945   2.920   1.553
 3401SOL    HW211103   1.054   2.799   1.539
 3402SOL     OW11104   4.269   5.937   6.866
 3402SOL    HW111105   4.243   5.922   6.962
 3402SOL    HW211106   4.278   5.849   6.820
 3403SOL     OW11107   3.046   5.570   5.561
 3403SOL    HW111108   3.029   5.661   5.524
 3403SOL    HW211109   3.131   5.533   5.523
 3404SOL     OW11110   5.421   1.397   0.021
 3404SOL    HW111111   5.440   1.491   7.012
 3404SOL    HW211112   5.343   1.395   0.084
 3405SOL     OW11113   6.606   3.912   5.646
 3405SOL    HW111114   6.676   3.961   5.698
 3405SOL    HW211115   6.640   3.896   5.553
 3406SOL     OW11116   0.788   3.916   2.257
 3406SOL    HW111117   0.707   3.938   2.311
 3406SOL    HW211118   0.830   4.000   2.224
 3407SOL     OW11119   1.395   4.749   5.974
 3407SOL    HW111120   1.356   4.823   6.028
 3407SOL    HW211121   1.486   4.726   6.009
 3408SOL     OW11122   4.937   3.914   4.610
 3408SOL    HW111123   4.886   3.968   4.543
 3408SOL    HW211124   5.033   3.909   4.582
 3409SOL     OW11125   3.302   6.704   6.607
 3409SOL    HW111126   3.274   6.672   6.698
 3409SOL    HW211127   3.343   6.628   6.557
 3410SOL     OW11128   6.557   6.974   0.988
 3410SOL    HW111129   6.545   0.036   1.047
 3410SOL    HW211130   6.631   6.991   0.923
 3411SOL     OW11131   0.504   3.262   2.069
 3411SOL    HW111132   0.485   3.276   1.972
 3411SOL    HW211133   0.508   3.351   2.115
 3412SOL     OW11134   4.595   2.867   0.736
 3412SOL    HW111135   4.657   2.894   0.810
 3412SOL    HW211136   4.548   2.949   0.701
 3413SOL     OW11137   5.813   1.476   0.704
 3413SOL    HW111138   5.854   1.566   0.690
 3413SOL    HW211139   5.884   1.405   0.700
 3414SOL     OW11140   3.551   1.339   6.239
 3414SOL    HW111141   3.546   1.263   6.304
 3414SOL    HW211142   3.561   1.425   6.289
 3415SOL     OW11143   1.961   3.637   4.321
 3415SOL    HW111144   2.007   3.683   4.396
 3415SOL    HW211145   1.994   3.674   4.234
 3416SOL     OW11146   6.346   5.969   0.796
 3416SOL    HW111147   6.419   5.961   0.728
 3416SOL    HW211148   6.305   5.880   0.812
 3417SOL     OW11149   0.583   6.736   3.085
 3417SOL    HW111150   0.657   6.675   3.114
 3417SOL    HW211151   0.549   6.707   2.996
 3418SOL     OW11152   3.093   6.224   3.756
 3418SOL    HW111153   3.134   6.152   3.812
 3418SOL    HW211154   3.079   6.190   3.663
 3419SOL     OW11155   2.676   5.903   5.539
 3419SOL    HW111156   2.579   5.890   5.561
 3419SOL    HW211157   2.705   5.834   5.473
 3420SOL     OW11158   5.835   3.197   4.267
 3420SOL    HW111159   5.869   3.135   4.197
 3420SOL    HW211160   5.845   3.292   4.235
 3421SOL     OW11161   4.851   1.318   5.152
 3421SOL    HW111162   4.812   1.408   5.138
 3421SOL    HW211163   4.948   1.319   5.126
 3422SOL     OW11164   2.360   0.585   0.897
 3422SOL    HW111165   2.295   0.582   0.972
 3422SOL    HW211166   2.355   0.673   0.850
 3423SOL     OW11167   0.329   4.790   6.529
 3423SOL    HW111168   0.229   4.800   6.526
 3423SOL    HW211169   0.360   4.740   6.448
 3424SOL     OW11170   2.761   6.785   0.913
 3424SOL    HW111171   2.666   6.813   0.902
 3424SOL    HW211172   2.768   6.686   0.902
 3425SOL     OW11173   5.258   5.319   2.334
 3425SOL    HW111174   5.244   5.410   2.372
 3425SOL    HW211175   5.260   5.252   2.409
 3426SOL     OW11176   4.071   2.786   0.475
 3426SOL    HW111177   4.167   2.761   0.460
 3426SOL    HW211178   4.026   2.799   0.387
 3427SOL     OW11179   0.189   0.942   0.085
 3427SOL    HW111180   0.115   0.888   0.124
 3427SOL    HW211181   0.237   0.888   0.015
 3428SOL     OW11182   2.100   5.572   0.220
 3428SOL    HW111183   2.136   5.655   0.176
 3428SOL    HW211184   2.041   5.598   0.297
 3429SOL     OW11185   0.835   1.874   0.730
 3429SOL    HW111186   0.765   1.810   0.699
 3429SOL    HW211187   0.792   1.951   0.777
 3430SOL     OW11188   1.567   6.501   5.244
 3430SOL    HW111189   1.606   6.567   5.309
 3430SOL    HW211190   1.641   6.450   5.201
 3431SOL     OW11191   1.615   0.371   1.293
 3431SOL    HW111192   1.590   0.275   1.281
 3431SOL    HW211193   1.708   0.386   1.258
 3432SOL     OW11194   2.040   2.706   6.715
 3432SOL    HW111195   2.105   2.742   6.648
 3432SOL    HW211196   2.024   2.774   6.786
 3433SOL     OW11197   1.218   0.011   5.119
 3433SOL    HW111198   1.132   0.034   5.164
 3433SOL    HW211199   1.262   6.952   5.166
 3434SOL     OW11200   4.340   1.200   1.596
 3434SOL    HW111201   4.365   1.284   1.549
 3434SOL    HW211202   4.240   1.191   1.599
 3435SOL     OW11203   1.158   1.714   1.233
 3435SOL    HW111204   1.183   1.784   1.299
 3435SOL    HW211205   1.099   1.754   1.162
 3436SOL     OW11206   4.272   6.645   6.862
 3436SOL    HW111207   4.302   6.740   6.862
 3436SOL    HW211208   4.343   6.587   6.901
 3437SOL     OW11209   2.059   0.249   5.184
 3437SOL    HW111210   2.124   0.272   5.111
 3437SOL    HW211211   2.040   0.330   5.239
 3438SOL     OW11212   1.310   2.981   6.985
 3438SOL    HW111213   1.302   2.985   6.885
 3438SOL    HW211214   1.320   2.886   7.014
 3439SOL     OW11215   2.282   5.820   4.690
 3439SOL    HW111216   2.263   5.729   4.728
 3439SOL    HW211217   2.199   5.854   4.644
 3440SOL     OW11218   3.023   3.541   1.039
 3440SOL    HW111219   2.933   3.545   0.995
 3440SOL    HW211220   3.013   3.559   1.137
 3441SOL     OW11221   5.957   5.621   5.777
 3441SOL    HW111222   5.943   5.633   5.679
 3441SOL    HW211223   5.955   5.524   5.799
 3442SOL     OW11224   2.087   4.580   2.040
 3442SOL    HW111225   2.062   4.551   1.947
 3442SOL    HW211226   2.108   4.499   2.095
 3443SOL     OW11227   4.265   6.073   1.188
 3443SOL    HW111228   4.264   5.979   1.154
 3443SOL    HW211229   4.269   6.137   1.111
 3444SOL     OW11230   5.298   5.202   0.180
 3444SOL    HW111231   5.354   5.239   0.106
 3444SOL    HW211232   5.205   5.187   0.147
 3445SOL     OW11233   6.445   5.639   2.999
 3445SOL    HW111234   6.350   5.629   2.971
 3445SOL    HW211235   6.482   5.549   3.021
 3446SOL     OW11236   6.719   1.228   2.374
 3446SOL    HW111237   6.659   1.158   2.335
 3446SOL    HW211238   6.723   1.307   2.313
 3447SOL     OW11239   5.895   5.111   0.844
 3447SOL    HW111240   5.862   5.060   0.765
 3447SOL    HW211241   5.842   5.085   0.925
 3448SOL     OW11242   3.455   0.792   0.099
 3448SOL    HW111243   3.366   0.791   0.053
 3448SOL    HW211244   3.508   0.712   0.071
 3449SOL     OW11245   5.282   5.914   4.571
 3449SOL    HW111246   5.371   5.870   4.561
 3449SOL    HW211247   5.239   5.885   4.657
 3450SOL     OW11248   6.894   2.625   6.570
 3450SOL    HW111249   6.877   2.715   6.529
 3450SOL    HW211250   6.822   2.562   6.541
 3451SOL     OW11251   2.509   5.990   0.577
 3451SOL    HW111252   2.538   6.021   0.487
 3451SOL    HW211253   2.442   5.917   0.567
 3452SOL     OW11254   5.942   0.822   6.294
 3452SOL    HW111255   5.905   0.729   6.294
 3452SOL    HW211256   6.036   0.820   6.330
 3453SOL     OW11257   7.013   6.143   6.847
 3453SOL    HW111258   6.962   6.057   6.842
 3453SOL    HW211259   6.949   6.220   6.851
 3454SOL     OW11260   1.024   2.683   5.096
 3454SOL    HW111261   1.114   2.696   5.138
 3454SOL    HW211262   0.991   2.591   5.115
 3455SOL     OW11263   2.652   1.981   4.618
 3455SOL    HW111264   2.713   2.025   4.553
 3455SOL    HW211265   2.578   2.043   4.643
 3456SOL     OW11266   5.510   5.471   1.894
 3456SOL    HW111267   5.562   5.390   1.868
 3456SOL    HW211268   5.475   5.460   1.987
 3457SOL     OW11269   2.848   5.190   2.920
 3457SOL    HW111270   2.803   5.134   2.850
 3457SOL    HW211271   2.946   5.193   2.903
 3458SOL     OW11272   4.698   0.816   2.306
 3458SOL    HW111273   4.779   0.874   2.299
 3458SOL    HW211274   4.647   0.839   2.389
 3459SOL     OW11275   5.528   3.257   2.804
 3459SOL    HW111276   5.454   3.222   2.746
 3459SOL    HW211277   5.583   3.321   2.751
 3460SOL     OW11278   2.380   3.075   0.592
 3460SOL    HW111279   2.461   3.073   0.651
 3460SOL    HW211280   2.298   3.090   0.648
 3461SOL     OW11281   4.898   4.578   5.050
 3461SOL    HW111282   4.922   4.484   5.025
 3461SOL    HW211283   4.806   4.599   5.018
 3462SOL     OW11284   0.181   4.771   3.265
 3462SOL    HW111285   0.187   4.672   3.252
 3462SOL    HW211286   0.161   4.790   3.362
 3463SOL     OW11287   1.127   4.073   2.465
 3463SOL    HW111288   1.146   4.044   2.371
 3463SOL    HW211289   1.074   4.158   2.463
 3464SOL     OW11290   6.767   4.102   5.755
 3464SOL    HW111291   6.773   4.199   5.733
 3464SOL    HW211292   6.763   4.090   5.855
 3465SOL     OW11293   1.671   1.872   2.367
 3465SOL    HW111294   1.741   1.854   2.436
 3465SOL    HW211295   1.580   1.859   2.407
 3466SOL     OW11296   0.031   4.681   0.175
 3466SOL    HW111297   0.023   4.780   0.186
 3466SOL    HW211298   0.107   4.647   0.231
 3467SOL     OW11299   1.929   2.772   0.207
 3467SOL    HW111300   2.012   2.738   0.250
 3467SOL    HW211301   1.953   2.814   0.119
 3468SOL     OW11302   4.861   6.405   2.819
 3468SOL    HW111303   4.851   6.316   2.775
 3468SOL    HW211304   4.800   6.410   2.898
 3469SOL     OW11305   5.474   0.700   2.549
 3469SOL    HW111306   5.412   0.774   2.577
 3469SOL    HW211307   5.504   0.650   2.629
 3470SOL     OW11308   6.030   4.129   0.990
 3470SOL    HW111309   6.068   4.036   0.983
 3470SOL    HW211310   6.102   4.191   1.021
 3471SOL     OW11311   4.320   4.935   4.415
 3471SOL    HW111312   4.262   4.937   4.495
 3471SOL    HW211313   4.357   5.026   4.398
 3472SOL     OW11314   2.534   1.000   2.155
 3472SOL    HW111315   2.517   0.918   2.209
 3472SOL    HW211316   2.450   1.055   2.151
 3473SOL     OW11317   0.407   2.586   0.920
 3473SOL    HW111318   0.373   2.548   1.006
 3473SOL    HW211319   0.481   2.650   0.938
 3474SOL     OW11320   1.460   5.062   2.213
 3474SOL    HW111321   1.436   5.110   2.297
 3474SOL    HW211322   1.559   5.050   2.208
 3475SOL     OW11323   0.424   5.309   3.809
 3475SOL    HW111324   0.458   5.394   3.769
 3475SOL    HW211325   0.493   5.238   3.801
 3476SOL     OW11326   3.049   1.647   3.414
 3476SOL    HW111327   3.013   1.647   3.321
 3476SOL    HW211328   3.014   1.567   3.463
 3477SOL     OW11329   2.809   4.975   1.015
 3477SOL    HW111330   2.867   5.054   0.996
 3477SOL    HW211331   2.766   4.987   1.105
 3478SOL     OW11332   2.217   5.950   4.957
 3478SOL    HW111333   2.128   5.981   4.989
 3478SOL    HW211334   2.205   5.878   4.889
 3479SOL     OW11335   1.855   0.935   3.105
 3479SOL    HW111336   1.887   0.883   3.026
 3479SOL    HW211337   1.854   1.032   3.083
 3480SOL     OW11338   0.032   7.000   5.090
 3480SOL    HW111339   0.090   7.015   5.171
 3480SOL    HW211340   6.978   0.052   5.087
 3481SOL     OW11341   4.585   0.434   0.734
 3481SOL    HW111342   4.495   0.400   0.708
 3481SOL    HW211343   4.638   0.456   0.652
 3482SOL     OW11344   6.168   1.404   1.822
 3482SOL    HW111345   6.105   1.464   1.872
 3482SOL    HW211346   6.255   1.451   1.810
 3483SOL     OW11347   4.668   1.826   1.469
 3483SOL    HW111348   4.571   1.800   1.471
 3483SOL    HW211349   4.675   1.925   1.460
 3484SOL     OW11350   1.474   3.608   0.756
 3484SOL    HW111351   1.499   3.705   0.747
 3484SOL    HW211352   1.458   3.587   0.852
 3485SOL     OW11353   1.853   1.160   4.290
 3485SOL    HW111354   1.826   1.123   4.201
 3485SOL    HW211355   1.895   1.250   4.278
 3486SOL     OW11356   2.853   1.189   2.796
 3486SOL    HW111357   2.873   1.191   2.894
 3486SOL    HW211358   2.823   1.280   2.766
 3487SOL     OW11359   5.510   2.525   5.980
 3487SOL    HW111360   5.582   2.455   5.977
 3487SOL    HW211361   5.432   2.494   5.927
 3488SOL     OW11362   6.073   1.618   4.726
 3488SOL    HW111363   6.074   1.528   4.683
 3488SOL    HW211364   6.154   1.628   4.784
 3489SOL     OW11365   3.067   0.049   0.637
 3489SOL    HW111366   2.970   0.039   0.656
 3489SOL    HW211367   3.119   7.002   0.693
 3490SOL     OW11368   4.042   4.744   0.391
 3490SOL    HW111369   3.979   4.697   0.329
 3490SOL    HW211370   4.136   4.726   0.363
 3491SOL     OW11371   5.489   2.805   5.160
 3491SOL    HW111372   5.565   2.869   5.148
 3491SOL    HW211373   5.471   2.792   5.258
 3492SOL     OW11374   0.371   5.783   1.321
 3492SOL    HW111375   0.312   5.702   1.325
 3492SOL    HW211376   0.383   5.811   1.226
 3493SOL     OW11377   5.340   4.204   6.342
 3493SOL    HW111378   5.347   4.303   6.351
 3493SOL    HW211379   5.431   4.165   6.330
 3494SOL     OW11380   3.670   0.622   1.711
 3494SOL    HW111381   3.760   0.632   1.670
 3494SOL    HW211382   3.601   0.618   1.639
 3495SOL     OW11383   5.174   5.561   2.473
 3495SOL    HW111384   5.104   5.621   2.432
 3495SOL    HW211385   5.139   5.524   2.560
 3496SOL     OW11386   6.822   3.931   0.613
 3496SOL    HW111387   6.812   4.022   0.654
 3496SOL    HW211388   6.738   3.907   0.565
 3497SOL     OW11389   3.352   0.577   3.466
 3497SOL    HW111390   3.357   0.661   3.414
 3497SOL    HW211391   3.391   0.591   3.557
 3498SOL     OW11392   2.496   2.362   0.886
 3498SOL    HW111393   2.576   2.315   0.849
 3498SOL    HW211394   2.437   2.393   0.811
 3499SOL     OW11395   4.705   2.833   4.333
 3499SOL    HW111396   4.652   2.763   4.284
 3499SOL    HW211397   4.762   2.790   4.403
 3500SOL     OW11398   1.331   3.647   4.719
 3500SOL    HW111399   1.301   3.591   4.796
 3500SOL    HW211400   1.429   3.667   4.728
 3501SOL     OW11401   1.726   5.142   4.183
 3501SOL    HW111402   1.635   5.175   4.157
 3501SOL    HW211403   1.717   5.056   4.233
 3502SOL     OW11404   5.870   2.508   2.317
 3502SOL    HW111405   5.915   2.515   2.228
 3502SOL    HW211406   5.784   2.559   2.315
 3503SOL     OW11407   6.578   6.322   4.855
 3503SOL    HW111408   6.668   6.290   4.824
 3503SOL    HW211409   6.580   6.421   4.867
 3504SOL     OW11410   2.195   2.144   1.251
 3504SOL    HW111411   2.270   2.134   1.186
 3504SOL    HW211412   2.228   2.191   1.333
 3505SOL     OW11413   5.335   4.945   5.075
 3505SOL    HW111414   5.404   5.001   5.029
 3505SOL    HW211415   5.380   4.872   5.127
 3506SOL     OW11416   4.683   5.310   6.068
 3506SOL    HW111417   4.692   5.361   5.983
 3506SOL    HW211418   4.774   5.290   6.104
 3507SOL     OW11419   2.195   1.050   0.344
 3507SOL    HW111420   2.099   1.022   0.335
 3507SOL    HW211421   2.218   1.111   0.269
 3508SOL     OW11422   3.131   2.464   6.099
 3508SOL    HW111423   3.069   2.514   6.160
 3508SOL    HW211424   3.211   2.521   6.079
 3509SOL     OW11425   6.012   0.015   5.551
 3509SOL    HW111426   5.912   0.017   5.551
 3509SOL    HW211427   6.047   0.061   5.633
 3510SOL     OW11428   1.912   2.794   1.359
 3510SOL    HW111429   1.850   2.719   1.384
 3510SOL    HW211430   1.903   2.867   1.426
 3511SOL     OW11431   1.823   5.013   0.740
 3511SOL    HW111432   1.843   4.916   0.752
 3511SOL    HW211433   1.865   5.045   0.655
 3512SOL     OW11434   0.210   5.009   0.689
 3512SOL    HW111435   0.210   5.083   0.621
 3512SOL    HW211436   0.137   5.025   0.755
 3513SOL     OW11437   6.177   3.835   0.522
 3513SOL    HW111438   6.092   3.884   0.543
 3513SOL    HW211439   6.191   3.763   0.590
 3514SOL     OW11440   0.829   1.561   2.218
 3514SOL    HW111441   0.845   1.660   2.220
 3514SOL    HW211442   0.889   1.516   2.284
 3515SOL     OW11443   4.235   6.249   3.196
 3515SOL    HW111444   4.153   6.192   3.204
 3515SOL    HW211445   4.227   6.307   3.114
 3516SOL     OW11446   4.760   6.972   0.739
 3516SOL    HW111447   4.708   0.023   0.688
 3516SOL    HW211448   4.787   6.898   0.678
 3517SOL     OW11449   0.810   2.156   0.802
 3517SOL    HW111450   0.740   2.218   0.836
 3517SOL    HW211451   0.845   2.189   0.715
 3518SOL     OW11452   5.864   3.965   4.793
 3518SOL    HW111453   5.941   3.996   4.737
 3518SOL    HW211454   5.889   3.880   4.839
 3519SOL     OW11455   0.841   0.782   6.016
 3519SOL    HW111456   0.831   0.744   5.924
 3519SOL    HW211457   0.829   0.710   6.084
 3520SOL     OW11458   2.930   5.582   6.963
 3520SOL    HW111459   2.938   5.659   6.900
 3520SOL    HW211460   2.855   5.523   6.934
 3521SOL     OW11461   5.745   3.376   0.070
 3521SOL    HW111462   5.816   3.422   0.123
 3521SOL    HW211463   5.736   3.281   0.102
 3522SOL     OW11464   6.295   4.595   1.861
 3522SOL    HW111465   6.219   4.548   1.907
 3522SOL    HW211466   6.359   4.527   1.826
 3523SOL     OW11467   2.512   4.674   5.727
 3523SOL    HW111468   2.582   4.737   5.761
 3523SOL    HW211469   2.535   4.645   5.634
 3524SOL     OW11470   3.269   1.185   1.126
 3524SOL    HW111471   3.271   1.186   1.026
 3524SOL    HW211472   3.290   1.276   1.162
 3525SOL     OW11473   0.707   4.212   2.321
 3525SOL    HW111474   0.756   4.198   2.234
 3525SOL    HW211475   0.770   4.196   2.397
 3526SOL     OW11476   2.738   6.255   3.709
 3526SOL    HW111477   2.733   6.349   3.675
 3526SOL    HW211478   2.788   6.254   3.796
 3527SOL     OW11479   6.319   3.143   6.358
 3527SOL    HW111480   6.321   3.193   6.271
 3527SOL    HW211481   6.409   3.105   6.377
 3528SOL     OW11482   0.961   5.002   3.770
 3528SOL    HW111483   0.978   5.099   3.784
 3528SOL    HW211484   0.983   4.952   3.854
 3529SOL     OW11485   4.979   0.131   6.038
 3529SOL    HW111486   4.925   0.088   5.966
 3529SOL    HW211487   4.935   0.216   6.067
 3530SOL     OW11488   1.762   5.196   3.460
 3530SOL    HW111489   1.833   5.129   3.435
 3530SOL    HW211490   1.759   5.206   3.559
 3531SOL     OW11491   4.450   3.567   0.935
 3531SOL    HW111492   4.472   3.611   0.848
 3531SOL    HW211493   4.366   3.514   0.926
 3532SOL     OW11494   2.780   0.935   1.194
 3532SOL    HW111495   2.753   0.915   1.288
 3532SOL    HW211496   2.876   0.964   1.192
 3533SOL     OW11497   1.576   1.900   2.668
 3533SOL    HW111498   1.670   1.865   2.669
 3533SOL    HW211499   1.573   1.988   2.621
 3534SOL     OW11500   5.426   0.808   4.973
 3534SOL    HW111501   5.354   0.810   5.042
 3534SOL    HW211502   5.515   0.810   5.018
 3535SOL     OW11503   0.700   5.707   0.495
 3535SOL    HW111504   0.699   5.656   0.409
 3535SOL    HW211505   0.659   5.797   0.480
 3536SOL     OW11506   2.199   1.963   4.263
 3536SOL    HW111507   2.272   2.030   4.258
 3536SOL    HW211508   2.237   1.871   4.248
 3537SOL     OW11509   2.486   5.169   0.700
 3537SOL    HW111510   2.501   5.239   0.631
 3537SOL    HW211511   2.425   5.203   0.771
 3538SOL     OW11512   1.406   0.817   5.025
 3538SOL    HW111513   1.423   0.855   4.935
 3538SOL    HW211514   1.351   0.881   5.079
 3539SOL     OW11515   6.072   3.772   6.500
 3539SOL    HW111516   6.082   3.831   6.580
 3539SOL    HW211517   5.978   3.779   6.466
 3540SOL     OW11518   1.900   2.245   5.535
 3540SOL    HW111519   1.999   2.247   5.527
 3540SOL    HW211520   1.874   2.233   5.631
 3541SOL     OW11521   2.351   2.246   6.236
 3541SOL    HW111522   2.315   2.331   6.275
 3541SOL    HW211523   2.373   2.182   6.310
 3542SOL     OW11524   0.566   3.956   1.841
 3542SOL    HW111525   0.596   3.903   1.920
 3542SOL    HW211526   0.494   4.020   1.868
 3543SOL     OW11527   0.964   3.709   5.663
 3543SOL    HW111528   0.876   3.675   5.696
 3543SOL    HW211529   0.949   3.761   5.578
 3544SOL     OW11530   2.039   5.087   6.560
 3544SOL    HW111531   1.995   5.176   6.570
 3544SOL    HW211532   1.999   5.039   6.482
 3545SOL     OW11533   3.626   5.185   0.577
 3545SOL    HW111534   3.590   5.100   0.615
 3545SOL    HW211535   3.714   5.168   0.533
 3546SOL     OW11536   0.122   4.802   2.668
 3546SOL    HW111537   0.029   4.826   2.695
 3546SOL    HW211538   0.157   4.730   2.728
 3547SOL     OW11539   6.193   4.722   4.685
 3547SOL    HW111540   6.254   4.700   4.608
 3547SOL    HW211541   6.145   4.639   4.713
 3548SOL     OW11542   4.739   0.054   5.431
 3548SOL    HW111543   4.716   7.017   5.511
 3548SOL    HW211544   4.793   0.134   5.459
 3549SOL     OW11545   0.696   4.575   6.183
 3549SOL    HW111546   0.763   4.526   6.129
 3549SOL    HW211547   0.626   4.511   6.215
 3550SOL     OW11548   6.093   2.495   4.125
 3550SOL    HW111549   6.159   2.422   4.107
 3550SOL    HW211550   6.000   2.460   4.112
 3551SOL     OW11551   3.577   1.959   3.708
 3551SOL    HW111552   3.517   2.036   3.685
 3551SOL    HW211553   3.603   1.965   3.805
 3552SOL     OW11554   6.299   0.333   1.240
 3552SOL    HW111555   6.243   0.268   1.292
 3552SOL    HW211556   6.240   0.382   1.175
 3553SOL     OW11557   3.874   5.475   0.644
 3553SOL    HW111558   3.776   5.466   0.659
 3553SOL    HW211559   3.892   5.483   0.546
 3554SOL     OW11560   4.639   2.086   1.163
 3554SOL    HW111561   4.727   2.132   1.151
 3554SOL    HW211562   4.647   1.990   1.138
 3555SOL     OW11563   0.532   3.955   4.980
 3555SOL    HW111564   0.521   3.856   4.988
 3555SOL    HW211565   0.454   3.994   4.930
 3556SOL     OW11566   4.256   0.913   4.305
 3556SOL    HW111567   4.345   0.869   4.311
 3556SOL    HW211568   4.226   0.941   4.397
 3557SOL     OW11569   0.911   0.650   3.973
 3557SOL    HW111570   0.858   0.583   4.025
 3557SOL    HW211571   1.002   0.612   3.953
 3558SOL     OW11572   1.461   5.741   2.640
 3558SOL    HW111573   1.508   5.666   2.593
 3558SOL    HW211574   1.511   5.826   2.625
 3559SOL     OW11575   0.706   6.420   5.218
 3559SOL    HW111576   0.790   6.448   5.263
 3559SOL    HW211577   0.722   6.337   5.164
 3560SOL     OW11578   2.375   5.175   2.534
 3560SOL    HW111579   2.278   5.186   2.514
 3560SOL    HW211580   2.387   5.143   2.628
 3561SOL     OW11581   4.913   4.010   5.111
 3561SOL    HW111582   4.887   3.991   5.017
 3561SOL    HW211583   4.846   3.969   5.173
 3562SOL     OW11584   4.091   0.871   3.190
 3562SOL    HW111585   4.108   0.772   3.194
 3562SOL    HW211586   4.034   0.898   3.268
 3563SOL     OW11587   6.318   1.970   0.387
 3563SOL    HW111588   6.402   2.023   0.398
 3563SOL    HW211589   6.249   2.003   0.451
 3564SOL     OW11590   1.004   4.619   2.944
 3564SOL    HW111591   0.969   4.526   2.937
 3564SOL    HW211592   0.955   4.668   3.016
 3565SOL     OW11593   3.176   5.997   4.511
 3565SOL    HW111594   3.186   5.979   4.608
 3565SOL    HW211595   3.188   6.095   4.494
 3566SOL     OW11596   6.639   3.267   6.728
 3566SOL    HW111597   6.671   3.178   6.759
 3566SOL    HW211598   6.564   3.298   6.786
 3567SOL     OW11599   0.568   1.915   6.371
 3567SOL    HW111600   0.506   1.844   6.337
 3567SOL    HW211601   0.658   1.875   6.388
 3568SOL     OW11602   4.920   3.921   4.200
 3568SOL    HW111603   5.019   3.932   4.198
 3568SOL    HW211604   4.885   3.951   4.288
 3569SOL     OW11605   2.126   1.797   5.980
 3569SOL    HW111606   2.084   1.736   6.048
 3569SOL    HW211607   2.139   1.887   6.021
 3570SOL     OW11608   5.001   0.508   5.802
 3570SOL    HW111609   5.062   0.537   5.728
 3570SOL    HW211610   4.956   0.422   5.775
 3571SOL     OW11611   1.066   5.388   5.739
 3571SOL    HW111612   1.079   5.374   5.641
 3571SOL    HW211613   1.156   5.395   5.784
 3572SOL     OW11614   6.229   3.954   2.742
 3572SOL    HW111615   6.161   3.937   2.813
 3572SOL    HW211616   6.186   3.947   2.652
 3573SOL     OW11617   0.552   5.305   3.376
 3573SOL    HW111618   0.547   5.328   3.279
 3573SOL    HW211619   0.493   5.366   3.428
 3574SOL     OW11620   0.391   3.884   1.389
 3574SOL    HW111621   0.306   3.843   1.353
 3574SOL    HW211622   0.451   3.811   1.423
 3575SOL     OW11623   4.951   4.846   2.734
 3575SOL    HW111624   4.969   4.865   2.637
 3575SOL    HW211625   4.966   4.749   2.752
 3576SOL     OW11626   0.358   2.073   5.794
 3576SOL    HW111627   0.349   1.984   5.839
 3576SOL    HW211628   0.285   2.083   5.726
 3577SOL     OW11629   2.022   2.057   5.973
 3577SOL    HW111630   1.964   2.039   6.053
 3577SOL    HW211631   1.964   2.072   5.893
 3578SOL     OW11632   3.553   2.500   0.523
 3578SOL    HW111633   3.612   2.581   0.517
 3578SOL    HW211634   3.473   2.521   0.578
 3579SOL     OW11635   6.475   2.537   4.152
 3579SOL    HW111636   6.458   2.543   4.054
 3579SOL    HW211637   6.511   2.447   4.175
 3580SOL     OW11638   5.398   3.081   1.713
 3580SOL    HW111639   5.443   3.161   1.752
 3580SOL    HW211640   5.322   3.110   1.656
 3581SOL     OW11641   1.024   5.938   3.307
 3581SOL    HW111642   1.111   5.973   3.273
 3581SOL    HW211643   1.041   5.876   3.384
 3582SOL     OW11644   1.109   2.524   5.657
 3582SOL    HW111645   1.078   2.450   5.717
 3582SOL    HW211646   1.192   2.496   5.610
 3583SOL     OW11647   0.636   4.034   6.764
 3583SOL    HW111648   0.585   4.014   6.847
 3583SOL    HW211649   0.605   3.974   6.690
 3584SOL     OW11650   5.785   5.272   6.997
 3584SOL    HW111651   5.844   5.266   6.917
 3584SOL    HW211652   5.749   5.365   7.005
 3585SOL     OW11653   3.442   0.532   4.487
 3585SOL    HW111654   3.479   0.485   4.568
 3585SOL    HW211655   3.507   0.602   4.458
 3586SOL     OW11656   6.810   1.809   4.867
 3586SOL    HW111657   6.775   1.871   4.937
 3586SOL    HW211658   6.841   1.725   4.910
 3587SOL     OW11659   2.562   5.170   6.477
 3587SOL    HW111660   2.586   5.084   6.521
 3587SOL    HW211661   2.558   5.157   6.378
 3588SOL     OW11662   1.272   2.213   5.881
 3588SOL    HW111663   1.350   2.249   5.829
 3588SOL    HW211664   1.302   2.191   5.974
 3589SOL     OW11665   3.951   1.292   4.662
 3589SOL    HW111666   4.022   1.244   4.714
 3589SOL    HW211667   3.964   1.275   4.564
 3590SOL     OW11668   1.143   3.063   6.744
 3590SOL    HW111669   1.182   2.972   6.760
 3590SOL    HW211670   1.216   3.128   6.725
 3591SOL     OW11671   5.206   3.987   6.305
 3591SOL    HW111672   5.245   4.077   6.323
 3591SOL    HW211673   5.206   3.933   6.389
 3592SOL     OW11674   0.070   4.895   1.888
 3592SOL    HW111675   0.002   4.832   1.925
 3592SOL    HW211676   0.115   4.943   1.963
 3593SOL     OW11677   0.729   5.909   5.027
 3593SOL    HW111678   0.705   5.857   4.945
 3593SOL    HW211679   0.677   5.875   5.105
 3594SOL     OW11680   4.431   0.136   3.098
 3594SOL    HW111681   4.406   0.232   3.084
 3594SOL    HW211682   4.358   0.090   3.149
 3595SOL     OW11683   3.203   5.864   7.012
 3595SOL    HW111684   3.223   5.766   0.001
 3595SOL    HW211685   3.236   5.910   0.077
 3596SOL     OW11686   6.316   3.259   3.536
 3596SOL    HW111687   6.316   3.268   3.437
 3596SOL    HW211688   6.304   3.349   3.578
 3597SOL     OW11689   1.354   2.012   5.007
 3597SOL    HW111690   1.334   1.940   4.941
 3597SOL    HW211691   1.335   2.102   4.966
 3598SOL     OW11692   0.973   5.117   6.160
 3598SOL    HW111693   0.944   5.022   6.162
 3598SOL    HW211694   0.980   5.149   6.066
 3599SOL     OW11695   0.102   2.279   6.616
 3599SOL    HW111696   0.060   2.221   6.546
 3599SOL    HW211697   0.169   2.339   6.574
 3600SOL     OW11698   0.900   3.365   1.411
 3600SOL    HW111699   0.812   3.414   1.410
 3600SOL    HW211700   0.937   3.365   1.504
 3601SOL     OW11701   5.377   4.758   6.312
 3601SOL    HW111702   5.475   4.740   6.302
 3601SOL    HW211703   5.364   4.834   6.377
 3602SOL     OW11704   2.143   2.766   0.395
 3602SOL    HW111705   2.080   2.745   0.470
 3602SOL    HW211706   2.129   2.861   0.366
 3603SOL     OW11707   3.633   0.312   3.774
 3603SOL    HW111708   3.709   0.256   3.808
 3603SOL    HW211709   3.601   0.276   3.687
 3604SOL     OW11710   6.394   5.152   3.392
 3604SOL    HW111711   6.377   5.202   3.477
 3604SOL    HW211712   6.461   5.080   3.409
 3605SOL     OW11713   6.545   3.436   5.189
 3605SOL    HW111714   6.499   3.380   5.257
 3605SOL    HW211715   6.477   3.491   5.140
 3606SOL     OW11716   6.865   0.103   4.487
 3606SOL    HW111717   6.879   0.140   4.396
 3606SOL    HW211718   6.860   0.178   4.553
 3607SOL     OW11719   5.988   5.543   1.759
 3607SOL    HW111720   5.942   5.615   1.811
 3607SOL    HW211721   6.039   5.585   1.683
 3608SOL     OW11722   5.842   2.556   3.624
 3608SOL    HW111723   5.819   2.588   3.532
 3608SOL    HW211724   5.910   2.483   3.617
 3609SOL     OW11725   1.290   6.820   4.461
 3609SOL    HW111726   1.269   6.734   4.414
 3609SOL    HW211727   1.389   6.826   4.477
 3610SOL     OW11728   1.717   0.073   5.458
 3610SOL    HW111729   1.702   7.014   5.520
 3610SOL    HW211730   1.815   0.096   5.457
 3611SOL     OW11731   3.899   5.919   5.465
 3611SOL    HW111732   3.917   5.836   5.519
 3611SOL    HW211733   3.903   5.897   5.368
 3612SOL     OW11734   6.720   6.944   6.948
 3612SOL    HW111735   6.713   6.975   0.025
 3612SOL    HW211736   6.635   6.965   6.900
 3613SOL     OW11737   4.418   4.802   2.362
 3613SOL    HW111738   4.472   4.799   2.446
 3613SOL    HW211739   4.405   4.897   2.334
 3614SOL     OW11740   3.898   2.949   1.512
 3614SOL    HW111741   3.882   2.969   1.415
 3614SOL    HW211742   3.818   2.977   1.565
 3615SOL     OW11743   5.079   5.486   6.685
 3615SOL    HW111744   5.175   5.458   6.689
 3615SOL    HW211745   5.064   5.564   6.746
 3616SOL     OW11746   0.791   2.257   6.964
 3616SOL    HW111747   0.743   2.172   6.988
 3616SOL    HW211748   0.826   2.300   0.029
 3617SOL     OW11749   3.693   1.362   6.848
 3617SOL    HW111750   3.603   1.321   6.832
 3617SOL    HW211751   3.692   1.457   6.818
 3618SOL     OW11752   2.028   2.655   5.107
 3618SOL    HW111753   2.110   2.702   5.074
 3618SOL    HW211754   1.951   2.719   5.107
 3619SOL     OW11755   5.868   2.548   4.801
 3619SOL    HW111756   5.949   2.583   4.848
 3619SOL    HW211757   5.896   2.504   4.715
 3620SOL     OW11758   6.146   6.436   6.309
 3620SOL    HW111759   6.049   6.412   6.323
 3620SOL    HW211760   6.197   6.353   6.285
 3621SOL     OW11761   3.420   3.014   5.120
 3621SOL    HW111762   3.424   2.925   5.165
 3621SOL    HW211763   3.337   3.020   5.065
 3622SOL     OW11764   1.768   1.760   5.304
 3622SOL    HW111765   1.675   1.792   5.283
 3622SOL    HW211766   1.808   1.720   5.222
 3623SOL     OW11767   6.152   5.820   4.386
 3623SOL    HW111768   6.068   5.873   4.401
 3623SOL    HW211769   6.167   5.811   4.288
 3624SOL     OW11770   1.611   6.764   2.055
 3624SOL    HW111771   1.645   6.809   2.138
 3624SOL    HW211772   1.636   6.818   1.975
 3625SOL     OW11773   6.433   2.739   6.783
 3625SOL    HW111774   6.420   2.645   6.751
 3625SOL    HW211775   6.353   2.794   6.758
 3626SOL     OW11776   1.807   2.148   5.805
 3626SOL    HW111777   1.814   2.235   5.853
 3626SOL    HW211778   1.718   2.107   5.822
 3627SOL     OW11779   3.370   3.275   2.578
 3627SOL    HW111780   3.399   3.315   2.665
 3627SOL    HW211781   3.318   3.192   2.595
 3628SOL     OW11782   1.774   1.274   2.010
 3628SOL    HW111783   1.680   1.263   2.042
 3628SOL    HW211784   1.835   1.293   2.087
 3629SOL     OW11785   6.753   0.704   5.513
 3629SOL    HW111786   6.694   0.763   5.456
 3629SOL    HW211787   6.802   0.761   5.578
 3630SOL     OW11788   5.219   2.659   4.059
 3630SOL    HW111789   5.313   2.629   4.041
 3630SOL    HW211790   5.204   2.662   4.158
 3631SOL     OW11791   2.472   1.217   3.492
 3631SOL    HW111792   2.521   1.282   3.435
 3631SOL    HW211793   2.522   1.202   3.577
 3632SOL     OW11794   5.310   5.709   1.216
 3632SOL    HW111795   5.352   5.651   1.286
 3632SOL    HW211796   5.229   5.754   1.252
 3633SOL     OW11797   4.069   1.844   6.028
 3633SOL    HW111798   4.085   1.824   6.125
 3633SOL    HW211799   3.998   1.784   5.993
 3634SOL     OW11800   1.824   4.447   4.904
 3634SOL    HW111801   1.810   4.357   4.863
 3634SOL    HW211802   1.806   4.442   5.002
 3635SOL     OW11803   3.596   0.180   0.289
 3635SOL    HW111804   3.560   0.141   0.205
 3635SOL    HW211805   3.663   0.251   0.267
 3636SOL     OW11806   0.001   5.863   1.012
 3636SOL    HW111807   0.079   5.926   1.006
 3636SOL    HW211808   0.023   5.778   0.964
 3637SOL     OW11809   0.211   1.904   2.079
 3637SOL    HW111810   0.228   1.805   2.083
 3637SOL    HW211811   0.223   1.944   2.170
 3638SOL     OW11812   0.689   4.440   3.271
 3638SOL    HW111813   0.728   4.448   3.363
 3638SOL    HW211814   0.759   4.406   3.209
 3639SOL     OW11815   3.616   4.916   0.856
 3639SOL    HW111816   3.590   4.886   0.948
 3639SOL    HW211817   3.588   4.848   0.789
 3640SOL     OW11818   4.283   0.800   0.559
 3640SOL    HW111819   4.348   0.877   0.565
 3640SOL    HW211820   4.317   0.733   0.493
 3641SOL     OW11821   4.843   3.668   2.177
 3641SOL    HW111822   4.745   3.650   2.182
 3641SOL    HW211823   4.859   3.767   2.179
 3642SOL     OW11824   5.527   1.170   0.149
 3642SOL    HW111825   5.507   1.163   0.247
 3642SOL    HW211826   5.494   1.257   0.114
 3643SOL     OW11827   3.522   5.689   4.544
 3643SOL    HW111828   3.571   5.618   4.595
 3643SOL    HW211829   3.444   5.647   4.497
 3644SOL     OW11830   0.181   0.998   1.532
 3644SOL    HW111831   0.084   1.019   1.546
 3644SOL    HW211832   0.189   0.915   1.476
 3645SOL     OW11833   0.590   2.780   3.810
 3645SOL    HW111834   0.633   2.816   3.727
 3645SOL    HW211835   0.501   2.741   3.787
 3646SOL     OW11836   0.933   4.012   6.590
 3646SOL    HW111837   0.860   3.945   6.603
 3646SOL    HW211838   1.010   3.969   6.542
 3647SOL     OW11839   2.674   5.358   6.108
 3647SOL    HW111840   2.625   5.387   6.190
 3647SOL    HW211841   2.618   5.378   6.027
 3648SOL     OW11842   4.086   4.929   1.854
 3648SOL    HW111843   3.991   4.918   1.827
 3648SOL    HW211844   4.109   5.026   1.858
 3649SOL     OW11845   4.992   3.007   1.299
 3649SOL    HW111846   4.926   3.080   1.320
 3649SOL    HW211847   5.082   3.048   1.286
 3650SOL     OW11848   6.556   6.036   1.519
 3650SOL    HW111849   6.482   6.073   1.462
 3650SOL    HW211850   6.638   6.092   1.508
 3651SOL     OW11851   0.761   6.708   4.636
 3651SOL    HW111852   0.719   6.617   4.635
 3651SOL    HW211853   0.829   6.712   4.709
 3652SOL     OW11854   5.914   6.426   3.418
 3652SOL    HW111855   5.911   6.343   3.364
 3652SOL    HW211856   5.875   6.408   3.509
 3653SOL     OW11857   0.933   1.873   3.694
 3653SOL    HW111858   0.873   1.927   3.635
 3653SOL    HW211859   0.881   1.799   3.737
 3654SOL     OW11860   2.997   4.389   0.660
 3654SOL    HW111861   3.000   4.385   0.760
 3654SOL    HW211862   2.929   4.324   0.627
 3655SOL     OW11863   2.200   6.299   4.323
 3655SOL    HW111864   2.173   6.305   4.419
 3655SOL    HW211865   2.297   6.320   4.314
 3656SOL     OW11866   0.066   4.501   1.313
 3656SOL    HW111867   6.987   4.516   1.333
 3656SOL    HW211868   0.077   4.477   1.216
 3657SOL     OW11869   5.324   5.713   6.044
 3657SOL    HW111870   5.282   5.657   6.114
 3657SOL    HW211871   5.398   5.768   6.085
 3658SOL     OW11872   1.846   5.143   6.122
 3658SOL    HW111873   1.908   5.204   6.073
 3658SOL    HW211874   1.790   5.093   6.056
 3659SOL     OW11875   2.421   4.004   6.493
 3659SOL    HW111876   2.370   3.919   6.487
 3659SOL    HW211877   2.517   3.988   6.470
 3660SOL     OW11878   5.533   5.931   3.645
 3660SOL    HW111879   5.471   5.950   3.721
 3660SOL    HW211880   5.592   6.011   3.629
 3661SOL     OW11881   5.790   0.438   5.290
 3661SOL    HW111882   5.782   0.340   5.305
 3661SOL    HW211883   5.876   0.457   5.243
 3662SOL     OW11884   3.665   0.630   3.973
 3662SOL    HW111885   3.617   0.620   3.886
 3662SOL    HW211886   3.608   0.683   4.036
 3663SOL     OW11887   1.814   1.826   6.910
 3663SOL    HW111888   1.872   1.845   6.989
 3663SOL    HW211889   1.854   1.752   6.855
 3664SOL     OW11890   4.847   2.439   1.411
 3664SOL    HW111891   4.833   2.526   1.364
 3664SOL    HW211892   4.941   2.434   1.444
 3665SOL     OW11893   1.393   6.446   5.069
 3665SOL    HW111894   1.434   6.442   4.978
 3665SOL    HW211895   1.464   6.464   5.137
 3666SOL     OW11896   0.463   3.456   3.405
 3666SOL    HW111897   0.518   3.378   3.377
 3666SOL    HW211898   0.503   3.498   3.486
 3667SOL     OW11899   0.947   1.625   3.496
 3667SOL    HW111900   0.858   1.609   3.538
 3667SOL    HW211901   0.999   1.539   3.495
 3668SOL     OW11902   1.401   1.115   0.846
 3668SOL    HW111903   1.327   1.182   0.836
 3668SOL    HW211904   1.435   1.117   0.941
 3669SOL     OW11905   5.369   1.324   3.477
 3669SOL    HW111906   5.272   1.316   3.500
 3669SOL    HW211907   5.391   1.259   3.405
 3670SOL     OW11908   1.714   5.815   0.263
 3670SOL    HW111909   1.619   5.846   0.267
 3670SOL    HW211910   1.752   5.812   0.355
 3671SOL     OW11911   6.805   2.101   4.353
 3671SOL    HW111912   6.784   2.114   4.450
 3671SOL    HW211913   6.864   2.176   4.321
 3672SOL     OW11914   5.004   1.449   1.587
 3672SOL    HW111915   5.029   1.533   1.634
 3672SOL    HW211916   4.995   1.466   1.489
 3673SOL     OW11917   3.682   6.292   0.036
 3673SOL    HW111918   3.594   6.323   7.017
 3673SOL    HW211919   3.701   6.340   0.122
 3674SOL     OW11920   1.296   5.156   5.538
 3674SOL    HW111921   1.321   5.138   5.634
 3674SOL    HW211922   1.368   5.120   5.478
 3675SOL     OW11923   2.242   2.602   3.853
 3675SOL    HW111924   2.307   2.587   3.927
 3675SOL    HW211925   2.164   2.654   3.887
 3676SOL     OW11926   5.784   4.626   3.036
 3676SOL    HW111927   5.699   4.674   3.015
 3676SOL    HW211928   5.772   4.573   3.121
 3677SOL     OW11929   2.515   6.167   3.889
 3677SOL    HW111930   2.571   6.212   3.819
 3677SOL    HW211931   2.441   6.229   3.917
 3678SOL     OW11932   0.364   1.587   4.237
 3678SOL    HW111933   0.272   1.610   4.205
 3678SOL    HW211934   0.359   1.515   4.306
 3679SOL     OW11935   0.840   0.794   3.549
 3679SOL    HW111936   0.810   0.754   3.636
 3679SOL    HW211937   0.885   0.882   3.567
 3680SOL     OW11938   5.117   3.236   4.036
 3680SOL    HW111939   5.166   3.304   3.981
 3680SOL    HW211940   5.175   3.156   4.049
 3681SOL     OW11941   0.077   0.733   6.336
 3681SOL    HW111942   0.034   0.675   6.267
 3681SOL    HW211943   0.107   0.819   6.294
 3682SOL     OW11944   5.230   2.452   6.817
 3682SOL    HW111945   5.320   2.422   6.786
 3682SOL    HW211946   5.239   2.503   6.902
 3683SOL     OW11947   6.661   1.586   3.835
 3683SOL    HW111948   6.736   1.527   3.865
 3683SOL    HW211949   6.684   1.682   3.854
 3684SOL     OW11950   1.168   4.563   6.768
 3684SOL    HW111951   1.207   4.610   6.689
 3684SOL    HW211952   1.227   4.485   6.792
 3685SOL     OW11953   1.748   6.328   6.442
 3685SOL    HW111954   1.657   6.286   6.435
 3685SOL    HW211955   1.741   6.416   6.490
 3686SOL     OW11956   5.059   5.591   4.220
 3686SOL    HW111957   4.971   5.581   4.173
 3686SOL    HW211958   5.045   5.632   4.310
 3687SOL     OW11959   3.757   5.874   4.506
 3687SOL    HW111960   3.681   5.823   4.547
 3687SOL    HW211961   3.816   5.810   4.456
 3688SOL     OW11962   0.507   3.289   6.594
 3688SOL    HW111963   0.430   3.281   6.657
 3688SOL    HW211964   0.552   3.377   6.608
 3689SOL     OW11965   2.373   0.101   5.680
 3689SOL    HW111966   2.395   0.015   5.727
 3689SOL    HW211967   2.398   0.093   5.584
 3690SOL     OW11968   4.433   5.959   0.146
 3690SOL    HW111969   4.491   5.879   0.129
 3690SOL    HW211970   4.338   5.931   0.150
 3691SOL     OW11971   2.162   1.444   5.949
 3691SOL    HW111972   2.231   1.411   5.885
 3691SOL    HW211973   2.179   1.541   5.968
 3692SOL     OW11974   6.908   5.404   5.359
 3692SOL    HW111975   6.866   5.367   5.442
 3692SOL    HW211976   6.852   5.477   5.322
 3693SOL     OW11977   2.220   3.885   2.955
 3693SOL    HW111978   2.268   3.798   2.949
 3693SOL    HW211979   2.129   3.876   2.913
 3694SOL     OW11980   0.972   6.622   2.249
 3694SOL    HW111981   1.033   6.555   2.206
 3694SOL    HW211982   1.006   6.644   2.340
 3695SOL     OW11983   5.199   3.097   1.944
 3695SOL    HW111984   5.215   3.195   1.939
 3695SOL    HW211985   5.232   3.054   1.859
 3696SOL     OW11986   3.868   6.688   4.399
 3696SOL    HW111987   3.798   6.755   4.421
 3696SOL    HW211988   3.827   6.609   4.353
 3697SOL     OW11989   0.243   6.605   2.683
 3697SOL    HW111990   0.322   6.644   2.731
 3697SOL    HW211991   0.273   6.532   2.623
 3698SOL     OW11992   3.039   0.988   4.491
 3698SOL    HW111993   3.107   0.918   4.513
 3698SOL    HW211994   3.073   1.044   4.414
 3699SOL     OW11995   1.651   2.899   4.415
 3699SOL    HW111996   1.591   2.831   4.372
 3699SOL    HW211997   1.683   2.864   4.503
 3700SOL     OW11998   0.968   5.304   4.372
 3700SOL    HW111999   1.043   5.258   4.419
 3700SOL    HW212000   0.934   5.245   4.299
 3701SOL     OW12001   1.424   1.478   4.278
 3701SOL    HW112002   1.520   1.452   4.283
 3701SOL    HW212003   1.393   1.474   4.183
 3702SOL     OW12004   5.849   6.757   3.182
 3702SOL    HW112005   5.817   6.663   3.168
 3702SOL    HW212006   5.939   6.768   3.141
 3703SOL     OW12007   5.600   0.271   5.504
 3703SOL    HW112008   5.592   0.335   5.581
 3703SOL    HW212009   5.662   0.197   5.529
 3704SOL     OW12010   3.656   1.245   1.003
 3704SOL    HW112011   3.581   1.244   0.937
 3704SOL    HW212012   3.710   1.161   0.995
 3705SOL     OW12013   5.040   4.456   4.344
 3705SOL    HW112014   4.973   4.523   4.377
 3705SOL    HW212015   5.131   4.482   4.376
 3706SOL     OW12016   1.509   4.005   0.463
 3706SOL    HW112017   1.495   4.093   0.419
 3706SOL    HW212018   1.607   3.990   0.477
 3707SOL     OW12019   5.180   4.660   3.939
 3707SOL    HW112020   5.156   4.567   3.912
 3707SOL    HW212021   5.269   4.684   3.899
 3708SOL     OW12022   6.700   0.791   6.771
 3708SOL    HW112023   6.744   0.875   6.739
 3708SOL    HW212024   6.608   0.786   6.733
 3709SOL     OW12025   3.421   0.992   1.273
 3709SOL    HW112026   3.492   0.961   1.210
 3709SOL    HW212027   3.351   1.043   1.223
 3710SOL     OW12028   6.450   5.668   5.479
 3710SOL    HW112029   6.467   5.570   5.492
 3710SOL    HW212030   6.359   5.680   5.441
 3711SOL     OW12031   0.940   6.637   4.377
 3711SOL    HW112032   1.037   6.615   4.367
 3711SOL    HW212033   0.919   6.649   4.474
 3712SOL     OW12034   0.735   5.038   5.686
 3712SOL    HW112035   0.793   5.074   5.612
 3712SOL    HW212036   0.649   5.090   5.687
 3713SOL     OW12037   0.825   6.327   5.819
 3713SOL    HW112038   0.841   6.306   5.915
 3713SOL    HW212039   0.746   6.275   5.785
 3714SOL     OW12040   5.817   5.510   6.025
 3714SOL    HW112041   5.766   5.465   5.952
 3714SOL    HW212042   5.874   5.443   6.072
 3715SOL     OW12043   0.554   3.996   2.412
 3715SOL    HW112044   0.599   4.074   2.371
 3715SOL    HW212045   0.602   3.970   2.496
 3716SOL     OW12046   6.096   6.527   4.309
 3716SOL    HW112047   6.087   6.445   4.252
 3716SOL    HW212048   6.178   6.578   4.281
 3717SOL     OW12049   0.029   6.623   6.771
 3717SOL    HW112050   0.050   6.532   6.735
 3717SOL    HW212051   6.948   6.639   6.767
 3718SOL     OW12052   0.768   0.596   6.175
 3718SOL    HW112053   0.760   0.502   6.142
 3718SOL    HW212054   0.685   0.621   6.225
 3719SOL     OW12055   5.267   4.001   1.614
 3719SOL    HW112056   5.176   4.041   1.627
 3719SOL    HW212057   5.318   4.005   1.700
 3720SOL     OW12058   5.615   2.849   6.790
 3720SOL    HW112059   5.700   2.876   6.743
 3720SOL    HW212060   5.637   2.806   6.877
 3721SOL     OW12061   6.130   4.671   1.512
 3721SOL    HW112062   6.056   4.713   1.461
 3721SOL    HW212063   6.092   4.607   1.580
 3722SOL     OW12064   5.806   5.792   0.561
 3722SOL    HW112065   5.880   5.724   0.564
 3722SOL    HW212066   5.720   5.746   0.539
 3723SOL     OW12067   5.502   4.963   1.273
 3723SOL    HW112068   5.473   5.040   1.216
 3723SOL    HW212069   5.533   4.888   1.214
 3724SOL     OW12070   2.047   4.438   4.672
 3724SOL    HW112071   2.043   4.429   4.572
 3724SOL    HW212072   1.966   4.394   4.712
 3725SOL     OW12073   6.698   5.290   0.559
 3725SOL    HW112074   6.773   5.232   0.528
 3725SOL    HW212075   6.689   5.282   0.659
 3726SOL     OW12076   6.006   3.326   0.719
 3726SOL    HW112077   5.938   3.256   0.693
 3726SOL    HW212078   5.961   3.415   0.726
 3727SOL     OW12079   6.420   1.333   5.275
 3727SOL    HW112080   6.516   1.346   5.301
 3727SOL    HW212081   6.362   1.337   5.356
 3728SOL     OW12082   1.612   3.676   6.390
 3728SOL    HW112083   1.653   3.733   6.462
 3728SOL    HW212084   1.570   3.734   6.321
 3729SOL     OW12085   1.660   2.209   4.651
 3729SOL    HW112086   1.590   2.138   4.650
 3729SOL    HW212087   1.748   2.169   4.623
 3730SOL     OW12088   2.466   5.362   5.211
 3730SOL    HW112089   2.409   5.420   5.269
 3730SOL    HW212090   2.498   5.283   5.262
 3731SOL     OW12091   0.341   1.444   0.463
 3731SOL    HW112092   0.393   1.425   0.546
 3731SOL    HW212093   0.251   1.400   0.470
 3732SOL     OW12094   2.992   1.689   0.296
 3732SOL    HW112095   2.899   1.660   0.318
 3732SOL    HW212096   3.011   1.777   0.339
 3733SOL     OW12097   1.620   3.235   2.861
 3733SOL    HW112098   1.551   3.188   2.915
 3733SOL    HW212099   1.585   3.323   2.829
 3734SOL     OW12100   5.304   0.461   1.355
 3734SOL    HW112101   5.253   0.431   1.274
 3734SOL    HW212102   5.248   0.447   1.437
 3735SOL     OW12103   2.563   0.959   3.055
 3735SOL    HW112104   2.516   0.898   3.119
 3735SOL    HW212105   2.601   0.905   2.980
 3736SOL     OW12106   0.002   2.069   1.336
 3736SOL    HW112107   0.015   1.980   1.292
 3736SOL    HW212108   6.940   2.066   1.396
 3737SOL     OW12109   5.419   1.159   3.856
 3737SOL    HW112110   5.501   1.191   3.902
 3737SOL    HW212111   5.428   1.062   3.834
 3738SOL     OW12112   0.346   0.312   2.048
 3738SOL    HW112113   0.284   0.388   2.029
 3738SOL    HW212114   0.433   0.347   2.083
 3739SOL     OW12115   2.195   5.456   0.605
 3739SOL    HW112116   2.178   5.545   0.562
 3739SOL    HW212117   2.125   5.439   0.675
 3740SOL     OW12118   6.595   0.743   0.624
 3740SOL    HW112119   6.635   0.655   0.599
 3740SOL    HW212120   6.511   0.727   0.676
 3741SOL     OW12121   5.341   3.222   6.243
 3741SOL    HW112122   5.327   3.275   6.326
 3741SOL    HW212123   5.350   3.284   6.165
 3742SOL     OW12124   2.681   2.116   6.570
 3742SOL    HW112125   2.735   2.037   6.598
 3742SOL    HW212126   2.598   2.084   6.522
 3743SOL     OW12127   5.823   3.551   0.612
 3743SOL    HW112128   5.746   3.554   0.676
 3743SOL    HW212129   5.798   3.495   0.533
 3744SOL     OW12130   1.894   6.243   1.933
 3744SOL    HW112131   1.966   6.204   1.990
 3744SOL    HW212132   1.935   6.284   1.851
 3745SOL     OW12133   4.438   4.845   1.883
 3745SOL    HW112134   4.522   4.871   1.835
 3745SOL    HW212135   4.413   4.917   1.948
 3746SOL     OW12136   5.968   0.826   3.878
 3746SOL    HW112137   5.961   0.924   3.898
 3746SOL    HW212138   5.973   0.774   3.963
 3747SOL     OW12139   2.602   5.981   5.171
 3747SOL    HW112140   2.697   5.983   5.140
 3747SOL    HW212141   2.543   6.020   5.100
 3748SOL     OW12142   5.669   1.194   1.545
 3748SOL    HW112143   5.596   1.187   1.613
 3748SOL    HW212144   5.695   1.290   1.534
 3749SOL     OW12145   1.923   5.436   3.442
 3749SOL    HW112146   1.879   5.509   3.390
 3749SOL    HW212147   1.866   5.353   3.439
 3750SOL     OW12148   6.739   4.617   1.380
 3750SOL    HW112149   6.735   4.677   1.300
 3750SOL    HW212150   6.733   4.671   1.463
 3751SOL     OW12151   6.784   3.402   1.536
 3751SOL    HW112152   6.759   3.489   1.493
 3751SOL    HW212153   6.827   3.420   1.625
 3752SOL     OW12154   6.272   6.738   0.337
 3752SOL    HW112155   6.288   6.660   0.277
 3752SOL    HW212156   6.277   6.709   0.432
 3753SOL     OW12157   6.549   0.516   3.905
 3753SOL    HW112158   6.481   0.451   3.937
 3753SOL    HW212159   6.505   0.584   3.846
 3754SOL     OW12160   3.665   0.180   1.192
 3754SOL    HW112161   3.686   0.085   1.169
 3754SOL    HW212162   3.701   0.200   1.284
 3755SOL     OW12163   4.722   5.447   4.375
 3755SOL    HW112164   4.789   5.450   4.300
 3755SOL    HW212165   4.695   5.540   4.400
 3756SOL     OW12166   2.284   5.696   6.910
 3756SOL    HW112167   2.239   5.751   6.840
 3756SOL    HW212168   2.218   5.633   6.951
 3757SOL     OW12169   4.618   6.383   6.476
 3757SOL    HW112170   4.691   6.379   6.544
 3757SOL    HW212171   4.546   6.318   6.500
 3758SOL     OW12172   2.460   1.127   5.271
 3758SOL    HW112173   2.448   1.124   5.370
 3758SOL    HW212174   2.403   1.200   5.232
 3759SOL     OW12175   4.846   6.052   6.453
 3759SOL    HW112176   4.926   6.084   6.402
 3759SOL    HW212177   4.763   6.072   6.401
 3760SOL     OW12178   1.621   1.312   4.569
 3760SOL    HW112179   1.590   1.222   4.540
 3760SOL    HW212180   1.720   1.320   4.553
 3761SOL     OW12181   1.294   1.210   4.726
 3761SOL    HW112182   1.348   1.254   4.798
 3761SOL    HW212183   1.286   1.273   4.648
 3762SOL     OW12184   0.919   3.829   0.969
 3762SOL    HW112185   0.861   3.810   0.889
 3762SOL    HW212186   0.909   3.924   0.997
 3763SOL     OW12187   6.740   3.658   1.396
 3763SOL    HW112188   6.797   3.688   1.319
 3763SOL    HW212189   6.646   3.687   1.380
 3764SOL     OW12190   2.068   0.022   2.670
 3764SOL    HW112191   2.024   0.095   2.722
 3764SOL    HW212192   1.999   6.974   2.640
 3765SOL     OW12193   5.338   1.254   0.724
 3765SOL    HW112194   5.381   1.222   0.808
 3765SOL    HW212195   5.309   1.349   0.736
 3766SOL     OW12196   1.293   1.530   3.753
 3766SOL    HW112197   1.384   1.512   3.715
 3766SOL    HW212198   1.259   1.617   3.719
 3767SOL     OW12199   1.973   4.806   0.169
 3767SOL    HW112200   1.982   4.902   0.139
 3767SOL    HW212201   1.878   4.788   0.193
 3768SOL     OW12202   1.588   6.615   4.661
 3768SOL    HW112203   1.688   6.620   4.661
 3768SOL    HW212204   1.554   6.649   4.573
 3769SOL     OW12205   6.537   5.992   5.311
 3769SOL    HW112206   6.526   6.027   5.218
 3769SOL    HW212207   6.633   5.997   5.338
 3770SOL     OW12208   1.828   1.311   6.219
 3770SOL    HW112209   1.740   1.340   6.182
 3770SOL    HW212210   1.824   1.214   6.243
 3771SOL     OW12211   5.820   3.403   6.737
 3771SOL    HW112212   5.839   3.364   6.827
 3771SOL    HW212213   5.853   3.339   6.666
 3772SOL     OW12214   0.365   0.761   6.163
 3772SOL    HW112215   0.375   0.710   6.078
 3772SOL    HW212216   0.319   0.848   6.145
 3773SOL     OW12217   6.109   2.690   6.189
 3773SOL    HW112218   6.136   2.786   6.175
 3773SOL    HW212219   6.010   2.683   6.183
 3774SOL     OW12220   6.782   5.934   0.918
 3774SOL    HW112221   6.869   5.898   0.953
 3774SOL    HW212222   6.765   6.024   0.956
 3775SOL     OW12223   4.413   5.264   2.003
 3775SOL    HW112224   4.392   5.356   2.036
 3775SOL    HW212225   4.508   5.261   1.971
 3776SOL     OW12226   4.580   1.394   0.009
 3776SOL    HW112227   4.643   1.328   0.049
 3776SOL    HW212228   4.632   1.468   6.984
 3777SOL     OW12229   3.415   5.791   3.875
 3777SOL    HW112230   3.379   5.716   3.930
 3777SOL    HW212231   3.442   5.757   3.785
 3778SOL     OW12232   3.426   4.916   2.687
 3778SOL    HW112233   3.360   4.842   2.674
 3778SOL    HW212234   3.381   4.995   2.729
 3779SOL     OW12235   1.595   4.374   0.545
 3779SOL    HW112236   1.569   4.322   0.464
 3779SOL    HW212237   1.515   4.425   0.578
 3780SOL     OW12238   6.326   5.445   5.129
 3780SOL    HW112239   6.293   5.379   5.060
 3780SOL    HW212240   6.394   5.401   5.187
 3781SOL     OW12241   0.840   5.590   4.316
 3781SOL    HW112242   0.899   5.606   4.237
 3781SOL    HW212243   0.807   5.495   4.313
 3782SOL     OW12244   2.435   0.335   3.830
 3782SOL    HW112245   2.532   0.356   3.840
 3782SOL    HW212246   2.424   0.240   3.802
 3783SOL     OW12247   6.039   5.479   3.162
 3783SOL    HW112248   5.965   5.411   3.158
 3783SOL    HW212249   6.001   5.568   3.188
 3784SOL     OW12250   4.636   2.487   3.010
 3784SOL    HW112251   4.595   2.407   2.966
 3784SOL    HW212252   4.707   2.457   3.073
 3785SOL     OW12253   2.342   2.502   5.985
 3785SOL    HW112254   2.330   2.601   5.995
 3785SOL    HW212255   2.259   2.455   6.016
 3786SOL     OW12256   2.050   5.373   2.756
 3786SOL    HW112257   1.968   5.354   2.701
 3786SOL    HW212258   2.024   5.428   2.835
 3787SOL     OW12259   6.078   1.167   2.557
 3787SOL    HW112260   6.012   1.115   2.503
 3787SOL    HW212261   6.048   1.170   2.652
 3788SOL     OW12262   0.621   4.710   4.677
 3788SOL    HW112263   0.708   4.758   4.688
 3788SOL    HW212264   0.617   4.671   4.585
 3789SOL     OW12265   0.321   3.076   4.813
 3789SOL    HW112266   0.248   3.044   4.874
 3789SOL    HW212267   0.409   3.062   4.858
 3790SOL     OW12268   1.466   4.304   5.641
 3790SOL    HW112269   1.406   4.282   5.718
 3790SOL    HW212270   1.448   4.241   5.566
 3791SOL     OW12271   5.343   0.908   6.922
 3791SOL    HW112272   5.335   1.006   6.902
 3791SOL    HW212273   5.300   0.856   6.848
 3792SOL     OW12274   1.080   2.471   4.898
 3792SOL    HW112275   1.045   2.565   4.899
 3792SOL    HW212276   1.023   2.414   4.956
 3793SOL     OW12277   4.795   6.806   2.212
 3793SOL    HW112278   4.886   6.842   2.191
 3793SOL    HW212279   4.803   6.734   2.280
 3794SOL     OW12280   2.280   3.487   0.838
 3794SOL    HW112281   2.213   3.500   0.764
 3794SOL    HW212282   2.307   3.576   0.874
 3795SOL     OW12283   4.292   6.344   7.015
 3795SOL    HW112284   4.365   6.412   7.007
 3795SOL    HW212285   4.280   6.296   6.928
 3796SOL     OW12286   3.038   1.905   2.570
 3796SOL    HW112287   3.090   1.989   2.556
 3796SOL    HW212288   3.051   1.844   2.492
 3797SOL     OW12289   0.234   3.630   1.512
 3797SOL    HW112290   0.202   3.689   1.437
 3797SOL    HW212291   0.251   3.685   1.593
 3798SOL     OW12292   2.551   5.692   2.857
 3798SOL    HW112293   2.465   5.666   2.899
 3798SOL    HW212294   2.620   5.621   2.874
 3799SOL     OW12295   6.973   2.566   4.082
 3799SOL    HW112296   6.903   2.635   4.100
 3799SOL    HW212297   0.036   2.610   4.043
 3800SOL     OW12298   5.796   3.743   3.692
 3800SOL    HW112299   5.761   3.686   3.618
 3800SOL    HW212300   5.720   3.771   3.751
 3801SOL     OW12301   6.012   0.042   2.475
 3801SOL    HW112302   6.046   6.968   2.456
 3801SOL    HW212303   5.941   0.038   2.545
 3802SOL     OW12304   0.914   2.237   2.802
 3802SOL    HW112305   0.974   2.157   2.799
 3802SOL    HW212306   0.965   2.318   2.774
 3803SOL     OW12307   3.390   2.407   1.600
 3803SOL    HW112308   3.298   2.412   1.640
 3803SOL    HW212309   3.421   2.312   1.600
 3804SOL     OW12310   4.822   1.502   3.744
 3804SOL    HW112311   4.753   1.436   3.776
 3804SOL    HW212312   4.893   1.512   3.814
 3805SOL     OW12313   2.705   2.844   1.635
 3805SOL    HW112314   2.725   2.747   1.648
 3805SOL    HW212315   2.663   2.857   1.545
 3806SOL     OW12316   3.562   3.848   6.530
 3806SOL    HW112317   3.580   3.872   6.625
 3806SOL    HW212318   3.534   3.752   6.525
 3807SOL     OW12319   1.290   6.102   2.724
 3807SOL    HW112320   1.293   6.100   2.624
 3807SOL    HW212321   1.307   6.195   2.757
 3808SOL     OW12322   4.524   1.019   1.019
 3808SOL    HW112323   4.567   1.064   1.097
 3808SOL    HW212324   4.573   0.934   0.998
 3809SOL     OW12325   4.970   3.197   1.075
 3809SOL    HW112326   4.936   3.191   1.169
 3809SOL    HW212327   4.964   3.107   1.032
 3810SOL     OW12328   4.608   2.585   3.883
 3810SOL    HW112329   4.645   2.519   3.818
 3810SOL    HW212330   4.683   2.628   3.934
 3811SOL     OW12331   1.172   4.418   3.985
 3811SOL    HW112332   1.149   4.456   3.895
 3811SOL    HW212333   1.125   4.469   4.056
 3812SOL     OW12334   4.921   6.217   4.541
 3812SOL    HW112335   4.932   6.226   4.640
 3812SOL    HW212336   4.989   6.274   4.495
 3813SOL     OW12337   4.804   4.348   0.442
 3813SOL    HW112338   4.895   4.383   0.463
 3813SOL    HW212339   4.801   4.315   0.348
 3814SOL     OW12340   0.270   0.161   0.189
 3814SOL    HW112341   0.304   0.100   0.118
 3814SOL    HW212342   0.171   0.170   0.181
 3815SOL     OW12343   4.904   2.312   0.496
 3815SOL    HW112344   4.999   2.283   0.480
 3815SOL    HW212345   4.846   2.279   0.421
 3816SOL     OW12346   0.941   6.131   0.448
 3816SOL    HW112347   1.002   6.061   0.411
 3816SOL    HW212348   0.911   6.192   0.374
 3817SOL     OW12349   5.410   3.988   2.672
 3817SOL    HW112350   5.415   4.078   2.714
 3817SOL    HW212351   5.444   3.994   2.578
 3818SOL     OW12352   6.322   0.866   6.911
 3818SOL    HW112353   6.353   0.940   6.851
 3818SOL    HW212354   6.255   0.902   6.976
 3819SOL     OW12355   5.236   5.068   1.890
 3819SOL    HW112356   5.187   5.142   1.844
 3819SOL    HW212357   5.189   5.044   1.975
 3820SOL     OW12358   5.686   6.558   3.801
 3820SOL    HW112359   5.751   6.617   3.849
 3820SOL    HW212360   5.603   6.610   3.780
 3821SOL     OW12361   2.635   1.706   1.023
 3821SOL    HW112362   2.717   1.742   1.067
 3821SOL    HW212363   2.582   1.652   1.089
 3822SOL     OW12364   2.049   0.301   1.357
 3822SOL    HW112365   2.049   0.334   1.451
 3822SOL    HW212366   2.001   0.368   1.299
 3823SOL     OW12367   3.296   3.261   5.876
 3823SOL    HW112368   3.339   3.203   5.946
 3823SOL    HW212369   3.197   3.252   5.882
 3824SOL     OW12370   6.247   2.284   0.975
 3824SOL    HW112371   6.307   2.362   0.990
 3824SOL    HW212372   6.302   2.203   0.954
 3825SOL     OW12373   0.527   6.133   1.138
 3825SOL    HW112374   0.519   6.104   1.233
 3825SOL    HW212375   0.507   6.057   1.077
 3826SOL     OW12376   1.039   3.241   6.956
 3826SOL    HW112377   0.942   3.220   6.963
 3826SOL    HW212378   1.075   3.206   6.869
 3827SOL     OW12379   2.265   2.280   1.476
 3827SOL    HW112380   2.214   2.345   1.534
 3827SOL    HW212381   2.336   2.236   1.531
 3828SOL     OW12382   3.872   2.858   1.883
 3828SOL    HW112383   3.776   2.885   1.884
 3828SOL    HW212384   3.881   2.763   1.913
 3829SOL     OW12385   1.414   4.590   3.762
 3829SOL    HW112386   1.321   4.562   3.788
 3829SOL    HW212387   1.437   4.552   3.673
 3830SOL     OW12388   0.736   1.431   4.374
 3830SOL    HW112389   0.769   1.525   4.381
 3830SOL    HW212390   0.771   1.389   4.290
 3831SOL     OW12391   4.889   2.019   1.722
 3831SOL    HW112392   4.815   2.018   1.655
 3831SOL    HW212393   4.947   1.938   1.709
 3832SOL     OW12394   5.989   0.878   2.522
 3832SOL    HW112395   6.073   0.899   2.471
 3832SOL    HW212396   5.983   0.780   2.537
 3833SOL     OW12397   0.551   6.217   5.845
 3833SOL    HW112398   0.602   6.143   5.800
 3833SOL    HW212399   0.516   6.184   5.933
 3834SOL     OW12400   4.831   3.708   1.900
 3834SOL    HW112401   4.864   3.614   1.901
 3834SOL    HW212402   4.832   3.746   1.992
 3835SOL     OW12403   3.213   5.320   4.400
 3835SOL    HW112404   3.206   5.309   4.499
 3835SOL    HW212405   3.240   5.414   4.379
 3836SOL     OW12406   1.760   3.913   5.823
 3836SOL    HW112407   1.806   3.914   5.734
 3836SOL    HW212408   1.812   3.855   5.886
 3837SOL     OW12409   4.629   4.493   6.308
 3837SOL    HW112410   4.594   4.457   6.222
 3837SOL    HW212411   4.706   4.554   6.290
 3838SOL     OW12412   6.946   3.573   4.690
 3838SOL    HW112413   6.938   3.629   4.607
 3838SOL    HW212414   7.015   3.613   4.750
 3839SOL     OW12415   4.491   0.639   3.306
 3839SOL    HW112416   4.536   0.583   3.376
 3839SOL    HW212417   4.429   0.583   3.252
 3840SOL     OW12418   1.931   0.698   5.680
 3840SOL    HW112419   1.953   0.604   5.704
 3840SOL    HW212420   1.869   0.736   5.749
 3841SOL     OW12421   0.268   3.295   5.635
 3841SOL    HW112422   0.195   3.360   5.615
 3841SOL    HW212423   0.241   3.235   5.710
 3842SOL     OW12424   1.739   3.592   0.009
 3842SOL    HW112425   1.690   3.606   6.940
 3842SOL    HW212426   1.837   3.589   7.009
 3843SOL     OW12427   6.338   4.109   2.961
 3843SOL    HW112428   6.309   4.054   2.882
 3843SOL    HW212429   6.430   4.083   2.988
 3844SOL     OW12430   0.825   2.695   6.067
 3844SOL    HW112431   0.744   2.669   6.016
 3844SOL    HW212432   0.829   2.794   6.075
 3845SOL     OW12433   3.782   3.158   3.908
 3845SOL    HW112434   3.759   3.244   3.864
 3845SOL    HW212435   3.805   3.090   3.839
 3846SOL     OW12436   0.768   5.466   3.899
 3846SOL    HW112437   0.706   5.517   3.958
 3846SOL    HW212438   0.732   5.463   3.806
 3847SOL     OW12439   6.309   0.802   4.449
 3847SOL    HW112440   6.355   0.792   4.538
 3847SOL    HW212441   6.250   0.723   4.433
 3848SOL     OW12442   3.314   5.638   2.943
 3848SOL    HW112443   3.248   5.564   2.959
 3848SOL    HW212444   3.407   5.603   2.956
 3849SOL     OW12445   0.959   1.644   5.376
 3849SOL    HW112446   0.969   1.667   5.279
 3849SOL    HW212447   0.862   1.633   5.397
 3850SOL     OW12448   2.736   3.310   1.255
 3850SOL    HW112449   2.680   3.263   1.324
 3850SOL    HW212450   2.682   3.384   1.213
 3851SOL     OW12451   1.736   4.340   2.635
 3851SOL    HW112452   1.770   4.309   2.724
 3851SOL    HW212453   1.699   4.432   2.644
 3852SOL     OW12454   4.650   6.571   3.898
 3852SOL    HW112455   4.639   6.515   3.815
 3852SOL    HW212456   4.583   6.541   3.967
 3853SOL     OW12457   0.849   3.446   3.452
 3853SOL    HW112458   0.820   3.537   3.482
 3853SOL    HW212459   0.769   3.393   3.423
 3854SOL     OW12460   1.161   3.367   2.230
 3854SOL    HW112461   1.151   3.446   2.170
 3854SOL    HW212462   1.223   3.390   2.305
 3855SOL     OW12463   5.301   6.581   6.768
 3855SOL    HW112464   5.351   6.539   6.692
 3855SOL    HW212465   5.282   6.677   6.747
 3856SOL     OW12466   6.992   6.330   5.391
 3856SOL    HW112467   6.955   6.400   5.331
 3856SOL    HW212468   6.918   6.277   5.432
 3857SOL     OW12469   0.702   5.896   5.947
 3857SOL    HW112470   0.678   5.803   5.974
 3857SOL    HW212471   0.780   5.928   6.001
 3858SOL     OW12472   1.416   6.814   5.822
 3858SOL    HW112473   1.332   6.766   5.800
 3858SOL    HW212474   1.425   6.895   5.763
 3859SOL     OW12475   6.415   2.406   3.217
 3859SOL    HW112476   6.372   2.443   3.300
 3859SOL    HW212477   6.514   2.415   3.224
 3860SOL     OW12478   2.135   0.459   5.453
 3860SOL    HW112479   2.118   0.362   5.432
 3860SOL    HW212480   2.233   0.477   5.444
 3861SOL     OW12481   4.691   4.229   3.042
 3861SOL    HW112482   4.724   4.135   3.034
 3861SOL    HW212483   4.702   4.260   3.137
 3862SOL     OW12484   1.176   0.110   4.704
 3862SOL    HW112485   1.082   0.077   4.695
 3862SOL    HW212486   1.184   0.202   4.666
 3863SOL     OW12487   4.439   2.667   6.221
 3863SOL    HW112488   4.436   2.718   6.135
 3863SOL    HW212489   4.354   2.682   6.271
 3864SOL     OW12490   2.652   0.392   5.340
 3864SOL    HW112491   2.708   0.450   5.280
 3864SOL    HW212492   2.667   0.420   5.435
 3865SOL     OW12493   3.401   6.232   0.361
 3865SOL    HW112494   3.395   6.298   0.286
 3865SOL    HW212495   3.486   6.180   0.354
 3866SOL     OW12496   4.069   1.130   1.557
 3866SOL    HW112497   4.007   1.135   1.635
 3866SOL    HW212498   4.025   1.171   1.477
 3867SOL     OW12499   1.509   4.033   3.586
 3867SOL    HW112500   1.477   3.957   3.530
 3867SOL    HW212501   1.609   4.030   3.592
 3868SOL     OW12502   3.419   0.021   0.458
 3868SOL    HW112503   3.417   0.028   0.558
 3868SOL    HW212504   3.495   0.075   0.422
 3869SOL     OW12505   6.342   3.172   5.101
 3869SOL    HW112506   6.320   3.208   5.191
 3869SOL    HW212507   6.394   3.087   5.110
 3870SOL     OW12508   4.266   5.012   0.258
 3870SOL    HW112509   4.314   4.995   0.344
 3870SOL    HW212510   4.257   5.111   0.244
 3871SOL     OW12511   4.365   0.092   2.310
 3871SOL    HW112512   4.391   0.185   2.283
 3871SOL    HW212513   4.331   0.043   2.230
 3872SOL     OW12514   3.968   3.341   2.259
 3872SOL    HW112515   3.884   3.363   2.308
 3872SOL    HW212516   3.988   3.244   2.268
 3873SOL     OW12517   6.745   4.110   1.343
 3873SOL    HW112518   6.834   4.105   1.388
 3873SOL    HW212519   6.673   4.085   1.407
 3874SOL     OW12520   3.512   5.894   6.665
 3874SOL    HW112521   3.458   5.822   6.708
 3874SOL    HW212522   3.451   5.968   6.634
 3875SOL     OW12523   1.336   3.126   1.861
 3875SOL    HW112524   1.318   3.043   1.809
 3875SOL    HW212525   1.325   3.106   1.959
 3876SOL     OW12526   5.841   4.496   6.843
 3876SOL    HW112527   5.843   4.397   6.854
 3876SOL    HW212528   5.747   4.526   6.824
 3877SOL     OW12529   6.914   3.048   0.121
 3877SOL    HW112530   6.959   3.083   0.203
 3877SOL    HW212531   6.966   3.074   0.040
 3878SOL     OW12532   2.280   6.502   5.554
 3878SOL    HW112533   2.226   6.587   5.558
 3878SOL    HW212534   2.343   6.507   5.476
 3879SOL     OW12535   5.356   6.764   1.266
 3879SOL    HW112536   5.323   6.823   1.193
 3879SOL    HW212537   5.389   6.821   1.342
 3880SOL     OW12538   6.088   4.605   3.650
 3880SOL    HW112539   6.084   4.651   3.561
 3880SOL    HW212540   6.160   4.647   3.705
 3881SOL     OW12541   0.789   4.879   1.083
 3881SOL    HW112542   0.844   4.820   1.142
 3881SOL    HW212543   0.850   4.938   1.029
 3882SOL     OW12544   6.461   1.410   4.535
 3882SOL    HW112545   6.363   1.419   4.520
 3882SOL    HW212546   6.505   1.375   4.452
 3883SOL     OW12547   4.692   0.911   3.570
 3883SOL    HW112548   4.771   0.923   3.510
 3883SOL    HW212549   4.608   0.907   3.515
 3884SOL     OW12550   1.499   5.447   3.474
 3884SOL    HW112551   1.504   5.414   3.568
 3884SOL    HW212552   1.516   5.372   3.411
 3885SOL     OW12553   6.470   0.909   3.813
 3885SOL    HW112554   6.371   0.893   3.815
 3885SOL    HW212555   6.495   0.972   3.887
 3886SOL     OW12556   6.776   5.607   4.958
 3886SOL    HW112557   6.817   5.520   4.931
 3886SOL    HW212558   6.834   5.652   5.026
 3887SOL     OW12559   5.639   1.113   5.330
 3887SOL    HW112560   5.614   1.195   5.381
 3887SOL    HW212561   5.671   1.138   5.238
 3888SOL     OW12562   0.724   0.367   6.412
 3888SOL    HW112563   0.684   0.453   6.382
 3888SOL    HW212564   0.675   0.335   6.494
 3889SOL     OW12565   0.029   2.779   6.214
 3889SOL    HW112566   0.042   2.855   6.149
 3889SOL    HW212567   6.974   2.803   6.279
 3890SOL     OW12568   6.107   5.661   2.562
 3890SOL    HW112569   6.088   5.696   2.470
 3890SOL    HW212570   6.175   5.588   2.557
 3891SOL     OW12571   5.497   5.053   4.680
 3891SOL    HW112572   5.406   5.079   4.712
 3891SOL    HW212573   5.515   4.958   4.706
 3892SOL     OW12574   0.348   1.911   2.523
 3892SOL    HW112575   0.436   1.867   2.544
 3892SOL    HW212576   0.279   1.877   2.586
 3893SOL     OW12577   2.936   5.521   1.917
 3893SOL    HW112578   3.014   5.461   1.937
 3893SOL    HW212579   2.893   5.492   1.831
 3894SOL     OW12580   2.745   2.121   0.808
 3894SOL    HW112581   2.800   2.094   0.887
 3894SOL    HW212582   2.770   2.213   0.780
 3895SOL     OW12583   1.100   0.395   5.047
 3895SOL    HW112584   1.172   0.423   4.983
 3895SOL    HW212585   1.054   0.313   5.012
 3896SOL     OW12586   0.261   2.259   6.276
 3896SOL    HW112587   0.190   2.225   6.337
 3896SOL    HW212588   0.305   2.183   6.229
 3897SOL     OW12589   3.604   6.871   2.043
 3897SOL    HW112590   3.563   6.922   2.118
 3897SOL    HW212591   3.672   6.806   2.080
 3898SOL     OW12592   3.224   3.809   3.714
 3898SOL    HW112593   3.255   3.724   3.758
 3898SOL    HW212594   3.202   3.876   3.784
 3899SOL     OW12595   5.043   0.905   4.230
 3899SOL    HW112596   5.009   0.824   4.183
 3899SOL    HW212597   4.993   0.919   4.315
 3900SOL     OW12598   5.169   2.917   3.037
 3900SOL    HW112599   5.229   2.858   2.984
 3900SOL    HW212600   5.157   2.879   3.129
 3901SOL     OW12601   3.213   6.678   5.926
 3901SOL    HW112602   3.213   6.654   5.829
 3901SOL    HW212603   3.272   6.614   5.976
 3902SOL     OW12604   5.359   3.495   1.484
 3902SOL    HW112605   5.376   3.463   1.577
 3902SOL    HW212606   5.337   3.593   1.487
 3903SOL     OW12607   4.897   3.791   6.642
 3903SOL    HW112608   4.821   3.726   6.648
 3903SOL    HW212609   4.869   3.879   6.682
 3904SOL     OW12610   2.212   0.421   6.114
 3904SOL    HW112611   2.256   0.463   6.034
 3904SOL    HW212612   2.133   0.368   6.085
 3905SOL     OW12613   5.730   6.656   6.273
 3905SOL    HW112614   5.745   6.566   6.314
 3905SOL    HW212615   5.719   6.724   6.346
 3906SOL     OW12616   1.728   4.856   5.684
 3906SOL    HW112617   1.791   4.912   5.738
 3906SOL    HW212618   1.779   4.782   5.641
 3907SOL     OW12619   6.707   0.894   4.138
 3907SOL    HW112620   6.749   0.807   4.113
 3907SOL    HW212621   6.727   0.962   4.067
 3908SOL     OW12622   1.641   1.119   6.932
 3908SOL    HW112623   1.628   1.199   6.990
 3908SOL    HW212624   1.695   1.145   6.851
 3909SOL     OW12625   6.901   4.340   6.547
 3909SOL    HW112626   6.974   4.279   6.515
 3909SOL    HW212627   6.941   4.412   6.604
 3910SOL     OW12628   3.409   3.934   2.038
 3910SOL    HW112629   3.474   3.975   2.102
 3910SOL    HW212630   3.398   3.837   2.059
 3911SOL     OW12631   5.021   1.059   0.392
 3911SOL    HW112632   4.982   0.972   0.361
 3911SOL    HW212633   5.087   1.042   0.464
 3912SOL     OW12634   4.123   1.156   6.297
 3912SOL    HW112635   4.060   1.084   6.270
 3912SOL    HW212636   4.070   1.235   6.330
 3913SOL     OW12637   2.907   6.472   6.897
 3913SOL    HW112638   3.007   6.465   6.901
 3913SOL    HW212639   2.871   6.400   6.838
 3914SOL     OW12640   4.988   0.833   1.387
 3914SOL    HW112641   4.951   0.824   1.479
 3914SOL    HW212642   5.087   0.847   1.392
 3915SOL     OW12643   4.844   6.799   0.224
 3915SOL    HW112644   4.869   6.768   0.132
 3915SOL    HW212645   4.789   6.729   0.269
 3916SOL     OW12646   2.709   6.902   2.740
 3916SOL    HW112647   2.648   6.955   2.799
 3916SOL    HW212648   2.733   6.956   2.660
 3917SOL     OW12649   1.293   4.223   1.554
 3917SOL    HW112650   1.223   4.243   1.623
 3917SOL    HW212651   1.284   4.289   1.478
 3918SOL     OW12652   3.566   6.714   1.084
 3918SOL    HW112653   3.527   6.636   1.135
 3918SOL    HW212654   3.599   6.782   1.149
 3919SOL     OW12655   3.520   0.556   6.715
 3919SOL    HW112656   3.593   0.535   6.780
 3919SOL    HW212657   3.472   0.638   6.744
 3920SOL     OW12658   3.083   0.676   6.547
 3920SOL    HW112659   2.986   0.656   6.562
 3920SOL    HW212660   3.099   0.774   6.559
 3921SOL     OW12661   0.319   1.906   6.889
 3921SOL    HW112662   0.373   1.870   6.965
 3921SOL    HW212663   0.303   2.003   6.903
 3922SOL     OW12664   4.891   5.126   1.326
 3922SOL    HW112665   4.923   5.099   1.417
 3922SOL    HW212666   4.792   5.139   1.328
 3923SOL     OW12667   5.853   2.153   1.081
 3923SOL    HW112668   5.822   2.248   1.077
 3923SOL    HW212669   5.792   2.102   1.142
 3924SOL     OW12670   0.312   5.029   2.837
 3924SOL    HW112671   0.268   5.106   2.790
 3924SOL    HW212672   0.242   4.976   2.885
 3925SOL     OW12673   4.491   4.782   1.058
 3925SOL    HW112674   4.502   4.845   1.135
 3925SOL    HW212675   4.419   4.716   1.079
 3926SOL     OW12676   0.055   0.304   4.973
 3926SOL    HW112677   0.121   0.233   4.948
 3926SOL    HW212678   0.099   0.393   4.969
 3927SOL     OW12679   0.152   2.731   4.495
 3927SOL    HW112680   0.157   2.831   4.498
 3927SOL    HW212681   0.204   2.697   4.417
 3928SOL     OW12682   3.027   5.815   3.252
 3928SOL    HW112683   3.008   5.719   3.230
 3928SOL    HW212684   3.039   5.824   3.351
 3929SOL     OW12685   0.180   1.177   6.880
 3929SOL    HW112686   0.178   1.143   6.973
 3929SOL    HW212687   0.272   1.170   6.843
 3930SOL     OW12688   0.674   2.009   3.646
 3930SOL    HW112689   0.644   1.971   3.733
 3930SOL    HW212690   0.640   1.952   3.571
 3931SOL     OW12691   1.883   1.565   1.969
 3931SOL    HW112692   1.974   1.527   1.955
 3931SOL    HW212693   1.814   1.493   1.957
 3932SOL     OW12694   2.168   4.688   3.937
 3932SOL    HW112695   2.103   4.743   3.883
 3932SOL    HW212696   2.212   4.746   4.005
 3933SOL     OW12697   1.665   0.090   0.209
 3933SOL    HW112698   1.714   0.157   0.153
 3933SOL    HW212699   1.731   0.035   0.260
 3934SOL     OW12700   6.864   1.069   3.166
 3934SOL    HW112701   6.806   0.988   3.156
 3934SOL    HW212702   6.863   1.098   3.262
 3935SOL     OW12703   0.822   1.571   5.850
 3935SOL    HW112704   0.837   1.472   5.850
 3935SOL    HW212705   0.727   1.590   5.827
 3936SOL     OW12706   6.882   5.882   5.274
 3936SOL    HW112707   6.893   5.934   5.358
 3936SOL    HW212708   6.900   5.940   5.195
 3937SOL     OW12709   6.744   6.575   2.290
 3937SOL    HW112710   6.666   6.512   2.283
 3937SOL    HW212711   6.788   6.563   2.379
 3938SOL     OW12712   6.243   4.186   4.508
 3938SOL    HW112713   6.265   4.114   4.442
 3938SOL    HW212714   6.303   4.265   4.493
 3939SOL     OW12715   2.862   1.384   3.575
 3939SOL    HW112716   2.807   1.444   3.518
 3939SOL    HW212717   2.816   1.296   3.585
 3940SOL     OW12718   2.830   4.804   1.815
 3940SOL    HW112719   2.808   4.736   1.885
 3940SOL    HW212720   2.795   4.773   1.726
 3941SOL     OW12721   5.872   6.964   4.568
 3941SOL    HW112722   5.851   0.041   4.592
 3941SOL    HW212723   5.925   6.962   4.483
 3942SOL     OW12724   0.673   6.144   5.433
 3942SOL    HW112725   0.624   6.229   5.448
 3942SOL    HW212726   0.709   6.110   5.520
 3943SOL     OW12727   0.729   3.163   2.641
 3943SOL    HW112728   0.650   3.209   2.598
 3943SOL    HW212729   0.784   3.231   2.690
 3944SOL     OW12730   6.070   3.734   6.042
 3944SOL    HW112731   6.036   3.643   6.069
 3944SOL    HW212732   6.090   3.788   6.123
 3945SOL     OW12733   1.006   2.290   3.495
 3945SOL    HW112734   1.056   2.343   3.426
 3945SOL    HW212735   0.962   2.352   3.560
 3946SOL     OW12736   0.424   3.754   6.764
 3946SOL    HW112737   0.456   3.810   6.840
 3946SOL    HW212738   0.502   3.721   6.710
 3947SOL     OW12739   5.841   5.010   0.607
 3947SOL    HW112740   5.795   5.069   0.540
 3947SOL    HW212741   5.867   4.924   0.563
 3948SOL     OW12742   1.624   3.862   6.810
 3948SOL    HW112743   1.554   3.926   6.841
 3948SOL    HW212744   1.584   3.773   6.792
 3949SOL     OW12745   6.614   6.866   3.706
 3949SOL    HW112746   6.703   6.820   3.698
 3949SOL    HW212747   6.596   6.916   3.621
 3950SOL     OW12748   3.979   3.860   1.600
 3950SOL    HW112749   3.998   3.923   1.524
 3950SOL    HW212750   4.060   3.851   1.657
 3951SOL     OW12751   0.452   1.184   6.808
 3951SOL    HW112752   0.480   1.133   6.727
 3951SOL    HW212753   0.472   1.130   6.890
 3952SOL     OW12754   6.075   3.152   4.464
 3952SOL    HW112755   6.002   3.084   4.460
 3952SOL    HW212756   6.151   3.116   4.518
 3953SOL     OW12757   3.458   4.005   6.061
 3953SOL    HW112758   3.498   3.956   5.983
 3953SOL    HW212759   3.441   4.100   6.035
 3954SOL     OW12760   5.594   4.735   5.847
 3954SOL    HW112761   5.687   4.730   5.883
 3954SOL    HW212762   5.541   4.657   5.879
 3955SOL     OW12763   5.009   6.290   0.097
 3955SOL    HW112764   4.934   6.283   0.162
 3955SOL    HW212765   5.064   6.370   0.118
 3956SOL     OW12766   0.811   2.531   5.213
 3956SOL    HW112767   0.765   2.619   5.203
 3956SOL    HW212768   0.775   2.483   5.292
 3957SOL     OW12769   3.615   6.223   3.324
 3957SOL    HW112770   3.571   6.196   3.239
 3957SOL    HW212771   3.707   6.185   3.328
 3958SOL     OW12772   6.324   6.017   6.947
 3958SOL    HW112773   6.238   5.997   6.900
 3958SOL    HW212774   6.355   6.109   6.923
 3959SOL     OW12775   3.436   6.572   1.300
 3959SOL    HW112776   3.350   6.608   1.336
 3959SOL    HW212777   3.456   6.484   1.342
 3960SOL     OW12778   5.415   2.230   6.078
 3960SOL    HW112779   5.353   2.285   6.024
 3960SOL    HW212780   5.452   2.156   6.021
 3961SOL     OW12781   5.153   1.688   1.706
 3961SOL    HW112782   5.093   1.730   1.775
 3961SOL    HW212783   5.237   1.657   1.750
 3962SOL     OW12784   0.644   5.878   0.205
 3962SOL    HW112785   0.547   5.878   0.180
 3962SOL    HW212786   0.657   5.930   0.289
 3963SOL     OW12787   5.466   5.039   3.512
 3963SOL    HW112788   5.535   4.968   3.527
 3963SOL    HW212789   5.509   5.118   3.469
 3964SOL     OW12790   3.895   5.166   5.066
 3964SOL    HW112791   3.988   5.166   5.028
 3964SOL    HW212792   3.866   5.072   5.083
 3965SOL     OW12793   3.485   4.849   6.249
 3965SOL    HW112794   3.539   4.871   6.168
 3965SOL    HW212795   3.413   4.784   6.225
 3966SOL     OW12796   6.578   4.807   0.141
 3966SOL    HW112797   6.538   4.733   0.087
 3966SOL    HW212798   6.613   4.878   0.079
 3967SOL     OW12799   1.250   5.039   2.488
 3967SOL    HW112800   1.342   5.002   2.505
 3967SOL    HW212801   1.191   4.966   2.454
 3968SOL     OW12802   6.267   1.077   1.085
 3968SOL    HW112803   6.292   1.174   1.093
 3968SOL    HW212804   6.254   1.054   0.988
 3969SOL     OW12805   0.569   4.411   2.582
 3969SOL    HW112806   0.550   4.438   2.488
 3969SOL    HW212807   0.486   4.371   2.623
 3970SOL     OW12808   5.083   5.355   3.416
 3970SOL    HW112809   5.154   5.423   3.430
 3970SOL    HW212810   5.081   5.292   3.494
 3971SOL     OW12811   2.871   5.232   2.056
 3971SOL    HW112812   2.971   5.238   2.059
 3971SOL    HW212813   2.838   5.192   2.141
 3972SOL     OW12814   0.711   5.829   1.132
 3972SOL    HW112815   0.747   5.921   1.115
 3972SOL    HW212816   0.701   5.816   1.231
 3973SOL     OW12817   3.009   3.356   5.083
 3973SOL    HW112818   3.097   3.337   5.040
 3973SOL    HW212819   2.960   3.425   5.030
 3974SOL     OW12820   0.534   0.283   5.775
 3974SOL    HW112821   0.538   0.207   5.711
 3974SOL    HW212822   0.497   0.364   5.728
 3975SOL     OW12823   6.006   6.960   5.898
 3975SOL    HW112824   6.022   0.028   5.850
 3975SOL    HW212825   6.082   6.897   5.880
 3976SOL     OW12826   0.940   5.061   0.919
 3976SOL    HW112827   0.921   5.157   0.941
 3976SOL    HW212828   0.976   5.055   0.826
 3977SOL     OW12829   3.077   5.009   6.069
 3977SOL    HW112830   3.021   5.092   6.074
 3977SOL    HW212831   3.031   4.941   6.011
 3978SOL     OW12832   5.008   6.925   4.414
 3978SOL    HW112833   5.000   6.921   4.315
 3978SOL    HW212834   5.099   6.957   4.440
 3979SOL     OW12835   2.206   6.106   1.898
 3979SOL    HW112836   2.238   6.200   1.884
 3979SOL    HW212837   2.140   6.105   1.973
 3980SOL     OW12838   0.155   4.207   6.157
 3980SOL    HW112839   0.184   4.217   6.252
 3980SOL    HW212840   0.117   4.116   6.143
 3981SOL     OW12841   1.174   2.047   6.208
 3981SOL    HW112842   1.233   2.098   6.271
 3981SOL    HW212843   1.232   1.996   6.143
 3982SOL     OW12844   2.541   0.745   3.910
 3982SOL    HW112845   2.573   0.701   3.994
 3982SOL    HW212846   2.530   0.844   3.927
 3983SOL     OW12847   3.557   5.893   4.286
 3983SOL    HW112848   3.573   5.813   4.344
 3983SOL    HW212849   3.545   5.974   4.344
 3984SOL     OW12850   2.140   0.807   2.000
 3984SOL    HW112851   2.201   0.885   1.982
 3984SOL    HW212852   2.144   0.744   1.923
 3985SOL     OW12853   2.204   4.434   6.627
 3985SOL    HW112854   2.277   4.398   6.569
 3985SOL    HW212855   2.120   4.382   6.610
 3986SOL     OW12856   0.251   1.759   3.341
 3986SOL    HW112857   0.248   1.859   3.344
 3986SOL    HW212858   0.175   1.725   3.285
 3987SOL     OW12859   1.228   5.213   4.869
 3987SOL    HW112860   1.308   5.166   4.907
 3987SOL    HW212861   1.149   5.150   4.871
 3988SOL     OW12862   3.409   2.189   5.592
 3988SOL    HW112863   3.426   2.200   5.494
 3988SOL    HW212864   3.326   2.238   5.618
 3989SOL     OW12865   5.720   0.501   5.946
 3989SOL    HW112866   5.665   0.565   5.999
 3989SOL    HW212867   5.662   0.458   5.876
 3990SOL     OW12868   6.023   1.721   3.848
 3990SOL    HW112869   6.017   1.649   3.778
 3990SOL    HW212870   6.026   1.680   3.939
 3991SOL     OW12871   6.512   2.435   3.543
 3991SOL    HW112872   6.433   2.380   3.571
 3991SOL    HW212873   6.587   2.421   3.608
 3992SOL     OW12874   4.681   2.516   6.602
 3992SOL    HW112875   4.624   2.437   6.625
 3992SOL    HW212876   4.766   2.484   6.559
 3993SOL     OW12877   2.203   1.945   3.273
 3993SOL    HW112878   2.155   1.975   3.191
 3993SOL    HW212879   2.197   2.016   3.344
 3994SOL     OW12880   1.707   2.752   4.644
 3994SOL    HW112881   1.651   2.791   4.717
 3994SOL    HW212882   1.674   2.660   4.624
 3995SOL     OW12883   2.370   4.313   3.971
 3995SOL    HW112884   2.279   4.354   3.977
 3995SOL    HW212885   2.396   4.301   3.875
 3996SOL     OW12886   1.444   0.968   4.807
 3996SOL    HW112887   1.517   1.032   4.831
 3996SOL    HW212888   1.362   1.020   4.782
 3997SOL     OW12889   5.139   3.663   3.776
 3997SOL    HW112890   5.189   3.591   3.728
 3997SOL    HW212891   5.199   3.741   3.790
 3998SOL     OW12892   5.206   2.198   2.210
 3998SOL    HW112893   5.131   2.251   2.249
 3998SOL    HW212894   5.169   2.124   2.153
 3999SOL     OW12895   5.687   3.555   3.530
 3999SOL    HW112896   5.703   3.632   3.468
 3999SOL    HW212897   5.756   3.485   3.514
 4000SOL     OW12898   3.257   5.574   2.372
 4000SOL    HW112899   3.171   5.527   2.391
 4000SOL    HW212900   3.248   5.671   2.395
 4001SOL     OW12901   2.237   2.792   5.026
 4001SOL    HW112902   2.293   2.721   4.983
 4001SOL    HW212903   2.292   2.874   5.041
 4002SOL     OW12904   3.650   3.875   5.876
 4002SOL    HW112905   3.734   3.908   5.920
 4002SOL    HW212906   3.667   3.786   5.835
 4003SOL     OW12907   2.212   0.584   5.837
 4003SOL    HW112908   2.137   0.636   5.877
 4003SOL    HW212909   2.286   0.647   5.811
 4004SOL     OW12910   5.869   2.885   4.428
 4004SOL    HW112911   5.793   2.949   4.421
 4004SOL    HW212912   5.840   2.803   4.477
 4005SOL     OW12913   5.076   4.671   0.860
 4005SOL    HW112914   4.999   4.621   0.821
 4005SOL    HW212915   5.141   4.606   0.900
 4006SOL     OW12916   4.750   4.876   2.417
 4006SOL    HW112917   4.712   4.804   2.474
 4006SOL    HW212918   4.833   4.912   2.461
 4007SOL     OW12919   0.577   2.805   2.644
 4007SOL    HW112920   0.506   2.862   2.603
 4007SOL    HW212921   0.607   2.736   2.578
 4008SOL     OW12922   3.548   1.267   5.757
 4008SOL    HW112923   3.494   1.251   5.674
 4008SOL    HW212924   3.601   1.185   5.778
 4009SOL     OW12925   4.372   2.491   0.631
 4009SOL    HW112926   4.350   2.551   0.555
 4009SOL    HW212927   4.465   2.510   0.663
 4010SOL     OW12928   2.366   3.183   1.704
 4010SOL    HW112929   2.454   3.136   1.707
 4010SOL    HW212930   2.377   3.276   1.739
 4011SOL     OW12931   0.759   6.762   2.173
 4011SOL    HW112932   0.855   6.737   2.191
 4011SOL    HW212933   0.737   6.846   2.222
 4012SOL     OW12934   4.250   5.471   2.416
 4012SOL    HW112935   4.249   5.530   2.497
 4012SOL    HW212936   4.317   5.398   2.428
 4013SOL     OW12937   2.889   0.371   0.981
 4013SOL    HW112938   2.859   0.314   0.904
 4013SOL    HW212939   2.975   0.416   0.958
 4014SOL     OW12940   4.107   5.327   4.062
 4014SOL    HW112941   4.088   5.319   3.964
 4014SOL    HW212942   4.085   5.241   4.108
 4015SOL     OW12943   4.007   4.871   6.561
 4015SOL    HW112944   3.923   4.871   6.507
 4015SOL    HW212945   4.062   4.951   6.539
 4016SOL     OW12946   1.735   5.545   0.240
 4016SOL    HW112947   1.773   5.520   0.151
 4016SOL    HW212948   1.708   5.641   0.239
 4017SOL     OW12949   0.509   6.908   6.562
 4017SOL    HW112950   0.581   6.872   6.622
 4017SOL    HW212951   0.450   6.832   6.532
 4018SOL     OW12952   5.181   6.482   0.811
 4018SOL    HW112953   5.121   6.405   0.832
 4018SOL    HW212954   5.192   6.538   0.893
 4019SOL     OW12955   6.463   3.784   2.681
 4019SOL    HW112956   6.379   3.817   2.722
 4019SOL    HW212957   6.482   3.834   2.597
 4020SOL     OW12958   0.582   2.745   5.684
 4020SOL    HW112959   0.663   2.798   5.658
 4020SOL    HW212960   0.503   2.778   5.633
 4021SOL     OW12961   3.352   3.680   5.165
 4021SOL    HW112962   3.443   3.713   5.189
 4021SOL    HW212963   3.354   3.580   5.156
 4022SOL     OW12964   4.389   6.781   6.362
 4022SOL    HW112965   4.483   6.749   6.371
 4022SOL    HW212966   4.333   6.710   6.320
 4023SOL     OW12967   6.839   0.672   4.045
 4023SOL    HW112968   6.833   0.584   3.999
 4023SOL    HW212969   6.909   0.728   4.001
 4024SOL     OW12970   2.181   5.835   4.169
 4024SOL    HW112971   2.254   5.775   4.135
 4024SOL    HW212972   2.138   5.881   4.092
 4025SOL     OW12973   0.631   6.475   4.208
 4025SOL    HW112974   0.685   6.559   4.215
 4025SOL    HW212975   0.685   6.405   4.161
 4026SOL     OW12976   6.388   0.031   2.954
 4026SOL    HW112977   6.292   0.006   2.948
 4026SOL    HW212978   6.444   6.966   2.963
 4027SOL     OW12979   3.042   2.698   0.732
 4027SOL    HW112980   3.084   2.788   0.723
 4027SOL    HW212981   2.960   2.693   0.675
 4028SOL     OW12982   2.927   2.054   2.993
 4028SOL    HW112983   3.011   2.089   3.036
 4028SOL    HW212984   2.872   2.131   2.961
 4029SOL     OW12985   3.119   4.721   5.724
 4029SOL    HW112986   3.124   4.744   5.627
 4029SOL    HW212987   3.191   4.769   5.773
 4030SOL     OW12988   1.065   1.586   1.724
 4030SOL    HW112989   1.070   1.557   1.819
 4030SOL    HW212990   1.014   1.671   1.717
 4031SOL     OW12991   4.917   6.018   3.264
 4031SOL    HW112992   4.891   5.926   3.235
 4031SOL    HW212993   4.994   6.049   3.208
 4032SOL     OW12994   6.119   0.570   2.491
 4032SOL    HW112995   6.069   0.589   2.576
 4032SOL    HW212996   6.141   0.473   2.486
 4033SOL     OW12997   2.416   3.441   1.491
 4033SOL    HW112998   2.333   3.492   1.516
 4033SOL    HW212999   2.476   3.433   1.570
 4034SOL     OW13000   6.646   1.238   4.260
 4034SOL    HW113001   6.666   1.333   4.283
 4034SOL    HW213002   6.557   1.233   4.214
 4035SOL     OW13003   6.734   2.473   0.447
 4035SOL    HW113004   6.724   2.572   0.437
 4035SOL    HW213005   6.772   2.435   0.363
 4036SOL     OW13006   4.810   6.160   2.356
 4036SOL    HW113007   4.777   6.095   2.424
 4036SOL    HW213008   4.852   6.110   2.280
 4037SOL     OW13009   2.632   1.618   0.409
 4037SOL    HW113010   2.656   1.714   0.418
 4037SOL    HW213011   2.709   1.567   0.372
 4038SOL     OW13012   4.426   3.303   1.645
 4038SOL    HW113013   4.398   3.210   1.667
 4038SOL    HW213014   4.381   3.333   1.561
 4039SOL     OW13015   5.123   4.298   1.743
 4039SOL    HW113016   5.216   4.310   1.709
 4039SOL    HW213017   5.087   4.386   1.774
 4040SOL     OW13018   3.714   6.763   5.972
 4040SOL    HW113019   3.715   6.830   5.898
 4040SOL    HW213020   3.703   6.810   6.060
 4041SOL     OW13021   1.405   5.031   1.412
 4041SOL    HW113022   1.422   4.965   1.485
 4041SOL    HW213023   1.377   4.983   1.329
 4042SOL     OW13024   6.275   5.816   3.238
 4042SOL    HW113025   6.360   5.775   3.273
 4042SOL    HW213026   6.265   5.794   3.141
 4043SOL     OW13027   5.836   1.660   4.403
 4043SOL    HW113028   5.844   1.560   4.410
 4043SOL    HW213029   5.839   1.700   4.494
 4044SOL     OW13030   5.040   6.962   3.489
 4044SOL    HW113031   5.029   6.926   3.397
 4044SOL    HW213032   4.952   6.998   3.522
 4045SOL     OW13033   2.764   5.683   5.415
 4045SOL    HW113034   2.811   5.630   5.345
 4045SOL    HW213035   2.688   5.630   5.452
 4046SOL     OW13036   1.596   2.173   4.258
 4046SOL    HW113037   1.571   2.082   4.226
 4046SOL    HW213038   1.652   2.165   4.341
 4047SOL     OW13039   1.835   2.162   1.003
 4047SOL    HW113040   1.796   2.159   1.095
 4047SOL    HW213041   1.912   2.226   1.001
 4048SOL     OW13042   5.534   1.813   2.046
 4048SOL    HW113043   5.553   1.847   1.953
 4048SOL    HW213044   5.589   1.865   2.112
 4049SOL     OW13045   6.196   5.092   6.316
 4049SOL    HW113046   6.270   5.033   6.285
 4049SOL    HW213047   6.108   5.052   6.289
 4050SOL     OW13048   1.187   6.828   1.405
 4050SOL    HW113049   1.285   6.809   1.397
 4050SOL    HW213050   1.137   6.743   1.416
 4051SOL     OW13051   4.089   2.144   6.756
 4051SOL    HW113052   4.188   2.150   6.772
 4051SOL    HW213053   4.066   2.199   6.676
 4052SOL     OW13054   6.822   1.284   2.603
 4052SOL    HW113055   6.823   1.273   2.504
 4052SOL    HW213056   6.869   1.368   2.628
 4053SOL     OW13057   2.818   5.545   3.989
 4053SOL    HW113058   2.870   5.631   3.995
 4053SOL    HW213059   2.732   5.556   4.040
 4054SOL     OW13060   6.199   3.663   1.693
 4054SOL    HW113061   6.147   3.630   1.614
 4054SOL    HW213062   6.159   3.626   1.777
 4055SOL     OW13063   3.251   3.315   6.527
 4055SOL    HW113064   3.165   3.282   6.566
 4055SOL    HW213065   3.316   3.334   6.600
 4056SOL     OW13066   3.459   4.204   1.213
 4056SOL    HW113067   3.385   4.153   1.168
 4056SOL    HW213068   3.506   4.261   1.146
 4057SOL     OW13069   5.829   2.741   1.582
 4057SOL    HW113070   5.730   2.758   1.582
 4057SOL    HW213071   5.853   2.690   1.665
 4058SOL     OW13072   1.753   6.920   4.134
 4058SOL    HW113073   1.770   6.991   4.201
 4058SOL    HW213074   1.663   6.934   4.092
 4059SOL     OW13075   1.350   2.285   3.376
 4059SOL    HW113076   1.369   2.324   3.466
 4059SOL    HW213077   1.261   2.318   3.344
 4060SOL     OW13078   5.179   5.808   4.806
 4060SOL    HW113079   5.188   5.718   4.848
 4060SOL    HW213080   5.090   5.815   4.761
 4061SOL     OW13081   3.120   4.862   1.853
 4061SOL    HW113082   3.107   4.900   1.761
 4061SOL    HW213083   3.032   4.830   1.888
 4062SOL     OW13084   2.079   2.559   2.082
 4062SOL    HW113085   2.036   2.638   2.039
 4062SOL    HW213086   2.025   2.532   2.162
 4063SOL     OW13087   6.394   5.419   6.149
 4063SOL    HW113088   6.466   5.488   6.148
 4063SOL    HW213089   6.309   5.458   6.114
 4064SOL     OW13090   2.183   6.933   3.636
 4064SOL    HW113091   2.150   7.014   3.587
 4064SOL    HW213092   2.121   6.913   3.712
 4065SOL     OW13093   0.305   6.980   0.924
 4065SOL    HW113094   0.393   0.009   0.909
 4065SOL    HW213095   0.306   6.934   1.012
 4066SOL     OW13096   5.497   5.290   3.364
 4066SOL    HW113097   5.410   5.333   3.389
 4066SOL    HW213098   5.561   5.360   3.332
 4067SOL     OW13099   6.292   3.226   3.014
 4067SOL    HW113100   6.370   3.183   2.969
 4067SOL    HW213101   6.215   3.231   2.950
 4068SOL     OW13102   3.202   0.759   4.885
 4068SOL    HW113103   3.258   0.740   4.966
 4068SOL    HW213104   3.107   0.773   4.913
 4069SOL     OW13105   2.579   5.124   5.862
 4069SOL    HW113106   2.552   5.102   5.956
 4069SOL    HW213107   2.610   5.219   5.857
 4070SOL     OW13108   0.259   2.979   2.188
 4070SOL    HW113109   0.257   2.953   2.092
 4070SOL    HW213110   0.353   2.985   2.220
 4071SOL     OW13111   1.330   0.603   5.190
 4071SOL    HW113112   1.288   0.523   5.147
 4071SOL    HW213113   1.372   0.661   5.119
 4072SOL     OW13114   0.322   6.060   4.170
 4072SOL    HW113115   0.328   6.159   4.180
 4072SOL    HW213116   0.239   6.027   4.214
 4073SOL     OW13117   2.350   6.273   6.287
 4073SOL    HW113118   2.388   6.366   6.289
 4073SOL    HW213119   2.257   6.275   6.250
 4074SOL     OW13120   6.560   2.635   1.747
 4074SOL    HW113121   6.601   2.594   1.666
 4074SOL    HW213122   6.627   2.693   1.794
 4075SOL     OW13123   3.924   1.902   2.487
 4075SOL    HW113124   3.967   1.988   2.514
 4075SOL    HW213125   3.991   1.828   2.494
 4076SOL     OW13126   2.933   2.940   5.770
 4076SOL    HW113127   2.933   2.936   5.670
 4076SOL    HW213128   3.006   2.882   5.806
 4077SOL     OW13129   3.727   0.676   0.388
 4077SOL    HW113130   3.700   0.768   0.358
 4077SOL    HW213131   3.709   0.666   0.486
 4078SOL     OW13132   0.044   5.972   2.271
 4078SOL    HW113133   0.108   5.937   2.203
 4078SOL    HW213134   6.968   5.950   2.244
 4079SOL     OW13135   1.331   2.297   4.287
 4079SOL    HW113136   1.338   2.385   4.240
 4079SOL    HW213137   1.416   2.245   4.273
 4080SOL     OW13138   2.876   4.144   6.802
 4080SOL    HW113139   2.942   4.138   6.877
 4080SOL    HW213140   2.925   4.134   6.715
 4081SOL     OW13141   2.411   2.164   4.576
 4081SOL    HW113142   2.414   2.146   4.477
 4081SOL    HW213143   2.329   2.122   4.615
 4082SOL     OW13144   1.583   3.196   0.024
 4082SOL    HW113145   1.565   3.186   0.122
 4082SOL    HW213146   1.497   3.198   6.992
 4083SOL     OW13147   7.009   4.532   1.723
 4083SOL    HW113148   6.957   4.482   1.654
 4083SOL    HW213149   0.059   4.590   1.677
 4084SOL     OW13150   4.379   2.298   3.596
 4084SOL    HW113151   4.332   2.282   3.509
 4084SOL    HW213152   4.469   2.337   3.579
 4085SOL     OW13153   2.202   5.819   1.093
 4085SOL    HW113154   2.272   5.813   1.021
 4085SOL    HW213155   2.116   5.848   1.052
 4086SOL     OW13156   0.463   5.345   1.590
 4086SOL    HW113157   0.509   5.257   1.575
 4086SOL    HW213158   0.364   5.333   1.587
 4087SOL     OW13159   1.310   1.743   3.355
 4087SOL    HW113160   1.369   1.823   3.361
 4087SOL    HW213161   1.241   1.757   3.284
 4088SOL     OW13162   5.918   0.887   6.755
 4088SOL    HW113163   5.903   0.845   6.844
 4088SOL    HW213164   5.892   0.984   6.758
 4089SOL     OW13165   5.456   4.709   3.846
 4089SOL    HW113166   5.441   4.698   3.748
 4089SOL    HW213167   5.476   4.805   3.867
 4090SOL     OW13168   1.339   4.944   5.206
 4090SOL    HW113169   1.363   4.980   5.116
 4090SOL    HW213170   1.414   4.888   5.240
 4091SOL     OW13171   0.374   6.319   6.903
 4091SOL    HW113172   0.461   6.361   6.930
 4091SOL    HW213173   0.359   6.335   6.805
 4092SOL     OW13174   5.751   2.676   4.561
 4092SOL    HW113175   5.801   2.679   4.647
 4092SOL    HW213176   5.734   2.581   4.536
 4093SOL     OW13177   4.633   6.030   2.073
 4093SOL    HW113178   4.574   6.086   2.131
 4093SOL    HW213179   4.665   6.084   1.995
 4094SOL     OW13180   1.800   5.239   5.804
 4094SOL    HW113181   1.857   5.250   5.723
 4094SOL    HW213182   1.859   5.228   5.884
 4095SOL     OW13183   0.760   4.328   0.780
 4095SOL    HW113184   0.661   4.314   0.777
 4095SOL    HW213185   0.780   4.418   0.817
 4096SOL     OW13186   4.675   0.712   6.161
 4096SOL    HW113187   4.678   0.633   6.221
 4096SOL    HW213188   4.760   0.717   6.108
 4097SOL     OW13189   3.940   4.897   4.822
 4097SOL    HW113190   3.877   4.826   4.791
 4097SOL    HW213191   3.895   4.954   4.890
 4098SOL     OW13192   0.014   2.314   2.085
 4098SOL    HW113193   0.011   2.408   2.118
 4098SOL    HW213194   6.971   2.257   2.140
 4099SOL     OW13195   3.559   4.845   1.409
 4099SOL    HW113196   3.645   4.874   1.450
 4099SOL    HW213197   3.538   4.903   1.329
 4100SOL     OW13198   0.024   6.754   4.289
 4100SOL    HW113199   0.008   6.683   4.221
 4100SOL    HW213200   7.001   6.840   4.257
 4101SOL     OW13201   6.818   0.996   6.602
 4101SOL    HW113202   6.808   0.966   6.507
 4101SOL    HW213203   6.779   1.087   6.613
 4102SOL     OW13204   0.236   1.015   0.333
 4102SOL    HW113205   0.304   1.086   0.351
 4102SOL    HW213206   0.209   1.018   0.237
 4103SOL     OW13207   0.573   6.939   0.155
 4103SOL    HW113208   0.585   0.021   0.147
 4103SOL    HW213209   0.606   6.909   0.244
 4104SOL     OW13210   6.742   5.393   3.026
 4104SOL    HW113211   6.773   5.484   3.053
 4104SOL    HW213212   6.715   5.394   2.930
 4105SOL     OW13213   5.365   0.299   1.940
 4105SOL    HW113214   5.293   0.276   2.005
 4105SOL    HW213215   5.324   0.333   1.855
 4106SOL     OW13216   6.617   3.264   2.804
 4106SOL    HW113217   6.610   3.359   2.834
 4106SOL    HW213218   6.624   3.204   2.883
 4107SOL     OW13219   0.917   5.347   0.879
 4107SOL    HW113220   0.866   5.326   0.796
 4107SOL    HW213221   0.911   5.445   0.898
 4108SOL     OW13222   6.375   5.208   4.456
 4108SOL    HW113223   6.453   5.173   4.508
 4108SOL    HW213224   6.314   5.259   4.518
 4109SOL     OW13225   6.491   6.591   4.576
 4109SOL    HW113226   6.529   6.647   4.649
 4109SOL    HW213227   6.413   6.539   4.611
 4110SOL     OW13228   4.246   3.779   5.226
 4110SOL    HW113229   4.338   3.749   5.251
 4110SOL    HW213230   4.207   3.834   5.301
 4111SOL     OW13231   5.300   3.808   6.737
 4111SOL    HW113232   5.287   3.820   6.836
 4111SOL    HW213233   5.393   3.776   6.720
 4112SOL     OW13234   4.999   6.136   4.822
 4112SOL    HW113235   5.003   6.210   4.890
 4112SOL    HW213236   4.935   6.066   4.853
 4113SOL     OW13237   5.382   5.773   5.246
 4113SOL    HW113238   5.456   5.813   5.193
 4113SOL    HW213239   5.400   5.784   5.344
 4114SOL     OW13240   4.150   2.267   4.188
 4114SOL    HW113241   4.232   2.262   4.131
 4114SOL    HW213242   4.176   2.258   4.284
 4115SOL     OW13243   3.458   5.191   2.073
 4115SOL    HW113244   3.511   5.227   1.996
 4115SOL    HW213245   3.474   5.093   2.081
 4116SOL     OW13246   3.747   1.618   2.543
 4116SOL    HW113247   3.666   1.652   2.496
 4116SOL    HW213248   3.823   1.681   2.530
 4117SOL     OW13249   1.349   3.427   2.414
 4117SOL    HW113250   1.424   3.463   2.359
 4117SOL    HW213251   1.385   3.367   2.485
 4118SOL     OW13252   4.759   5.501   0.673
 4118SOL    HW113253   4.678   5.528   0.621
 4118SOL    HW213254   4.783   5.573   0.737
 4119SOL     OW13255   3.761   1.949   4.185
 4119SOL    HW113256   3.795   2.042   4.175
 4119SOL    HW213257   3.740   1.910   4.095
 4120SOL     OW13258   4.007   0.575   6.283
 4120SOL    HW113259   4.048   0.619   6.364
 4120SOL    HW213260   4.041   0.481   6.275
 4121SOL     OW13261   6.187   0.149   4.374
 4121SOL    HW113262   6.255   0.177   4.306
 4121SOL    HW213263   6.221   0.172   4.465
 4122SOL     OW13264   1.170   6.079   4.019
 4122SOL    HW113265   1.147   6.051   4.112
 4122SOL    HW213266   1.130   6.016   3.953
 4123SOL     OW13267   4.418   4.754   5.280
 4123SOL    HW113268   4.371   4.842   5.280
 4123SOL    HW213269   4.407   4.710   5.369
 4124SOL     OW13270   6.796   6.365   0.732
 4124SOL    HW113271   6.820   6.350   0.636
 4124SOL    HW213272   6.852   6.439   0.769
 4125SOL     OW13273   4.764   1.448   2.125
 4125SOL    HW113274   4.772   1.407   2.034
 4125SOL    HW213275   4.848   1.430   2.176
 4126SOL     OW13276   1.766   3.591   3.740
 4126SOL    HW113277   1.754   3.594   3.641
 4126SOL    HW213278   1.793   3.681   3.773
 4127SOL     OW13279   5.423   4.434   5.299
 4127SOL    HW113280   5.404   4.504   5.368
 4127SOL    HW213281   5.365   4.354   5.315
 4128SOL     OW13282   1.265   2.879   1.787
 4128SOL    HW113283   1.263   2.795   1.842
 4128SOL    HW213284   1.272   2.855   1.691
 4129SOL     OW13285   3.989   0.860   6.892
 4129SOL    HW113286   3.932   0.931   6.850
 4129SOL    HW213287   4.030   0.895   6.976
 4130SOL     OW13288   6.440   3.174   0.673
 4130SOL    HW113289   6.409   3.146   0.583
 4130SOL    HW213290   6.529   3.132   0.692
 4131SOL     OW13291   0.116   1.835   3.935
 4131SOL    HW113292   0.039   1.843   3.872
 4131SOL    HW213293   0.202   1.837   3.884
 4132SOL     OW13294   4.762   4.211   3.595
 4132SOL    HW113295   4.716   4.296   3.620
 4132SOL    HW213296   4.777   4.209   3.496
 4133SOL     OW13297   3.146   5.918   0.916
 4133SOL    HW113298   3.117   5.905   1.011
 4133SOL    HW213299   3.168   6.014   0.900
 4134SOL     OW13300   2.672   3.995   1.139
 4134SOL    HW113301   2.752   3.956   1.094
 4134SOL    HW213302   2.609   4.030   1.070
 4135SOL     OW13303   0.702   2.013   2.529
 4135SOL    HW113304   0.666   2.032   2.438
 4135SOL    HW213305   0.698   1.915   2.547
 4136SOL     OW13306   1.458   2.828   3.377
 4136SOL    HW113307   1.465   2.734   3.344
 4136SOL    HW213308   1.455   2.828   3.477
 4137SOL     OW13309   1.268   3.846   1.528
 4137SOL    HW113310   1.203   3.911   1.489
 4137SOL    HW213311   1.360   3.865   1.495
 4138SOL     OW13312   4.273   5.887   2.568
 4138SOL    HW113313   4.357   5.840   2.595
 4138SOL    HW213314   4.282   5.985   2.589
 4139SOL     OW13315   2.339   1.685   5.675
 4139SOL    HW113316   2.244   1.708   5.694
 4139SOL    HW213317   2.356   1.590   5.702
 4140SOL     OW13318   2.967   6.943   5.686
 4140SOL    HW113319   2.992   0.012   5.643
 4140SOL    HW213320   2.904   6.960   5.761
 4141SOL     OW13321   5.381   6.480   1.075
 4141SOL    HW113322   5.458   6.520   1.024
 4141SOL    HW213323   5.306   6.546   1.077
 4142SOL     OW13324   6.567   4.301   0.913
 4142SOL    HW113325   6.581   4.357   0.994
 4142SOL    HW213326   6.572   4.204   0.938
 4143SOL     OW13327   5.112   1.767   0.875
 4143SOL    HW113328   5.149   1.842   0.821
 4143SOL    HW213329   5.069   1.803   0.958
 4144SOL     OW13330   5.468   1.795   0.229
 4144SOL    HW113331   5.466   1.874   0.290
 4144SOL    HW213332   5.409   1.723   0.265
 4145SOL     OW13333   0.179   6.526   1.753
 4145SOL    HW113334   0.208   6.540   1.848
 4145SOL    HW213335   0.111   6.595   1.728
 4146SOL     OW13336   6.657   0.536   3.074
 4146SOL    HW113337   6.730   0.569   3.014
 4146SOL    HW213338   6.698   0.499   3.157
 4147SOL     OW13339   5.282   4.740   6.044
 4147SOL    HW113340   5.202   4.686   6.068
 4147SOL    HW213341   5.336   4.758   6.127
 4148SOL     OW13342   1.487   0.758   4.651
 4148SOL    HW113343   1.451   0.817   4.723
 4148SOL    HW213344   1.509   0.813   4.571
 4149SOL     OW13345   0.053   3.816   0.653
 4149SOL    HW113346   0.090   3.828   0.746
 4149SOL    HW213347   6.980   3.857   0.648
 4150SOL     OW13348   0.558   0.060   5.615
 4150SOL    HW113349   0.537   6.994   5.665
 4150SOL    HW213350   0.582   0.037   5.521
 4151SOL     OW13351   3.247   6.297   5.685
 4151SOL    HW113352   3.186   6.327   5.758
 4151SOL    HW213353   3.296   6.215   5.714
 4152SOL     OW13354   4.557   5.651   0.495
 4152SOL    HW113355   4.632   5.659   0.429
 4152SOL    HW213356   4.503   5.570   0.474
 4153SOL     OW13357   5.551   5.083   0.186
 4153SOL    HW113358   5.562   5.006   0.123
 4153SOL    HW213359   5.455   5.090   0.214
 4154SOL     OW13360   0.090   5.319   3.549
 4154SOL    HW113361   0.096   5.235   3.601
 4154SOL    HW213362   0.160   5.383   3.579
 4155SOL     OW13363   0.524   1.320   2.665
 4155SOL    HW113364   0.435   1.293   2.627
 4155SOL    HW213365   0.596   1.302   2.598
 4156SOL     OW13366   5.865   5.661   5.152
 4156SOL    HW113367   5.845   5.583   5.093
 4156SOL    HW213368   5.872   5.744   5.096
 4157SOL     OW13369   5.039   5.187   3.921
 4157SOL    HW113370   5.111   5.194   3.991
 4157SOL    HW213371   5.023   5.090   3.901
 4158SOL     OW13372   7.004   3.272   1.418
 4158SOL    HW113373   0.052   3.302   1.488
 4158SOL    HW213374   6.911   3.290   1.451
 4159SOL     OW13375   2.085   3.513   3.453
 4159SOL    HW113376   2.135   3.479   3.373
 4159SOL    HW213377   2.069   3.437   3.517
 4160SOL     OW13378   5.983   0.890   0.324
 4160SOL    HW113379   5.887   0.914   0.311
 4160SOL    HW213380   6.037   0.974   0.336
 4161SOL     OW13381   1.047   1.808   0.968
 4161SOL    HW113382   1.135   1.782   0.928
 4161SOL    HW213383   0.980   1.821   0.894
 4162SOL     OW13384   6.929   5.934   0.300
 4162SOL    HW113385   6.842   5.979   0.279
 4162SOL    HW213386   6.998   5.964   0.235
 4163SOL     OW13387   4.603   7.008   3.335
 4163SOL    HW113388   4.584   7.011   3.237
 4163SOL    HW213389   4.591   6.915   3.369
 4164SOL     OW13390   1.689   6.780   5.896
 4164SOL    HW113391   1.726   6.690   5.922
 4164SOL    HW213392   1.589   6.778   5.901
 4165SOL     OW13393   4.040   0.349   5.924
 4165SOL    HW113394   4.087   0.401   5.994
 4165SOL    HW213395   4.107   0.293   5.873
 4166SOL     OW13396   5.440   2.627   0.328
 4166SOL    HW113397   5.481   2.647   0.417
 4166SOL    HW213398   5.506   2.576   0.272
 4167SOL     OW13399   1.587   4.547   0.988
 4167SOL    HW113400   1.526   4.626   0.982
 4167SOL    HW213401   1.586   4.511   1.081
 4168SOL     OW13402   6.825   4.441   1.105
 4168SOL    HW113403   6.806   4.538   1.094
 4168SOL    HW213404   6.924   4.426   1.106
 4169SOL     OW13405   6.106   4.232   5.091
 4169SOL    HW113406   6.019   4.214   5.139
 4169SOL    HW213407   6.092   4.223   4.993
 4170SOL     OW13408   4.301   4.085   5.780
 4170SOL    HW113409   4.328   4.149   5.708
 4170SOL    HW213410   4.267   4.137   5.859
 4171SOL     OW13411   6.089   6.086   0.734
 4171SOL    HW113412   6.111   6.040   0.820
 4171SOL    HW213413   6.156   6.159   0.717
 4172SOL     OW13414   1.134   1.834   5.523
 4172SOL    HW113415   1.074   1.755   5.511
 4172SOL    HW213416   1.191   1.820   5.604
 4173SOL     OW13417   5.315   4.002   5.100
 4173SOL    HW113418   5.275   3.962   5.017
 4173SOL    HW213419   5.282   3.953   5.180
 4174SOL     OW13420   5.342   1.079   2.812
 4174SOL    HW113421   5.421   1.130   2.846
 4174SOL    HW213422   5.262   1.100   2.868
 4175SOL     OW13423   2.178   5.662   4.410
 4175SOL    HW113424   2.166   5.742   4.351
 4175SOL    HW213425   2.118   5.671   4.490
 4176SOL     OW13426   3.032   5.923   1.978
 4176SOL    HW113427   3.063   6.014   1.952
 4176SOL    HW213428   3.108   5.859   1.972
 4177SOL     OW13429   6.601   4.688   5.173
 4177SOL    HW113430   6.546   4.685   5.257
 4177SOL    HW213431   6.551   4.642   5.100
 4178SOL     OW13432   4.973   0.544   3.944
 4178SOL    HW113433   4.944   0.632   3.906
 4178SOL    HW213434   5.018   0.559   4.032
 4179SOL     OW13435   4.779   2.972   3.554
 4179SOL    HW113436   4.726   2.934   3.630
 4179SOL    HW213437   4.841   2.902   3.518
 4180SOL     OW13438   5.520   4.426   0.787
 4180SOL    HW113439   5.605   4.471   0.815
 4180SOL    HW213440   5.505   4.440   0.689
 4181SOL     OW13441   2.717   1.525   0.759
 4181SOL    HW113442   2.653   1.602   0.767
 4181SOL    HW213443   2.805   1.550   0.800
 4182SOL     OW13444   1.094   6.833   3.412
 4182SOL    HW113445   1.056   6.829   3.319
 4182SOL    HW213446   1.025   6.804   3.478
 4183SOL     OW13447   2.926   1.416   0.080
 4183SOL    HW113448   2.959   1.496   0.030
 4183SOL    HW213449   2.877   1.356   0.017
 4184SOL     OW13450   4.854   5.582   1.478
 4184SOL    HW113451   4.818   5.495   1.511
 4184SOL    HW213452   4.777   5.646   1.466
 4185SOL     OW13453   0.341   4.814   2.265
 4185SOL    HW113454   0.278   4.859   2.327
 4185SOL    HW213455   0.386   4.737   2.312
 4186SOL     OW13456   2.007   5.046   0.036
 4186SOL    HW113457   2.017   5.134   0.083
 4186SOL    HW213458   2.039   5.054   6.960
 4187SOL     OW13459   3.389   3.432   5.227
 4187SOL    HW113460   3.314   3.372   5.254
 4187SOL    HW213461   3.430   3.473   5.309
 4188SOL     OW13462   4.815   6.752   4.608
 4188SOL    HW113463   4.800   6.681   4.677
 4188SOL    HW213464   4.728   6.778   4.567
 4189SOL     OW13465   2.647   5.026   5.413
 4189SOL    HW113466   2.567   5.000   5.466
 4189SOL    HW213467   2.676   5.118   5.438
 4190SOL     OW13468   1.187   0.810   6.974
 4190SOL    HW113469   1.258   0.853   6.918
 4190SOL    HW213470   1.229   0.766   0.035
 4191SOL     OW13471   4.981   4.091   3.378
 4191SOL    HW113472   5.077   4.085   3.407
 4191SOL    HW213473   4.950   4.000   3.350
 4192SOL     OW13474   1.139   0.848   4.328
 4192SOL    HW113475   1.051   0.846   4.280
 4192SOL    HW213476   1.135   0.915   4.401
 4193SOL     OW13477   1.297   0.987   2.025
 4193SOL    HW113478   1.252   0.968   2.112
 4193SOL    HW213479   1.248   0.940   1.951
 4194SOL     OW13480   5.414   0.484   5.047
 4194SOL    HW113481   5.329   0.537   5.040
 4194SOL    HW213482   5.426   0.429   4.965
 4195SOL     OW13483   3.778   6.683   1.852
 4195SOL    HW113484   3.801   6.712   1.945
 4195SOL    HW213485   3.679   6.672   1.844
 4196SOL     OW13486   5.712   2.175   3.380
 4196SOL    HW113487   5.688   2.153   3.474
 4196SOL    HW213488   5.630   2.206   3.331
 4197SOL     OW13489   5.026   5.865   6.184
 4197SOL    HW113490   5.059   5.943   6.132
 4197SOL    HW213491   4.931   5.846   6.159
 4198SOL     OW13492   5.844   2.211   0.066
 4198SOL    HW113493   5.816   2.116   0.051
 4198SOL    HW213494   5.765   2.271   0.052
 4199SOL     OW13495   2.337   2.776   5.973
 4199SOL    HW113496   2.345   2.811   5.879
 4199SOL    HW213497   2.295   2.847   6.030
 4200SOL     OW13498   3.886   6.574   6.044
 4200SOL    HW113499   3.863   6.583   6.141
 4200SOL    HW213500   3.839   6.645   5.991
 4201SOL     OW13501   5.728   5.819   3.803
 4201SOL    HW113502   5.655   5.863   3.751
 4201SOL    HW213503   5.702   5.725   3.825
 4202SOL     OW13504   4.086   5.268   5.931
 4202SOL    HW113505   4.012   5.316   5.883
 4202SOL    HW213506   4.120   5.325   6.006
 4203SOL     OW13507   4.837   4.963   0.278
 4203SOL    HW113508   4.747   4.920   0.275
 4203SOL    HW213509   4.895   4.913   0.342
 4204SOL     OW13510   4.086   3.698   2.859
 4204SOL    HW113511   4.017   3.764   2.888
 4204SOL    HW213512   4.121   3.724   2.769
 4205SOL     OW13513   3.478   5.737   3.570
 4205SOL    HW113514   3.525   5.651   3.554
 4205SOL    HW213515   3.461   5.783   3.483
 4206SOL     OW13516   6.873   6.850   6.238
 4206SOL    HW113517   6.884   6.790   6.318
 4206SOL    HW213518   6.788   6.827   6.191
 4207SOL     OW13519   1.742   1.636   1.232
 4207SOL    HW113520   1.805   1.650   1.309
 4207SOL    HW213521   1.667   1.701   1.238
 4208SOL     OW13522   0.923   3.637   6.067
 4208SOL    HW113523   0.907   3.732   6.093
 4208SOL    HW213524   0.840   3.599   6.026
 4209SOL     OW13525   0.602   0.750   4.966
 4209SOL    HW113526   0.646   0.680   4.909
 4209SOL    HW213527   0.635   0.742   5.060
 4210SOL     OW13528   3.021   3.280   2.726
 4210SOL    HW113529   3.024   3.204   2.661
 4210SOL    HW213530   3.052   3.364   2.682
 4211SOL     OW13531   4.072   5.533   5.799
 4211SOL    HW113532   4.154   5.477   5.786
 4211SOL    HW213533   4.086   5.594   5.878
 4212SOL     OW13534   5.910   1.901   3.112
 4212SOL    HW113535   5.890   1.810   3.076
 4212SOL    HW213536   5.969   1.951   3.048
 4213SOL     OW13537   2.346   1.328   1.500
 4213SOL    HW113538   2.371   1.400   1.565
 4213SOL    HW213539   2.247   1.323   1.491
 4214SOL     OW13540   1.810   4.632   5.175
 4214SOL    HW113541   1.886   4.670   5.228
 4214SOL    HW213542   1.790   4.539   5.206
 4215SOL     OW13543   7.016   5.878   4.999
 4215SOL    HW113544   0.029   5.861   4.905
 4215SOL    HW213545   0.012   5.974   5.021
 4216SOL     OW13546   0.932   1.763   2.868
 4216SOL    HW113547   0.997   1.687   2.868
 4216SOL    HW213548   0.980   1.850   2.879
 4217SOL     OW13549   0.738   0.774   2.374
 4217SOL    HW113550   0.652   0.743   2.334
 4217SOL    HW213551   0.771   0.705   2.439
 4218SOL     OW13552   4.296   0.773   1.917
 4218SOL    HW113553   4.295   0.759   1.818
 4218SOL    HW213554   4.365   0.840   1.941
 4219SOL     OW13555   2.572   5.213   3.590
 4219SOL    HW113556   2.622   5.294   3.560
 4219SOL    HW213557   2.623   5.131   3.562
 4220SOL     OW13558   5.243   2.984   4.059
 4220SOL    HW113559   5.245   2.885   4.073
 4220SOL    HW213560   5.333   3.023   4.076
 4221SOL     OW13561   6.221   5.127   6.816
 4221SOL    HW113562   6.185   5.040   6.849
 4221SOL    HW213563   6.183   5.147   6.725
 4222SOL     OW13564   6.125   1.376   3.070
 4222SOL    HW113565   6.204   1.333   3.026
 4222SOL    HW213566   6.053   1.392   3.003
 4223SOL     OW13567   3.471   3.516   6.257
 4223SOL    HW113568   3.543   3.536   6.190
 4223SOL    HW213569   3.387   3.493   6.208
 4224SOL     OW13570   4.932   3.448   3.576
 4224SOL    HW113571   4.878   3.472   3.657
 4224SOL    HW213572   5.020   3.494   3.579
 4225SOL     OW13573   3.979   0.775   5.879
 4225SOL    HW113574   3.959   0.806   5.972
 4225SOL    HW213575   3.952   0.846   5.814
 4226SOL     OW13576   0.974   0.731   2.191
 4226SOL    HW113577   0.895   0.696   2.141
 4226SOL    HW213578   0.956   0.726   2.290
 4227SOL     OW13579   3.979   4.721   0.124
 4227SOL    HW113580   3.898   4.722   0.066
 4227SOL    HW213581   4.030   4.637   0.109
 4228SOL     OW13582   0.654   3.741   4.599
 4228SOL    HW113583   0.729   3.807   4.605
 4228SOL    HW213584   0.657   3.695   4.510
 4229SOL     OW13585   4.844   5.430   5.591
 4229SOL    HW113586   4.810   5.521   5.569
 4229SOL    HW213587   4.796   5.362   5.535
 4230SOL     OW13588   1.341   0.107   3.459
 4230SOL    HW113589   1.401   0.045   3.511
 4230SOL    HW213590   1.396   0.180   3.420
 4231SOL     OW13591   5.988   5.946   5.343
 4231SOL    HW113592   5.897   5.926   5.306
 4231SOL    HW213593   6.008   5.884   5.419
 4232SOL     OW13594   6.566   4.673   2.587
 4232SOL    HW113595   6.649   4.620   2.572
 4232SOL    HW213596   6.498   4.648   2.518
 4233SOL     OW13597   6.813   0.016   6.533
 4233SOL    HW113598   6.826   0.073   6.614
 4233SOL    HW213599   6.730   6.979   6.544
 4234SOL     OW13600   2.410   6.850   5.750
 4234SOL    HW113601   2.483   6.793   5.711
 4234SOL    HW213602   2.322   6.804   5.737
 4235SOL     OW13603   5.739   3.465   6.039
 4235SOL    HW113604   5.813   3.531   6.050
 4235SOL    HW213605   5.662   3.509   5.992
 4236SOL     OW13606   0.046   3.922   3.307
 4236SOL    HW113607   6.978   3.873   3.325
 4236SOL    HW213608   0.026   4.020   3.300
 4237SOL     OW13609   6.172   5.633   2.986
 4237SOL    HW113610   6.106   5.675   2.924
 4237SOL    HW213611   6.125   5.569   3.046
 4238SOL     OW13612   3.154   5.104   2.602
 4238SOL    HW113613   3.074   5.154   2.570
 4238SOL    HW213614   3.152   5.011   2.567
 4239SOL     OW13615   5.400   1.432   2.979
 4239SOL    HW113616   5.300   1.430   2.986
 4239SOL    HW213617   5.440   1.428   3.071
 4240SOL     OW13618   2.060   0.820   0.169
 4240SOL    HW113619   1.986   0.762   0.135
 4240SOL    HW213620   2.021   0.898   0.218
 4241SOL     OW13621   5.997   0.593   0.138
 4241SOL    HW113622   6.094   0.569   0.144
 4241SOL    HW213623   5.987   0.685   0.100
 4242SOL     OW13624   2.337   0.511   3.195
 4242SOL    HW113625   2.285   0.591   3.225
 4242SOL    HW213626   2.338   0.507   3.095
 4243SOL     OW13627   6.199   3.804   3.365
 4243SOL    HW113628   6.250   3.724   3.397
 4243SOL    HW213629   6.110   3.774   3.328
 4244SOL     OW13630   4.988   4.502   1.848
 4244SOL    HW113631   4.907   4.511   1.790
 4244SOL    HW213632   4.960   4.480   1.941
 4245SOL     OW13633   6.536   0.956   5.967
 4245SOL    HW113634   6.491   0.978   6.054
 4245SOL    HW213635   6.629   0.925   5.984
 4246SOL     OW13636   5.943   3.475   2.550
 4246SOL    HW113637   5.915   3.499   2.457
 4246SOL    HW213638   6.026   3.419   2.547
 4247SOL     OW13639   2.275   4.731   3.434
 4247SOL    HW113640   2.212   4.653   3.444
 4247SOL    HW213641   2.245   4.805   3.493
 4248SOL     OW13642   1.940   1.713   3.653
 4248SOL    HW113643   1.943   1.614   3.644
 4248SOL    HW213644   1.850   1.740   3.688
 4249SOL     OW13645   5.363   1.648   3.991
 4249SOL    HW113646   5.350   1.553   4.016
 4249SOL    HW213647   5.456   1.676   4.012
 4250SOL     OW13648   0.074   6.181   3.966
 4250SOL    HW113649   0.098   6.273   3.997
 4250SOL    HW213650   0.121   6.113   4.022
 4251SOL     OW13651   5.806   3.754   1.508
 4251SOL    HW113652   5.890   3.706   1.481
 4251SOL    HW213653   5.737   3.742   1.436
 4252SOL     OW13654   6.784   6.621   6.451
 4252SOL    HW113655   6.717   6.628   6.377
 4252SOL    HW213656   6.739   6.641   6.538
 4253SOL     OW13657   3.190   6.632   0.722
 4253SOL    HW113658   3.229   6.555   0.672
 4253SOL    HW213659   3.111   6.668   0.671
 4254SOL     OW13660   1.020   3.172   2.561
 4254SOL    HW113661   0.932   3.173   2.513
 4254SOL    HW213662   1.061   3.263   2.558
 4255SOL     OW13663   6.947   4.582   4.159
 4255SOL    HW113664   6.933   4.516   4.086
 4255SOL    HW213665   6.990   4.665   4.122
 4256SOL     OW13666   1.307   6.477   1.350
 4256SOL    HW113667   1.224   6.502   1.400
 4256SOL    HW213668   1.333   6.552   1.289
 4257SOL     OW13669   3.494   0.864   4.040
 4257SOL    HW113670   3.574   0.917   4.067
 4257SOL    HW213671   3.428   0.863   4.115
 4258SOL     OW13672   3.485   5.686   1.222
 4258SOL    HW113673   3.427   5.703   1.302
 4258SOL    HW213674   3.474   5.760   1.156
 4259SOL     OW13675   1.764   0.758   0.890
 4259SOL    HW113676   1.849   0.798   0.925
 4259SOL    HW213677   1.690   0.824   0.897
 4260SOL     OW13678   5.594   0.521   2.717
 4260SOL    HW113679   5.648   0.581   2.775
 4260SOL    HW213680   5.646   0.438   2.697
 4261SOL     OW13681   2.116   1.108   2.620
 4261SOL    HW113682   2.202   1.069   2.652
 4261SOL    HW213683   2.127   1.139   2.525
 4262SOL     OW13684   0.509   3.937   6.992
 4262SOL    HW113685   0.455   3.990   0.039
 4262SOL    HW213686   0.575   3.880   0.024
 4263SOL     OW13687   2.932   0.578   3.107
 4263SOL    HW113688   2.879   0.577   3.191
 4263SOL    HW213689   2.873   0.603   3.030
 4264SOL     OW13690   6.257   2.009   4.643
 4264SOL    HW113691   6.274   1.924   4.693
 4264SOL    HW213692   6.255   1.990   4.545
 4265SOL     OW13693   4.205   1.063   0.420
 4265SOL    HW113694   4.165   0.979   0.384
 4265SOL    HW213695   4.297   1.075   0.384
 4266SOL     OW13696   1.554   6.616   6.423
 4266SOL    HW113697   1.554   6.540   6.358
 4266SOL    HW213698   1.510   6.696   6.381
 4267SOL     OW13699   2.133   3.764   3.766
 4267SOL    HW113700   2.106   3.674   3.800
 4267SOL    HW213701   2.132   3.763   3.666
 4268SOL     OW13702   1.290   5.765   6.614
 4268SOL    HW113703   1.212   5.794   6.668
 4268SOL    HW213704   1.264   5.760   6.518
 4269SOL     OW13705   3.213   0.300   2.661
 4269SOL    HW113706   3.215   0.261   2.569
 4269SOL    HW213707   3.128   0.272   2.708
 4270SOL     OW13708   4.116   3.555   3.086
 4270SOL    HW113709   4.124   3.628   3.018
 4270SOL    HW213710   4.132   3.467   3.043
 4271SOL     OW13711   6.454   1.082   6.792
 4271SOL    HW113712   6.544   1.070   6.833
 4271SOL    HW213713   6.431   1.180   6.789
 4272SOL     OW13714   6.688   1.706   4.650
 4272SOL    HW113715   6.757   1.651   4.605
 4272SOL    HW213716   6.713   1.719   4.746
 4273SOL     OW13717   4.059   6.935   4.935
 4273SOL    HW113718   4.029   6.854   4.885
 4273SOL    HW213719   4.089   7.005   4.870
 4274SOL     OW13720   2.010   0.493   0.972
 4274SOL    HW113721   2.037   0.513   0.878
 4274SOL    HW213722   1.954   0.410   0.974
 4275SOL     OW13723   6.735   1.999   4.625
 4275SOL    HW113724   6.717   1.901   4.636
 4275SOL    HW213725   6.648   2.047   4.614
 4276SOL     OW13726   2.551   5.108   3.890
 4276SOL    HW113727   2.622   5.047   3.924
 4276SOL    HW213728   2.548   5.103   3.790
 4277SOL     OW13729   6.371   4.678   3.346
 4277SOL    HW113730   6.391   4.655   3.251
 4277SOL    HW213731   6.422   4.618   3.407
 4278SOL     OW13732   0.292   6.800   4.917
 4278SOL    HW113733   0.246   6.739   4.852
 4278SOL    HW213734   0.252   6.892   4.910
 4279SOL     OW13735   3.227   0.921   3.541
 4279SOL    HW113736   3.275   0.926   3.453
 4279SOL    HW213737   3.294   0.924   3.616
 4280SOL     OW13738   5.736   6.933   5.818
 4280SOL    HW113739   5.729   6.910   5.721
 4280SOL    HW213740   5.828   6.913   5.851
 4281SOL     OW13741   6.628   4.575   2.904
 4281SOL    HW113742   6.645   4.520   2.822
 4281SOL    HW213743   6.715   4.600   2.946
 4282SOL     OW13744   3.511   4.551   0.116
 4282SOL    HW113745   3.485   4.642   0.149
 4282SOL    HW213746   3.441   4.485   0.141
 4283SOL     OW13747   2.022   0.732   3.567
 4283SOL    HW113748   2.037   0.829   3.552
 4283SOL    HW213749   2.003   0.687   3.479
 4284SOL     OW13750   3.710   3.747   1.488
 4284SOL    HW113751   3.621   3.744   1.443
 4284SOL    HW213752   3.707   3.810   1.565
 4285SOL     OW13753   1.941   0.761   5.419
 4285SOL    HW113754   1.954   0.858   5.439
 4285SOL    HW213755   1.926   0.711   5.504
 4286SOL     OW13756   5.647   6.560   6.000
 4286SOL    HW113757   5.672   6.465   6.021
 4286SOL    HW213758   5.680   6.620   6.072
 4287SOL     OW13759   5.302   0.337   6.026
 4287SOL    HW113760   5.366   0.363   6.099
 4287SOL    HW213761   5.281   0.418   5.970
 4288SOL     OW13762   0.553   5.691   2.769
 4288SOL    HW113763   0.649   5.662   2.773
 4288SOL    HW213764   0.546   5.788   2.791
 4289SOL     OW13765   6.570   3.090   6.444
 4289SOL    HW113766   6.606   3.138   6.524
 4289SOL    HW213767   6.567   2.992   6.463
 4290SOL     OW13768   1.492   6.737   4.061
 4290SOL    HW113769   1.580   6.696   4.082
 4290SOL    HW213770   1.482   6.823   4.111
 4291SOL     OW13771   4.514   4.120   6.871
 4291SOL    HW113772   4.415   4.128   6.885
 4291SOL    HW213773   4.539   4.169   6.788
 4292SOL     OW13774   6.129   2.896   0.375
 4292SOL    HW113775   6.064   2.855   0.440
 4292SOL    HW213776   6.212   2.840   0.373
 4293SOL     OW13777   2.789   3.107   6.867
 4293SOL    HW113778   2.697   3.145   6.872
 4293SOL    HW213779   2.847   3.151   6.936
 4294SOL     OW13780   2.240   1.565   6.245
 4294SOL    HW113781   2.208   1.579   6.339
 4294SOL    HW213782   2.328   1.519   6.247
 4295SOL     OW13783   3.521   6.010   4.973
 4295SOL    HW113784   3.514   6.048   4.880
 4295SOL    HW213785   3.439   5.956   4.992
 4296SOL     OW13786   3.512   6.536   0.494
 4296SOL    HW113787   3.494   6.625   0.452
 4296SOL    HW213788   3.456   6.466   0.449
 4297SOL     OW13789   5.708   0.389   1.082
 4297SOL    HW113790   5.670   0.368   0.992
 4297SOL    HW213791   5.716   0.488   1.092
 4298SOL     OW13792   4.365   5.282   0.967
 4298SOL    HW113793   4.340   5.378   0.979
 4298SOL    HW213794   4.303   5.225   1.020
 4299SOL     OW13795   1.809   3.395   6.812
 4299SOL    HW113796   1.768   3.416   6.723
 4299SOL    HW213797   1.785   3.301   6.838
 4300SOL     OW13798   2.876   0.011   0.281
 4300SOL    HW113799   2.873   6.995   0.187
 4300SOL    HW213800   2.963   7.002   0.323
 4301SOL     OW13801   4.869   0.265   1.306
 4301SOL    HW113802   4.928   0.217   1.370
 4301SOL    HW213803   4.777   0.272   1.345
 4302SOL     OW13804   0.135   0.184   5.947
 4302SOL    HW113805   0.144   0.144   5.856
 4302SOL    HW213806   0.078   0.125   6.004
 4303SOL     OW13807   0.021   4.970   4.275
 4303SOL    HW113808   6.956   5.023   4.259
 4303SOL    HW213809   0.061   4.942   4.187
 4304SOL     OW13810   3.271   3.025   2.627
 4304SOL    HW113811   3.352   3.002   2.574
 4304SOL    HW213812   3.253   2.952   2.694
 4305SOL     OW13813   0.824   6.749   5.598
 4305SOL    HW113814   0.851   6.733   5.693
 4305SOL    HW213815   0.732   6.712   5.583
 4306SOL     OW13816   4.176   4.940   4.644
 4306SOL    HW113817   4.210   4.847   4.664
 4306SOL    HW213818   4.082   4.948   4.677
 4307SOL     OW13819   6.198   4.079   5.894
 4307SOL    HW113820   6.153   3.990   5.889
 4307SOL    HW213821   6.297   4.067   5.897
 4308SOL     OW13822   6.140   5.088   1.428
 4308SOL    HW113823   6.076   5.153   1.468
 4308SOL    HW213824   6.091   5.026   1.367
 4309SOL     OW13825   1.150   1.282   0.847
 4309SOL    HW113826   1.093   1.209   0.884
 4309SOL    HW213827   1.097   1.337   0.782
 4310SOL     OW13828   1.902   2.603   1.735
 4310SOL    HW113829   1.860   2.519   1.771
 4310SOL    HW213830   2.000   2.589   1.725
 4311SOL     OW13831   1.246   6.380   2.521
 4311SOL    HW113832   1.189   6.442   2.468
 4311SOL    HW213833   1.260   6.296   2.470
 4312SOL     OW13834   1.349   6.148   2.102
 4312SOL    HW113835   1.385   6.055   2.103
 4312SOL    HW213836   1.376   6.193   2.017
 4313SOL     OW13837   4.790   1.887   1.008
 4313SOL    HW113838   4.699   1.847   0.997
 4313SOL    HW213839   4.840   1.878   0.922
 4314SOL     OW13840   5.407   1.322   4.505
 4314SOL    HW113841   5.415   1.416   4.538
 4314SOL    HW213842   5.498   1.286   4.483
 4315SOL     OW13843   2.228   0.317   3.396
 4315SOL    HW113844   2.280   0.343   3.477
 4315SOL    HW213845   2.276   0.349   3.314
 4316SOL     OW13846   4.942   0.982   1.637
 4316SOL    HW113847   5.039   0.972   1.616
 4316SOL    HW213848   4.920   1.078   1.650
 4317SOL     OW13849   5.116   2.209   5.497
 4317SOL    HW113850   5.046   2.225   5.428
 4317SOL    HW213851   5.074   2.166   5.577
 4318SOL     OW13852   0.483   2.084   4.673
 4318SOL    HW113853   0.554   2.075   4.603
 4318SOL    HW213854   0.516   2.045   4.760
 4319SOL     OW13855   1.874   1.607   0.541
 4319SOL    HW113856   1.809   1.581   0.613
 4319SOL    HW213857   1.967   1.589   0.572
 4320SOL     OW13858   4.093   4.984   0.878
 4320SOL    HW113859   4.009   4.952   0.922
 4320SOL    HW213860   4.106   5.081   0.897
 4321SOL     OW13861   0.456   5.169   4.900
 4321SOL    HW113862   0.364   5.135   4.883
 4321SOL    HW213863   0.523   5.101   4.870
 4322SOL     OW13864   6.336   2.841   0.036
 4322SOL    HW113865   6.272   2.917   0.022
 4322SOL    HW213866   6.370   2.811   6.965
 4323SOL     OW13867   4.675   3.917   6.972
 4323SOL    HW113868   4.602   3.848   6.976
 4323SOL    HW213869   4.637   4.003   6.939
 4324SOL     OW13870   5.980   4.477   6.306
 4324SOL    HW113871   5.948   4.566   6.338
 4324SOL    HW213872   6.046   4.489   6.232
 4325SOL     OW13873   3.063   1.604   1.539
 4325SOL    HW113874   3.120   1.647   1.609
 4325SOL    HW213875   3.119   1.541   1.485
 4326SOL     OW13876   4.783   4.323   2.710
 4326SOL    HW113877   4.695   4.328   2.663
 4326SOL    HW213878   4.803   4.410   2.754
 4327SOL     OW13879   5.632   6.123   1.842
 4327SOL    HW113880   5.601   6.107   1.936
 4327SOL    HW213881   5.682   6.043   1.809
 4328SOL     OW13882   4.449   4.405   5.772
 4328SOL    HW113883   4.482   4.371   5.684
 4328SOL    HW213884   4.517   4.389   5.843
 4329SOL     OW13885   4.626   2.418   5.570
 4329SOL    HW113886   4.725   2.406   5.561
 4329SOL    HW213887   4.604   2.515   5.570
 4330SOL     OW13888   1.815   6.262   4.686
 4330SOL    HW113889   1.836   6.205   4.765
 4330SOL    HW213890   1.742   6.219   4.633
 4331SOL     OW13891   6.692   1.459   2.187
 4331SOL    HW113892   6.655   1.417   2.105
 4331SOL    HW213893   6.777   1.506   2.166
 4332SOL     OW13894   4.979   2.540   2.604
 4332SOL    HW113895   5.046   2.614   2.599
 4332SOL    HW213896   4.897   2.572   2.650
 4333SOL     OW13897   4.316   1.208   5.620
 4333SOL    HW113898   4.297   1.273   5.546
 4333SOL    HW213899   4.265   1.235   5.702
 4334SOL     OW13900   1.950   2.565   2.532
 4334SOL    HW113901   1.989   2.656   2.542
 4334SOL    HW213902   1.983   2.506   2.605
 4335SOL     OW13903   3.455   4.116   2.396
 4335SOL    HW113904   3.506   4.092   2.312
 4335SOL    HW213905   3.397   4.196   2.378
 4336SOL     OW13906   3.397   6.809   6.124
 4336SOL    HW113907   3.329   6.810   6.050
 4336SOL    HW213908   3.354   6.840   6.209
 4337SOL     OW13909   1.125   4.383   0.536
 4337SOL    HW113910   1.031   4.416   0.525
 4337SOL    HW213911   1.178   4.407   0.454
 4338SOL     OW13912   6.426   6.642   6.430
 4338SOL    HW113913   6.353   6.673   6.368
 4338SOL    HW213914   6.466   6.558   6.396
 4339SOL     OW13915   4.324   3.426   5.316
 4339SOL    HW113916   4.403   3.395   5.368
 4339SOL    HW213917   4.278   3.347   5.276
 4340SOL     OW13918   6.616   3.101   1.338
 4340SOL    HW113919   6.573   3.189   1.358
 4340SOL    HW213920   6.545   3.035   1.310
 4341SOL     OW13921   0.826   5.551   1.797
 4341SOL    HW113922   0.730   5.540   1.823
 4341SOL    HW213923   0.875   5.598   1.870
 4342SOL     OW13924   4.774   3.968   3.040
 4342SOL    HW113925   4.696   3.917   3.004
 4342SOL    HW213926   4.846   3.971   2.971
 4343SOL     OW13927   3.175   6.464   4.739
 4343SOL    HW113928   3.166   6.367   4.761
 4343SOL    HW213929   3.086   6.509   4.747
 4344SOL     OW13930   0.148   4.173   2.258
 4344SOL    HW113931   0.076   4.131   2.202
 4344SOL    HW213932   0.177   4.258   2.215
 4345SOL     OW13933   3.453   4.388   5.660
 4345SOL    HW113934   3.473   4.485   5.649
 4345SOL    HW213935   3.533   4.342   5.700
 4346SOL     OW13936   1.860   3.597   2.856
 4346SOL    HW113937   1.762   3.599   2.873
 4346SOL    HW213938   1.891   3.502   2.850
 4347SOL     OW13939   5.787   7.000   2.644
 4347SOL    HW113940   5.704   0.037   2.629
 4347SOL    HW213941   5.761   6.903   2.654
 4348SOL     OW13942   0.268   5.525   3.617
 4348SOL    HW113943   0.272   5.610   3.565
 4348SOL    HW213944   0.243   5.545   3.712
 4349SOL     OW13945   5.902   2.367   3.343
 4349SOL    HW113946   5.932   2.363   3.247
 4349SOL    HW213947   5.832   2.296   3.358
 4350SOL     OW13948   3.627   1.648   3.906
 4350SOL    HW113949   3.676   1.731   3.881
 4350SOL    HW213950   3.652   1.574   3.843
 4351SOL     OW13951   1.349   6.200   1.363
 4351SOL    HW113952   1.319   6.178   1.456
 4351SOL    HW213953   1.336   6.297   1.346
 4352SOL     OW13954   6.122   3.949   2.461
 4352SOL    HW113955   6.041   3.942   2.403
 4352SOL    HW213956   6.191   4.006   2.416
 4353SOL     OW13957   4.233   2.354   6.385
 4353SOL    HW113958   4.167   2.318   6.451
 4353SOL    HW213959   4.185   2.401   6.312
 4354SOL     OW13960   2.012   0.933   6.012
 4354SOL    HW113961   2.028   0.835   6.028
 4354SOL    HW213962   1.919   0.946   5.977
 4355SOL     OW13963   2.500   0.425   2.594
 4355SOL    HW113964   2.544   0.513   2.579
 4355SOL    HW213965   2.568   0.352   2.589
 4356SOL     OW13966   5.263   3.545   6.624
 4356SOL    HW113967   5.266   3.625   6.685
 4356SOL    HW213968   5.241   3.574   6.531
 4357SOL     OW13969   6.597   0.873   1.423
 4357SOL    HW113970   6.511   0.858   1.374
 4357SOL    HW213971   6.603   0.970   1.449
 4358SOL     OW13972   6.820   0.798   0.858
 4358SOL    HW113973   6.756   0.864   0.897
 4358SOL    HW213974   6.869   0.840   0.782
 4359SOL     OW13975   0.970   1.685   6.100
 4359SOL    HW113976   1.005   1.776   6.122
 4359SOL    HW213977   0.937   1.684   6.005
 4360SOL     OW13978   0.760   3.943   4.089
 4360SOL    HW113979   0.755   3.988   4.000
 4360SOL    HW213980   0.810   3.857   4.080
 4361SOL     OW13981   1.978   3.649   1.999
 4361SOL    HW113982   2.063   3.596   1.992
 4361SOL    HW213983   1.921   3.631   1.918
 4362SOL     OW13984   6.728   5.090   3.578
 4362SOL    HW113985   6.666   5.016   3.552
 4362SOL    HW213986   6.686   5.178   3.555
 4363SOL     OW13987   5.425   2.238   0.887
 4363SOL    HW113988   5.475   2.313   0.931
 4363SOL    HW213989   5.403   2.168   0.955
 4364SOL     OW13990   3.117   3.990   3.332
 4364SOL    HW113991   3.090   3.936   3.252
 4364SOL    HW213992   3.053   3.973   3.407
 4365SOL     OW13993   2.884   0.788   1.753
 4365SOL    HW113994   2.972   0.744   1.772
 4365SOL    HW213995   2.843   0.820   1.839
 4366SOL     OW13996   6.986   7.005   6.957
 4366SOL    HW113997   6.897   6.963   6.945
 4366SOL    HW213998   0.018   7.004   6.870
 4367SOL     OW13999   2.651   4.636   4.057
 4367SOL    HW114000   2.612   4.612   3.968
 4367SOL    HW214001   2.597   4.592   4.129
 4368SOL     OW14002   4.168   6.133   1.424
 4368SOL    HW114003   4.078   6.103   1.393
 4368SOL    HW214004   4.231   6.138   1.346
 4369SOL     OW14005   4.605   5.052   2.825
 4369SOL    HW114006   4.511   5.019   2.814
 4369SOL    HW214007   4.662   4.978   2.860
 4370SOL     OW14008   3.719   4.546   1.626
 4370SOL    HW114009   3.703   4.448   1.626
 4370SOL    HW214010   3.648   4.592   1.679
 4371SOL     OW14011   1.878   2.042   2.201
 4371SOL    HW114012   1.876   1.945   2.229
 4371SOL    HW214013   1.915   2.049   2.109
 4372SOL     OW14014   2.870   2.020   4.263
 4372SOL    HW114015   2.882   2.010   4.361
 4372SOL    HW214016   2.791   2.077   4.244
 4373SOL     OW14017   5.311   1.731   6.755
 4373SOL    HW114018   5.296   1.769   6.663
 4373SOL    HW214019   5.391   1.671   6.753
 4374SOL     OW14020   1.076   1.990   1.159
 4374SOL    HW114021   1.084   1.925   1.084
 4374SOL    HW214022   1.019   2.068   1.129
 4375SOL     OW14023   4.090   6.585   3.286
 4375SOL    HW114024   4.008   6.547   3.329
 4375SOL    HW214025   4.063   6.644   3.210
 4376SOL     OW14026   6.140   0.305   2.583
 4376SOL    HW114027   6.238   0.294   2.600
 4376SOL    HW214028   6.101   0.219   2.551
 4377SOL     OW14029   5.783   5.646   6.658
 4377SOL    HW114030   5.781   5.551   6.626
 4377SOL    HW214031   5.876   5.671   6.682
 4378SOL     OW14032   1.645   2.786   2.808
 4378SOL    HW114033   1.715   2.774   2.737
 4378SOL    HW214034   1.682   2.843   2.882
 4379SOL     OW14035   2.627   2.071   2.561
 4379SOL    HW114036   2.695   2.130   2.518
 4379SOL    HW214037   2.570   2.124   2.623
 4380SOL     OW14038   1.174   6.548   3.227
 4380SOL    HW114039   1.258   6.566   3.279
 4380SOL    HW214040   1.118   6.482   3.276
 4381SOL     OW14041   2.206   3.773   5.202
 4381SOL    HW114042   2.267   3.847   5.171
 4381SOL    HW214043   2.115   3.787   5.164
 4382SOL     OW14044   6.134   3.520   6.578
 4382SOL    HW114045   6.123   3.617   6.555
 4382SOL    HW214046   6.045   3.476   6.578
 4383SOL     OW14047   0.755   2.389   5.882
 4383SOL    HW114048   0.845   2.354   5.854
 4383SOL    HW214049   0.696   2.312   5.906
 4384SOL     OW14050   5.509   1.443   6.113
 4384SOL    HW114051   5.542   1.534   6.085
 4384SOL    HW214052   5.432   1.416   6.055
 4385SOL     OW14053   6.055   2.636   5.167
 4385SOL    HW114054   5.965   2.652   5.126
 4385SOL    HW214055   6.069   2.699   5.243
 4386SOL     OW14056   2.459   3.639   0.005
 4386SOL    HW114057   2.445   3.555   6.971
 4386SOL    HW214058   2.378   3.658   0.061
 4387SOL     OW14059   6.942   0.908   1.911
 4387SOL    HW114060   7.003   0.957   1.974
 4387SOL    HW214061   6.972   0.813   1.902
 4388SOL     OW14062   5.291   1.827   6.487
 4388SOL    HW114063   5.286   1.902   6.554
 4388SOL    HW214064   5.370   1.843   6.427
 4389SOL     OW14065   6.734   3.650   0.804
 4389SOL    HW114066   6.757   3.738   0.846
 4389SOL    HW214067   6.665   3.663   0.733
 4390SOL     OW14068   3.559   1.182   2.137
 4390SOL    HW114069   3.593   1.154   2.047
 4390SOL    HW214070   3.637   1.201   2.197
 4391SOL     OW14071   1.469   5.336   6.682
 4391SOL    HW114072   1.435   5.333   6.588
 4391SOL    HW214073   1.550   5.394   6.687
 4392SOL     OW14074   6.782   3.201   6.246
 4392SOL    HW114075   6.735   3.270   6.191
 4392SOL    HW214076   6.715   3.137   6.283
 4393SOL     OW14077   6.168   0.236   2.232
 4393SOL    HW114078   6.120   0.194   2.309
 4393SOL    HW214079   6.120   0.320   2.205
 4394SOL     OW14080   5.641   5.889   2.704
 4394SOL    HW114081   5.564   5.847   2.656
 4394SOL    HW214082   5.685   5.956   2.644
 4395SOL     OW14083   3.293   0.429   1.803
 4395SOL    HW114084   3.362   0.388   1.862
 4395SOL    HW214085   3.334   0.452   1.714
 4396SOL     OW14086   2.345   2.425   4.139
 4396SOL    HW114087   2.250   2.426   4.172
 4396SOL    HW214088   2.388   2.513   4.158
 4397SOL     OW14089   0.305   1.198   4.555
 4397SOL    HW114090   0.308   1.113   4.501
 4397SOL    HW214091   0.363   1.267   4.511
 4398SOL     OW14092   0.580   4.736   4.975
 4398SOL    HW114093   0.583   4.694   4.884
 4398SOL    HW214094   0.632   4.681   5.040
 4399SOL     OW14095   2.081   1.318   1.472
 4399SOL    HW114096   2.066   1.379   1.550
 4399SOL    HW214097   1.993   1.295   1.430
 4400SOL     OW14098   3.596   6.458   5.911
 4400SOL    HW114099   3.652   6.462   5.994
 4400SOL    HW214100   3.606   6.368   5.869
 4401SOL     OW14101   5.009   6.809   6.540
 4401SOL    HW114102   4.931   6.861   6.576
 4401SOL    HW214103   5.091   6.866   6.541
 4402SOL     OW14104   2.945   6.909   1.057
 4402SOL    HW114105   2.866   6.880   1.004
 4402SOL    HW214106   2.914   6.961   1.137
 4403SOL     OW14107   0.724   0.476   4.135
 4403SOL    HW114108   0.756   0.391   4.175
 4403SOL    HW214109   0.687   0.458   4.044
 4404SOL     OW14110   0.264   3.864   5.539
 4404SOL    HW114111   0.308   3.942   5.495
 4404SOL    HW214112   0.171   3.889   5.568
 4405SOL     OW14113   1.246   4.548   1.586
 4405SOL    HW114114   1.190   4.474   1.550
 4405SOL    HW214115   1.188   4.627   1.608
 4406SOL     OW14116   6.918   3.761   0.328
 4406SOL    HW114117   6.995   3.725   0.381
 4406SOL    HW214118   6.853   3.805   0.390
 4407SOL     OW14119   6.811   4.722   1.110
 4407SOL    HW114120   6.906   4.739   1.082
 4407SOL    HW214121   6.758   4.806   1.100
 4408SOL     OW14122   3.147   1.381   1.395
 4408SOL    HW114123   3.110   1.301   1.442
 4408SOL    HW214124   3.234   1.358   1.353
 4409SOL     OW14125   4.740   0.050   1.933
 4409SOL    HW114126   4.685   0.103   1.870
 4409SOL    HW214127   4.736   0.092   2.024
 4410SOL     OW14128   1.243   6.053   6.890
 4410SOL    HW114129   1.149   6.053   6.854
 4410SOL    HW214130   1.241   6.025   6.986
 4411SOL     OW14131   3.402   4.166   3.816
 4411SOL    HW114132   3.473   4.126   3.874
 4411SOL    HW214133   3.313   4.126   3.841
 4412SOL     OW14134   4.027   6.706   4.758
 4412SOL    HW114135   4.101   6.690   4.824
 4412SOL    HW214136   3.960   6.632   4.765
 4413SOL     OW14137   5.525   5.518   5.140
 4413SOL    HW114138   5.535   5.547   5.235
 4413SOL    HW214139   5.615   5.499   5.100
 4414SOL     OW14140   3.664   4.239   1.542
 4414SOL    HW114141   3.683   4.174   1.469
 4414SOL    HW214142   3.567   4.264   1.539
 4415SOL     OW14143   3.612   3.133   0.015
 4415SOL    HW114144   3.527   3.082   0.028
 4415SOL    HW214145   3.672   3.118   0.094
 4416SOL     OW14146   2.085   0.533   4.257
 4416SOL    HW114147   2.094   0.524   4.157
 4416SOL    HW214148   2.030   0.458   4.292
 4417SOL     OW14149   6.081   4.278   3.323
 4417SOL    HW114150   6.075   4.349   3.253
 4417SOL    HW214151   6.160   4.297   3.382
 4418SOL     OW14152   5.826   1.342   2.436
 4418SOL    HW114153   5.847   1.268   2.371
 4418SOL    HW214154   5.908   1.397   2.451
 4419SOL     OW14155   6.058   5.520   0.098
 4419SOL    HW114156   6.043   5.473   0.011
 4419SOL    HW214157   6.022   5.613   0.093
 4420SOL     OW14158   5.079   1.090   1.852
 4420SOL    HW114159   5.143   1.021   1.886
 4420SOL    HW214160   4.990   1.048   1.836
 4421SOL     OW14161   1.651   0.888   5.176
 4421SOL    HW114162   1.722   0.818   5.167
 4421SOL    HW214163   1.562   0.847   5.159
 4422SOL     OW14164   3.208   4.423   6.066
 4422SOL    HW114165   3.230   4.365   5.988
 4422SOL    HW214166   3.213   4.368   6.150
 4423SOL     OW14167   1.655   2.819   5.755
 4423SOL    HW114168   1.609   2.737   5.789
 4423SOL    HW214169   1.587   2.883   5.718
 4424SOL     OW14170   5.194   0.780   3.960
 4424SOL    HW114171   5.235   0.852   4.016
 4424SOL    HW214172   5.249   0.697   3.966
 4425SOL     OW14173   3.429   5.259   0.176
 4425SOL    HW114174   3.528   5.266   0.161
 4425SOL    HW214175   3.401   5.327   0.244
 4426SOL     OW14176   6.960   1.065   4.866
 4426SOL    HW114177   0.035   1.085   4.837
 4426SOL    HW214178   6.898   1.134   4.829
 4427SOL     OW14179   0.446   6.078   2.531
 4427SOL    HW114180   0.429   6.125   2.444
 4427SOL    HW214181   0.541   6.095   2.559
 4428SOL     OW14182   2.850   6.862   2.028
 4428SOL    HW114183   2.756   6.835   2.009
 4428SOL    HW214184   2.872   6.947   1.978
 4429SOL     OW14185   3.182   0.179   2.432
 4429SOL    HW114186   3.262   0.217   2.384
 4429SOL    HW214187   3.107   0.166   2.368
 4430SOL     OW14188   4.915   3.471   4.730
 4430SOL    HW114189   4.969   3.530   4.789
 4430SOL    HW214190   4.845   3.424   4.783
 4431SOL     OW14191   2.117   1.093   2.346
 4431SOL    HW114192   2.090   1.137   2.260
 4431SOL    HW214193   2.062   1.010   2.358
 4432SOL     OW14194   3.430   4.089   4.934
 4432SOL    HW114195   3.336   4.062   4.956
 4432SOL    HW214196   3.461   4.040   4.853
 4433SOL     OW14197   4.781   0.914   4.607
 4433SOL    HW114198   4.725   0.875   4.681
 4433SOL    HW214199   4.765   0.862   4.523
 4434SOL     OW14200   4.477   1.941   4.457
 4434SOL    HW114201   4.555   1.880   4.469
 4434SOL    HW214202   4.479   1.980   4.366
 4435SOL     OW14203   4.534   2.989   1.457
 4435SOL    HW114204   4.487   3.029   1.378
 4435SOL    HW214205   4.476   2.999   1.538
 4436SOL     OW14206   4.256   1.063   0.943
 4436SOL    HW114207   4.328   0.994   0.950
 4436SOL    HW214208   4.267   1.129   1.018
 4437SOL     OW14209   5.782   1.586   3.090
 4437SOL    HW114210   5.822   1.593   3.181
 4437SOL    HW214211   5.713   1.514   3.089
 4438SOL     OW14212   5.026   0.267   0.084
 4438SOL    HW114213   5.089   0.328   0.035
 4438SOL    HW214214   4.990   0.198   0.021
 4439SOL     OW14215   0.212   5.500   1.809
 4439SOL    HW114216   0.237   5.593   1.833
 4439SOL    HW214217   0.253   5.436   1.874
 4440SOL     OW14218   1.966   5.631   0.455
 4440SOL    HW114219   1.910   5.709   0.483
 4440SOL    HW214220   1.915   5.547   0.471
 4441SOL     OW14221   6.656   2.125   2.941
 4441SOL    HW114222   6.576   2.178   2.970
 4441SOL    HW214223   6.627   2.042   2.894
 4442SOL     OW14224   2.719   5.793   4.649
 4442SOL    HW114225   2.682   5.834   4.732
 4442SOL    HW214226   2.655   5.807   4.574
 4443SOL     OW14227   0.190   2.841   0.602
 4443SOL    HW114228   0.112   2.830   0.540
 4443SOL    HW214229   0.186   2.772   0.674
 4444SOL     OW14230   3.101   5.386   6.370
 4444SOL    HW114231   3.031   5.344   6.312
 4444SOL    HW214232   3.185   5.331   6.366
 4445SOL     OW14233   0.632   0.601   1.196
 4445SOL    HW114234   0.535   0.580   1.188
 4445SOL    HW214235   0.643   0.685   1.250
 4446SOL     OW14236   6.095   1.243   2.163
 4446SOL    HW114237   6.131   1.213   2.075
 4446SOL    HW214238   6.163   1.228   2.234
 4447SOL     OW14239   5.389   3.551   6.213
 4447SOL    HW114240   5.429   3.499   6.288
 4447SOL    HW214241   5.381   3.492   6.132
 4448SOL     OW14242   2.888   3.819   0.977
 4448SOL    HW114243   2.934   3.809   1.065
 4448SOL    HW214244   2.828   3.741   0.963
 4449SOL     OW14245   5.183   0.507   5.577
 4449SOL    HW114246   5.167   0.451   5.496
 4449SOL    HW214247   5.129   0.590   5.572
 4450SOL     OW14248   3.505   2.905   3.961
 4450SOL    HW114249   3.580   2.932   4.021
 4450SOL    HW214250   3.419   2.904   4.013
 4451SOL     OW14251   5.579   4.229   3.887
 4451SOL    HW114252   5.536   4.274   3.809
 4451SOL    HW214253   5.610   4.298   3.952
 4452SOL     OW14254   5.156   6.277   4.184
 4452SOL    HW114255   5.118   6.329   4.261
 4452SOL    HW214256   5.222   6.210   4.218
 4453SOL     OW14257   0.742   2.515   2.094
 4453SOL    HW114258   0.691   2.585   2.145
 4453SOL    HW214259   0.683   2.437   2.075
 4454SOL     OW14260   1.163   2.009   6.811
 4454SOL    HW114261   1.205   1.955   6.738
 4454SOL    HW214262   1.232   2.030   6.881
 4455SOL     OW14263   3.879   5.925   6.174
 4455SOL    HW114264   3.935   5.884   6.246
 4455SOL    HW214265   3.934   5.988   6.120
 4456SOL     OW14266   3.634   5.765   2.075
 4456SOL    HW114267   3.586   5.706   2.011
 4456SOL    HW214268   3.591   5.856   2.075
 4457SOL     OW14269   4.903   1.676   1.416
 4457SOL    HW114270   4.941   1.719   1.334
 4457SOL    HW214271   4.822   1.727   1.446
 4458SOL     OW14272   1.590   3.035   6.404
 4458SOL    HW114273   1.637   3.030   6.315
 4458SOL    HW214274   1.559   3.129   6.420
 4459SOL     OW14275   4.296   0.307   4.600
 4459SOL    HW114276   4.252   0.217   4.591
 4459SOL    HW214277   4.297   0.352   4.511
 4460SOL     OW14278   3.147   2.775   5.542
 4460SOL    HW114279   3.125   2.736   5.632
 4460SOL    HW214280   3.162   2.701   5.476
 4461SOL     OW14281   1.445   1.376   1.609
 4461SOL    HW114282   1.464   1.298   1.668
 4461SOL    HW214283   1.346   1.391   1.604
 4462SOL     OW14284   6.075   4.566   2.229
 4462SOL    HW114285   6.104   4.660   2.210
 4462SOL    HW214286   5.998   4.566   2.292
 4463SOL     OW14287   5.464   1.890   6.266
 4463SOL    HW114288   5.452   1.988   6.250
 4463SOL    HW214289   5.442   1.839   6.183
 4464SOL     OW14290   6.507   4.838   1.016
 4464SOL    HW114291   6.436   4.811   1.081
 4464SOL    HW214292   6.572   4.899   1.061
 4465SOL     OW14293   2.821   5.343   1.556
 4465SOL    HW114294   2.807   5.274   1.627
 4465SOL    HW214295   2.768   5.318   1.475
 4466SOL     OW14296   1.970   2.051   3.135
 4466SOL    HW114297   2.001   2.130   3.083
 4466SOL    HW214298   1.917   2.082   3.214
 4467SOL     OW14299   1.939   6.827   2.567
 4467SOL    HW114300   1.857   6.814   2.512
 4467SOL    HW214301   1.993   6.743   2.567
 4468SOL     OW14302   2.110   2.983   1.057
 4468SOL    HW114303   2.033   2.927   1.028
 4468SOL    HW214304   2.188   2.923   1.080
 4469SOL     OW14305   4.252   0.701   1.673
 4469SOL    HW114306   4.332   0.678   1.618
 4469SOL    HW214307   4.192   0.761   1.621
 4470SOL     OW14308   5.844   2.007   2.486
 4470SOL    HW114309   5.785   2.033   2.563
 4470SOL    HW214310   5.879   2.090   2.442
 4471SOL     OW14311   0.668   1.865   6.776
 4471SOL    HW114312   0.681   1.879   6.874
 4471SOL    HW214313   0.642   1.770   6.759
 4472SOL     OW14314   1.419   2.813   3.652
 4472SOL    HW114315   1.445   2.783   3.743
 4472SOL    HW214316   1.321   2.834   3.650
 4473SOL     OW14317   6.897   2.236   4.650
 4473SOL    HW114318   6.897   2.142   4.685
 4473SOL    HW214319   6.806   2.261   4.620
 4474SOL     OW14320   3.053   1.129   1.472
 4474SOL    HW114321   3.053   1.112   1.373
 4474SOL    HW214322   3.059   1.043   1.521
 4475SOL     OW14323   1.581   4.202   2.966
 4475SOL    HW114324   1.509   4.271   2.975
 4475SOL    HW214325   1.611   4.173   3.057
 4476SOL     OW14326   3.996   6.694   3.650
 4476SOL    HW114327   4.096   6.685   3.659
 4476SOL    HW214328   3.963   6.762   3.715
 4477SOL     OW14329   1.600   6.923   5.237
 4477SOL    HW114330   1.650   6.992   5.289
 4477SOL    HW214331   1.596   6.950   5.140
 4478SOL     OW14332   3.789   6.796   2.552
 4478SOL    HW114333   3.761   6.726   2.617
 4478SOL    HW214334   3.887   6.813   2.561
 4479SOL     OW14335   1.270   0.928   1.511
 4479SOL    HW114336   1.332   0.991   1.464
 4479SOL    HW214337   1.317   0.841   1.526
 4480SOL     OW14338   2.203   3.715   5.917
 4480SOL    HW114339   2.222   3.757   6.006
 4480SOL    HW214340   2.267   3.751   5.849
 4481SOL     OW14341   2.494   6.159   5.456
 4481SOL    HW114342   2.592   6.141   5.458
 4481SOL    HW214343   2.473   6.222   5.381
 4482SOL     OW14344   1.044   4.574   4.223
 4482SOL    HW114345   1.022   4.484   4.261
 4482SOL    HW214346   0.969   4.604   4.163
 4483SOL     OW14347   5.177   3.157   1.564
 4483SOL    HW114348   5.153   3.222   1.491
 4483SOL    HW214349   5.105   3.158   1.634
 4484SOL     OW14350   3.006   2.733   5.998
 4484SOL    HW114351   2.907   2.728   5.992
 4484SOL    HW214352   3.034   2.751   6.092
 4485SOL     OW14353   5.186   1.557   4.975
 4485SOL    HW114354   5.150   1.570   5.067
 4485SOL    HW214355   5.198   1.646   4.931
 4486SOL     OW14356   5.183   4.765   4.834
 4486SOL    HW114357   5.258   4.789   4.772
 4486SOL    HW214358   5.131   4.847   4.857
 4487SOL     OW14359   2.145   2.723   6.336
 4487SOL    HW114360   2.129   2.786   6.411
 4487SOL    HW214361   2.226   2.752   6.284
 4488SOL     OW14362   6.405   2.844   6.251
 4488SOL    HW114363   6.397   2.868   6.348
 4488SOL    HW214364   6.501   2.829   6.228
 4489SOL     OW14365   5.949   5.776   3.993
 4489SOL    HW114366   5.957   5.676   3.983
 4489SOL    HW214367   5.898   5.813   3.916
 4490SOL     OW14368   6.330   2.878   3.304
 4490SOL    HW114369   6.353   2.810   3.235
 4490SOL    HW214370   6.276   2.951   3.263
 4491SOL     OW14371   6.660   2.124   4.880
 4491SOL    HW114372   6.732   2.191   4.860
 4491SOL    HW214373   6.641   2.070   4.798
 4492SOL     OW14374   5.716   4.057   1.849
 4492SOL    HW114375   5.778   4.127   1.814
 4492SOL    HW214376   5.751   3.967   1.824
 4493SOL     OW14377   4.558   5.837   5.349
 4493SOL    HW114378   4.644   5.888   5.347
 4493SOL    HW214379   4.506   5.856   5.266
 4494SOL     OW14380   6.672   1.163   5.845
 4494SOL    HW114381   6.767   1.168   5.877
 4494SOL    HW214382   6.624   1.091   5.894
 4495SOL     OW14383   4.070   6.418   4.071
 4495SOL    HW114384   4.137   6.384   4.137
 4495SOL    HW214385   4.018   6.493   4.111
 4496SOL     OW14386   5.417   5.467   1.131
 4496SOL    HW114387   5.429   5.488   1.228
 4496SOL    HW214388   5.353   5.533   1.091
 4497SOL     OW14389   4.437   1.199   6.591
 4497SOL    HW114390   4.406   1.169   6.501
 4497SOL    HW214391   4.360   1.199   6.654
 4498SOL     OW14392   6.570   3.610   0.416
 4498SOL    HW114393   6.649   3.560   0.380
 4498SOL    HW214394   6.504   3.545   0.454
 4499SOL     OW14395   6.407   3.475   4.770
 4499SOL    HW114396   6.329   3.513   4.721
 4499SOL    HW214397   6.487   3.534   4.756
 4500SOL     OW14398   3.201   3.474   3.824
 4500SOL    HW114399   3.162   3.405   3.884
 4500SOL    HW214400   3.295   3.494   3.854
 4501SOL     OW14401   0.215   3.572   4.462
 4501SOL    HW114402   0.305   3.529   4.449
 4501SOL    HW214403   0.200   3.591   4.559
 4502SOL     OW14404   0.840   2.970   6.698
 4502SOL    HW114405   0.923   2.997   6.747
 4502SOL    HW214406   0.818   2.874   6.719
 4503SOL     OW14407   3.078   6.893   1.626
 4503SOL    HW114408   3.093   6.922   1.720
 4503SOL    HW214409   3.105   6.797   1.616
 4504SOL     OW14410   6.625   0.913   4.458
 4504SOL    HW114411   6.688   0.981   4.494
 4504SOL    HW214412   6.630   0.913   4.358
 4505SOL     OW14413   5.646   5.239   1.875
 4505SOL    HW114414   5.606   5.159   1.918
 4505SOL    HW214415   5.744   5.242   1.896
 4506SOL     OW14416   4.349   2.408   3.834
 4506SOL    HW114417   4.411   2.486   3.832
 4506SOL    HW214418   4.356   2.358   3.748
 4507SOL     OW14419   5.368   4.909   2.207
 4507SOL    HW114420   5.285   4.965   2.216
 4507SOL    HW214421   5.345   4.813   2.227
 4508SOL     OW14422   0.738   4.658   6.477
 4508SOL    HW114423   0.726   4.648   6.378
 4508SOL    HW214424   0.698   4.745   6.506
 4509SOL     OW14425   4.766   2.190   2.726
 4509SOL    HW114426   4.752   2.228   2.634
 4509SOL    HW214427   4.688   2.213   2.784
 4510SOL     OW14428   4.449   1.112   4.128
 4510SOL    HW114429   4.478   1.025   4.087
 4510SOL    HW214430   4.401   1.094   4.214
 4511SOL     OW14431   0.061   3.095   6.924
 4511SOL    HW114432   0.131   3.166   6.934
 4511SOL    HW214433   0.098   3.006   6.949
 4512SOL     OW14434   2.977   0.544   5.021
 4512SOL    HW114435   2.932   0.587   4.942
 4512SOL    HW214436   3.024   0.461   4.991
 4513SOL     OW14437   6.039   4.859   0.453
 4513SOL    HW114438   6.097   4.808   0.389
 4513SOL    HW214439   6.058   4.956   0.446
 4514SOL     OW14440   4.163   1.262   6.783
 4514SOL    HW114441   4.089   1.311   6.830
 4514SOL    HW214442   4.124   1.189   6.728
 4515SOL     OW14443   0.064   1.883   6.110
 4515SOL    HW114444   0.111   1.969   6.088
 4515SOL    HW214445   6.986   1.901   6.129
 4516SOL     OW14446   1.841   0.330   0.088
 4516SOL    HW114447   1.792   0.389   0.152
 4516SOL    HW214448   1.898   0.386   0.028
 4517SOL     OW14449   3.839   0.755   6.565
 4517SOL    HW114450   3.825   0.781   6.661
 4517SOL    HW214451   3.841   0.655   6.558
 4518SOL     OW14452   6.984   0.398   2.807
 4518SOL    HW114453   6.891   0.388   2.771
 4518SOL    HW214454   0.013   0.309   2.803
 4519SOL     OW14455   6.403   0.890   1.240
 4519SOL    HW114456   6.364   0.967   1.189
 4519SOL    HW214457   6.332   0.823   1.259
 4520SOL     OW14458   4.449   6.518   4.747
 4520SOL    HW114459   4.373   6.477   4.797
 4520SOL    HW214460   4.419   6.603   4.703
 4521SOL     OW14461   6.203   1.977   4.374
 4521SOL    HW114462   6.282   1.945   4.321
 4521SOL    HW214463   6.124   1.985   4.314
 4522SOL     OW14464   6.541   6.608   3.324
 4522SOL    HW114465   6.483   6.631   3.402
 4522SOL    HW214466   6.491   6.549   3.261
 4523SOL     OW14467   0.742   4.282   0.512
 4523SOL    HW114468   0.759   4.293   0.610
 4523SOL    HW214469   0.644   4.295   0.493
 4524SOL     OW14470   5.944   2.286   3.672
 4524SOL    HW114471   5.980   2.209   3.619
 4524SOL    HW214472   6.015   2.357   3.681
 4525SOL     OW14473   4.992   1.300   4.100
 4525SOL    HW114474   4.903   1.259   4.122
 4525SOL    HW214475   5.051   1.298   4.181
 4526SOL     OW14476   6.559   0.465   1.198
 4526SOL    HW114477   6.586   0.561   1.199
 4526SOL    HW214478   6.459   0.458   1.208
 4527SOL     OW14479   5.241   0.903   3.601
 4527SOL    HW114480   5.172   0.954   3.652
 4527SOL    HW214481   5.202   0.868   3.516
 4528SOL     OW14482   4.739   0.525   0.074
 4528SOL    HW114483   4.807   0.502   0.005
 4528SOL    HW214484   4.716   0.442   0.126
 4529SOL     OW14485   3.074   0.951   5.632
 4529SOL    HW114486   3.154   0.911   5.676
 4529SOL    HW214487   3.060   0.909   5.543
 4530SOL     OW14488   1.761   4.020   6.380
 4530SOL    HW114489   1.757   3.947   6.448
 4530SOL    HW214490   1.751   3.981   6.289
 4531SOL     OW14491   0.241   3.571   4.731
 4531SOL    HW114492   0.314   3.517   4.773
 4531SOL    HW214493   0.196   3.627   4.802
 4532SOL     OW14494   5.928   1.888   3.466
 4532SOL    HW114495   5.836   1.904   3.432
 4532SOL    HW214496   5.928   1.890   3.566
 4533SOL     OW14497   1.509   1.252   2.109
 4533SOL    HW114498   1.523   1.345   2.144
 4533SOL    HW214499   1.411   1.238   2.091
 4534SOL     OW14500   4.826   4.056   4.430
 4534SOL    HW114501   4.846   4.154   4.426
 4534SOL    HW214502   4.728   4.042   4.442
 4535SOL     OW14503   4.656   1.171   2.500
 4535SOL    HW114504   4.616   1.082   2.520
 4535SOL    HW214505   4.695   1.171   2.408
 4536SOL     OW14506   4.298   1.055   3.757
 4536SOL    HW114507   4.243   1.056   3.674
 4536SOL    HW214508   4.387   1.097   3.739
 4537SOL     OW14509   3.909   3.339   6.275
 4537SOL    HW114510   3.819   3.351   6.317
 4537SOL    HW214511   3.920   3.245   6.245
 4538SOL     OW14512   1.993   0.251   4.307
 4538SOL    HW114513   2.050   0.239   4.226
 4538SOL    HW214514   1.908   0.199   4.296
 4539SOL     OW14515   2.297   0.276   5.023
 4539SOL    HW114516   2.257   0.256   4.933
 4539SOL    HW214517   2.396   0.281   5.015
 4540SOL     OW14518   3.480   2.462   5.745
 4540SOL    HW114519   3.506   2.487   5.651
 4540SOL    HW214520   3.404   2.399   5.742
 4541SOL     OW14521   6.064   1.831   1.113
 4541SOL    HW114522   6.158   1.833   1.077
 4541SOL    HW214523   6.034   1.925   1.129
 4542SOL     OW14524   0.231   1.330   2.718
 4542SOL    HW114525   0.203   1.287   2.804
 4542SOL    HW214526   0.194   1.278   2.641
 4543SOL     OW14527   4.937   2.127   1.427
 4543SOL    HW114528   5.018   2.081   1.463
 4543SOL    HW214529   4.894   2.181   1.500
 4544SOL     OW14530   2.968   6.368   6.096
 4544SOL    HW114531   2.883   6.326   6.128
 4544SOL    HW214532   2.956   6.467   6.089
 4545SOL     OW14533   5.302   3.515   4.798
 4545SOL    HW114534   5.319   3.480   4.706
 4545SOL    HW214535   5.370   3.586   4.820
 4546SOL     OW14536   1.564   1.367   6.176
 4546SOL    HW114537   1.501   1.431   6.132
 4546SOL    HW214538   1.546   1.362   6.274
 4547SOL     OW14539   5.687   2.425   3.117
 4547SOL    HW114540   5.719   2.486   3.189
 4547SOL    HW214541   5.763   2.406   3.054
 4548SOL     OW14542   0.994   4.346   4.395
 4548SOL    HW114543   0.956   4.263   4.352
 4548SOL    HW214544   1.091   4.332   4.412
 4549SOL     OW14545   6.493   4.424   1.802
 4549SOL    HW114546   6.565   4.475   1.849
 4549SOL    HW214547   6.517   4.414   1.706
 4550SOL     OW14548   1.382   5.773   3.078
 4550SOL    HW114549   1.380   5.861   3.124
 4550SOL    HW214550   1.346   5.783   2.985
 4551SOL     OW14551   0.132   1.740   5.824
 4551SOL    HW114552   0.141   1.704   5.917
 4551SOL    HW214553   0.036   1.760   5.805
 4552SOL     OW14554   6.261   2.867   0.926
 4552SOL    HW114555   6.230   2.961   0.909
 4552SOL    HW214556   6.352   2.869   0.967
 4553SOL     OW14557   3.605   4.943   6.732
 4553SOL    HW114558   3.565   4.928   6.641
 4553SOL    HW214559   3.553   4.892   6.800
 4554SOL     OW14560   5.626   0.675   1.059
 4554SOL    HW114561   5.643   0.687   0.961
 4554SOL    HW214562   5.704   0.711   1.110
 4555SOL     OW14563   2.962   1.478   5.920
 4555SOL    HW114564   2.911   1.543   5.976
 4555SOL    HW214565   2.981   1.518   5.830
 4556SOL     OW14566   4.877   2.622   4.048
 4556SOL    HW114567   4.890   2.721   4.054
 4556SOL    HW214568   4.913   2.579   4.130
 4557SOL     OW14569   4.767   6.425   5.599
 4557SOL    HW114570   4.795   6.471   5.514
 4557SOL    HW214571   4.691   6.363   5.580
 4558SOL     OW14572   0.660   4.303   4.743
 4558SOL    HW114573   0.588   4.305   4.674
 4558SOL    HW214574   0.720   4.382   4.732
 4559SOL     OW14575   0.009   3.989   2.036
 4559SOL    HW114576   6.978   4.066   1.995
 4559SOL    HW214577   6.962   3.915   2.057
 4560SOL     OW14578   5.230   4.692   1.965
 4560SOL    HW114579   5.193   4.778   1.929
 4560SOL    HW214580   5.155   4.634   1.996
 4561SOL     OW14581   2.507   1.616   2.116
 4561SOL    HW114582   2.530   1.608   2.019
 4561SOL    HW214583   2.587   1.592   2.171
 4562SOL     OW14584   3.141   6.191   4.804
 4562SOL    HW114585   3.043   6.170   4.801
 4562SOL    HW214586   3.177   6.170   4.895
 4563SOL     OW14587   0.285   3.125   1.124
 4563SOL    HW114588   0.285   3.025   1.124
 4563SOL    HW214589   0.317   3.159   1.213
 4564SOL     OW14590   6.790   6.568   1.123
 4564SOL    HW114591   6.846   6.610   1.052
 4564SOL    HW214592   6.824   6.594   1.213
 4565SOL     OW14593   0.529   1.222   5.388
 4565SOL    HW114594   0.616   1.267   5.410
 4565SOL    HW214595   0.530   1.192   5.293
 4566SOL     OW14596   6.776   2.389   1.067
 4566SOL    HW114597   6.784   2.298   1.108
 4566SOL    HW214598   6.680   2.408   1.046
 4567SOL     OW14599   6.431   0.605   6.962
 4567SOL    HW114600   6.383   0.690   6.939
 4567SOL    HW214601   6.518   0.627   7.005
 4568SOL     OW14602   2.144   4.051   5.747
 4568SOL    HW114603   2.071   3.984   5.739
 4568SOL    HW214604   2.232   4.007   5.728
 4569SOL     OW14605   1.777   1.789   3.408
 4569SOL    HW114606   1.721   1.765   3.487
 4569SOL    HW214607   1.871   1.760   3.425
 4570SOL     OW14608   0.675   6.665   3.549
 4570SOL    HW114609   0.632   6.755   3.564
 4570SOL    HW214610   0.648   6.603   3.623
 4571SOL     OW14611   3.969   3.870   6.001
 4571SOL    HW114612   3.913   3.788   6.007
 4571SOL    HW214613   3.993   3.888   5.905
 4572SOL     OW14614   1.402   6.695   6.701
 4572SOL    HW114615   1.425   6.673   6.607
 4572SOL    HW214616   1.485   6.694   6.757
 4573SOL     OW14617   6.178   6.855   0.749
 4573SOL    HW114618   6.211   6.779   0.693
 4573SOL    HW214619   6.184   6.830   0.846
 4574SOL     OW14620   6.262   3.632   0.734
 4574SOL    HW114621   6.171   3.611   0.769
 4574SOL    HW214622   6.328   3.632   0.809
 4575SOL     OW14623   5.810   1.892   6.193
 4575SOL    HW114624   5.736   1.954   6.220
 4575SOL    HW214625   5.823   1.822   6.264
 4576SOL     OW14626   2.467   6.457   5.993
 4576SOL    HW114627   2.470   6.431   6.090
 4576SOL    HW214628   2.559   6.480   5.961
 4577SOL     OW14629   0.854   2.265   4.456
 4577SOL    HW114630   0.852   2.289   4.553
 4577SOL    HW214631   0.941   2.295   4.416
 4578SOL     OW14632   0.748   3.371   4.774
 4578SOL    HW114633   0.765   3.429   4.854
 4578SOL    HW214634   0.835   3.336   4.739
 4579SOL     OW14635   4.637   1.576   3.279
 4579SOL    HW114636   4.609   1.509   3.211
 4579SOL    HW214637   4.736   1.590   3.274
 4580SOL     OW14638   5.177   4.910   0.260
 4580SOL    HW114639   5.125   4.891   0.343
 4580SOL    HW214640   5.228   4.995   0.271
 4581SOL     OW14641   2.616   4.567   3.103
 4581SOL    HW114642   2.539   4.504   3.114
 4581SOL    HW214643   2.609   4.614   3.015
 4582SOL     OW14644   5.798   6.635   4.856
 4582SOL    HW114645   5.792   6.578   4.774
 4582SOL    HW214646   5.861   6.711   4.840
 4583SOL     OW14647   2.423   2.123   5.841
 4583SOL    HW114648   2.478   2.185   5.896
 4583SOL    HW214649   2.363   2.176   5.781
 4584SOL     OW14650   0.180   5.266   6.162
 4584SOL    HW114651   0.212   5.340   6.102
 4584SOL    HW214652   0.128   5.200   6.108
 4585SOL     OW14653   2.627   6.617   2.786
 4585SOL    HW114654   2.600   6.568   2.703
 4585SOL    HW214655   2.655   6.710   2.762
 4586SOL     OW14656   3.433   5.365   0.843
 4586SOL    HW114657   3.487   5.325   0.917
 4586SOL    HW214658   3.393   5.451   0.875
 4587SOL     OW14659   3.698   3.812   2.388
 4587SOL    HW114660   3.607   3.772   2.391
 4587SOL    HW214661   3.703   3.888   2.453
 4588SOL     OW14662   3.561   4.053   5.381
 4588SOL    HW114663   3.479   4.102   5.412
 4588SOL    HW214664   3.595   4.095   5.297
 4589SOL     OW14665   6.232   0.884   2.393
 4589SOL    HW114666   6.283   0.961   2.431
 4589SOL    HW214667   6.291   0.803   2.391
 4590SOL     OW14668   5.194   5.751   0.635
 4590SOL    HW114669   5.268   5.819   0.636
 4590SOL    HW214670   5.220   5.675   0.576
 4591SOL     OW14671   0.559   5.946   4.598
 4591SOL    HW114672   0.628   6.018   4.603
 4591SOL    HW214673   0.573   5.892   4.515
 4592SOL     OW14674   3.139   1.816   1.699
 4592SOL    HW114675   3.137   1.860   1.789
 4592SOL    HW214676   3.147   1.886   1.628
 4593SOL     OW14677   4.782   5.487   3.522
 4593SOL    HW114678   4.688   5.478   3.554
 4593SOL    HW214679   4.795   5.430   3.440
 4594SOL     OW14680   2.923   1.284   2.476
 4594SOL    HW114681   2.851   1.320   2.416
 4594SOL    HW214682   2.894   1.196   2.513
 4595SOL     OW14683   4.203   2.638   6.452
 4595SOL    HW114684   4.173   2.569   6.387
 4595SOL    HW214685   4.299   2.623   6.476
 4596SOL     OW14686   5.960   6.947   2.057
 4596SOL    HW114687   5.863   6.932   2.036
 4596SOL    HW214688   5.983   6.903   2.143
 4597SOL     OW14689   4.216   4.940   6.244
 4597SOL    HW114690   4.279   4.863   6.239
 4597SOL    HW214691   4.218   4.979   6.336
 4598SOL     OW14692   2.246   6.258   6.612
 4598SOL    HW114693   2.170   6.230   6.554
 4598SOL    HW214694   2.211   6.280   6.704
 4599SOL     OW14695   0.471   5.885   1.015
 4599SOL    HW114696   0.536   5.843   1.078
 4599SOL    HW214697   0.470   5.835   0.929
 4600SOL     OW14698   1.329   4.474   5.262
 4600SOL    HW114699   1.249   4.486   5.321
 4600SOL    HW214700   1.356   4.378   5.264
 4601SOL     OW14701   1.964   0.397   4.936
 4601SOL    HW114702   2.020   0.327   4.892
 4601SOL    HW214703   1.868   0.372   4.931
 4602SOL     OW14704   1.342   5.937   1.273
 4602SOL    HW114705   1.431   5.902   1.303
 4602SOL    HW214706   1.343   6.037   1.277
 4603SOL     OW14707   2.943   6.704   0.589
 4603SOL    HW114708   2.907   6.683   0.498
 4603SOL    HW214709   2.877   6.674   0.658
 4604SOL     OW14710   4.703   0.422   0.972
 4604SOL    HW114711   4.749   0.335   0.989
 4604SOL    HW214712   4.664   0.422   0.880
 4605SOL     OW14713   3.328   0.428   3.221
 4605SOL    HW114714   3.234   0.399   3.202
 4605SOL    HW214715   3.330   0.482   3.304
 4606SOL     OW14716   1.303   7.009   1.697
 4606SOL    HW114717   1.208   6.977   1.690
 4606SOL    HW214718   1.313   0.048   1.779
 4607SOL     OW14719   2.192   2.529   1.564
 4607SOL    HW114720   2.167   2.556   1.657
 4607SOL    HW214721   2.280   2.572   1.539
 4608SOL     OW14722   1.025   6.092   3.595
 4608SOL    HW114723   1.003   6.189   3.583
 4608SOL    HW214724   1.060   6.054   3.509
 4609SOL     OW14725   4.374   5.039   6.832
 4609SOL    HW114726   4.406   5.050   6.738
 4609SOL    HW214727   4.306   5.108   6.854
 4610SOL     OW14728   5.230   2.910   0.752
 4610SOL    HW114729   5.205   2.890   0.658
 4610SOL    HW214730   5.270   3.001   0.758
 4611SOL     OW14731   0.171   6.023   5.779
 4611SOL    HW114732   0.153   6.049   5.874
 4611SOL    HW214733   0.168   6.105   5.721
 4612SOL     OW14734   1.313   5.934   0.125
 4612SOL    HW114735   1.376   6.000   0.167
 4612SOL    HW214736   1.361   5.847   0.113
 4613SOL     OW14737   2.600   6.383   1.987
 4613SOL    HW114738   2.632   6.445   2.059
 4613SOL    HW214739   2.596   6.290   2.022
 4614SOL     OW14740   6.710   3.189   4.935
 4614SOL    HW114741   6.624   3.218   4.893
 4614SOL    HW214742   6.703   3.094   4.965
 4615SOL     OW14743   2.038   0.124   0.102
 4615SOL    HW114744   2.095   0.104   0.022
 4615SOL    HW214745   1.976   0.200   0.080
 4616SOL     OW14746   6.626   0.257   5.246
 4616SOL    HW114747   6.702   0.284   5.187
 4616SOL    HW214748   6.625   0.315   5.327
 4617SOL     OW14749   0.730   2.694   2.406
 4617SOL    HW114750   0.822   2.655   2.403
 4617SOL    HW214751   0.733   2.789   2.375
 4618SOL     OW14752   2.124   3.018   5.212
 4618SOL    HW114753   2.189   3.048   5.142
 4618SOL    HW214754   2.084   2.931   5.186
 4619SOL     OW14755   3.248   6.417   3.459
 4619SOL    HW114756   3.291   6.330   3.484
 4619SOL    HW214757   3.149   6.410   3.470
 4620SOL     OW14758   2.108   4.748   0.388
 4620SOL    HW114759   2.031   4.736   0.451
 4620SOL    HW214760   2.075   4.791   0.304
 4621SOL     OW14761   5.592   1.360   2.170
 4621SOL    HW114762   5.677   1.380   2.120
 4621SOL    HW214763   5.530   1.438   2.160
 4622SOL     OW14764   2.253   4.832   0.626
 4622SOL    HW114765   2.211   4.790   0.546
 4622SOL    HW214766   2.349   4.854   0.604
 4623SOL     OW14767   5.612   6.728   0.186
 4623SOL    HW114768   5.529   6.779   0.161
 4623SOL    HW214769   5.647   6.680   0.106
 4624SOL     OW14770   5.187   6.415   3.400
 4624SOL    HW114771   5.206   6.509   3.429
 4624SOL    HW214772   5.272   6.369   3.376
 4625SOL     OW14773   2.119   3.682   1.101
 4625SOL    HW114774   2.076   3.689   1.011
 4625SOL    HW214775   2.199   3.743   1.104
 4626SOL     OW14776   5.112   5.014   2.146
 4626SOL    HW114777   5.086   5.110   2.143
 4626SOL    HW214778   5.030   4.957   2.139
 4627SOL     OW14779   2.650   4.634   4.497
 4627SOL    HW114780   2.580   4.633   4.569
 4627SOL    HW214781   2.663   4.541   4.462
 4628SOL     OW14782   6.175   4.712   4.043
 4628SOL    HW114783   6.225   4.798   4.035
 4628SOL    HW214784   6.114   4.715   4.121
 4629SOL     OW14785   1.955   5.197   5.549
 4629SOL    HW114786   1.933   5.293   5.529
 4629SOL    HW214787   1.899   5.137   5.492
 4630SOL     OW14788   3.159   5.269   2.223
 4630SOL    HW114789   3.243   5.303   2.265
 4630SOL    HW214790   3.082   5.285   2.285
 4631SOL     OW14791   2.141   6.269   2.530
 4631SOL    HW114792   2.221   6.281   2.590
 4631SOL    HW214793   2.068   6.224   2.581
 4632SOL     OW14794   3.892   5.001   2.667
 4632SOL    HW114795   3.820   5.065   2.693
 4632SOL    HW214796   3.931   5.029   2.579
 4633SOL     OW14797   5.109   0.270   4.647
 4633SOL    HW114798   5.155   0.199   4.699
 4633SOL    HW214799   5.029   0.232   4.601
 4634SOL     OW14800   2.699   5.022   6.227
 4634SOL    HW114801   2.787   5.056   6.194
 4634SOL    HW214802   2.707   4.924   6.248
 4635SOL     OW14803   5.254   3.968   1.321
 4635SOL    HW114804   5.311   3.948   1.400
 4635SOL    HW214805   5.158   3.948   1.343
 4636SOL     OW14806   1.700   4.783   0.195
 4636SOL    HW114807   1.611   4.746   0.168
 4636SOL    HW214808   1.692   4.825   0.285
 4637SOL     OW14809   1.396   6.916   0.746
 4637SOL    HW114810   1.317   6.976   0.733
 4637SOL    HW214811   1.376   6.827   0.704
 4638SOL     OW14812   5.123   3.810   6.511
 4638SOL    HW114813   5.192   3.826   6.582
 4638SOL    HW214814   5.035   3.791   6.555
 4639SOL     OW14815   2.964   4.573   6.019
 4639SOL    HW114816   2.925   4.517   5.946
 4639SOL    HW214817   3.055   4.540   6.042
 4640SOL     OW14818   4.826   3.913   3.583
 4640SOL    HW114819   4.806   3.904   3.486
 4640SOL    HW214820   4.853   3.825   3.621
 4641SOL     OW14821   2.174   0.012   5.232
 4641SOL    HW114822   2.166   0.014   5.332
 4641SOL    HW214823   2.127   0.092   5.194
 4642SOL     OW14824   0.173   5.547   3.887
 4642SOL    HW114825   0.257   5.499   3.913
 4642SOL    HW214826   0.140   5.600   3.965
 4643SOL     OW14827   5.640   2.997   1.411
 4643SOL    HW114828   5.738   3.015   1.422
 4643SOL    HW214829   5.609   2.935   1.484
 4644SOL     OW14830   0.049   4.858   5.025
 4644SOL    HW114831   0.139   4.830   5.056
 4644SOL    HW214832   6.997   4.826   5.090
 4645SOL     OW14833   0.731   0.480   4.625
 4645SOL    HW114834   0.779   0.409   4.574
 4645SOL    HW214835   0.764   0.570   4.596
 4646SOL     OW14836   1.966   6.024   3.438
 4646SOL    HW114837   2.016   5.943   3.469
 4646SOL    HW214838   2.020   6.106   3.458
 4647SOL     OW14839   1.625   0.939   3.256
 4647SOL    HW114840   1.712   0.919   3.211
 4647SOL    HW214841   1.618   0.888   3.341
 4648SOL     OW14842   4.035   0.967   2.222
 4648SOL    HW114843   4.118   0.975   2.279
 4648SOL    HW214844   4.057   0.990   2.128
 4649SOL     OW14845   5.254   0.138   6.803
 4649SOL    HW114846   5.263   0.148   6.902
 4649SOL    HW214847   5.336   0.175   6.758
 4650SOL     OW14848   4.609   5.544   2.963
 4650SOL    HW114849   4.674   5.469   2.972
 4650SOL    HW214850   4.534   5.532   3.027
 4651SOL     OW14851   6.894   2.536   0.675
 4651SOL    HW114852   6.867   2.628   0.702
 4651SOL    HW214853   6.836   2.505   0.599
 4652SOL     OW14854   6.698   0.107   4.191
 4652SOL    HW114855   6.774   0.171   4.182
 4652SOL    HW214856   6.614   0.150   4.158
 4653SOL     OW14857   5.821   4.617   0.354
 4653SOL    HW114858   5.846   4.534   0.303
 4653SOL    HW214859   5.807   4.692   0.290
 4654SOL     OW14860   1.298   6.506   0.076
 4654SOL    HW114861   1.234   6.503   7.017
 4654SOL    HW214862   1.370   6.572   0.057
 4655SOL     OW14863   5.403   4.325   1.667
 4655SOL    HW114864   5.419   4.394   1.737
 4655SOL    HW214865   5.428   4.235   1.702
 4656SOL     OW14866   1.245   0.734   3.109
 4656SOL    HW114867   1.311   0.661   3.130
 4656SOL    HW214868   1.156   0.710   3.146
 4657SOL     OW14869   4.899   6.257   1.414
 4657SOL    HW114870   4.835   6.181   1.407
 4657SOL    HW214871   4.991   6.227   1.387
 4658SOL     OW14872   3.760   1.229   3.108
 4658SOL    HW114873   3.692   1.230   3.034
 4658SOL    HW214874   3.714   1.216   3.195
 4659SOL     OW14875   2.967   4.807   5.218
 4659SOL    HW114876   2.880   4.851   5.195
 4659SOL    HW214877   2.964   4.711   5.193
 4660SOL     OW14878   1.198   4.092   6.162
 4660SOL    HW114879   1.248   4.179   6.172
 4660SOL    HW214880   1.103   4.112   6.139
 4661SOL     OW14881   3.099   4.210   5.756
 4661SOL    HW114882   3.006   4.173   5.762
 4661SOL    HW214883   3.100   4.288   5.694
 4662SOL     OW14884   3.305   0.435   5.605
 4662SOL    HW114885   3.263   0.376   5.675
 4662SOL    HW214886   3.288   0.396   5.514
 4663SOL     OW14887   0.298   2.224   2.581
 4663SOL    HW114888   0.322   2.144   2.527
 4663SOL    HW214889   0.356   2.301   2.553
 4664SOL     OW14890   1.308   1.481   0.931
 4664SOL    HW114891   1.243   1.411   0.901
 4664SOL    HW214892   1.373   1.441   0.996
 4665SOL     OW14893   3.361   6.741   6.914
 4665SOL    HW114894   3.446   6.737   6.862
 4665SOL    HW214895   3.373   6.802   6.993
 4666SOL     OW14896   1.452   2.086   0.685
 4666SOL    HW114897   1.371   2.099   0.628
 4666SOL    HW214898   1.424   2.059   0.777
 4667SOL     OW14899   5.930   3.690   2.739
 4667SOL    HW114900   5.945   3.616   2.675
 4667SOL    HW214901   5.980   3.673   2.823
 4668SOL     OW14902   4.493   1.798   2.354
 4668SOL    HW114903   4.393   1.805   2.360
 4668SOL    HW214904   4.521   1.704   2.374
 4669SOL     OW14905   5.094   5.861   6.476
 4669SOL    HW114906   5.067   5.882   6.383
 4669SOL    HW214907   5.083   5.942   6.534
 4670SOL     OW14908   3.037   2.220   5.363
 4670SOL    HW114909   3.069   2.290   5.300
 4670SOL    HW214910   3.110   2.198   5.428
 4671SOL     OW14911   6.806   2.842   1.798
 4671SOL    HW114912   6.833   2.910   1.729
 4671SOL    HW214913   6.816   2.750   1.759
 4672SOL     OW14914   3.079   4.828   6.293
 4672SOL    HW114915   3.064   4.883   6.211
 4672SOL    HW214916   3.028   4.866   6.369
 4673SOL     OW14917   5.165   0.283   1.544
 4673SOL    HW114918   5.211   0.195   1.552
 4673SOL    HW214919   5.070   0.274   1.576
 4674SOL     OW14920   5.301   6.835   6.209
 4674SOL    HW114921   5.378   6.781   6.178
 4674SOL    HW214922   5.289   6.915   6.149
 4675SOL     OW14923   1.245   1.818   6.010
 4675SOL    HW114924   1.184   1.793   5.935
 4675SOL    HW214925   1.339   1.824   5.975
 4676SOL     OW14926   0.694   6.428   3.416
 4676SOL    HW114927   0.685   6.524   3.442
 4676SOL    HW214928   0.603   6.388   3.405
 4677SOL     OW14929   2.686   1.391   6.527
 4677SOL    HW114930   2.746   1.412   6.604
 4677SOL    HW214931   2.691   1.293   6.508
 4678SOL     OW14932   1.525   4.616   3.125
 4678SOL    HW114933   1.574   4.610   3.212
 4678SOL    HW214934   1.507   4.712   3.103
 4679SOL     OW14935   4.044   0.306   0.517
 4679SOL    HW114936   4.031   0.326   0.614
 4679SOL    HW214937   4.004   0.216   0.497
 4680SOL     OW14938   3.099   1.667   0.029
 4680SOL    HW114939   3.064   1.734   6.981
 4680SOL    HW214940   3.051   1.678   0.117
 4681SOL     OW14941   5.403   5.438   6.735
 4681SOL    HW114942   5.409   5.537   6.724
 4681SOL    HW214943   5.446   5.393   6.656
 4682SOL     OW14944   4.925   4.070   5.410
 4682SOL    HW114945   4.978   3.993   5.373
 4682SOL    HW214946   4.953   4.154   5.364
 4683SOL     OW14947   4.475   4.668   2.126
 4683SOL    HW114948   4.484   4.738   2.056
 4683SOL    HW214949   4.427   4.705   2.205
 4684SOL     OW14950   5.671   0.763   5.087
 4684SOL    HW114951   5.747   0.720   5.038
 4684SOL    HW214952   5.633   0.697   5.152
 4685SOL     OW14953   1.048   5.738   5.754
 4685SOL    HW114954   1.067   5.757   5.850
 4685SOL    HW214955   0.996   5.652   5.747
 4686SOL     OW14956   3.966   4.908   0.629
 4686SOL    HW114957   4.006   4.848   0.559
 4686SOL    HW214958   3.999   4.880   0.719
 4687SOL     OW14959   6.045   3.391   4.331
 4687SOL    HW114960   6.136   3.406   4.294
 4687SOL    HW214961   6.040   3.302   4.375
 4688SOL     OW14962   5.752   4.240   4.787
 4688SOL    HW114963   5.777   4.144   4.786
 4688SOL    HW214964   5.652   4.248   4.791
 4689SOL     OW14965   4.801   0.979   6.975
 4689SOL    HW114966   4.769   0.989   6.881
 4689SOL    HW214967   4.879   0.916   6.977
 4690SOL     OW14968   1.316   0.903   0.220
 4690SOL    HW114969   1.299   0.957   0.303
 4690SOL    HW214970   1.405   0.859   0.226
 4691SOL     OW14971   2.701   4.733   1.562
 4691SOL    HW114972   2.776   4.703   1.503
 4691SOL    HW214973   2.656   4.812   1.521
 4692SOL     OW14974   5.762   5.890   1.731
 4692SOL    HW114975   5.858   5.919   1.740
 4692SOL    HW214976   5.735   5.893   1.634
 4693SOL     OW14977   0.770   2.276   3.737
 4693SOL    HW114978   0.746   2.194   3.686
 4693SOL    HW214979   0.802   2.251   3.829
 4694SOL     OW14980   2.223   1.179   0.107
 4694SOL    HW114981   2.308   1.161   0.058
 4694SOL    HW214982   2.148   1.191   0.041
 4695SOL     OW14983   0.822   3.480   2.462
 4695SOL    HW114984   0.791   3.404   2.404
 4695SOL    HW214985   0.914   3.460   2.496
 4696SOL     OW14986   0.057   4.132   0.186
 4696SOL    HW114987   0.119   4.062   0.151
 4696SOL    HW214988   0.108   4.193   0.247
 4697SOL     OW14989   1.810   3.175   0.760
 4697SOL    HW114990   1.722   3.222   0.754
 4697SOL    HW214991   1.857   3.202   0.845
 4698SOL     OW14992   4.516   5.121   2.527
 4698SOL    HW114993   4.421   5.092   2.529
 4698SOL    HW214994   4.558   5.105   2.616
 4699SOL     OW14995   1.337   6.735   2.356
 4699SOL    HW114996   1.283   6.773   2.432
 4699SOL    HW214997   1.339   6.800   2.280
 4700SOL     OW14998   0.168   1.178   3.178
 4700SOL    HW114999   0.119   1.258   3.215
 4700SOL    HW215000   0.258   1.171   3.221
 4701SOL     OW15001   2.401   2.522   0.653
 4701SOL    HW115002   2.395   2.613   0.696
 4701SOL    HW215003   2.382   2.530   0.555
 4702SOL     OW15004   4.866   4.953   0.001
 4702SOL    HW115005   4.827   4.955   0.093
 4702SOL    HW215006   4.935   4.882   7.013
 4703SOL     OW15007   0.290   1.649   2.190
 4703SOL    HW115008   0.364   1.599   2.233
 4703SOL    HW215009   0.232   1.586   2.138
 4704SOL     OW15010   0.648   6.279   0.232
 4704SOL    HW115011   0.611   6.359   0.185
 4704SOL    HW215012   0.744   6.267   0.207
 4705SOL     OW15013   3.609   2.813   1.810
 4705SOL    HW115014   3.581   2.804   1.906
 4705SOL    HW215015   3.629   2.723   1.772
 4706SOL     OW15016   3.191   0.399   0.443
 4706SOL    HW115017   3.098   0.387   0.476
 4706SOL    HW215018   3.195   0.481   0.385
 4707SOL     OW15019   1.517   6.715   0.937
 4707SOL    HW115020   1.505   6.780   0.862
 4707SOL    HW215021   1.560   6.631   0.902
 4708SOL     OW15022   1.243   2.197   6.499
 4708SOL    HW115023   1.295   2.112   6.489
 4708SOL    HW215024   1.303   2.269   6.535
 4709SOL     OW15025   4.694   5.658   5.570
 4709SOL    HW115026   4.690   5.725   5.495
 4709SOL    HW215027   4.604   5.653   5.614
 4710SOL     OW15028   4.934   6.881   5.505
 4710SOL    HW115029   4.985   6.966   5.517
 4710SOL    HW215030   4.840   6.893   5.539
 4711SOL     OW15031   6.096   1.305   1.592
 4711SOL    HW115032   6.052   1.225   1.632
 4711SOL    HW215033   6.131   1.364   1.665
 4712SOL     OW15034   2.875   4.535   0.176
 4712SOL    HW115035   2.804   4.530   0.105
 4712SOL    HW215036   2.898   4.631   0.193
 4713SOL     OW15037   3.906   4.049   1.090
 4713SOL    HW115038   3.983   4.005   1.137
 4713SOL    HW215039   3.852   3.980   1.042
 4714SOL     OW15040   0.429   2.060   6.164
 4714SOL    HW115041   0.492   2.072   6.087
 4714SOL    HW215042   0.476   2.014   6.239
 4715SOL     OW15043   6.023   2.750   2.371
 4715SOL    HW115044   6.030   2.820   2.442
 4715SOL    HW215045   5.948   2.687   2.394
 4716SOL     OW15046   4.212   6.219   6.539
 4716SOL    HW115047   4.132   6.189   6.488
 4716SOL    HW215048   4.294   6.205   6.484
 4717SOL     OW15049   6.737   6.984   3.922
 4717SOL    HW115050   6.711   6.989   4.019
 4717SOL    HW215051   6.695   6.903   3.881
 4718SOL     OW15052   5.243   2.012   1.823
 4718SOL    HW115053   5.316   2.078   1.843
 4718SOL    HW215054   5.238   1.945   1.897
 4719SOL     OW15055   4.728   3.001   1.642
 4719SOL    HW115056   4.693   2.999   1.735
 4719SOL    HW215057   4.652   3.008   1.578
 4720SOL     OW15058   2.242   5.687   5.936
 4720SOL    HW115059   2.267   5.613   5.998
 4720SOL    HW215060   2.211   5.766   5.990
 4721SOL     OW15061   6.396   2.334   2.216
 4721SOL    HW115062   6.355   2.367   2.301
 4721SOL    HW215063   6.359   2.386   2.139
 4722SOL     OW15064   0.821   6.119   6.606
 4722SOL    HW115065   0.769   6.158   6.682
 4722SOL    HW215066   0.870   6.038   6.638
 4723SOL     OW15067   2.887   3.536   6.145
 4723SOL    HW115068   2.960   3.579   6.199
 4723SOL    HW215069   2.818   3.500   6.207
 4724SOL     OW15070   6.294   6.737   3.126
 4724SOL    HW115071   6.311   6.646   3.163
 4724SOL    HW215072   6.196   6.747   3.104
 4725SOL     OW15073   6.523   4.989   1.506
 4725SOL    HW115074   6.452   4.942   1.453
 4725SOL    HW215075   6.484   5.022   1.592
 4726SOL     OW15076   1.096   3.110   6.149
 4726SOL    HW115077   1.098   3.208   6.134
 4726SOL    HW215078   1.072   3.092   6.245
 4727SOL     OW15079   1.015   6.052   1.088
 4727SOL    HW115080   1.040   5.969   1.138
 4727SOL    HW215081   1.037   6.041   0.992
 4728SOL     OW15082   5.997   0.843   1.727
 4728SOL    HW115083   5.966   0.869   1.818
 4728SOL    HW215084   5.991   0.922   1.666
 4729SOL     OW15085   3.822   1.622   0.443
 4729SOL    HW115086   3.748   1.562   0.473
 4729SOL    HW215087   3.809   1.645   0.346
 4730SOL     OW15088   3.291   5.805   5.730
 4730SOL    HW115089   3.229   5.796   5.652
 4730SOL    HW215090   3.384   5.782   5.702
 4731SOL     OW15091   3.905   0.652   0.008
 4731SOL    HW115092   3.938   0.721   6.961
 4731SOL    HW215093   3.921   0.683   0.101
 4732SOL     OW15094   1.186   3.878   5.491
 4732SOL    HW115095   1.217   3.892   5.585
 4732SOL    HW215096   1.153   3.965   5.454
 4733SOL     OW15097   1.282   3.967   3.881
 4733SOL    HW115098   1.227   3.910   3.943
 4733SOL    HW215099   1.371   3.925   3.867
 4734SOL     OW15100   3.808   2.813   6.669
 4734SOL    HW115101   3.907   2.808   6.655
 4734SOL    HW215102   3.788   2.803   6.766
 4735SOL     OW15103   5.961   5.505   3.899
 4735SOL    HW115104   6.051   5.473   3.929
 4735SOL    HW215105   5.890   5.448   3.940
 4736SOL     OW15106   6.332   1.950   5.397
 4736SOL    HW115107   6.428   1.923   5.387
 4736SOL    HW215108   6.326   2.050   5.392
 4737SOL     OW15109   2.537   4.648   1.893
 4737SOL    HW115110   2.541   4.631   1.794
 4737SOL    HW215111   2.625   4.622   1.934
 4738SOL     OW15112   0.788   6.315   2.975
 4738SOL    HW115113   0.769   6.235   2.919
 4738SOL    HW215114   0.831   6.287   3.061
 4739SOL     OW15115   4.337   0.922   2.865
 4739SOL    HW115116   4.240   0.946   2.857
 4739SOL    HW215117   4.392   0.995   2.825
 4740SOL     OW15118   0.927   1.443   1.523
 4740SOL    HW115119   1.004   1.400   1.476
 4740SOL    HW215120   0.960   1.490   1.604
 4741SOL     OW15121   5.041   3.444   0.370
 4741SOL    HW115122   5.079   3.536   0.374
 4741SOL    HW215123   5.002   3.428   0.279
 4742SOL     OW15124   3.346   6.876   6.381
 4742SOL    HW115125   3.369   6.808   6.451
 4742SOL    HW215126   3.249   6.898   6.387
 4743SOL     OW15127   1.923   3.393   4.222
 4743SOL    HW115128   1.836   3.358   4.256
 4743SOL    HW215129   1.931   3.490   4.245
 4744SOL     OW15130   1.929   4.293   0.364
 4744SOL    HW115131   2.007   4.231   0.354
 4744SOL    HW215132   1.925   4.325   0.459
 4745SOL     OW15133   3.178   5.256   0.064
 4745SOL    HW115134   3.260   5.217   0.106
 4745SOL    HW215135   3.109   5.274   0.135
 4746SOL     OW15136   5.302   5.916   2.041
 4746SOL    HW115137   5.211   5.882   2.062
 4746SOL    HW215138   5.295   5.994   1.978
 4747SOL     OW15139   1.896   3.904   6.834
 4747SOL    HW115140   1.796   3.898   6.836
 4747SOL    HW215141   1.935   3.821   6.875
 4748SOL     OW15142   1.321   5.030   0.815
 4748SOL    HW115143   1.258   5.106   0.799
 4748SOL    HW215144   1.412   5.056   0.783
 4749SOL     OW15145   2.538   5.893   5.833
 4749SOL    HW115146   2.592   5.839   5.768
 4749SOL    HW215147   2.518   5.839   5.914
 4750SOL     OW15148   0.171   4.259   3.965
 4750SOL    HW115149   0.119   4.219   3.889
 4750SOL    HW215150   0.214   4.185   4.017
 4751SOL     OW15151   4.093   1.731   1.802
 4751SOL    HW115152   4.058   1.822   1.779
 4751SOL    HW215153   4.027   1.685   1.861
 4752SOL     OW15154   3.807   0.530   6.087
 4752SOL    HW115155   3.858   0.561   6.167
 4752SOL    HW215156   3.818   0.596   6.012
 4753SOL     OW15157   5.465   0.125   4.249
 4753SOL    HW115158   5.443   0.029   4.228
 4753SOL    HW215159   5.474   0.136   4.348
 4754SOL     OW15160   5.892   6.284   5.338
 4754SOL    HW115161   5.904   6.275   5.239
 4754SOL    HW215162   5.804   6.244   5.364
 4755SOL     OW15163   2.038   0.822   0.888
 4755SOL    HW115164   2.092   0.901   0.860
 4755SOL    HW215165   2.098   0.751   0.924
 4756SOL     OW15166   5.697   2.527   0.245
 4756SOL    HW115167   5.757   2.499   0.320
 4756SOL    HW215168   5.717   2.622   0.220
 4757SOL     OW15169   2.457   1.782   0.834
 4757SOL    HW115170   2.373   1.792   0.887
 4757SOL    HW215171   2.533   1.762   0.896
 4758SOL     OW15172   2.083   6.235   4.076
 4758SOL    HW115173   2.102   6.223   4.174
 4758SOL    HW215174   2.088   6.147   4.030
 4759SOL     OW15175   6.079   4.799   5.439
 4759SOL    HW115176   5.989   4.777   5.477
 4759SOL    HW215177   6.092   4.747   5.354
 4760SOL     OW15178   1.910   1.873   0.744
 4760SOL    HW115179   1.885   1.855   0.839
 4760SOL    HW215180   1.856   1.950   0.709
 4761SOL     OW15181   0.869   6.593   0.019
 4761SOL    HW115182   0.893   6.538   0.099
 4761SOL    HW215183   0.825   6.678   0.048
 4762SOL     OW15184   0.582   5.761   2.304
 4762SOL    HW115185   0.497   5.736   2.350
 4762SOL    HW215186   0.591   5.709   2.219
 4763SOL     OW15187   6.514   6.790   2.936
 4763SOL    HW115188   6.445   6.746   2.994
 4763SOL    HW215189   6.541   6.728   2.863
 4764SOL     OW15190   4.900   3.638   4.480
 4764SOL    HW115191   4.902   3.602   4.573
 4764SOL    HW215192   4.897   3.738   4.483
 4765SOL     OW15193   4.921   0.805   3.868
 4765SOL    HW115194   5.008   0.797   3.915
 4765SOL    HW215195   4.924   0.882   3.804
 4766SOL     OW15196   4.991   6.026   4.026
 4766SOL    HW115197   4.985   6.056   4.121
 4766SOL    HW215198   5.084   6.043   3.992
 4767SOL     OW15199   3.284   5.350   5.721
 4767SOL    HW115200   3.246   5.416   5.785
 4767SOL    HW215201   3.219   5.275   5.708
 4768SOL     OW15202   4.190   2.131   6.156
 4768SOL    HW115203   4.139   2.148   6.072
 4768SOL    HW215204   4.277   2.181   6.153
 4769SOL     OW15205   4.949   4.139   6.669
 4769SOL    HW115206   4.961   4.075   6.744
 4769SOL    HW215207   4.871   4.111   6.612
 4770SOL     OW15208   0.334   0.958   4.385
 4770SOL    HW115209   0.264   0.890   4.364
 4770SOL    HW215210   0.362   1.005   4.301
 4771SOL     OW15211   2.878   5.957   5.072
 4771SOL    HW115212   2.924   6.025   5.015
 4771SOL    HW215213   2.947   5.902   5.119
 4772SOL     OW15214   3.810   4.903   1.523
 4772SOL    HW115215   3.861   4.818   1.511
 4772SOL    HW215216   3.853   4.975   1.469
 4773SOL     OW15217   6.869   5.254   3.214
 4773SOL    HW115218   6.813   5.312   3.155
 4773SOL    HW215219   6.941   5.309   3.256
 4774SOL     OW15220   1.411   3.136   1.576
 4774SOL    HW115221   1.421   3.165   1.672
 4774SOL    HW215222   1.493   3.085   1.548
 4775SOL     OW15223   5.177   6.526   2.507
 4775SOL    HW115224   5.233   6.574   2.439
 4775SOL    HW215225   5.129   6.450   2.463
 4776SOL     OW15226   1.359   6.598   5.468
 4776SOL    HW115227   1.437   6.610   5.528
 4776SOL    HW215228   1.389   6.559   5.381
 4777SOL     OW15229   2.023   5.070   1.029
 4777SOL    HW115230   2.032   4.980   0.986
 4777SOL    HW215231   2.038   5.062   1.128
 4778SOL     OW15232   6.183   2.465   3.676
 4778SOL    HW115233   6.222   2.534   3.615
 4778SOL    HW215234   6.219   2.375   3.652
 4779SOL     OW15235   6.499   5.986   2.435
 4779SOL    HW115236   6.426   5.938   2.483
 4779SOL    HW215237   6.465   6.074   2.403
 4780SOL     OW15238   5.800   1.040   0.147
 4780SOL    HW115239   5.706   1.070   0.157
 4780SOL    HW215240   5.859   1.120   0.132
 4781SOL     OW15241   2.438   5.603   2.421
 4781SOL    HW115242   2.379   5.554   2.485
 4781SOL    HW215243   2.493   5.670   2.472
 4782SOL     OW15244   5.381   5.520   0.244
 4782SOL    HW115245   5.313   5.539   0.314
 4782SOL    HW215246   5.356   5.567   0.159
 4783SOL     OW15247   4.163   3.909   6.837
 4783SOL    HW115248   4.189   3.988   6.783
 4783SOL    HW215249   4.197   3.826   6.794
 4784SOL     OW15250   6.340   4.103   6.761
 4784SOL    HW115251   6.352   4.196   6.725
 4784SOL    HW215252   6.348   4.105   6.861
 4785SOL     OW15253   1.048   6.706   2.499
 4785SOL    HW115254   0.970   6.687   2.558
 4785SOL    HW215255   1.095   6.788   2.533
 4786SOL     OW15256   2.789   1.161   0.039
 4786SOL    HW115257   2.699   1.198   0.061
 4786SOL    HW215258   2.819   1.100   0.112
 4787SOL     OW15259   4.248   1.500   2.234
 4787SOL    HW115260   4.263   1.429   2.303
 4787SOL    HW215261   4.150   1.516   2.222
 4788SOL     OW15262   0.445   5.803   6.287
 4788SOL    HW115263   0.395   5.889   6.298
 4788SOL    HW215264   0.496   5.805   6.201
 4789SOL     OW15265   5.052   1.828   1.146
 4789SOL    HW115266   4.955   1.845   1.132
 4789SOL    HW215267   5.092   1.903   1.199
 4790SOL     OW15268   6.028   2.071   5.451
 4790SOL    HW115269   6.034   2.107   5.544
 4790SOL    HW215270   6.078   2.131   5.389
 4791SOL     OW15271   0.339   2.727   1.685
 4791SOL    HW115272   0.243   2.734   1.659
 4791SOL    HW215273   0.350   2.654   1.752
 4792SOL     OW15274   1.761   3.898   3.617
 4792SOL    HW115275   1.804   3.837   3.550
 4792SOL    HW215276   1.808   3.888   3.705
 4793SOL     OW15277   1.924   3.150   5.331
 4793SOL    HW115278   1.848   3.088   5.348
 4793SOL    HW215279   1.979   3.115   5.255
 4794SOL     OW15280   4.850   0.289   4.283
 4794SOL    HW115281   4.760   0.273   4.241
 4794SOL    HW215282   4.843   0.365   4.347
 4795SOL     OW15283   6.092   1.950   4.125
 4795SOL    HW115284   6.002   1.907   4.125
 4795SOL    HW215285   6.140   1.925   4.041
 4796SOL     OW15286   4.763   2.113   4.966
 4796SOL    HW115287   4.745   2.175   4.890
 4796SOL    HW215288   4.784   2.022   4.931
 4797SOL     OW15289   1.111   6.506   5.560
 4797SOL    HW115290   1.192   6.534   5.509
 4797SOL    HW215291   1.036   6.489   5.496
 4798SOL     OW15292   0.717   4.040   4.757
 4798SOL    HW115293   0.664   3.986   4.823
 4798SOL    HW215294   0.687   4.135   4.760
 4799SOL     OW15295   4.708   1.733   0.361
 4799SOL    HW115296   4.745   1.818   0.325
 4799SOL    HW215297   4.646   1.693   0.295
 4800SOL     OW15298   3.163   2.754   6.251
 4800SOL    HW115299   3.183   2.675   6.309
 4800SOL    HW215300   3.245   2.781   6.201
 4801SOL     OW15301   3.117   2.400   6.603
 4801SOL    HW115302   3.037   2.362   6.558
 4801SOL    HW215303   3.101   2.405   6.702
 4802SOL     OW15304   1.360   6.914   2.158
 4802SOL    HW115305   1.458   6.902   2.142
 4802SOL    HW215306   1.338   7.011   2.162
 4803SOL     OW15307   6.996   4.917   0.844
 4803SOL    HW115308   6.931   4.894   0.771
 4803SOL    HW215309   0.010   4.834   0.889
 4804SOL     OW15310   5.824   5.938   1.068
 4804SOL    HW115311   5.798   5.865   1.131
 4804SOL    HW215312   5.748   6.002   1.058
 4805SOL     OW15313   6.028   1.803   2.522
 4805SOL    HW115314   5.989   1.712   2.540
 4805SOL    HW215315   5.956   1.872   2.531
 4806SOL     OW15316   1.413   4.419   2.975
 4806SOL    HW115317   1.434   4.508   3.015
 4806SOL    HW215318   1.363   4.433   2.889
 4807SOL     OW15319   0.923   5.038   0.508
 4807SOL    HW115320   0.978   5.071   0.585
 4807SOL    HW215321   0.961   5.071   0.422
 4808SOL     OW15322   5.308   4.372   0.103
 4808SOL    HW115323   5.259   4.329   0.178
 4808SOL    HW215324   5.289   4.324   0.018
 4809SOL     OW15325   3.709   4.585   0.341
 4809SOL    HW115326   3.762   4.503   0.317
 4809SOL    HW215327   3.645   4.606   0.268
 4810SOL     OW15328   1.656   5.114   2.459
 4810SOL    HW115329   1.664   5.183   2.530
 4810SOL    HW215330   1.704   5.144   2.377
 4811SOL     OW15331   2.495   4.142   1.567
 4811SOL    HW115332   2.568   4.170   1.505
 4811SOL    HW215333   2.514   4.051   1.603
 4812SOL     OW15334   6.949   5.145   2.616
 4812SOL    HW115335   6.911   5.170   2.705
 4812SOL    HW215336   0.024   5.110   2.629
 4813SOL     OW15337   6.043   2.273   0.288
 4813SOL    HW115338   5.980   2.255   0.212
 4813SOL    HW215339   6.124   2.320   0.253
 4814SOL     OW15340   0.037   3.333   1.160
 4814SOL    HW115341   0.023   3.306   1.255
 4814SOL    HW215342   0.124   3.295   1.127
 4815SOL     OW15343   5.502   3.922   2.323
 4815SOL    HW115344   5.540   3.992   2.263
 4815SOL    HW215345   5.576   3.862   2.355
 4816SOL     OW15346   2.005   4.661   1.009
 4816SOL    HW115347   2.078   4.698   0.952
 4816SOL    HW215348   1.916   4.682   0.968
 4817SOL     OW15349   1.243   1.753   6.934
 4817SOL    HW115350   1.243   1.682   6.863
 4817SOL    HW215351   1.148   1.781   6.953
 4818SOL     OW15352   0.844   6.042   4.329
 4818SOL    HW115353   0.799   6.017   4.415
 4818SOL    HW215354   0.792   6.006   4.252
 4819SOL     OW15355   1.258   2.033   0.456
 4819SOL    HW115356   1.202   1.957   0.423
 4819SOL    HW215357   1.349   2.029   0.414
 4820SOL     OW15358   6.274   2.693   2.366
 4820SOL    HW115359   6.177   2.706   2.344
 4820SOL    HW215360   6.325   2.679   2.281
 4821SOL     OW15361   0.709   6.017   2.402
 4821SOL    HW115362   0.653   5.935   2.386
 4821SOL    HW215363   0.788   5.992   2.459
 4822SOL     OW15364   1.662   3.207   4.673
 4822SOL    HW115365   1.673   3.193   4.771
 4822SOL    HW215366   1.574   3.170   4.644
 4823SOL     OW15367   1.733   0.345   4.492
 4823SOL    HW115368   1.745   0.406   4.413
 4823SOL    HW215369   1.798   0.269   4.485
 4824SOL     OW15370   5.258   1.843   4.624
 4824SOL    HW115371   5.250   1.865   4.526
 4824SOL    HW215372   5.308   1.917   4.670
 4825SOL     OW15373   1.880   3.079   3.985
 4825SOL    HW115374   1.861   3.010   4.055
 4825SOL    HW215375   1.957   3.136   4.015
 4826SOL     OW15376   6.055   1.132   6.628
 4826SOL    HW115377   6.128   1.107   6.565
 4826SOL    HW215378   5.980   1.174   6.578
 4827SOL     OW15379   6.443   1.697   0.516
 4827SOL    HW115380   6.450   1.745   0.429
 4827SOL    HW215381   6.514   1.731   0.579
 4828SOL     OW15382   5.523   2.694   0.583
 4828SOL    HW115383   5.440   2.688   0.638
 4828SOL    HW215384   5.592   2.631   0.618
 4829SOL     OW15385   3.930   6.852   6.286
 4829SOL    HW115386   3.964   6.901   6.206
 4829SOL    HW215387   3.832   6.835   6.276
 4830SOL     OW15388   4.202   6.369   3.812
 4830SOL    HW115389   4.145   6.376   3.894
 4830SOL    HW215390   4.287   6.322   3.835
 4831SOL     OW15391   0.445   4.397   6.225
 4831SOL    HW115392   0.414   4.412   6.131
 4831SOL    HW215393   0.385   4.330   6.269
 4832SOL     OW15394   3.770   3.432   3.833
 4832SOL    HW115395   3.700   3.482   3.783
 4832SOL    HW215396   3.834   3.496   3.875
 4833SOL     OW15397   4.852   2.344   3.105
 4833SOL    HW115398   4.873   2.316   3.011
 4833SOL    HW215399   4.809   2.268   3.153
 4834SOL     OW15400   3.873   6.336   0.761
 4834SOL    HW115401   3.821   6.373   0.838
 4834SOL    HW215402   3.824   6.354   0.676
 4835SOL     OW15403   6.064   1.308   6.858
 4835SOL    HW115404   6.032   1.389   6.808
 4835SOL    HW215405   6.068   1.230   6.796
 4836SOL     OW15406   5.490   2.716   4.890
 4836SOL    HW115407   5.402   2.691   4.850
 4836SOL    HW215408   5.477   2.752   4.982
 4837SOL     OW15409   6.593   4.073   2.964
 4837SOL    HW115410   6.629   4.162   2.993
 4837SOL    HW215411   6.635   4.001   3.019
 4838SOL     OW15412   0.978   5.396   0.394
 4838SOL    HW115413   0.912   5.330   0.358
 4838SOL    HW215414   1.068   5.354   0.400
 4839SOL     OW15415   2.329   3.423   6.925
 4839SOL    HW115416   2.287   3.374   6.849
 4839SOL    HW215417   2.334   3.363   7.005
 4840SOL     OW15418   6.599   4.057   6.430
 4840SOL    HW115419   6.500   4.044   6.423
 4840SOL    HW215420   6.619   4.130   6.495
 4841SOL     OW15421   2.655   5.450   2.092
 4841SOL    HW115422   2.687   5.479   2.182
 4841SOL    HW215423   2.731   5.410   2.041
 4842SOL     OW15424   3.657   5.484   2.734
 4842SOL    HW115425   3.565   5.462   2.702
 4842SOL    HW215426   3.693   5.562   2.683
 4843SOL     OW15427   6.856   2.942   1.409
 4843SOL    HW115428   6.791   3.005   1.368
 4843SOL    HW215429   6.874   2.968   1.503
 4844SOL     OW15430   1.129   3.630   6.495
 4844SOL    HW115431   1.104   3.726   6.475
 4844SOL    HW215432   1.047   3.581   6.526
 4845SOL     OW15433   5.468   5.299   6.977
 4845SOL    HW115434   5.444   5.314   6.881
 4845SOL    HW215435   5.564   5.271   6.984
 4846SOL     OW15436   6.526   3.069   3.599
 4846SOL    HW115437   6.459   3.120   3.545
 4846SOL    HW215438   6.568   2.999   3.542
 4847SOL     OW15439   2.307   0.396   6.629
 4847SOL    HW115440   2.283   0.393   6.532
 4847SOL    HW215441   2.376   0.326   6.649
 4848SOL     OW15442   1.403   1.179   4.401
 4848SOL    HW115443   1.372   1.193   4.308
 4848SOL    HW215444   1.368   1.252   4.460
 4849SOL     OW15445   0.824   6.077   0.057
 4849SOL    HW115446   0.734   6.034   0.070
 4849SOL    HW215447   0.896   6.011   0.079
 4850SOL     OW15448   3.727   1.364   1.886
 4850SOL    HW115449   3.792   1.345   1.960
 4850SOL    HW215450   3.648   1.414   1.922
 4851SOL     OW15451   3.716   6.821   5.612
 4851SOL    HW115452   3.747   6.736   5.654
 4851SOL    HW215453   3.635   6.854   5.660
 4852SOL     OW15454   1.269   5.877   5.215
 4852SOL    HW115455   1.273   5.962   5.267
 4852SOL    HW215456   1.205   5.887   5.139
 4853SOL     OW15457   3.773   0.701   3.322
 4853SOL    HW115458   3.759   0.636   3.397
 4853SOL    HW215459   3.828   0.778   3.353
 4854SOL     OW15460   4.024   6.617   1.754
 4854SOL    HW115461   4.023   6.621   1.655
 4854SOL    HW215462   3.930   6.611   1.789
 4855SOL     OW15463   6.027   2.480   4.601
 4855SOL    HW115464   6.054   2.543   4.527
 4855SOL    HW215465   6.108   2.453   4.652
 4856SOL     OW15466   1.296   2.801   3.053
 4856SOL    HW115467   1.227   2.729   3.051
 4856SOL    HW215468   1.301   2.840   3.145
 4857SOL     OW15469   3.885   2.192   4.222
 4857SOL    HW115470   3.971   2.240   4.206
 4857SOL    HW215471   3.865   2.190   4.320
 4858SOL     OW15472   0.411   0.454   4.867
 4858SOL    HW115473   0.464   0.507   4.801
 4858SOL    HW215474   0.432   0.357   4.856
 4859SOL     OW15475   1.215   6.589   4.324
 4859SOL    HW115476   1.253   6.506   4.365
 4859SOL    HW215477   1.220   6.583   4.225
 4860SOL     OW15478   4.520   4.490   1.366
 4860SOL    HW115479   4.582   4.533   1.432
 4860SOL    HW215480   4.448   4.555   1.341
 4861SOL     OW15481   6.078   5.312   0.259
 4861SOL    HW115482   6.074   5.382   0.187
 4861SOL    HW215483   6.015   5.337   0.333
 4862SOL     OW15484   2.359   4.456   5.098
 4862SOL    HW115485   2.299   4.452   5.018
 4862SOL    HW215486   2.352   4.370   5.149
 4863SOL     OW15487   4.911   3.847   1.158
 4863SOL    HW115488   4.938   3.870   1.252
 4863SOL    HW215489   4.971   3.776   1.123
 4864SOL     OW15490   4.005   1.644   2.240
 4864SOL    HW115491   3.959   1.625   2.154
 4864SOL    HW215492   4.009   1.743   2.255
 4865SOL     OW15493   2.461   6.422   4.335
 4865SOL    HW115494   2.549   6.438   4.290
 4865SOL    HW215495   2.475   6.369   4.418
 4866SOL     OW15496   6.849   4.396   1.558
 4866SOL    HW115497   6.823   4.449   1.477
 4866SOL    HW215498   6.769   4.346   1.591
 4867SOL     OW15499   4.675   5.535   2.268
 4867SOL    HW115500   4.613   5.610   2.292
 4867SOL    HW215501   4.648   5.453   2.318
 4868SOL     OW15502   6.510   4.996   2.315
 4868SOL    HW115503   6.498   4.898   2.332
 4868SOL    HW215504   6.536   5.009   2.219
 4869SOL     OW15505   0.672   1.423   1.440
 4869SOL    HW115506   0.767   1.443   1.466
 4869SOL    HW215507   0.669   1.338   1.387
 4870SOL     OW15508   6.853   6.208   1.839
 4870SOL    HW115509   6.778   6.156   1.880
 4870SOL    HW215510   6.861   6.297   1.885
 4871SOL     OW15511   1.018   1.467   5.092
 4871SOL    HW115512   1.066   1.407   5.155
 4871SOL    HW215513   1.069   1.474   5.006
 4872SOL     OW15514   6.194   5.781   4.117
 4872SOL    HW115515   6.104   5.787   4.075
 4872SOL    HW215516   6.248   5.711   4.070
 4873SOL     OW15517   6.600   5.075   3.872
 4873SOL    HW115518   6.686   5.093   3.823
 4873SOL    HW215519   6.597   4.978   3.898
 4874SOL     OW15520   6.006   3.287   3.306
 4874SOL    HW115521   5.948   3.353   3.259
 4874SOL    HW215522   5.996   3.299   3.405
 4875SOL     OW15523   6.048   3.312   1.715
 4875SOL    HW115524   6.000   3.252   1.779
 4875SOL    HW215525   6.097   3.257   1.647
 4876SOL     OW15526   5.684   1.403   4.226
 4876SOL    HW115527   5.631   1.479   4.262
 4876SOL    HW215528   5.756   1.378   4.292
 4877SOL     OW15529   0.990   1.877   0.060
 4877SOL    HW115530   0.987   1.781   0.087
 4877SOL    HW215531   0.925   1.893   7.003
 4878SOL     OW15532   6.443   0.362   2.909
 4878SOL    HW115533   6.525   0.412   2.937
 4878SOL    HW215534   6.410   0.306   2.985
 4879SOL     OW15535   4.306   5.053   3.581
 4879SOL    HW115536   4.295   4.964   3.537
 4879SOL    HW215537   4.276   5.047   3.676
 4880SOL     OW15538   6.048   3.082   0.225
 4880SOL    HW115539   6.081   3.004   0.278
 4880SOL    HW215540   6.039   3.161   0.285
 4881SOL     OW15541   1.922   0.655   6.591
 4881SOL    HW115542   1.886   0.563   6.608
 4881SOL    HW215543   2.000   0.650   6.529
 4882SOL     OW15544   5.066   1.617   4.662
 4882SOL    HW115545   5.144   1.659   4.616
 4882SOL    HW215546   5.082   1.518   4.670
 4883SOL     OW15547   5.423   4.922   1.741
 4883SOL    HW115548   5.425   4.971   1.654
 4883SOL    HW215549   5.349   4.958   1.798
 4884SOL     OW15550   3.404   0.465   1.536
 4884SOL    HW115551   3.435   0.371   1.524
 4884SOL    HW215552   3.436   0.520   1.459
 4885SOL     OW15553   1.797   5.347   2.615
 4885SOL    HW115554   1.815   5.392   2.527
 4885SOL    HW215555   1.755   5.412   2.678
 4886SOL     OW15556   0.160   6.122   0.990
 4886SOL    HW115557   0.085   6.188   0.993
 4886SOL    HW215558   0.213   6.129   1.075
 4887SOL     OW15559   0.941   0.600   2.900
 4887SOL    HW115560   0.959   0.648   2.986
 4887SOL    HW215561   0.860   0.543   2.909
 4888SOL     OW15562   2.164   6.624   4.515
 4888SOL    HW115563   2.248   6.596   4.562
 4888SOL    HW215564   2.104   6.544   4.505
 4889SOL     OW15565   6.257   0.856   6.442
 4889SOL    HW115566   6.210   0.829   6.526
 4889SOL    HW215567   6.355   0.863   6.460
 4890SOL     OW15568   0.783   1.739   6.357
 4890SOL    HW115569   0.846   1.760   6.282
 4890SOL    HW215570   0.824   1.766   6.444
 4891SOL     OW15571   1.403   4.931   0.103
 4891SOL    HW115572   1.468   4.976   0.041
 4891SOL    HW215573   1.344   4.869   0.051
 4892SOL     OW15574   3.396   5.848   1.482
 4892SOL    HW115575   3.375   5.943   1.460
 4892SOL    HW215576   3.444   5.844   1.570
 4893SOL     OW15577   0.239   3.846   1.699
 4893SOL    HW115578   0.229   3.848   1.798
 4893SOL    HW215579   0.242   3.939   1.663
 4894SOL     OW15580   2.382   1.920   2.579
 4894SOL    HW115581   2.405   1.879   2.668
 4894SOL    HW215582   2.443   1.996   2.561
 4895SOL     OW15583   1.053   5.623   2.914
 4895SOL    HW115584   1.133   5.679   2.892
 4895SOL    HW215585   1.078   5.527   2.910
 4896SOL     OW15586   2.146   5.684   1.587
 4896SOL    HW115587   2.080   5.758   1.583
 4896SOL    HW215588   2.119   5.620   1.660
 4897SOL     OW15589   2.279   4.659   6.323
 4897SOL    HW115590   2.237   4.571   6.343
 4897SOL    HW215591   2.363   4.668   6.378
 4898SOL     OW15592   3.841   1.833   3.900
 4898SOL    HW115593   3.849   1.932   3.903
 4898SOL    HW215594   3.886   1.793   3.980
 4899SOL     OW15595   6.314   5.495   3.310
 4899SOL    HW115596   6.365   5.430   3.253
 4899SOL    HW215597   6.226   5.515   3.267
 4900SOL     OW15598   1.903   5.589   4.593
 4900SOL    HW115599   1.923   5.503   4.639
 4900SOL    HW215600   1.883   5.571   4.496
 4901SOL     OW15601   3.418   6.538   6.095
 4901SOL    HW115602   3.438   6.635   6.101
 4901SOL    HW215603   3.476   6.496   6.025
 4902SOL     OW15604   2.410   1.856   4.879
 4902SOL    HW115605   2.476   1.799   4.929
 4902SOL    HW215606   2.429   1.953   4.897
 4903SOL     OW15607   2.764   6.002   0.012
 4903SOL    HW115608   2.828   6.054   0.069
 4903SOL    HW215609   2.760   5.908   0.046
 4904SOL     OW15610   1.454   0.463   4.313
 4904SOL    HW115611   1.425   0.418   4.397
 4904SOL    HW215612   1.553   0.476   4.315
 4905SOL     OW15613   4.283   0.646   2.164
 4905SOL    HW115614   4.201   0.613   2.211
 4905SOL    HW215615   4.260   0.670   2.070
 4906SOL     OW15616   4.467   2.050   5.863
 4906SOL    HW115617   4.488   2.136   5.818
 4906SOL    HW215618   4.367   2.040   5.871
 4907SOL     OW15619   4.524   5.775   0.966
 4907SOL    HW115620   4.606   5.720   0.950
 4907SOL    HW215621   4.534   5.864   0.922
 4908SOL     OW15622   5.084   4.767   6.511
 4908SOL    HW115623   5.012   4.729   6.570
 4908SOL    HW215624   5.169   4.776   6.563
 4909SOL     OW15625   6.278   6.814   4.874
 4909SOL    HW115626   6.274   6.767   4.786
 4909SOL    HW215627   6.189   6.857   4.893
 4910SOL     OW15628   5.097   6.419   4.427
 4910SOL    HW115629   5.175   6.429   4.488
 4910SOL    HW215630   5.071   6.509   4.392
 4911SOL     OW15631   0.789   3.442   4.419
 4911SOL    HW115632   0.714   3.505   4.395
 4911SOL    HW215633   0.869   3.496   4.446
 4912SOL     OW15634   5.561   2.003   0.379
 4912SOL    HW115635   5.640   2.050   0.340
 4912SOL    HW215636   5.515   2.064   0.444
 4913SOL     OW15637   3.843   3.517   4.553
 4913SOL    HW115638   3.938   3.548   4.562
 4913SOL    HW215639   3.841   3.419   4.536
 4914SOL     OW15640   3.654   6.692   5.383
 4914SOL    HW115641   3.722   6.703   5.311
 4914SOL    HW215642   3.687   6.734   5.467
 4915SOL     OW15643   4.337   0.370   4.333
 4915SOL    HW115644   4.386   0.304   4.276
 4915SOL    HW215645   4.242   0.377   4.302
 4916SOL     OW15646   1.642   1.245   3.893
 4916SOL    HW115647   1.644   1.201   3.983
 4916SOL    HW215648   1.625   1.177   3.822
 4917SOL     OW15649   1.367   4.883   1.192
 4917SOL    HW115650   1.462   4.891   1.161
 4917SOL    HW215651   1.305   4.914   1.120
 4918SOL     OW15652   3.406   6.695   2.527
 4918SOL    HW115653   3.358   6.629   2.469
 4918SOL    HW215654   3.383   6.787   2.498
 4919SOL     OW15655   2.692   2.306   6.994
 4919SOL    HW115656   2.636   2.229   0.007
 4919SOL    HW215657   2.787   2.291   0.004
 4920SOL     OW15658   5.157   0.383   5.289
 4920SOL    HW115659   5.176   0.457   5.225
 4920SOL    HW215660   5.239   0.326   5.298
 4921SOL     OW15661   1.646   4.739   0.518
 4921SOL    HW115662   1.566   4.701   0.564
 4921SOL    HW215663   1.644   4.839   0.524
 4922SOL     OW15664   1.829   3.049   4.880
 4922SOL    HW115665   1.866   3.029   4.789
 4922SOL    HW215666   1.873   3.131   4.917
 4923SOL     OW15667   3.591   1.479   0.434
 4923SOL    HW115668   3.650   1.436   0.365
 4923SOL    HW215669   3.529   1.411   0.472
 4924SOL     OW15670   2.114   1.672   5.334
 4924SOL    HW115671   2.155   1.762   5.350
 4924SOL    HW215672   2.103   1.657   5.236
 4925SOL     OW15673   5.717   6.806   2.036
 4925SOL    HW115674   5.642   6.872   2.039
 4925SOL    HW215675   5.689   6.722   2.082
 4926SOL     OW15676   5.113   1.930   0.499
 4926SOL    HW115677   5.109   1.937   0.400
 4926SOL    HW215678   5.035   1.876   0.532
 4927SOL     OW15679   4.088   3.525   3.997
 4927SOL    HW115680   4.062   3.463   4.071
 4927SOL    HW215681   4.184   3.508   3.972
 4928SOL     OW15682   0.891   0.459   6.904
 4928SOL    HW115683   0.891   0.556   6.881
 4928SOL    HW215684   0.922   0.406   6.825
 4929SOL     OW15685   1.532   4.577   4.431
 4929SOL    HW115686   1.436   4.607   4.436
 4929SOL    HW215687   1.589   4.642   4.482
 4930SOL     OW15688   4.444   0.712   2.698
 4930SOL    HW115689   4.376   0.770   2.744
 4930SOL    HW215690   4.447   0.623   2.743
 4931SOL     OW15691   6.457   0.132   0.693
 4931SOL    HW115692   6.424   0.192   0.766
 4931SOL    HW215693   6.417   0.159   0.606
 4932SOL     OW15694   2.180   3.475   1.663
 4932SOL    HW115695   2.110   3.545   1.679
 4932SOL    HW215696   2.233   3.462   1.747
 4933SOL     OW15697   1.912   0.309   3.923
 4933SOL    HW115698   1.985   0.310   3.854
 4933SOL    HW215699   1.905   0.218   3.963
 4934SOL     OW15700   2.394   5.124   2.789
 4934SOL    HW115701   2.476   5.144   2.842
 4934SOL    HW215702   2.313   5.143   2.844
 4935SOL     OW15703   1.384   1.354   6.892
 4935SOL    HW115704   1.357   1.274   6.945
 4935SOL    HW215705   1.476   1.340   6.854
 4936SOL     OW15706   1.412   4.608   1.350
 4936SOL    HW115707   1.416   4.706   1.334
 4936SOL    HW215708   1.379   4.591   1.444
 4937SOL     OW15709   6.877   2.865   6.407
 4937SOL    HW115710   6.955   2.922   6.433
 4937SOL    HW215711   6.799   2.884   6.467
 4938SOL     OW15712   2.367   6.027   6.418
 4938SOL    HW115713   2.466   6.013   6.425
 4938SOL    HW215714   2.349   6.120   6.387
 4939SOL     OW15715   6.905   1.930   4.146
 4939SOL    HW115716   6.820   1.952   4.193
 4939SOL    HW215717   6.982   1.962   4.201
 4940SOL     OW15718   0.663   1.231   5.081
 4940SOL    HW115719   0.719   1.265   5.006
 4940SOL    HW215720   0.719   1.172   5.140
 4941SOL     OW15721   4.795   2.924   5.515
 4941SOL    HW115722   4.774   2.937   5.418
 4941SOL    HW215723   4.855   2.997   5.547
 4942SOL     OW15724   5.661   2.933   6.026
 4942SOL    HW115725   5.745   2.985   6.036
 4942SOL    HW215726   5.585   2.982   6.070
 4943SOL     OW15727   4.649   4.120   6.088
 4943SOL    HW115728   4.593   4.038   6.075
 4943SOL    HW215729   4.704   4.110   6.171
 4944SOL     OW15730   2.396   4.294   1.792
 4944SOL    HW115731   2.441   4.379   1.762
 4944SOL    HW215732   2.414   4.222   1.725
 4945SOL     OW15733   1.180   6.970   4.187
 4945SOL    HW115734   1.169   6.920   4.273
 4945SOL    HW215735   1.090   7.000   4.154
 4946SOL     OW15736   0.856   5.193   0.202
 4946SOL    HW115737   0.921   5.230   0.136
 4946SOL    HW215738   0.766   5.183   0.158
 4947SOL     OW15739   2.241   0.725   0.375
 4947SOL    HW115740   2.259   0.823   0.390
 4947SOL    HW215741   2.162   0.714   0.315
 4948SOL     OW15742   2.234   2.925   2.844
 4948SOL    HW115743   2.260   2.964   2.756
 4948SOL    HW215744   2.165   2.984   2.888
 4949SOL     OW15745   6.068   4.249   5.401
 4949SOL    HW115746   6.162   4.237   5.368
 4949SOL    HW215747   6.067   4.243   5.500
 4950SOL     OW15748   1.867   5.044   4.881
 4950SOL    HW115749   1.965   5.052   4.903
 4950SOL    HW215750   1.813   5.067   4.962
 4951SOL     OW15751   5.768   0.925   4.593
 4951SOL    HW115752   5.669   0.910   4.590
 4951SOL    HW215753   5.814   0.862   4.530
 4952SOL     OW15754   6.841   0.457   5.990
 4952SOL    HW115755   6.871   0.372   6.034
 4952SOL    HW215756   6.840   0.445   5.891
 4953SOL     OW15757   1.766   6.906   3.240
 4953SOL    HW115758   1.751   6.966   3.318
 4953SOL    HW215759   1.716   6.941   3.161
 4954SOL     OW15760   2.998   3.136   0.206
 4954SOL    HW115761   2.956   3.048   0.187
 4954SOL    HW215762   2.987   3.158   0.303
 4955SOL     OW15763   3.184   6.510   6.864
 4955SOL    HW115764   3.239   6.449   6.806
 4955SOL    HW215765   3.234   6.595   6.878
 4956SOL     OW15766   2.454   6.763   5.338
 4956SOL    HW115767   2.543   6.790   5.373
 4956SOL    HW215768   2.442   6.664   5.351
 4957SOL     OW15769   5.615   2.562   1.708
 4957SOL    HW115770   5.598   2.466   1.686
 4957SOL    HW215771   5.533   2.616   1.687
 4958SOL     OW15772   0.485   5.222   5.745
 4958SOL    HW115773   0.505   5.289   5.815
 4958SOL    HW215774   0.450   5.268   5.663
 4959SOL     OW15775   6.103   1.590   0.433
 4959SOL    HW115776   6.178   1.649   0.401
 4959SOL    HW215777   6.029   1.647   0.468
 4960SOL     OW15778   3.829   4.937   3.509
 4960SOL    HW115779   3.850   4.913   3.414
 4960SOL    HW215780   3.745   4.991   3.512
 4961SOL     OW15781   3.857   1.300   5.891
 4961SOL    HW115782   3.820   1.236   5.958
 4961SOL    HW215783   3.938   1.345   5.929
 4962SOL     OW15784   5.618   2.336   0.060
 4962SOL    HW115785   5.577   2.399   7.013
 4962SOL    HW215786   5.632   2.382   0.147
 4963SOL     OW15787   6.942   6.279   1.056
 4963SOL    HW115788   6.851   6.258   1.022
 4963SOL    HW215789   6.950   6.377   1.073
 4964SOL     OW15790   2.818   0.944   4.165
 4964SOL    HW115791   2.852   0.854   4.139
 4964SOL    HW215792   2.893   0.998   4.203
 4965SOL     OW15793   0.474   1.055   2.142
 4965SOL    HW115794   0.425   1.030   2.225
 4965SOL    HW215795   0.572   1.039   2.154
 4966SOL     OW15796   2.734   6.247   5.298
 4966SOL    HW115797   2.736   6.338   5.339
 4966SOL    HW215798   2.740   6.255   5.198
 4967SOL     OW15799   3.651   4.983   4.852
 4967SOL    HW115800   3.613   4.940   4.770
 4967SOL    HW215801   3.651   5.083   4.841
 4968SOL     OW15802   6.889   2.182   4.009
 4968SOL    HW115803   6.898   2.099   4.065
 4968SOL    HW215804   6.792   2.195   3.985
 4969SOL     OW15805   2.424   5.397   2.953
 4969SOL    HW115806   2.416   5.399   3.053
 4969SOL    HW215807   2.509   5.350   2.927
 4970SOL     OW15808   2.573   2.507   2.549
 4970SOL    HW115809   2.658   2.454   2.556
 4970SOL    HW215810   2.554   2.551   2.637
 4971SOL     OW15811   5.984   5.747   3.214
 4971SOL    HW115812   5.945   5.761   3.305
 4971SOL    HW215813   6.061   5.810   3.201
 4972SOL     OW15814   0.861   3.683   0.763
 4972SOL    HW115815   0.955   3.673   0.792
 4972SOL    HW215816   0.835   3.605   0.705
 4973SOL     OW15817   1.486   0.081   2.337
 4973SOL    HW115818   1.467   0.082   2.435
 4973SOL    HW215819   1.417   0.134   2.289
 4974SOL     OW15820   6.715   4.199   1.108
 4974SOL    HW115821   6.754   4.291   1.104
 4974SOL    HW215822   6.716   4.166   1.202
 4975SOL     OW15823   6.265   3.756   5.845
 4975SOL    HW115824   6.180   3.727   5.890
 4975SOL    HW215825   6.245   3.777   5.749
 4976SOL     OW15826   1.906   1.412   3.667
 4976SOL    HW115827   1.975   1.343   3.644
 4976SOL    HW215828   1.897   1.417   3.767
 4977SOL     OW15829   4.053   4.741   6.785
 4977SOL    HW115830   3.973   4.715   6.839
 4977SOL    HW215831   4.025   4.803   6.712
 4978SOL     OW15832   6.961   4.502   4.982
 4978SOL    HW115833   6.890   4.469   5.045
 4978SOL    HW215834   7.000   4.424   4.932
 4979SOL     OW15835   0.232   6.830   6.775
 4979SOL    HW115836   0.153   6.772   6.791
 4979SOL    HW215837   0.279   6.801   6.692
 4980SOL     OW15838   5.346   6.185   3.268
 4980SOL    HW115839   5.350   6.121   3.344
 4980SOL    HW215840   5.428   6.176   3.212
 4981SOL     OW15841   4.511   5.232   0.252
 4981SOL    HW115842   4.460   5.170   0.312
 4981SOL    HW215843   4.598   5.256   0.296
 4982SOL     OW15844   2.985   0.968   5.349
 4982SOL    HW115845   3.077   1.001   5.326
 4982SOL    HW215846   2.919   1.011   5.288
 4983SOL     OW15847   5.920   3.845   5.590
 4983SOL    HW115848   5.905   3.778   5.518
 4983SOL    HW215849   6.013   3.883   5.582
 4984SOL     OW15850   5.256   4.310   3.608
 4984SOL    HW115851   5.355   4.314   3.592
 4984SOL    HW215852   5.210   4.381   3.554
 4985SOL     OW15853   5.828   6.986   3.372
 4985SOL    HW115854   5.853   6.908   3.314
 4985SOL    HW215855   5.872   0.051   3.337
 4986SOL     OW15856   0.120   4.217   1.720
 4986SOL    HW115857   0.170   4.152   1.663
 4986SOL    HW215858   0.030   4.180   1.741
 4987SOL     OW15859   1.464   0.582   2.430
 4987SOL    HW115860   1.564   0.581   2.428
 4987SOL    HW215861   1.432   0.524   2.506
 4988SOL     OW15862   5.423   1.137   2.140
 4988SOL    HW115863   5.493   1.205   2.118
 4988SOL    HW215864   5.428   1.115   2.238
 4989SOL     OW15865   5.099   0.041   1.721
 4989SOL    HW115866   5.184   0.032   1.669
 4989SOL    HW215867   5.057   6.968   1.730
 4990SOL     OW15868   2.666   2.454   5.504
 4990SOL    HW115869   2.698   2.360   5.490
 4990SOL    HW215870   2.652   2.498   5.416
 4991SOL     OW15871   6.037   5.266   3.544
 4991SOL    HW115872   6.054   5.177   3.500
 4991SOL    HW215873   5.952   5.304   3.508
 4992SOL     OW15874   4.716   0.664   3.074
 4992SOL    HW115875   4.639   0.642   3.134
 4992SOL    HW215876   4.783   0.589   3.077
 4993SOL     OW15877   2.785   6.086   4.176
 4993SOL    HW115878   2.686   6.080   4.185
 4993SOL    HW215879   2.829   6.019   4.236
 4994SOL     OW15880   2.095   0.881   3.854
 4994SOL    HW115881   2.003   0.849   3.875
 4994SOL    HW215882   2.149   0.807   3.814
 4995SOL     OW15883   0.189   2.658   5.385
 4995SOL    HW115884   0.089   2.656   5.381
 4995SOL    HW215885   0.222   2.576   5.432
 4996SOL     OW15886   0.791   1.525   2.905
 4996SOL    HW115887   0.869   1.466   2.883
 4996SOL    HW215888   0.811   1.619   2.875
 4997SOL     OW15889   5.161   2.746   2.670
 4997SOL    HW115890   5.218   2.828   2.683
 4997SOL    HW215891   5.206   2.668   2.714
 4998SOL     OW15892   2.245   4.054   4.717
 4998SOL    HW115893   2.289   3.994   4.783
 4998SOL    HW215894   2.148   4.064   4.740
 4999SOL     OW15895   6.208   3.776   0.242
 4999SOL    HW115896   6.288   3.809   0.192
 4999SOL    HW215897   6.208   3.815   0.334
 5000SOL     OW15898   3.609   6.791   3.461
 5000SOL    HW115899   3.628   6.863   3.395
 5000SOL    HW215900   3.540   6.728   3.424
 5001SOL     OW15901   6.867   3.710   1.151
 5001SOL    HW115902   6.949   3.661   1.119
 5001SOL    HW215903   6.867   3.802   1.111
 5002SOL     OW15904   0.242   3.364   2.989
 5002SOL    HW115905   0.225   3.434   3.058
 5002SOL    HW215906   0.340   3.344   2.985
 5003SOL     OW15907   2.905   6.137   2.658
 5003SOL    HW115908   2.907   6.052   2.606
 5003SOL    HW215909   2.991   6.148   2.708
 5004SOL     OW15910   2.907   5.337   5.648
 5004SOL    HW115911   2.933   5.267   5.715
 5004SOL    HW215912   2.977   5.408   5.645
 5005SOL     OW15913   3.131   2.943   0.661
 5005SOL    HW115914   3.179   3.019   0.706
 5005SOL    HW215915   3.079   2.979   0.584
 5006SOL     OW15916   5.095   0.313   0.358
 5006SOL    HW115917   5.090   0.282   0.264
 5006SOL    HW215918   5.176   0.275   0.402
 5007SOL     OW15919   1.167   0.084   0.745
 5007SOL    HW115920   1.195   0.180   0.738
 5007SOL    HW215921   1.119   0.070   0.832
 5008SOL     OW15922   5.958   0.207   1.971
 5008SOL    HW115923   5.971   0.112   1.999
 5008SOL    HW215924   5.874   0.243   2.013
 5009SOL     OW15925   1.144   0.592   1.156
 5009SOL    HW115926   1.161   0.685   1.187
 5009SOL    HW215927   1.110   0.595   1.061
 5010SOL     OW15928   4.079   3.510   2.550
 5010SOL    HW115929   3.981   3.497   2.534
 5010SOL    HW215930   4.121   3.421   2.568
 5011SOL     OW15931   1.801   3.999   2.208
 5011SOL    HW115932   1.859   4.051   2.271
 5011SOL    HW215933   1.742   4.063   2.157
 5012SOL     OW15934   5.887   4.064   6.200
 5012SOL    HW115935   5.840   4.150   6.176
 5012SOL    HW215936   5.977   4.063   6.158
 5013SOL     OW15937   4.919   1.378   6.607
 5013SOL    HW115938   4.926   1.367   6.706
 5013SOL    HW215939   4.826   1.356   6.577
 5014SOL     OW15940   6.044   4.757   0.684
 5014SOL    HW115941   6.040   4.794   0.591
 5014SOL    HW215942   6.139   4.741   0.710
 5015SOL     OW15943   4.847   2.079   4.676
 5015SOL    HW115944   4.811   1.989   4.699
 5015SOL    HW215945   4.772   2.139   4.647
 5016SOL     OW15946   1.722   2.575   0.209
 5016SOL    HW115947   1.696   2.580   0.112
 5016SOL    HW215948   1.791   2.644   0.228
 5017SOL     OW15949   1.635   2.847   0.130
 5017SOL    HW115950   1.620   2.942   0.157
 5017SOL    HW215951   1.701   2.805   0.192
 5018SOL     OW15952   0.231   3.731   2.696
 5018SOL    HW115953   0.218   3.670   2.618
 5018SOL    HW215954   0.143   3.751   2.738
 5019SOL     OW15955   1.361   4.605   6.274
 5019SOL    HW115956   1.358   4.512   6.237
 5019SOL    HW215957   1.455   4.638   6.272
 5020SOL     OW15958   4.968   0.397   6.250
 5020SOL    HW115959   5.065   0.400   6.276
 5020SOL    HW215960   4.916   0.351   6.322
 5021SOL     OW15961   0.674   1.015   6.518
 5021SOL    HW115962   0.734   0.952   6.568
 5021SOL    HW215963   0.655   0.977   6.428
 5022SOL     OW15964   0.802   1.494   6.448
 5022SOL    HW115965   0.773   1.582   6.410
 5022SOL    HW215966   0.758   1.420   6.397
 5023SOL     OW15967   6.758   2.691   1.449
 5023SOL    HW115968   6.798   2.782   1.438
 5023SOL    HW215969   6.658   2.697   1.445
 5024SOL     OW15970   5.973   5.238   1.622
 5024SOL    HW115971   6.025   5.271   1.701
 5024SOL    HW215972   5.897   5.300   1.604
 5025SOL     OW15973   3.166   1.694   2.132
 5025SOL    HW115974   3.141   1.714   2.227
 5025SOL    HW215975   3.084   1.688   2.076
 5026SOL     OW15976   6.646   6.048   5.898
 5026SOL    HW115977   6.587   6.107   5.952
 5026SOL    HW215978   6.593   6.007   5.824
 5027SOL     OW15979   0.102   6.718   2.177
 5027SOL    HW115980   0.155   6.758   2.102
 5027SOL    HW215981   0.159   6.714   2.259
 5028SOL     OW15982   0.124   1.821   2.694
 5028SOL    HW115983   0.050   1.773   2.741
 5028SOL    HW215984   0.203   1.830   2.755
 5029SOL     OW15985   6.452   2.717   2.574
 5029SOL    HW115986   6.547   2.689   2.561
 5029SOL    HW215987   6.402   2.710   2.488
 5030SOL     OW15988   6.732   7.001   0.465
 5030SOL    HW115989   6.754   0.079   0.450
 5030SOL    HW215990   6.801   6.959   0.525
 5031SOL     OW15991   5.522   6.819   5.129
 5031SOL    HW115992   5.496   6.760   5.052
 5031SOL    HW215993   5.529   6.764   5.212
 5032SOL     OW15994   2.145   2.559   1.004
 5032SOL    HW115995   2.188   2.509   1.080
 5032SOL    HW215996   2.088   2.632   1.041
 5033SOL     OW15997   2.762   6.407   5.759
 5033SOL    HW115998   2.737   6.428   5.853
 5033SOL    HW215999   2.701   6.338   5.722
 5034SOL     OW16000   4.925   0.479   2.951
 5034SOL    HW116001   4.978   0.488   2.866
 5034SOL    HW216002   4.875   0.393   2.950
 5035SOL     OW16003   0.399   4.153   0.238
 5035SOL    HW116004   0.479   4.120   0.288
 5035SOL    HW216005   0.425   4.232   0.183
 5036SOL     OW16006   0.508   4.871   0.294
 5036SOL    HW116007   0.596   4.879   0.341
 5036SOL    HW216008   0.439   4.924   0.342
 5037SOL     OW16009   4.848   3.148   3.112
 5037SOL    HW116010   4.824   3.052   3.097
 5037SOL    HW216011   4.904   3.156   3.194
 5038SOL     OW16012   2.689   3.966   6.018
 5038SOL    HW116013   2.666   3.923   5.930
 5038SOL    HW216014   2.660   4.062   6.016
 5039SOL     OW16015   3.298   4.514   5.432
 5039SOL    HW116016   3.253   4.604   5.435
 5039SOL    HW216017   3.281   4.466   5.518
 5040SOL     OW16018   1.571   5.810   6.236
 5040SOL    HW116019   1.666   5.841   6.232
 5040SOL    HW216020   1.510   5.889   6.230
 5041SOL     OW16021   1.816   1.355   2.513
 5041SOL    HW116022   1.797   1.428   2.448
 5041SOL    HW216023   1.824   1.393   2.605
 5042SOL     OW16024   6.434   2.880   0.478
 5042SOL    HW116025   6.503   2.811   0.456
 5042SOL    HW216026   6.366   2.840   0.540
 5043SOL     OW16027   3.498   0.047   6.002
 5043SOL    HW116028   3.465   6.982   6.047
 5043SOL    HW216029   3.495   0.035   5.903
 5044SOL     OW16030   0.751   6.715   0.244
 5044SOL    HW116031   0.823   6.662   0.288
 5044SOL    HW216032   0.737   6.800   0.295
 5045SOL     OW16033   5.410   1.333   6.351
 5045SOL    HW116034   5.451   1.263   6.409
 5045SOL    HW216035   5.467   1.348   6.270
 5046SOL     OW16036   3.686   4.095   2.835
 5046SOL    HW116037   3.744   4.105   2.915
 5046SOL    HW216038   3.599   4.052   2.862
 5047SOL     OW16039   6.972   3.465   2.393
 5047SOL    HW116040   6.943   3.399   2.324
 5047SOL    HW216041   6.904   3.468   2.467
 5048SOL     OW16042   0.428   1.345   2.131
 5048SOL    HW116043   0.413   1.246   2.123
 5048SOL    HW216044   0.420   1.371   2.227
 5049SOL     OW16045   6.157   2.114   5.960
 5049SOL    HW116046   6.224   2.042   5.940
 5049SOL    HW216047   6.079   2.074   6.009
 5050SOL     OW16048   1.481   1.081   1.116
 5050SOL    HW116049   1.572   1.049   1.142
 5050SOL    HW216050   1.413   1.011   1.137
 5051SOL     OW16051   4.796   4.698   1.062
 5051SOL    HW116052   4.857   4.664   1.133
 5051SOL    HW216053   4.702   4.672   1.083
 5052SOL     OW16054   2.319   0.342   6.348
 5052SOL    HW116055   2.274   0.364   6.261
 5052SOL    HW216056   2.378   0.263   6.336
 5053SOL     OW16057   2.251   4.160   2.951
 5053SOL    HW116058   2.260   4.061   2.943
 5053SOL    HW216059   2.243   4.199   2.859
 5054SOL     OW16060   3.576   6.148   4.723
 5054SOL    HW116061   3.535   6.089   4.654
 5054SOL    HW216062   3.671   6.119   4.741
 5055SOL     OW16063   1.658   0.972   5.487
 5055SOL    HW116064   1.744   1.024   5.479
 5055SOL    HW216065   1.627   0.947   5.395
 5056SOL     OW16066   6.615   4.821   0.428
 5056SOL    HW116067   6.714   4.817   0.440
 5056SOL    HW216068   6.592   4.797   0.333
 5057SOL     OW16069   0.370   5.994   4.930
 5057SOL    HW116070   0.385   6.090   4.953
 5057SOL    HW216071   0.452   5.956   4.888
 5058SOL     OW16072   2.867   3.316   5.504
 5058SOL    HW116073   2.853   3.221   5.477
 5058SOL    HW216074   2.941   3.320   5.572
 5059SOL     OW16075   5.680   1.607   3.555
 5059SOL    HW116076   5.605   1.649   3.504
 5059SOL    HW216077   5.644   1.541   3.620
 5060SOL     OW16078   1.497   1.806   5.210
 5060SOL    HW116079   1.476   1.893   5.165
 5060SOL    HW216080   1.429   1.738   5.185
 5061SOL     OW16081   4.091   3.601   2.204
 5061SOL    HW116082   4.068   3.504   2.197
 5061SOL    HW216083   4.123   3.620   2.297
 5062SOL     OW16084   5.462   0.776   3.463
 5062SOL    HW116085   5.401   0.837   3.513
 5062SOL    HW216086   5.408   0.710   3.410
 5063SOL     OW16087   1.024   0.135   2.400
 5063SOL    HW116088   1.006   0.129   2.498
 5063SOL    HW216089   1.015   0.230   2.371
 5064SOL     OW16090   5.073   4.085   1.896
 5064SOL    HW116091   5.035   4.022   1.828
 5064SOL    HW216092   5.118   4.161   1.850
 5065SOL     OW16093   1.388   1.908   3.679
 5065SOL    HW116094   1.360   1.971   3.751
 5065SOL    HW216095   1.311   1.849   3.655
 5066SOL     OW16096   4.096   4.909   1.360
 5066SOL    HW116097   4.031   4.837   1.335
 5066SOL    HW216098   4.116   4.966   1.281
 5067SOL     OW16099   3.605   0.925   1.987
 5067SOL    HW116100   3.536   0.887   2.049
 5067SOL    HW216101   3.677   0.858   1.972
 5068SOL     OW16102   2.249   4.912   6.492
 5068SOL    HW116103   2.207   5.000   6.517
 5068SOL    HW216104   2.179   4.852   6.454
 5069SOL     OW16105   2.357   3.215   5.749
 5069SOL    HW116106   2.296   3.228   5.671
 5069SOL    HW216107   2.452   3.222   5.719
 5070SOL     OW16108   4.223   4.671   3.856
 5070SOL    HW116109   4.136   4.680   3.808
 5070SOL    HW216110   4.297   4.705   3.799
 5071SOL     OW16111   4.228   1.650   3.138
 5071SOL    HW116112   4.173   1.583   3.187
 5071SOL    HW216113   4.215   1.741   3.179
 5072SOL     OW16114   1.214   0.858   1.769
 5072SOL    HW116115   1.217   0.912   1.685
 5072SOL    HW216116   1.281   0.784   1.762
 5073SOL     OW16117   0.354   5.746   1.826
 5073SOL    HW116118   0.341   5.801   1.909
 5073SOL    HW216119   0.344   5.804   1.745
 5074SOL     OW16120   3.444   2.545   1.331
 5074SOL    HW116121   3.419   2.641   1.341
 5074SOL    HW216122   3.442   2.501   1.421
 5075SOL     OW16123   0.901   2.731   6.961
 5075SOL    HW116124   0.886   2.659   6.894
 5075SOL    HW216125   0.990   2.718   7.005
 5076SOL     OW16126   4.994   0.567   0.467
 5076SOL    HW116127   5.039   0.578   0.556
 5076SOL    HW216128   5.033   0.488   0.420
 5077SOL     OW16129   2.078   4.046   5.337
 5077SOL    HW116130   2.149   3.976   5.330
 5077SOL    HW216131   2.117   4.136   5.319
 5078SOL     OW16132   0.122   1.455   3.880
 5078SOL    HW116133   0.145   1.505   3.797
 5078SOL    HW216134   0.135   1.357   3.865
 5079SOL     OW16135   2.211   3.351   5.147
 5079SOL    HW116136   2.281   3.303   5.199
 5079SOL    HW216137   2.199   3.443   5.184
 5080SOL     OW16138   5.855   6.398   6.373
 5080SOL    HW116139   5.810   6.312   6.395
 5080SOL    HW216140   5.889   6.440   6.457
 5081SOL     OW16141   3.535   3.211   4.796
 5081SOL    HW116142   3.559   3.299   4.756
 5081SOL    HW216143   3.531   3.219   4.896
 5082SOL     OW16144   5.416   5.913   1.055
 5082SOL    HW116145   5.402   5.832   1.112
 5082SOL    HW216146   5.330   5.937   1.011
 5083SOL     OW16147   2.893   6.978   2.528
 5083SOL    HW116148   2.964   6.957   2.595
 5083SOL    HW216149   2.906   6.922   2.447
 5084SOL     OW16150   0.288   4.672   3.723
 5084SOL    HW116151   0.271   4.608   3.797
 5084SOL    HW216152   0.307   4.621   3.639
 5085SOL     OW16153   5.721   2.453   6.461
 5085SOL    HW116154   5.674   2.444   6.373
 5085SOL    HW216155   5.670   2.517   6.519
 5086SOL     OW16156   1.345   5.684   3.385
 5086SOL    HW116157   1.339   5.701   3.286
 5086SOL    HW216158   1.376   5.590   3.400
 5087SOL     OW16159   1.919   5.801   2.771
 5087SOL    HW116160   1.915   5.820   2.869
 5087SOL    HW216161   1.840   5.843   2.726
 5088SOL     OW16162   6.233   0.535   4.415
 5088SOL    HW116163   6.160   0.495   4.469
 5088SOL    HW216164   6.321   0.497   4.445
 5089SOL     OW16165   5.180   4.072   4.268
 5089SOL    HW116166   5.257   4.129   4.295
 5089SOL    HW216167   5.204   4.020   4.185
 5090SOL     OW16168   2.038   4.103   2.320
 5090SOL    HW116169   2.100   4.103   2.241
 5090SOL    HW216170   2.087   4.071   2.400
 5091SOL     OW16171   0.758   0.855   1.951
 5091SOL    HW116172   0.713   0.766   1.942
 5091SOL    HW216173   0.747   0.888   2.045
 5092SOL     OW16174   3.656   3.781   2.776
 5092SOL    HW116175   3.652   3.837   2.693
 5092SOL    HW216176   3.582   3.807   2.837
 5093SOL     OW16177   2.959   1.582   0.922
 5093SOL    HW116178   3.022   1.559   0.847
 5093SOL    HW216179   2.998   1.656   0.977
 5094SOL     OW16180   2.558   5.425   5.887
 5094SOL    HW116181   2.635   5.473   5.845
 5094SOL    HW216182   2.489   5.407   5.817
 5095SOL     OW16183   6.231   2.114   3.893
 5095SOL    HW116184   6.197   2.207   3.885
 5095SOL    HW216185   6.313   2.113   3.950
 5096SOL     OW16186   3.908   5.014   0.267
 5096SOL    HW116187   3.815   4.986   0.243
 5096SOL    HW216188   3.959   4.934   0.298
 5097SOL     OW16189   1.320   0.645   6.504
 5097SOL    HW116190   1.314   0.593   6.589
 5097SOL    HW216191   1.340   0.740   6.523
 5098SOL     OW16192   2.511   0.009   1.958
 5098SOL    HW116193   2.571   0.064   1.900
 5098SOL    HW216194   2.436   0.066   1.992
 5099SOL     OW16195   1.146   6.949   0.242
 5099SOL    HW116196   1.189   6.993   0.163
 5099SOL    HW216197   1.181   6.856   0.251
 5100SOL     OW16198   3.422   5.728   4.836
 5100SOL    HW116199   3.379   5.646   4.875
 5100SOL    HW216200   3.509   5.704   4.795
 5101SOL     OW16201   5.377   0.141   0.553
 5101SOL    HW116202   5.445   0.210   0.529
 5101SOL    HW216203   5.303   0.185   0.605
 5102SOL     OW16204   5.576   6.287   4.242
 5102SOL    HW116205   5.579   6.353   4.167
 5102SOL    HW216206   5.600   6.197   4.208
 5103SOL     OW16207   0.189   0.566   3.374
 5103SOL    HW116208   0.106   0.622   3.385
 5103SOL    HW216209   0.170   0.472   3.402
 5104SOL     OW16210   1.915   6.519   2.716
 5104SOL    HW116211   1.995   6.554   2.667
 5104SOL    HW216212   1.862   6.596   2.752
 5105SOL     OW16213   3.214   3.146   0.815
 5105SOL    HW116214   3.145   3.218   0.813
 5105SOL    HW216215   3.192   3.081   0.888
 5106SOL     OW16216   4.522   1.518   0.248
 5106SOL    HW116217   4.526   1.476   0.158
 5106SOL    HW216218   4.474   1.456   0.311
 5107SOL     OW16219   3.430   1.667   0.351
 5107SOL    HW116220   3.507   1.608   0.377
 5107SOL    HW216221   3.461   1.762   0.349
 5108SOL     OW16222   3.473   3.678   4.777
 5108SOL    HW116223   3.381   3.641   4.789
 5108SOL    HW216224   3.468   3.759   4.718
 5109SOL     OW16225   1.086   1.655   0.643
 5109SOL    HW116226   1.166   1.676   0.699
 5109SOL    HW216227   1.053   1.738   0.599
 5110SOL     OW16228   0.073   0.595   5.802
 5110SOL    HW116229   7.003   0.551   5.783
 5110SOL    HW216230   0.114   0.553   5.883
 5111SOL     OW16231   1.741   1.362   4.901
 5111SOL    HW116232   1.762   1.418   4.821
 5111SOL    HW216233   1.820   1.361   4.963
 5112SOL     OW16234   2.166   1.152   3.099
 5112SOL    HW116235   2.100   1.152   3.174
 5112SOL    HW216236   2.156   1.068   3.046
 5113SOL     OW16237   1.930   0.166   0.956
 5113SOL    HW116238   1.973   0.140   0.870
 5113SOL    HW216239   1.945   0.095   1.024
 5114SOL     OW16240   3.076   0.952   6.663
 5114SOL    HW116241   3.002   0.973   6.726
 5114SOL    HW216242   3.043   0.960   6.569
 5115SOL     OW16243   1.932   4.924   4.243
 5115SOL    HW116244   1.990   5.000   4.213
 5115SOL    HW216245   1.990   4.848   4.272
 5116SOL     OW16246   6.740   0.254   5.668
 5116SOL    HW116247   6.692   0.311   5.601
 5116SOL    HW216248   6.677   0.185   5.705
 5117SOL     OW16249   2.322   4.322   4.656
 5117SOL    HW116250   2.351   4.228   4.675
 5117SOL    HW216251   2.226   4.333   4.679
 5118SOL     OW16252   5.288   0.121   0.051
 5118SOL    HW116253   5.195   0.089   0.065
 5118SOL    HW216254   5.353   0.052   0.082
 5119SOL     OW16255   5.174   0.723   2.027
 5119SOL    HW116256   5.273   0.728   2.034
 5119SOL    HW216257   5.135   0.704   2.118
 5120SOL     OW16258   3.391   0.943   3.798
 5120SOL    HW116259   3.343   1.029   3.813
 5120SOL    HW216260   3.451   0.924   3.876
 5121SOL     OW16261   2.656   1.887   6.227
 5121SOL    HW116262   2.593   1.810   6.240
 5121SOL    HW216263   2.620   1.968   6.273
 5122SOL     OW16264   3.748   6.607   2.831
 5122SOL    HW116265   3.692   6.641   2.906
 5122SOL    HW216266   3.837   6.653   2.833
 5123SOL     OW16267   4.589   2.212   4.665
 5123SOL    HW116268   4.597   2.277   4.740
 5123SOL    HW216269   4.531   2.250   4.593
 5124SOL     OW16270   2.214   5.265   5.137
 5124SOL    HW116271   2.309   5.293   5.121
 5124SOL    HW216272   2.191   5.190   5.076
 5125SOL     OW16273   6.044   3.340   4.670
 5125SOL    HW116274   6.012   3.297   4.586
 5125SOL    HW216275   6.055   3.270   4.741
 5126SOL     OW16276   6.412   4.899   5.108
 5126SOL    HW116277   6.337   4.846   5.068
 5126SOL    HW216278   6.491   4.840   5.123
 5127SOL     OW16279   1.054   3.850   0.249
 5127SOL    HW116280   1.116   3.771   0.256
 5127SOL    HW216281   1.012   3.867   0.338
 5128SOL     OW16282   6.527   0.340   6.325
 5128SOL    HW116283   6.501   0.351   6.229
 5128SOL    HW216284   6.458   0.284   6.371
 5129SOL     OW16285   5.513   0.119   2.690
 5129SOL    HW116286   5.593   0.177   2.708
 5129SOL    HW216287   5.480   0.082   2.777
 5130SOL     OW16288   1.059   5.748   3.494
 5130SOL    HW116289   1.123   5.692   3.443
 5130SOL    HW216290   1.039   5.705   3.582
 5131SOL     OW16291   2.766   5.039   3.510
 5131SOL    HW116292   2.714   5.039   3.424
 5131SOL    HW216293   2.780   4.944   3.541
 5132SOL     OW16294   3.330   2.589   5.947
 5132SOL    HW116295   3.395   2.562   5.876
 5132SOL    HW216296   3.237   2.576   5.913
 5133SOL     OW16297   1.264   5.424   0.060
 5133SOL    HW116298   1.287   5.331   0.088
 5133SOL    HW216299   1.229   5.422   6.984
 5134SOL     OW16300   6.948   1.891   2.219
 5134SOL    HW116301   6.985   1.864   2.130
 5134SOL    HW216302   6.993   1.839   2.291
 5135SOL     OW16303   5.612   3.494   4.190
 5135SOL    HW116304   5.708   3.468   4.178
 5135SOL    HW216305   5.587   3.487   4.286
 5136SOL     OW16306   5.170   0.622   6.540
 5136SOL    HW116307   5.183   0.528   6.509
 5136SOL    HW216308   5.134   0.677   6.465
 5137SOL     OW16309   4.380   4.034   5.486
 5137SOL    HW116310   4.463   4.023   5.431
 5137SOL    HW216311   4.350   3.945   5.519
 5138SOL     OW16312   3.937   3.050   5.412
 5138SOL    HW116313   3.850   3.091   5.385
 5138SOL    HW216314   3.948   2.963   5.364
 5139SOL     OW16315   1.226   1.200   3.651
 5139SOL    HW116316   1.290   1.162   3.585
 5139SOL    HW216317   1.263   1.187   3.743
 5140SOL     OW16318   3.792   2.345   5.700
 5140SOL    HW116319   3.699   2.340   5.736
 5140SOL    HW216320   3.843   2.264   5.729
 5141SOL     OW16321   6.010   3.583   0.806
 5141SOL    HW116322   5.946   3.585   0.730
 5141SOL    HW216323   5.968   3.628   0.886
 5142SOL     OW16324   5.895   6.541   2.931
 5142SOL    HW116325   5.812   6.510   2.885
 5142SOL    HW216326   5.940   6.463   2.976
 5143SOL     OW16327   6.491   4.217   4.269
 5143SOL    HW116328   6.542   4.277   4.207
 5143SOL    HW216329   6.437   4.152   4.215
 5144SOL     OW16330   0.875   4.742   5.375
 5144SOL    HW116331   0.793   4.788   5.411
 5144SOL    HW216332   0.942   4.812   5.348
 5145SOL     OW16333   4.001   5.759   6.510
 5145SOL    HW116334   4.018   5.841   6.565
 5145SOL    HW216335   4.054   5.683   6.548
 5146SOL     OW16336   2.884   3.634   5.599
 5146SOL    HW116337   2.855   3.646   5.695
 5146SOL    HW216338   2.951   3.561   5.594
 5147SOL     OW16339   6.623   5.810   3.094
 5147SOL    HW116340   6.535   5.775   3.062
 5147SOL    HW216341   6.610   5.900   3.137
 5148SOL     OW16342   6.558   1.070   1.945
 5148SOL    HW116343   6.630   1.088   2.012
 5148SOL    HW216344   6.571   0.979   1.905
 5149SOL     OW16345   6.429   6.106   3.538
 5149SOL    HW116346   6.433   6.011   3.571
 5149SOL    HW216347   6.520   6.133   3.507
 5150SOL     OW16348   2.495   5.773   3.217
 5150SOL    HW116349   2.591   5.772   3.244
 5150SOL    HW216350   2.470   5.865   3.187
 5151SOL     OW16351   6.743   3.727   2.405
 5151SOL    HW116352   6.739   3.812   2.458
 5151SOL    HW216353   6.829   3.680   2.423
 5152SOL     OW16354   1.746   5.083   0.312
 5152SOL    HW116355   1.811   5.135   0.368
 5152SOL    HW216356   1.700   5.145   0.249
 5153SOL     OW16357   1.342   1.494   0.582
 5153SOL    HW116358   1.327   1.572   0.644
 5153SOL    HW216359   1.378   1.527   0.495
 5154SOL     OW16360   1.299   2.804   5.954
 5154SOL    HW116361   1.329   2.808   5.859
 5154SOL    HW216362   1.331   2.886   6.002
 5155SOL     OW16363   4.283   0.041   2.016
 5155SOL    HW116364   4.271   0.029   1.917
 5155SOL    HW216365   4.355   6.998   2.048
 5156SOL     OW16366   5.342   3.843   5.809
 5156SOL    HW116367   5.357   3.858   5.907
 5156SOL    HW216368   5.426   3.864   5.759
 5157SOL     OW16369   3.594   1.763   3.478
 5157SOL    HW116370   3.504   1.799   3.453
 5157SOL    HW216371   3.630   1.814   3.556
 5158SOL     OW16372   3.936   2.205   1.304
 5158SOL    HW116373   3.969   2.116   1.273
 5158SOL    HW216374   3.836   2.207   1.301
 5159SOL     OW16375   5.829   3.308   5.610
 5159SOL    HW116376   5.884   3.333   5.690
 5159SOL    HW216377   5.738   3.281   5.640
 5160SOL     OW16378   0.753   4.987   2.981
 5160SOL    HW116379   0.776   4.932   2.902
 5160SOL    HW216380   0.655   4.978   3.001
 5161SOL     OW16381   2.043   3.806   6.608
 5161SOL    HW116382   2.015   3.859   6.688
 5161SOL    HW216383   2.095   3.726   6.638
 5162SOL     OW16384   0.809   5.633   2.759
 5162SOL    HW116385   0.890   5.651   2.815
 5162SOL    HW216386   0.775   5.541   2.778
 5163SOL     OW16387   2.819   6.619   0.289
 5163SOL    HW116388   2.784   6.595   0.198
 5163SOL    HW216389   2.826   6.536   0.345
 5164SOL     OW16390   4.394   1.903   6.824
 5164SOL    HW116391   4.383   1.897   6.725
 5164SOL    HW216392   4.367   1.817   6.867
 5165SOL     OW16393   0.390   4.082   5.398
 5165SOL    HW116394   0.383   4.173   5.437
 5165SOL    HW216395   0.433   4.088   5.308
 5166SOL     OW16396   0.549   5.400   2.437
 5166SOL    HW116397   0.647   5.383   2.448
 5166SOL    HW216398   0.529   5.417   2.340
 5167SOL     OW16399   6.433   4.974   5.873
 5167SOL    HW116400   6.340   4.978   5.908
 5167SOL    HW216401   6.448   5.048   5.807
 5168SOL     OW16402   4.979   3.378   1.494
 5168SOL    HW116403   4.945   3.419   1.409
 5168SOL    HW216404   4.902   3.343   1.547
 5169SOL     OW16405   4.085   2.068   4.484
 5169SOL    HW116406   4.045   2.065   4.575
 5169SOL    HW216407   4.045   1.997   4.427
 5170SOL     OW16408   1.160   4.062   5.070
 5170SOL    HW116409   1.133   4.134   5.134
 5170SOL    HW216410   1.202   3.986   5.121
 5171SOL     OW16411   0.685   4.351   5.205
 5171SOL    HW116412   0.728   4.262   5.190
 5171SOL    HW216413   0.587   4.339   5.218
 5172SOL     OW16414   1.423   3.230   2.626
 5172SOL    HW116415   1.376   3.143   2.640
 5172SOL    HW216416   1.522   3.217   2.633
 5173SOL     OW16417   4.760   5.349   4.803
 5173SOL    HW116418   4.831   5.366   4.870
 5173SOL    HW216419   4.747   5.431   4.747
 5174SOL     OW16420   2.348   5.073   3.163
 5174SOL    HW116421   2.328   5.064   3.260
 5174SOL    HW216422   2.285   5.138   3.121
 5175SOL     OW16423   2.516   4.239   6.820
 5175SOL    HW116424   2.590   4.278   6.766
 5175SOL    HW216425   2.510   4.286   6.908
 5176SOL     OW16426   5.060   3.299   6.997
 5176SOL    HW116427   5.013   3.214   0.003
 5176SOL    HW216428   5.157   3.290   0.000
 5177SOL     OW16429   5.703   0.243   0.188
 5177SOL    HW116430   5.767   0.218   0.261
 5177SOL    HW216431   5.705   0.343   0.175
 5178SOL     OW16432   0.624   3.526   2.731
 5178SOL    HW116433   0.724   3.537   2.729
 5178SOL    HW216434   0.600   3.454   2.797
 5179SOL     OW16435   4.588   4.853   4.084
 5179SOL    HW116436   4.592   4.913   4.004
 5179SOL    HW216437   4.512   4.880   4.143
 5180SOL     OW16438   2.808   2.372   0.713
 5180SOL    HW116439   2.791   2.436   0.638
 5180SOL    HW216440   2.891   2.398   0.761
 5181SOL     OW16441   5.080   0.811   3.053
 5181SOL    HW116442   5.065   0.721   3.094
 5181SOL    HW216443   5.026   0.818   2.969
 5182SOL     OW16444   4.086   4.170   1.706
 5182SOL    HW116445   4.167   4.228   1.698
 5182SOL    HW216446   4.112   4.081   1.743
 5183SOL     OW16447   3.931   2.143   2.749
 5183SOL    HW116448   3.995   2.151   2.825
 5183SOL    HW216449   3.955   2.208   2.678
 5184SOL     OW16450   0.529   1.674   3.987
 5184SOL    HW116451   0.473   1.617   4.048
 5184SOL    HW216452   0.470   1.715   3.917
 5185SOL     OW16453   5.555   0.829   2.831
 5185SOL    HW116454   5.478   0.874   2.876
 5185SOL    HW216455   5.601   0.895   2.771
 5186SOL     OW16456   6.831   2.768   0.131
 5186SOL    HW116457   6.754   2.740   0.074
 5186SOL    HW216458   6.860   2.860   0.104
 5187SOL     OW16459   1.334   6.324   4.380
 5187SOL    HW116460   1.330   6.225   4.392
 5187SOL    HW216461   1.412   6.348   4.322
 5188SOL     OW16462   0.055   6.071   1.434
 5188SOL    HW116463   7.000   6.061   1.502
 5188SOL    HW216464   0.058   6.165   1.402
 5189SOL     OW16465   4.024   5.243   0.948
 5189SOL    HW116466   3.929   5.253   0.920
 5189SOL    HW216467   4.081   5.306   0.895
 5190SOL     OW16468   0.349   2.304   4.772
 5190SOL    HW116469   0.359   2.385   4.714
 5190SOL    HW216470   0.386   2.224   4.725
 5191SOL     OW16471   4.018   0.191   2.135
 5191SOL    HW116472   4.042   0.101   2.100
 5191SOL    HW216473   4.051   0.262   2.073
 5192SOL     OW16474   2.136   5.460   1.769
 5192SOL    HW116475   2.216   5.518   1.781
 5192SOL    HW216476   2.156   5.368   1.801
 5193SOL     OW16477   5.058   5.012   4.918
 5193SOL    HW116478   5.089   5.022   5.013
 5193SOL    HW216479   4.965   5.049   4.909
 5194SOL     OW16480   4.376   1.888   6.529
 5194SOL    HW116481   4.298   1.859   6.474
 5194SOL    HW216482   4.411   1.975   6.492
 5195SOL     OW16483   6.842   6.413   4.248
 5195SOL    HW116484   6.822   6.325   4.292
 5195SOL    HW216485   6.781   6.483   4.286
 5196SOL     OW16486   3.753   6.454   1.001
 5196SOL    HW116487   3.799   6.439   1.089
 5196SOL    HW216488   3.687   6.529   1.011
 5197SOL     OW16489   2.361   4.105   6.000
 5197SOL    HW116490   2.291   4.133   6.065
 5197SOL    HW216491   2.365   4.005   5.996
 5198SOL     OW16492   4.610   6.060   2.992
 5198SOL    HW116493   4.551   6.112   2.930
 5198SOL    HW216494   4.600   5.962   2.973
 5199SOL     OW16495   1.422   5.998   0.619
 5199SOL    HW116496   1.359   5.920   0.610
 5199SOL    HW216497   1.375   6.082   0.590
 5200SOL     OW16498   0.972   3.490   5.490
 5200SOL    HW116499   0.972   3.400   5.535
 5200SOL    HW216500   0.907   3.550   5.536
 5201SOL     OW16501   0.387   0.257   2.873
 5201SOL    HW116502   0.447   0.222   2.945
 5201SOL    HW216503   0.306   0.198   2.866
 5202SOL     OW16504   6.054   3.063   6.421
 5202SOL    HW116505   6.154   3.064   6.429
 5202SOL    HW216506   6.022   2.969   6.416
 5203SOL     OW16507   2.373   2.520   0.233
 5203SOL    HW116508   2.340   2.444   0.289
 5203SOL    HW216509   2.473   2.517   0.230
 5204SOL     OW16510   4.133   5.167   6.884
 5204SOL    HW116511   4.090   5.088   6.929
 5204SOL    HW216512   4.061   5.229   6.851
 5205SOL     OW16513   0.824   6.208   0.814
 5205SOL    HW116514   0.752   6.229   0.748
 5205SOL    HW216515   0.825   6.277   0.886
 5206SOL     OW16516   0.633   4.565   5.625
 5206SOL    HW116517   0.710   4.554   5.688
 5206SOL    HW216518   0.654   4.518   5.539
 5207SOL     OW16519   1.329   5.991   3.709
 5207SOL    HW116520   1.252   5.968   3.770
 5207SOL    HW216521   1.343   6.089   3.710
 5208SOL     OW16522   4.011   2.780   6.139
 5208SOL    HW116523   4.034   2.794   6.042
 5208SOL    HW216524   4.093   2.751   6.188
 5209SOL     OW16525   6.047   6.325   3.017
 5209SOL    HW116526   6.054   6.304   3.115
 5209SOL    HW216527   6.030   6.241   2.966
 5210SOL     OW16528   4.703   2.897   6.455
 5210SOL    HW116529   4.611   2.857   6.444
 5210SOL    HW216530   4.767   2.848   6.396
 5211SOL     OW16531   3.436   2.760   5.221
 5211SOL    HW116532   3.428   2.782   5.319
 5211SOL    HW216533   3.364   2.695   5.197
 5212SOL     OW16534   7.003   2.476   0.923
 5212SOL    HW116535   6.971   2.488   0.828
 5212SOL    HW216536   6.926   2.447   0.980
 5213SOL     OW16537   4.774   3.449   6.501
 5213SOL    HW116538   4.852   3.435   6.440
 5213SOL    HW216539   4.716   3.367   6.501
 5214SOL     OW16540   4.986   1.290   5.870
 5214SOL    HW116541   4.935   1.262   5.951
 5214SOL    HW216542   4.952   1.378   5.838
 5215SOL     OW16543   6.821   4.704   4.403
 5215SOL    HW116544   6.874   4.670   4.325
 5215SOL    HW216545   6.850   4.797   4.425
 5216SOL     OW16546   5.161   5.328   1.829
 5216SOL    HW116547   5.240   5.383   1.855
 5216SOL    HW216548   5.078   5.383   1.837
 5217SOL     OW16549   4.016   5.327   4.400
 5217SOL    HW116550   4.019   5.422   4.366
 5217SOL    HW216551   4.109   5.293   4.412
 5218SOL     OW16552   0.754   1.144   3.899
 5218SOL    HW116553   0.819   1.068   3.903
 5218SOL    HW216554   0.785   1.211   3.832
 5219SOL     OW16555   4.533   1.446   5.373
 5219SOL    HW116556   4.611   1.475   5.429
 5219SOL    HW216557   4.530   1.346   5.369
 5220SOL     OW16558   0.726   6.076   2.825
 5220SOL    HW116559   0.643   6.023   2.843
 5220SOL    HW216560   0.802   6.036   2.877
 5221SOL     OW16561   5.781   2.417   4.119
 5221SOL    HW116562   5.839   2.351   4.167
 5221SOL    HW216563   5.694   2.373   4.095
 5222SOL     OW16564   3.767   5.783   2.888
 5222SOL    HW116565   3.730   5.728   2.813
 5222SOL    HW216566   3.865   5.794   2.876
 5223SOL     OW16567   6.175   2.449   0.694
 5223SOL    HW116568   6.239   2.373   0.710
 5223SOL    HW216569   6.108   2.453   0.768
 5224SOL     OW16570   0.068   2.441   4.807
 5224SOL    HW116571   0.165   2.435   4.786
 5224SOL    HW216572   0.019   2.369   4.758
 5225SOL     OW16573   1.149   0.496   3.195
 5225SOL    HW116574   1.099   0.417   3.161
 5225SOL    HW216575   1.103   0.531   3.277
 5226SOL     OW16576   0.299   5.639   4.992
 5226SOL    HW116577   0.357   5.568   5.032
 5226SOL    HW216578   0.305   5.722   5.048
 5227SOL     OW16579   0.521   3.533   4.751
 5227SOL    HW116580   0.598   3.468   4.753
 5227SOL    HW216581   0.554   3.623   4.723
 5228SOL     OW16582   6.106   2.756   1.370
 5228SOL    HW116583   6.174   2.693   1.409
 5228SOL    HW216584   6.033   2.770   1.437
 5229SOL     OW16585   1.800   5.722   6.888
 5229SOL    HW116586   1.839   5.788   6.953
 5229SOL    HW216587   1.701   5.734   6.884
 5230SOL     OW16588   0.306   5.933   1.664
 5230SOL    HW116589   0.300   5.924   1.564
 5230SOL    HW216590   0.236   5.996   1.696
 5231SOL     OW16591   4.510   3.354   5.480
 5231SOL    HW116592   4.539   3.284   5.546
 5231SOL    HW216593   4.588   3.412   5.457
 5232SOL     OW16594   3.420   2.821   6.093
 5232SOL    HW116595   3.518   2.839   6.087
 5232SOL    HW216596   3.394   2.758   6.020
 5233SOL     OW16597   4.941   0.931   2.352
 5233SOL    HW116598   4.918   1.000   2.284
 5233SOL    HW216599   4.975   0.976   2.435
 5234SOL     OW16600   2.293   1.211   6.540
 5234SOL    HW116601   2.295   1.286   6.606
 5234SOL    HW216602   2.242   1.239   6.459
 5235SOL     OW16603   2.018   2.454   0.458
 5235SOL    HW116604   2.109   2.419   0.476
 5235SOL    HW216605   2.012   2.550   0.487
 5236SOL     OW16606   5.592   4.459   2.853
 5236SOL    HW116607   5.531   4.522   2.806
 5236SOL    HW216608   5.681   4.458   2.807
 5237SOL     OW16609   1.889   1.079   5.178
 5237SOL    HW116610   1.881   1.174   5.147
 5237SOL    HW216611   1.866   1.017   5.103
 5238SOL     OW16612   0.909   4.482   0.223
 5238SOL    HW116613   0.882   4.385   0.229
 5238SOL    HW216614   0.949   4.511   0.310
 5239SOL     OW16615   3.531   2.967   3.683
 5239SOL    HW116616   3.456   2.957   3.617
 5239SOL    HW216617   3.496   2.949   3.775
 5240SOL     OW16618   2.792   1.257   6.157
 5240SOL    HW116619   2.761   1.335   6.103
 5240SOL    HW216620   2.713   1.208   6.194
 5241SOL     OW16621   1.128   4.782   5.123
 5241SOL    HW116622   1.191   4.851   5.159
 5241SOL    HW216623   1.126   4.704   5.185
 5242SOL     OW16624   0.652   6.377   6.447
 5242SOL    HW116625   0.706   6.319   6.508
 5242SOL    HW216626   0.693   6.468   6.443
 5243SOL     OW16627   0.723   5.146   1.727
 5243SOL    HW116628   0.749   5.229   1.677
 5243SOL    HW216629   0.801   5.083   1.728
 5244SOL     OW16630   3.917   5.291   0.213
 5244SOL    HW116631   4.006   5.334   0.223
 5244SOL    HW216632   3.927   5.191   0.219
 5245SOL     OW16633   3.896   4.387   0.282
 5245SOL    HW116634   3.943   4.375   0.194
 5245SOL    HW216635   3.823   4.319   0.289
 5246SOL     OW16636   5.975   3.900   2.162
 5246SOL    HW116637   5.934   3.810   2.174
 5246SOL    HW216638   6.040   3.898   2.086
 5247SOL     OW16639   1.120   0.663   0.345
 5247SOL    HW116640   1.211   0.622   0.353
 5247SOL    HW216641   1.117   0.723   0.265
 5248SOL     OW16642   5.533   0.885   4.071
 5248SOL    HW116643   5.476   0.913   3.994
 5248SOL    HW216644   5.530   0.785   4.081
 5249SOL     OW16645   6.828   4.969   5.424
 5249SOL    HW116646   6.775   4.886   5.438
 5249SOL    HW216647   6.925   4.946   5.414
 5250SOL     OW16648   1.645   6.452   5.561
 5250SOL    HW116649   1.695   6.366   5.545
 5250SOL    HW216650   1.686   6.524   5.506
 5251SOL     OW16651   0.435   3.716   0.662
 5251SOL    HW116652   0.390   3.723   0.751
 5251SOL    HW216653   0.427   3.623   0.628
 5252SOL     OW16654   2.281   6.276   0.479
 5252SOL    HW116655   2.261   6.222   0.397
 5252SOL    HW216656   2.205   6.269   0.543
 5253SOL     OW16657   5.517   4.888   4.422
 5253SOL    HW116658   5.534   4.984   4.397
 5253SOL    HW216659   5.488   4.837   4.341
 5254SOL     OW16660   4.661   1.240   3.321
 5254SOL    HW116661   4.683   1.311   3.389
 5254SOL    HW216662   4.651   1.283   3.231
 5255SOL     OW16663   5.228   1.135   6.178
 5255SOL    HW116664   5.257   1.048   6.217
 5255SOL    HW216665   5.259   1.210   6.237
 5256SOL     OW16666   4.389   0.933   3.148
 5256SOL    HW116667   4.380   0.916   3.050
 5256SOL    HW216668   4.307   0.900   3.195
 5257SOL     OW16669   5.179   6.506   2.188
 5257SOL    HW116670   5.122   6.444   2.243
 5257SOL    HW216671   5.121   6.555   2.123
 5258SOL     OW16672   5.900   3.830   1.800
 5258SOL    HW116673   5.987   3.856   1.844
 5258SOL    HW216674   5.918   3.761   1.731
 5259SOL     OW16675   5.197   6.101   0.341
 5259SOL    HW116676   5.193   6.088   0.441
 5259SOL    HW216677   5.104   6.103   0.304
 5260SOL     OW16678   5.087   3.706   1.000
 5260SOL    HW116679   5.097   3.737   0.906
 5260SOL    HW216680   5.056   3.611   1.001
 5261SOL     OW16681   1.271   3.747   0.605
 5261SOL    HW116682   1.306   3.660   0.639
 5261SOL    HW216683   1.300   3.821   0.666
 5262SOL     OW16684   2.817   0.677   2.878
 5262SOL    HW116685   2.782   0.770   2.892
 5262SOL    HW216686   2.897   0.681   2.818
 5263SOL     OW16687   2.027   1.736   4.713
 5263SOL    HW116688   2.100   1.738   4.645
 5263SOL    HW216689   2.038   1.814   4.775
 5264SOL     OW16690   5.831   1.619   2.291
 5264SOL    HW116691   5.799   1.525   2.276
 5264SOL    HW216692   5.765   1.668   2.348
 5265SOL     OW16693   6.085   3.967   4.625
 5265SOL    HW116694   6.033   3.897   4.575
 5265SOL    HW216695   6.105   4.042   4.563
 5266SOL     OW16696   2.241   6.138   1.163
 5266SOL    HW116697   2.240   6.204   1.237
 5266SOL    HW216698   2.323   6.081   1.170
 5267SOL     OW16699   4.978   3.692   4.911
 5267SOL    HW116700   4.923   3.754   4.854
 5267SOL    HW216701   4.918   3.624   4.953
 5268SOL     OW16702   5.994   0.001   6.549
 5268SOL    HW116703   5.937   0.071   6.506
 5268SOL    HW216704   6.070   0.045   6.597
 5269SOL     OW16705   1.407   6.578   3.376
 5269SOL    HW116706   1.501   6.576   3.343
 5269SOL    HW216707   1.384   6.671   3.406
 5270SOL     OW16708   5.881   1.383   1.418
 5270SOL    HW116709   5.980   1.379   1.433
 5270SOL    HW216710   5.838   1.432   1.494
 5271SOL     OW16711   6.286   5.660   4.733
 5271SOL    HW116712   6.295   5.685   4.830
 5271SOL    HW216713   6.295   5.561   4.723
 5272SOL     OW16714   2.819   5.108   1.803
 5272SOL    HW116715   2.845   5.156   1.887
 5272SOL    HW216716   2.797   5.013   1.825
 5273SOL     OW16717   6.664   3.197   3.232
 5273SOL    HW116718   6.655   3.108   3.278
 5273SOL    HW216719   6.717   3.186   3.148
 5274SOL     OW16720   6.361   6.800   2.056
 5274SOL    HW116721   6.423   6.787   1.979
 5274SOL    HW216722   6.324   6.893   2.054
 5275SOL     OW16723   3.700   2.091   6.836
 5275SOL    HW116724   3.718   2.074   6.739
 5275SOL    HW216725   3.761   2.163   6.870
 5276SOL     OW16726   1.606   0.084   0.722
 5276SOL    HW116727   1.667   0.098   0.644
 5276SOL    HW216728   1.539   0.014   0.699
 5277SOL     OW16729   1.397   2.050   3.089
 5277SOL    HW116730   1.392   2.102   3.003
 5277SOL    HW216731   1.317   2.070   3.145
 5278SOL     OW16732   5.602   0.135   3.489
 5278SOL    HW116733   5.533   0.130   3.417
 5278SOL    HW216734   5.682   0.081   3.461
 5279SOL     OW16735   1.422   5.072   6.796
 5279SOL    HW116736   1.418   5.172   6.794
 5279SOL    HW216737   1.500   5.042   6.850
 5280SOL     OW16738   3.216   6.510   5.177
 5280SOL    HW116739   3.262   6.499   5.089
 5280SOL    HW216740   3.273   6.565   5.238
 5281SOL     OW16741   0.559   1.602   2.346
 5281SOL    HW116742   0.621   1.578   2.272
 5281SOL    HW216743   0.608   1.655   2.415
 5282SOL     OW16744   2.678   1.685   3.226
 5282SOL    HW116745   2.684   1.610   3.160
 5282SOL    HW216746   2.583   1.697   3.255
 5283SOL     OW16747   4.521   6.329   1.352
 5283SOL    HW116748   4.567   6.417   1.366
 5283SOL    HW216749   4.494   6.292   1.440
 5284SOL     OW16750   5.292   3.800   3.503
 5284SOL    HW116751   5.283   3.709   3.462
 5284SOL    HW216752   5.291   3.870   3.432
 5285SOL     OW16753   2.204   4.529   3.669
 5285SOL    HW116754   2.154   4.548   3.754
 5285SOL    HW216755   2.141   4.530   3.592
 5286SOL     OW16756   1.657   3.380   1.508
 5286SOL    HW116757   1.592   3.456   1.507
 5286SOL    HW216758   1.660   3.337   1.418
 5287SOL     OW16759   2.008   6.454   1.294
 5287SOL    HW116760   1.909   6.452   1.304
 5287SOL    HW216761   2.050   6.394   1.363
 5288SOL     OW16762   3.934   0.137   1.699
 5288SOL    HW116763   3.844   0.101   1.726
 5288SOL    HW216764   3.924   0.230   1.666
 5289SOL     OW16765   1.475   5.323   6.008
 5289SOL    HW116766   1.522   5.330   5.920
 5289SOL    HW216767   1.438   5.231   6.020
 5290SOL     OW16768   1.894   4.646   5.567
 5290SOL    HW116769   1.886   4.548   5.588
 5290SOL    HW216770   1.967   4.660   5.500
 5291SOL     OW16771   2.312   5.641   5.435
 5291SOL    HW116772   2.312   5.676   5.528
 5291SOL    HW216773   2.379   5.692   5.380
 5292SOL     OW16774   6.898   3.917   0.109
 5292SOL    HW116775   6.931   4.007   0.134
 5292SOL    HW216776   6.913   3.854   0.185
 5293SOL     OW16777   1.374   0.673   3.808
 5293SOL    HW116778   1.316   0.721   3.874
 5293SOL    HW216779   1.468   0.672   3.842
 5294SOL     OW16780   4.770   3.407   5.693
 5294SOL    HW116781   4.785   3.410   5.792
 5294SOL    HW216782   4.695   3.469   5.670
 5295SOL     OW16783   4.930   0.251   2.209
 5295SOL    HW116784   4.983   0.172   2.178
 5295SOL    HW216785   4.837   0.222   2.232
 5296SOL     OW16786   1.532   5.464   0.443
 5296SOL    HW116787   1.550   5.481   0.540
 5296SOL    HW216788   1.611   5.491   0.389
 5297SOL     OW16789   3.377   1.874   1.281
 5297SOL    HW116790   3.477   1.885   1.279
 5297SOL    HW216791   3.355   1.777   1.268
 5298SOL     OW16792   1.125   5.989   6.338
 5298SOL    HW116793   1.036   5.943   6.344
 5298SOL    HW216794   1.198   5.921   6.338
 5299SOL     OW16795   2.731   2.410   1.176
 5299SOL    HW116796   2.805   2.384   1.114
 5299SOL    HW216797   2.644   2.405   1.127
 5300SOL     OW16798   6.949   6.412   2.043
 5300SOL    HW116799   6.971   6.509   2.036
 5300SOL    HW216800   0.014   6.358   2.023
 5301SOL     OW16801   4.266   2.870   0.776
 5301SOL    HW116802   4.338   2.901   0.714
 5301SOL    HW216803   4.296   2.786   0.823
 5302SOL     OW16804   6.343   4.450   2.767
 5302SOL    HW116805   6.286   4.386   2.716
 5302SOL    HW216806   6.412   4.490   2.706
 5303SOL     OW16807   6.849   6.001   3.124
 5303SOL    HW116808   6.798   5.942   3.061
 5303SOL    HW216809   6.785   6.040   3.191
 5304SOL     OW16810   6.374   1.297   6.459
 5304SOL    HW116811   6.287   1.266   6.420
 5304SOL    HW216812   6.443   1.226   6.446
 5305SOL     OW16813   1.295   5.806   4.229
 5305SOL    HW116814   1.269   5.763   4.143
 5305SOL    HW216815   1.227   5.875   4.254
 5306SOL     OW16816   0.678   5.185   5.112
 5306SOL    HW116817   0.592   5.193   5.062
 5306SOL    HW216818   0.754   5.202   5.050
 5307SOL     OW16819   4.218   0.204   6.951
 5307SOL    HW116820   4.180   0.250   0.013
 5307SOL    HW216821   4.184   0.248   6.868
 5308SOL     OW16822   1.072   5.929   3.817
 5308SOL    HW116823   1.003   5.862   3.844
 5308SOL    HW216824   1.056   5.956   3.721
 5309SOL     OW16825   3.807   4.152   1.755
 5309SOL    HW116826   3.756   4.185   1.676
 5309SOL    HW216827   3.905   4.167   1.740
 5310SOL     OW16828   5.911   2.981   1.471
 5310SOL    HW116829   5.882   2.919   1.544
 5310SOL    HW216830   5.997   3.026   1.497
 5311SOL     OW16831   0.069   6.365   1.368
 5311SOL    HW116832   0.114   6.388   1.281
 5311SOL    HW216833   0.003   6.436   1.391
 5312SOL     OW16834   0.613   3.547   2.117
 5312SOL    HW116835   0.666   3.630   2.102
 5312SOL    HW216836   0.548   3.562   2.192
 5313SOL     OW16837   1.104   3.874   6.775
 5313SOL    HW116838   1.056   3.867   6.863
 5313SOL    HW216839   1.121   3.971   6.754
 5314SOL     OW16840   3.345   5.769   0.334
 5314SOL    HW116841   3.365   5.671   0.328
 5314SOL    HW216842   3.376   5.804   0.422
 5315SOL     OW16843   3.626   3.312   1.404
 5315SOL    HW116844   3.622   3.361   1.491
 5315SOL    HW216845   3.545   3.255   1.394
 5316SOL     OW16846   0.101   4.465   4.416
 5316SOL    HW116847   0.033   4.458   4.489
 5316SOL    HW216848   0.112   4.560   4.388
 5317SOL     OW16849   6.930   0.606   4.759
 5317SOL    HW116850   6.885   0.695   4.772
 5317SOL    HW216851   0.001   0.607   4.803
 5318SOL     OW16852   0.172   1.805   5.549
 5318SOL    HW116853   0.152   1.774   5.642
 5318SOL    HW216854   0.154   1.904   5.543
 5319SOL     OW16855   4.650   6.687   6.413
 5319SOL    HW116856   4.656   6.589   6.431
 5319SOL    HW216857   4.737   6.720   6.376
 5320SOL     OW16858   6.002   4.678   6.632
 5320SOL    HW116859   6.071   4.662   6.562
 5320SOL    HW216860   5.975   4.591   6.672
 5321SOL     OW16861   0.543   3.933   2.715
 5321SOL    HW116862   0.628   3.980   2.740
 5321SOL    HW216863   0.485   3.924   2.796
 5322SOL     OW16864   3.756   5.755   5.981
 5322SOL    HW116865   3.656   5.759   5.979
 5322SOL    HW216866   3.789   5.782   6.071
 5323SOL     OW16867   4.280   3.269   6.981
 5323SOL    HW116868   4.360   3.255   0.021
 5323SOL    HW216869   4.243   3.361   6.997
 5324SOL     OW16870   3.993   2.291   1.768
 5324SOL    HW116871   3.922   2.298   1.838
 5324SOL    HW216872   4.076   2.336   1.801
 5325SOL     OW16873   5.958   6.923   3.804
 5325SOL    HW116874   5.911   6.908   3.717
 5325SOL    HW216875   6.004   6.839   3.832
 5326SOL     OW16876   0.138   5.844   3.357
 5326SOL    HW116877   0.210   5.843   3.427
 5326SOL    HW216878   0.057   5.797   3.392
 5327SOL     OW16879   6.411   4.610   4.983
 5327SOL    HW116880   6.456   4.547   4.919
 5327SOL    HW216881   6.328   4.568   5.019
 5328SOL     OW16882   4.451   2.768   5.970
 5328SOL    HW116883   4.467   2.711   5.889
 5328SOL    HW216884   4.413   2.856   5.941
 5329SOL     OW16885   0.717   3.919   0.655
 5329SOL    HW116886   0.627   3.878   0.668
 5329SOL    HW216887   0.785   3.847   0.643
 5330SOL     OW16888   4.041   3.902   6.553
 5330SOL    HW116889   4.033   3.970   6.626
 5330SOL    HW216890   3.951   3.860   6.537
 5331SOL     OW16891   5.593   0.491   1.645
 5331SOL    HW116892   5.685   0.529   1.639
 5331SOL    HW216893   5.570   0.445   1.559
 5332SOL     OW16894   0.494   4.588   0.475
 5332SOL    HW116895   0.486   4.632   0.564
 5332SOL    HW216896   0.464   4.493   0.483
 5333SOL     OW16897   0.727   0.709   3.788
 5333SOL    HW116898   0.637   0.667   3.800
 5333SOL    HW216899   0.791   0.670   3.853
 5334SOL     OW16900   3.080   5.824   5.191
 5334SOL    HW116901   3.114   5.847   5.282
 5334SOL    HW216902   3.026   5.740   5.197
 5335SOL     OW16903   6.903   4.884   2.194
 5335SOL    HW116904   6.873   4.952   2.260
 5335SOL    HW216905   6.954   4.812   2.242
 5336SOL     OW16906   2.215   1.576   3.688
 5336SOL    HW116907   2.157   1.656   3.674
 5336SOL    HW216908   2.250   1.575   3.782
 5337SOL     OW16909   4.935   4.795   1.995
 5337SOL    HW116910   4.965   4.742   1.915
 5337SOL    HW216911   4.890   4.733   2.060
 5338SOL     OW16912   5.857   0.884   6.049
 5338SOL    HW116913   5.902   0.885   6.138
 5338SOL    HW216914   5.758   0.897   6.062
 5339SOL     OW16915   5.884   1.034   2.950
 5339SOL    HW116916   5.931   1.120   2.926
 5339SOL    HW216917   5.843   0.995   2.867
 5340SOL     OW16918   5.813   3.966   1.105
 5340SOL    HW116919   5.716   3.989   1.115
 5340SOL    HW216920   5.865   4.050   1.086
 5341SOL     OW16921   2.654   5.302   5.008
 5341SOL    HW116922   2.688   5.388   4.971
 5341SOL    HW216923   2.570   5.320   5.060
 5342SOL     OW16924   5.266   6.257   4.989
 5342SOL    HW116925   5.172   6.282   4.964
 5342SOL    HW216926   5.276   6.158   4.985
 5343SOL     OW16927   4.201   3.596   4.967
 5343SOL    HW116928   4.256   3.629   4.890
 5343SOL    HW216929   4.178   3.673   5.027
 5344SOL     OW16930   1.529   1.840   1.290
 5344SOL    HW116931   1.619   1.880   1.307
 5344SOL    HW216932   1.464   1.913   1.269
 5345SOL     OW16933   5.229   6.649   0.142
 5345SOL    HW116934   5.307   6.618   0.086
 5345SOL    HW216935   5.190   6.732   0.101
 5346SOL     OW16936   2.718   5.611   3.576
 5346SOL    HW116937   2.724   5.519   3.539
 5346SOL    HW216938   2.663   5.610   3.660
 5347SOL     OW16939   0.395   3.122   2.765
 5347SOL    HW116940   0.305   3.084   2.744
 5347SOL    HW216941   0.449   3.128   2.681
 5348SOL     OW16942   6.816   1.414   6.866
 5348SOL    HW116943   6.793   1.340   6.930
 5348SOL    HW216944   6.781   1.501   6.902
 5349SOL     OW16945   2.028   3.746   0.587
 5349SOL    HW116946   2.096   3.817   0.603
 5349SOL    HW216947   2.002   3.745   0.491
 5350SOL     OW16948   1.915   0.097   4.757
 5350SOL    HW116949   1.969   0.020   4.790
 5350SOL    HW216950   1.972   0.157   4.701
 5351SOL     OW16951   7.013   5.477   2.301
 5351SOL    HW116952   0.071   5.539   2.320
 5351SOL    HW216953   6.981   5.491   2.207
 5352SOL     OW16954   2.324   4.718   2.946
 5352SOL    HW116955   2.291   4.740   3.038
 5352SOL    HW216956   2.259   4.755   2.878
 5353SOL     OW16957   3.576   5.582   4.271
 5353SOL    HW116958   3.597   5.490   4.305
 5353SOL    HW216959   3.659   5.624   4.234
 5354SOL     OW16960   2.078   4.522   1.227
 5354SOL    HW116961   2.055   4.594   1.162
 5354SOL    HW216962   2.173   4.533   1.257
 5355SOL     OW16963   5.629   5.002   3.926
 5355SOL    HW116964   5.672   4.938   3.990
 5355SOL    HW216965   5.531   5.008   3.945
 5356SOL     OW16966   6.549   3.519   2.881
 5356SOL    HW116967   6.586   3.533   2.973
 5356SOL    HW216968   6.511   3.604   2.846
 5357SOL     OW16969   2.819   5.676   0.727
 5357SOL    HW116970   2.908   5.668   0.771
 5357SOL    HW216971   2.827   5.726   0.641
 5358SOL     OW16972   4.497   1.893   0.737
 5358SOL    HW116973   4.447   1.969   0.781
 5358SOL    HW216974   4.505   1.912   0.639
 5359SOL     OW16975   2.627   1.601   6.386
 5359SOL    HW116976   2.658   1.517   6.431
 5359SOL    HW216977   2.610   1.582   6.289
 5360SOL     OW16978   3.903   6.307   3.507
 5360SOL    HW116979   3.874   6.401   3.490
 5360SOL    HW216980   3.862   6.273   3.592
 5361SOL     OW16981   2.543   6.801   4.783
 5361SOL    HW116982   2.581   6.891   4.759
 5361SOL    HW216983   2.444   6.809   4.795
 5362SOL     OW16984   6.753   6.201   2.284
 5362SOL    HW116985   6.759   6.251   2.198
 5362SOL    HW216986   6.838   6.150   2.300
 5363SOL     OW16987   6.340   6.105   5.890
 5363SOL    HW116988   6.297   6.172   5.829
 5363SOL    HW216989   6.386   6.152   5.965
 5364SOL     OW16990   6.096   0.650   1.256
 5364SOL    HW116991   6.170   0.647   1.324
 5364SOL    HW216992   6.009   0.630   1.301
 5365SOL     OW16993   3.631   3.140   2.086
 5365SOL    HW116994   3.540   3.180   2.096
 5365SOL    HW216995   3.690   3.203   2.037
 5366SOL     OW16996   5.966   6.455   1.474
 5366SOL    HW116997   5.884   6.481   1.524
 5366SOL    HW216998   5.942   6.395   1.399
 5367SOL     OW16999   0.192   6.850   1.958
 5367SOL    HW117000   0.204   6.860   1.859
 5367SOL    HW217001   0.278   6.869   2.004
 5368SOL     OW17002   5.748   0.270   2.729
 5368SOL    HW117003   5.772   0.280   2.633
 5368SOL    HW217004   5.827   0.239   2.781
 5369SOL     OW17005   2.457   6.878   0.808
 5369SOL    HW117006   2.458   6.794   0.754
 5369SOL    HW217007   2.390   6.869   0.882
 5370SOL     OW17008   4.744   3.701   0.559
 5370SOL    HW117009   4.806   3.646   0.615
 5370SOL    HW217010   4.673   3.741   0.617
 5371SOL     OW17011   0.917   4.586   5.758
 5371SOL    HW117012   0.919   4.525   5.838
 5371SOL    HW217013   1.009   4.595   5.722
 5372SOL     OW17014   0.996   6.211   2.779
 5372SOL    HW117015   0.933   6.281   2.744
 5372SOL    HW217016   1.061   6.254   2.842
 5373SOL     OW17017   3.829   6.115   5.122
 5373SOL    HW117018   3.868   6.202   5.093
 5373SOL    HW217019   3.742   6.132   5.169
 5374SOL     OW17020   2.153   4.892   0.873
 5374SOL    HW117021   2.236   4.922   0.921
 5374SOL    HW217022   2.173   4.879   0.776
 5375SOL     OW17023   0.252   5.864   5.168
 5375SOL    HW117024   0.291   5.904   5.085
 5375SOL    HW217025   0.168   5.914   5.193
 5376SOL     OW17026   1.429   2.505   1.513
 5376SOL    HW117027   1.425   2.526   1.610
 5376SOL    HW217028   1.489   2.570   1.466
 5377SOL     OW17029   1.043   0.430   2.401
 5377SOL    HW117030   0.949   0.443   2.371
 5377SOL    HW217031   1.090   0.518   2.402
 5378SOL     OW17032   6.734   6.928   2.526
 5378SOL    HW117033   6.669   6.852   2.526
 5378SOL    HW217034   6.699   7.002   2.583
 5379SOL     OW17035   1.021   3.651   4.764
 5379SOL    HW117036   1.021   3.568   4.820
 5379SOL    HW217037   1.008   3.627   4.668
 5380SOL     OW17038   3.245   6.908   1.873
 5380SOL    HW117039   3.237   6.924   1.971
 5380SOL    HW217040   3.311   6.972   1.834
 5381SOL     OW17041   6.595   6.072   2.020
 5381SOL    HW117042   6.607   6.150   2.082
 5381SOL    HW217043   6.550   6.102   1.936
 5382SOL     OW17044   3.066   2.120   2.161
 5382SOL    HW117045   3.026   2.208   2.135
 5382SOL    HW217046   2.998   2.066   2.210
 5383SOL     OW17047   1.366   3.238   4.675
 5383SOL    HW117048   1.274   3.202   4.689
 5383SOL    HW217049   1.369   3.291   4.591
 5384SOL     OW17050   5.113   6.775   4.701
 5384SOL    HW117051   5.028   6.763   4.650
 5384SOL    HW217052   5.161   6.856   4.666
 5385SOL     OW17053   3.898   3.647   5.082
 5385SOL    HW117054   3.823   3.687   5.030
 5385SOL    HW217055   3.984   3.661   5.034
 5386SOL     OW17056   4.874   1.744   3.566
 5386SOL    HW117057   4.897   1.720   3.472
 5386SOL    HW217058   4.877   1.662   3.623
 5387SOL     OW17059   2.131   6.629   2.615
 5387SOL    HW117060   2.172   6.571   2.685
 5387SOL    HW217061   2.199   6.648   2.544
 5388SOL     OW17062   0.965   0.738   3.145
 5388SOL    HW117063   0.935   0.676   3.218
 5388SOL    HW217064   0.895   0.808   3.130
 5389SOL     OW17065   4.100   1.359   3.756
 5389SOL    HW117066   4.168   1.367   3.829
 5389SOL    HW217067   4.129   1.288   3.692
 5390SOL     OW17068   5.521   3.717   3.267
 5390SOL    HW117069   5.426   3.717   3.299
 5390SOL    HW217070   5.538   3.634   3.214
 5391SOL     OW17071   1.931   1.914   0.398
 5391SOL    HW117072   2.021   1.923   0.440
 5391SOL    HW217073   1.862   1.905   0.469
 5392SOL     OW17074   5.914   3.704   1.024
 5392SOL    HW117075   5.898   3.801   1.039
 5392SOL    HW217076   5.865   3.651   1.093
 5393SOL     OW17077   4.259   0.395   5.023
 5393SOL    HW117078   4.280   0.300   5.001
 5393SOL    HW217079   4.160   0.405   5.037
 5394SOL     OW17080   0.522   5.991   1.371
 5394SOL    HW117081   0.469   5.906   1.368
 5394SOL    HW217082   0.596   5.981   1.438
 5395SOL     OW17083   5.029   0.463   1.209
 5395SOL    HW117084   4.970   0.388   1.240
 5395SOL    HW217085   4.980   0.550   1.215
 5396SOL     OW17086   5.357   4.846   0.987
 5396SOL    HW117087   5.277   4.860   1.045
 5396SOL    HW217088   5.327   4.815   0.896
 5397SOL     OW17089   0.452   2.217   1.355
 5397SOL    HW117090   0.393   2.141   1.382
 5397SOL    HW217091   0.406   2.303   1.375
 5398SOL     OW17092   3.300   1.999   4.204
 5398SOL    HW117093   3.236   2.074   4.221
 5398SOL    HW217094   3.355   2.019   4.124
 5399SOL     OW17095   2.473   6.508   6.293
 5399SOL    HW117096   2.528   6.508   6.376
 5399SOL    HW217097   2.440   6.601   6.275
 5400SOL     OW17098   2.687   3.923   6.736
 5400SOL    HW117099   2.705   3.931   6.638
 5400SOL    HW217100   2.718   4.006   6.782
 5401SOL     OW17101   5.568   4.347   2.347
 5401SOL    HW117102   5.650   4.349   2.291
 5401SOL    HW217103   5.580   4.281   2.421
 5402SOL     OW17104   3.069   6.271   0.967
 5402SOL    HW117105   3.003   6.345   0.959
 5402SOL    HW217106   3.109   6.272   1.059
 5403SOL     OW17107   4.822   3.365   6.114
 5403SOL    HW117108   4.866   3.374   6.203
 5403SOL    HW217109   4.774   3.449   6.091
 5404SOL     OW17110   0.866   1.015   2.399
 5404SOL    HW117111   0.963   0.998   2.386
 5404SOL    HW217112   0.817   0.927   2.403
 5405SOL     OW17113   5.586   4.817   0.087
 5405SOL    HW117114   5.677   4.834   0.124
 5405SOL    HW217115   5.545   4.740   0.136
 5406SOL     OW17116   1.796   0.695   5.040
 5406SOL    HW117117   1.745   0.609   5.048
 5406SOL    HW217118   1.770   0.740   4.955
 5407SOL     OW17119   3.264   2.095   1.180
 5407SOL    HW117120   3.301   2.010   1.218
 5407SOL    HW217121   3.334   2.166   1.185
 5408SOL     OW17122   4.225   0.511   4.729
 5408SOL    HW117123   4.263   0.429   4.686
 5408SOL    HW217124   4.251   0.513   4.826
 5409SOL     OW17125   6.851   1.976   3.092
 5409SOL    HW117126   6.792   1.976   3.012
 5409SOL    HW217127   6.939   1.933   3.069
 5410SOL     OW17128   0.788   2.500   6.247
 5410SOL    HW117129   0.815   2.581   6.196
 5410SOL    HW217130   0.862   2.433   6.244
 5411SOL     OW17131   5.488   5.297   6.118
 5411SOL    HW117132   5.553   5.221   6.115
 5411SOL    HW217133   5.526   5.373   6.170
 5412SOL     OW17134   3.192   1.457   6.842
 5412SOL    HW117135   3.164   1.470   6.937
 5412SOL    HW217136   3.132   1.508   6.781
 5413SOL     OW17137   0.152   0.441   6.492
 5413SOL    HW117138   0.092   0.370   6.453
 5413SOL    HW217139   0.117   0.466   6.583
 5414SOL     OW17140   6.229   3.921   4.993
 5414SOL    HW117141   6.240   3.972   4.907
 5414SOL    HW217142   6.315   3.875   5.015
 5415SOL     OW17143   1.775   6.779   1.524
 5415SOL    HW117144   1.834   6.756   1.447
 5415SOL    HW217145   1.775   6.878   1.539
 5416SOL     OW17146   2.628   4.863   5.163
 5416SOL    HW117147   2.687   4.874   5.083
 5416SOL    HW217148   2.646   4.937   5.227
 5417SOL     OW17149   4.352   6.604   4.397
 5417SOL    HW117150   4.425   6.669   4.418
 5417SOL    HW217151   4.264   6.641   4.427
 5418SOL     OW17152   5.475   6.442   5.147
 5418SOL    HW117153   5.491   6.344   5.139
 5418SOL    HW217154   5.377   6.461   5.135
 5419SOL     OW17155   3.448   5.866   1.009
 5419SOL    HW117156   3.537   5.902   0.981
 5419SOL    HW217157   3.375   5.918   0.963
 5420SOL     OW17158   2.176   2.610   1.803
 5420SOL    HW117159   2.178   2.533   1.868
 5420SOL    HW217160   2.263   2.657   1.804
 5421SOL     OW17161   3.374   5.211   2.464
 5421SOL    HW117162   3.311   5.148   2.510
 5421SOL    HW217163   3.433   5.159   2.402
 5422SOL     OW17164   0.526   4.928   4.060
 5422SOL    HW117165   0.604   4.991   4.059
 5422SOL    HW217166   0.504   4.900   3.967
 5423SOL     OW17167   5.336   4.735   0.503
 5423SOL    HW117168   5.418   4.679   0.517
 5423SOL    HW217169   5.255   4.679   0.515
 5424SOL     OW17170   5.748   4.467   4.584
 5424SOL    HW117171   5.746   4.386   4.642
 5424SOL    HW217172   5.740   4.440   4.488
 5425SOL     OW17173   5.425   2.293   5.185
 5425SOL    HW117174   5.409   2.382   5.142
 5425SOL    HW217175   5.504   2.249   5.142
 5426SOL     OW17176   6.011   5.747   2.797
 5426SOL    HW117177   6.039   5.723   2.704
 5426SOL    HW217178   5.918   5.716   2.814
 5427SOL     OW17179   4.938   3.877   0.404
 5427SOL    HW117180   4.900   3.923   0.324
 5427SOL    HW217181   4.867   3.824   0.449
 5428SOL     OW17182   5.523   7.016   1.888
 5428SOL    HW117183   5.505   6.997   1.985
 5428SOL    HW217184   5.562   0.089   1.878
 5429SOL     OW17185   2.422   0.622   6.329
 5429SOL    HW117186   2.403   0.524   6.339
 5429SOL    HW217187   2.455   0.658   6.417
 5430SOL     OW17188   2.057   2.602   5.582
 5430SOL    HW117189   2.017   2.610   5.491
 5430SOL    HW217190   2.157   2.602   5.575
 5431SOL     OW17191   2.875   4.121   6.281
 5431SOL    HW117192   2.854   4.057   6.207
 5431SOL    HW217193   2.908   4.207   6.242
 5432SOL     OW17194   3.899   5.311   6.840
 5432SOL    HW117195   3.840   5.239   6.803
 5432SOL    HW217196   3.860   5.346   6.925
 5433SOL     OW17197   0.980   1.319   2.875
 5433SOL    HW117198   1.055   1.307   2.941
 5433SOL    HW217199   0.949   1.230   2.843
 5434SOL     OW17200   4.069   0.614   4.481
 5434SOL    HW117201   4.101   0.531   4.436
 5434SOL    HW217202   4.141   0.649   4.541
 5435SOL     OW17203   6.498   2.488   0.632
 5435SOL    HW117204   6.422   2.423   0.643
 5435SOL    HW217205   6.570   2.445   0.577
 5436SOL     OW17206   5.765   4.356   3.706
 5436SOL    HW117207   5.820   4.412   3.768
 5436SOL    HW217208   5.748   4.267   3.747
 5437SOL     OW17209   2.644   5.122   4.794
 5437SOL    HW117210   2.665   5.038   4.843
 5437SOL    HW217211   2.676   5.201   4.848
 5438SOL     OW17212   5.729   3.342   1.965
 5438SOL    HW117213   5.698   3.396   1.886
 5438SOL    HW217214   5.650   3.305   2.014
 5439SOL     OW17215   0.587   2.514   0.145
 5439SOL    HW117216   0.506   2.474   0.188
 5439SOL    HW217217   0.571   2.522   0.047
 5440SOL     OW17218   6.843   6.691   3.692
 5440SOL    HW117219   6.904   6.636   3.634
 5440SOL    HW217220   6.767   6.634   3.723
 5441SOL     OW17221   4.985   3.164   3.639
 5441SOL    HW117222   4.922   3.095   3.602
 5441SOL    HW217223   4.949   3.255   3.621
 5442SOL     OW17224   3.938   0.117   2.848
 5442SOL    HW117225   3.851   0.114   2.800
 5442SOL    HW217226   3.964   0.212   2.866
 5443SOL     OW17227   3.959   5.600   3.820
 5443SOL    HW117228   3.886   5.603   3.888
 5443SOL    HW217229   3.968   5.690   3.777
 5444SOL     OW17230   0.490   0.866   3.211
 5444SOL    HW117231   0.542   0.806   3.271
 5444SOL    HW217232   0.398   0.828   3.197
 5445SOL     OW17233   6.279   4.440   3.986
 5445SOL    HW117234   6.363   4.404   4.025
 5445SOL    HW217235   6.256   4.527   4.030
 5446SOL     OW17236   5.781   5.343   4.781
 5446SOL    HW117237   5.714   5.328   4.708
 5446SOL    HW217238   5.854   5.275   4.773
 5447SOL     OW17239   1.709   1.566   0.756
 5447SOL    HW117240   1.717   1.518   0.844
 5447SOL    HW217241   1.651   1.647   0.768
 5448SOL     OW17242   4.788   4.730   3.930
 5448SOL    HW117243   4.849   4.794   3.884
 5448SOL    HW217244   4.710   4.780   3.968
 5449SOL     OW17245   2.186   1.649   0.592
 5449SOL    HW117246   2.146   1.740   0.606
 5449SOL    HW217247   2.285   1.653   0.604
 5450SOL     OW17248   3.709   0.574   1.119
 5450SOL    HW117249   3.618   0.537   1.101
 5450SOL    HW217250   3.763   0.507   1.170
 5451SOL     OW17251   2.050   6.326   3.393
 5451SOL    HW117252   2.074   6.421   3.373
 5451SOL    HW217253   1.991   6.323   3.473
 5452SOL     OW17254   2.527   4.095   0.858
 5452SOL    HW117255   2.435   4.118   0.890
 5452SOL    HW217256   2.521   4.040   0.775
 5453SOL     OW17257   5.176   4.453   2.430
 5453SOL    HW117258   5.210   4.418   2.343
 5453SOL    HW217259   5.111   4.527   2.412
 5454SOL     OW17260   5.125   5.739   6.859
 5454SOL    HW117261   5.121   5.833   6.826
 5454SOL    HW217262   5.217   5.720   6.894
 5455SOL     OW17263   0.105   2.637   3.534
 5455SOL    HW117264   0.187   2.658   3.587
 5455SOL    HW217265   0.063   2.554   3.571
 5456SOL     OW17266   3.380   1.066   6.736
 5456SOL    HW117267   3.414   1.159   6.752
 5456SOL    HW217268   3.310   1.067   6.665
 5457SOL     OW17269   6.551   2.054   1.244
 5457SOL    HW117270   6.473   2.099   1.287
 5457SOL    HW217271   6.554   1.958   1.271
 5458SOL     OW17272   0.109   5.508   0.386
 5458SOL    HW117273   0.026   5.560   0.402
 5458SOL    HW217274   0.126   5.501   0.288
 5459SOL     OW17275   2.599   3.723   5.788
 5459SOL    HW117276   2.546   3.798   5.747
 5459SOL    HW217277   2.566   3.636   5.753
 5460SOL     OW17278   3.414   0.243   2.889
 5460SOL    HW117279   3.402   0.146   2.910
 5460SOL    HW217280   3.338   0.276   2.834
 5461SOL     OW17281   0.192   0.034   4.880
 5461SOL    HW117282   0.129   0.010   4.953
 5461SOL    HW217283   0.145   0.029   4.792
 5462SOL     OW17284   5.654   6.273   6.827
 5462SOL    HW117285   5.681   6.196   6.770
 5462SOL    HW217286   5.639   6.353   6.769
 5463SOL     OW17287   0.457   1.810   0.089
 5463SOL    HW117288   0.435   1.795   0.185
 5463SOL    HW217289   0.540   1.759   0.065
 5464SOL     OW17290   5.739   6.496   5.099
 5464SOL    HW117291   5.640   6.489   5.089
 5464SOL    HW217292   5.777   6.553   5.025
 5465SOL     OW17293   5.792   0.118   3.809
 5465SOL    HW117294   5.868   0.056   3.794
 5465SOL    HW217295   5.818   0.189   3.875
 5466SOL     OW17296   5.218   2.622   5.618
 5466SOL    HW117297   5.249   2.687   5.687
 5466SOL    HW217298   5.120   2.633   5.603
 5467SOL     OW17299   5.943   3.752   3.247
 5467SOL    HW117300   5.935   3.803   3.162
 5467SOL    HW217301   5.876   3.786   3.313
 5468SOL     OW17302   5.967   1.957   4.965
 5468SOL    HW117303   5.967   1.983   4.869
 5468SOL    HW217304   5.877   1.923   4.991
 5469SOL     OW17305   3.346   6.313   5.325
 5469SOL    HW117306   3.336   6.356   5.235
 5469SOL    HW217307   3.274   6.347   5.386
 5470SOL     OW17308   3.331   5.364   3.483
 5470SOL    HW117309   3.372   5.454   3.495
 5470SOL    HW217310   3.351   5.307   3.563
 5471SOL     OW17311   6.550   0.894   3.405
 5471SOL    HW117312   6.618   0.967   3.410
 5471SOL    HW217313   6.462   0.928   3.439
 5472SOL     OW17314   2.950   3.816   6.491
 5472SOL    HW117315   2.992   3.828   6.401
 5472SOL    HW217316   3.020   3.790   6.558
 5473SOL     OW17317   2.079   3.250   1.525
 5473SOL    HW117318   2.164   3.232   1.476
 5473SOL    HW217319   2.088   3.334   1.579
 5474SOL     OW17320   1.190   4.961   4.614
 5474SOL    HW117321   1.263   5.005   4.666
 5474SOL    HW217322   1.223   4.875   4.576
 5475SOL     OW17323   1.777   2.617   0.924
 5475SOL    HW117324   1.726   2.563   0.991
 5475SOL    HW217325   1.760   2.581   0.832
 5476SOL     OW17326   2.176   4.515   4.914
 5476SOL    HW117327   2.137   4.488   4.826
 5476SOL    HW217328   2.151   4.609   4.935
 5477SOL     OW17329   2.174   4.283   2.674
 5477SOL    HW117330   2.088   4.241   2.647
 5477SOL    HW217331   2.176   4.378   2.643
 5478SOL     OW17332   3.913   6.885   5.165
 5478SOL    HW117333   3.987   6.918   5.105
 5478SOL    HW217334   3.951   6.824   5.234
 5479SOL     OW17335   5.379   2.165   5.424
 5479SOL    HW117336   5.285   2.187   5.450
 5479SOL    HW217337   5.397   2.200   5.332
 5480SOL     OW17338   5.459   5.639   4.332
 5480SOL    HW117339   5.408   5.724   4.323
 5480SOL    HW217340   5.397   5.565   4.358
 5481SOL     OW17341   4.529   1.152   4.471
 5481SOL    HW117342   4.525   1.073   4.531
 5481SOL    HW217343   4.457   1.217   4.496
 5482SOL     OW17344   3.563   3.480   1.626
 5482SOL    HW117345   3.512   3.558   1.662
 5482SOL    HW217346   3.654   3.477   1.668
 5483SOL     OW17347   0.406   2.344   5.288
 5483SOL    HW117348   0.489   2.287   5.278
 5483SOL    HW217349   0.426   2.437   5.258
 5484SOL     OW17350   5.139   0.725   3.383
 5484SOL    HW117351   5.158   0.673   3.466
 5484SOL    HW217352   5.104   0.663   3.312
 5485SOL     OW17353   3.468   0.039   5.442
 5485SOL    HW117354   3.414   6.974   5.455
 5485SOL    HW217355   3.565   0.017   5.441
 5486SOL     OW17356   1.512   5.218   5.314
 5486SOL    HW117357   1.426   5.232   5.264
 5486SOL    HW217358   1.516   5.281   5.391
 5487SOL     OW17359   4.923   3.120   6.721
 5487SOL    HW117360   4.892   3.194   6.662
 5487SOL    HW217361   5.022   3.124   6.732
 5488SOL     OW17362   6.304   0.924   0.845
 5488SOL    HW117363   6.297   0.850   0.912
 5488SOL    HW217364   6.384   0.911   0.788
 5489SOL     OW17365   0.967   4.369   1.235
 5489SOL    HW117366   0.918   4.456   1.243
 5489SOL    HW217367   0.999   4.357   1.141
 5490SOL     OW17368   3.151   7.014   0.370
 5490SOL    HW117369   3.250   7.008   0.377
 5490SOL    HW217370   3.113   0.020   0.459
 5491SOL     OW17371   1.806   4.182   1.005
 5491SOL    HW117372   1.821   4.240   1.085
 5491SOL    HW217373   1.769   4.236   0.931
 5492SOL     OW17374   0.378   2.433   5.982
 5492SOL    HW117375   0.379   2.471   5.889
 5492SOL    HW217376   0.463   2.382   5.997
 5493SOL     OW17377   3.910   3.846   4.430
 5493SOL    HW117378   3.909   3.761   4.378
 5493SOL    HW217379   3.893   3.924   4.369
 5494SOL     OW17380   6.554   2.424   6.128
 5494SOL    HW117381   6.636   2.437   6.184
 5494SOL    HW217382   6.504   2.344   6.161
 5495SOL     OW17383   3.581   1.741   0.841
 5495SOL    HW117384   3.664   1.747   0.786
 5495SOL    HW217385   3.509   1.797   0.798
 5496SOL     OW17386   3.508   0.199   3.551
 5496SOL    HW117387   3.414   0.199   3.519
 5496SOL    HW217388   3.570   0.204   3.473
 5497SOL     OW17389   0.572   1.987   4.231
 5497SOL    HW117390   0.563   1.967   4.133
 5497SOL    HW217391   0.541   1.908   4.284
 5498SOL     OW17392   6.061   6.423   0.874
 5498SOL    HW117393   6.136   6.380   0.825
 5498SOL    HW217394   5.977   6.416   0.820
 5499SOL     OW17395   0.173   0.813   4.734
 5499SOL    HW117396   0.149   0.848   4.824
 5499SOL    HW217397   0.150   0.880   4.664
 5500SOL     OW17398   1.081   0.858   0.576
 5500SOL    HW117399   1.095   0.814   0.665
 5500SOL    HW217400   1.074   0.788   0.505
 5501SOL     OW17401   4.121   6.443   0.196
 5501SOL    HW117402   4.166   6.395   0.121
 5501SOL    HW217403   4.175   6.524   0.221
 5502SOL     OW17404   5.209   3.643   0.361
 5502SOL    HW117405   5.194   3.703   0.283
 5502SOL    HW217406   5.232   3.699   0.441
 5503SOL     OW17407   0.948   4.943   2.611
 5503SOL    HW117408   0.861   4.903   2.637
 5503SOL    HW217409   1.007   4.949   2.692
 5504SOL     OW17410   3.914   1.152   5.407
 5504SOL    HW117411   3.899   1.248   5.385
 5504SOL    HW217412   3.834   1.098   5.379
 5505SOL     OW17413   1.469   5.173   4.125
 5505SOL    HW117414   1.486   5.076   4.112
 5505SOL    HW217415   1.413   5.208   4.050
 5506SOL     OW17416   0.996   2.294   6.246
 5506SOL    HW117417   0.927   2.239   6.293
 5506SOL    HW217418   1.060   2.233   6.199
 5507SOL     OW17419   2.951   0.392   3.775
 5507SOL    HW117420   2.973   0.484   3.741
 5507SOL    HW217421   3.036   0.341   3.788
 5508SOL     OW17422   1.225   0.769   5.880
 5508SOL    HW117423   1.252   0.860   5.850
 5508SOL    HW217424   1.180   0.775   5.969
 5509SOL     OW17425   0.607   6.461   6.935
 5509SOL    HW117426   0.699   6.488   6.963
 5509SOL    HW217427   0.542   6.533   6.958
 5510SOL     OW17428   5.480   5.522   0.699
 5510SOL    HW117429   5.477   5.441   0.757
 5510SOL    HW217430   5.471   5.604   0.756
 5511SOL     OW17431   1.732   1.618   3.888
 5511SOL    HW117432   1.780   1.533   3.912
 5511SOL    HW217433   1.749   1.687   3.960
 5512SOL     OW17434   5.507   2.007   1.491
 5512SOL    HW117435   5.491   1.911   1.469
 5512SOL    HW217436   5.425   2.060   1.469
 5513SOL     OW17437   4.384   4.887   0.044
 5513SOL    HW117438   4.394   4.953   6.987
 5513SOL    HW217439   4.337   4.930   0.120
 5514SOL     OW17440   4.225   6.672   3.992
 5514SOL    HW117441   4.232   6.656   3.893
 5514SOL    HW217442   4.130   6.661   4.020
 5515SOL     OW17443   0.542   5.509   1.820
 5515SOL    HW117444   0.513   5.456   1.740
 5515SOL    HW217445   0.500   5.600   1.818
 5516SOL     OW17446   1.847   4.450   6.476
 5516SOL    HW117447   1.749   4.429   6.469
 5516SOL    HW217448   1.899   4.365   6.469
 5517SOL     OW17449   1.838   3.381   2.262
 5517SOL    HW117450   1.931   3.410   2.237
 5517SOL    HW217451   1.779   3.461   2.264
 5518SOL     OW17452   6.281   5.927   6.065
 5518SOL    HW117453   6.340   5.848   6.048
 5518SOL    HW217454   6.297   5.996   5.994
 5519SOL     OW17455   5.594   3.464   3.146
 5519SOL    HW117456   5.534   3.385   3.132
 5519SOL    HW217457   5.642   3.485   3.061
 5520SOL     OW17458   5.618   5.931   2.061
 5520SOL    HW117459   5.526   5.892   2.060
 5520SOL    HW217460   5.651   5.937   2.155
 5521SOL     OW17461   5.316   0.030   1.505
 5521SOL    HW117462   5.367   0.050   1.421
 5521SOL    HW217463   5.365   6.978   1.558
 5522SOL     OW17464   0.201   5.406   0.625
 5522SOL    HW117465   0.183   5.453   0.539
 5522SOL    HW217466   0.300   5.396   0.637
 5523SOL     OW17467   3.466   0.770   2.177
 5523SOL    HW117468   3.517   0.773   2.263
 5523SOL    HW217469   3.480   0.682   2.133
 5524SOL     OW17470   5.445   6.166   5.573
 5524SOL    HW117471   5.472   6.162   5.670
 5524SOL    HW217472   5.394   6.084   5.549
 5525SOL     OW17473   0.601   2.326   0.860
 5525SOL    HW117474   0.531   2.360   0.797
 5525SOL    HW217475   0.565   2.326   0.953
 5526SOL     OW17476   5.077   5.212   3.650
 5526SOL    HW117477   5.045   5.260   3.732
 5526SOL    HW217478   5.163   5.167   3.670
 5527SOL     OW17479   5.232   3.914   4.062
 5527SOL    HW117480   5.231   3.934   3.964
 5527SOL    HW217481   5.221   3.816   4.076
 5528SOL     OW17482   1.133   1.173   6.296
 5528SOL    HW117483   1.212   1.234   6.308
 5528SOL    HW217484   1.075   1.178   6.377
 5529SOL     OW17485   3.071   0.047   3.010
 5529SOL    HW117486   3.030   6.987   3.057
 5529SOL    HW217487   3.077   0.124   3.073
 5530SOL     OW17488   5.692   2.208   1.952
 5530SOL    HW117489   5.640   2.293   1.958
 5530SOL    HW217490   5.720   2.179   2.044
 5531SOL     OW17491   3.030   3.113   2.502
 5531SOL    HW117492   3.045   3.107   2.404
 5531SOL    HW217493   3.106   3.069   2.551
 5532SOL     OW17494   1.205   3.082   0.210
 5532SOL    HW117495   1.245   3.043   0.127
 5532SOL    HW217496   1.255   3.048   0.290
 5533SOL     OW17497   3.759   1.498   3.236
 5533SOL    HW117498   3.660   1.511   3.245
 5533SOL    HW217499   3.776   1.425   3.169
 5534SOL     OW17500   0.639   1.736   6.046
 5534SOL    HW117501   0.710   1.667   6.060
 5534SOL    HW217502   0.575   1.735   6.123
 5535SOL     OW17503   6.885   2.901   3.179
 5535SOL    HW117504   6.848   2.932   3.267
 5535SOL    HW217505   6.970   2.851   3.195
 5536SOL     OW17506   3.262   1.021   4.276
 5536SOL    HW117507   3.167   1.054   4.279
 5536SOL    HW217508   3.324   1.099   4.263
 5537SOL     OW17509   2.800   0.484   2.388
 5537SOL    HW117510   2.832   0.432   2.309
 5537SOL    HW217511   2.866   0.477   2.462
 5538SOL     OW17512   2.106   6.303   5.562
 5538SOL    HW117513   2.033   6.369   5.578
 5538SOL    HW217514   2.192   6.351   5.548
 5539SOL     OW17515   1.628   3.239   1.285
 5539SOL    HW117516   1.538   3.194   1.285
 5539SOL    HW217517   1.700   3.170   1.280
 5540SOL     OW17518   5.277   3.900   3.765
 5540SOL    HW117519   5.376   3.912   3.775
 5540SOL    HW217520   5.255   3.886   3.668
 5541SOL     OW17521   6.134   0.045   6.207
 5541SOL    HW117522   6.060   0.106   6.179
 5541SOL    HW217523   6.202   0.096   6.260
 5542SOL     OW17524   5.545   3.623   5.885
 5542SOL    HW117525   5.536   3.614   5.786
 5542SOL    HW217526   5.475   3.686   5.919
 5543SOL     OW17527   3.617   4.969   5.617
 5543SOL    HW117528   3.678   4.918   5.679
 5543SOL    HW217529   3.665   5.049   5.582
 5544SOL     OW17530   5.621   6.112   6.431
 5544SOL    HW117531   5.693   6.080   6.368
 5544SOL    HW217532   5.648   6.093   6.525
 5545SOL     OW17533   3.698   1.502   1.631
 5545SOL    HW117534   3.701   1.445   1.713
 5545SOL    HW217535   3.695   1.598   1.657
 5546SOL     OW17536   1.201   5.246   4.535
 5546SOL    HW117537   1.181   5.254   4.633
 5546SOL    HW217538   1.265   5.170   4.521
 5547SOL     OW17539   2.496   0.213   4.664
 5547SOL    HW117540   2.410   0.171   4.633
 5547SOL    HW217541   2.567   0.143   4.668
 5548SOL     OW17542   5.315   3.047   5.634
 5548SOL    HW117543   5.307   3.145   5.615
 5548SOL    HW217544   5.251   2.996   5.577
 5549SOL     OW17545   4.325   3.412   6.534
 5549SOL    HW117546   4.297   3.506   6.519
 5549SOL    HW217547   4.424   3.403   6.519
 5550SOL     OW17548   2.378   4.314   2.129
 5550SOL    HW117549   2.330   4.227   2.136
 5550SOL    HW217550   2.415   4.325   2.037
 5551SOL     OW17551   2.124   0.062   3.387
 5551SOL    HW117552   2.164   0.057   3.295
 5551SOL    HW217553   2.134   0.155   3.422
 5552SOL     OW17554   6.862   0.580   6.818
 5552SOL    HW117555   6.807   0.660   6.798
 5552SOL    HW217556   6.934   0.570   6.749
 5553SOL     OW17557   4.945   6.636   0.029
 5553SOL    HW117558   5.013   6.678   6.987
 5553SOL    HW217559   4.904   6.557   7.000
 5554SOL     OW17560   3.862   1.999   5.685
 5554SOL    HW117561   3.821   1.990   5.775
 5554SOL    HW217562   3.881   1.908   5.648
 5555SOL     OW17563   1.931   4.352   4.242
 5555SOL    HW117564   1.844   4.399   4.231
 5555SOL    HW217565   1.916   4.253   4.241
 5556SOL     OW17566   6.526   2.025   3.704
 5556SOL    HW117567   6.436   2.029   3.748
 5556SOL    HW217568   6.591   1.980   3.765
 5557SOL     OW17569   3.842   6.392   2.620
 5557SOL    HW117570   3.830   6.426   2.713
 5557SOL    HW217571   3.803   6.300   2.612
 5558SOL     OW17572   4.508   3.346   6.120
 5558SOL    HW117573   4.556   3.277   6.174
 5558SOL    HW217574   4.567   3.426   6.108
 5559SOL     OW17575   2.991   0.439   2.160
 5559SOL    HW117576   3.041   0.523   2.181
 5559SOL    HW217577   2.925   0.457   2.087
 5560SOL     OW17578   1.362   6.862   3.834
 5560SOL    HW117579   1.264   6.848   3.846
 5560SOL    HW217580   1.410   6.829   3.916
 5561SOL     OW17581   1.670   2.519   4.161
 5561SOL    HW117582   1.570   2.526   4.167
 5561SOL    HW217583   1.696   2.423   4.152
 5562SOL     OW17584   3.058   1.876   6.837
 5562SOL    HW117585   2.986   1.945   6.828
 5562SOL    HW217586   3.143   1.911   6.799
 5563SOL     OW17587   4.186   5.222   2.767
 5563SOL    HW117588   4.100   5.241   2.813
 5563SOL    HW217589   4.243   5.304   2.765
 5564SOL     OW17590   4.681   0.723   2.004
 5564SOL    HW117591   4.767   0.671   2.003
 5564SOL    HW217592   4.659   0.747   2.098
 5565SOL     OW17593   4.837   2.055   6.821
 5565SOL    HW117594   4.871   1.990   6.753
 5565SOL    HW217595   4.908   2.121   6.843
 5566SOL     OW17596   1.872   5.910   0.055
 5566SOL    HW117597   1.904   6.005   0.057
 5566SOL    HW217598   1.834   5.885   0.144
 5567SOL     OW17599   0.280   4.381   1.847
 5567SOL    HW117600   0.202   4.334   1.805
 5567SOL    HW217601   0.308   4.457   1.788
 5568SOL     OW17602   4.165   2.293   3.393
 5568SOL    HW117603   4.143   2.387   3.419
 5568SOL    HW217604   4.082   2.237   3.396
 5569SOL     OW17605   2.489   1.526   2.633
 5569SOL    HW117606   2.520   1.551   2.541
 5569SOL    HW217607   2.488   1.608   2.691
 5570SOL     OW17608   6.061   4.672   5.204
 5570SOL    HW117609   5.965   4.698   5.215
 5570SOL    HW217610   6.096   4.710   5.119
 5571SOL     OW17611   0.285   5.993   0.778
 5571SOL    HW117612   0.240   6.055   0.842
 5571SOL    HW217613   0.316   5.911   0.826
 5572SOL     OW17614   1.401   2.690   4.694
 5572SOL    HW117615   1.374   2.780   4.661
 5572SOL    HW217616   1.422   2.695   4.792
 5573SOL     OW17617   1.985   3.578   6.913
 5573SOL    HW117618   2.056   3.594   6.844
 5573SOL    HW217619   1.938   3.492   6.893
 5574SOL     OW17620   6.266   1.840   3.670
 5574SOL    HW117621   6.292   1.764   3.729
 5574SOL    HW217622   6.219   1.910   3.723
 5575SOL     OW17623   0.103   1.458   1.609
 5575SOL    HW117624   0.170   1.384   1.609
 5575SOL    HW217625   0.059   1.463   1.519
 5576SOL     OW17626   1.152   6.390   2.225
 5576SOL    HW117627   1.181   6.295   2.239
 5576SOL    HW217628   1.211   6.433   2.156
 5577SOL     OW17629   3.081   2.613   5.777
 5577SOL    HW117630   3.000   2.561   5.750
 5577SOL    HW217631   3.063   2.662   5.862
 5578SOL     OW17632   3.749   4.539   0.679
 5578SOL    HW117633   3.704   4.597   0.610
 5578SOL    HW217634   3.764   4.448   0.641
 5579SOL     OW17635   6.995   3.628   6.189
 5579SOL    HW117636   6.990   3.696   6.261
 5579SOL    HW217637   6.985   3.537   6.228
 5580SOL     OW17638   4.099   2.660   5.676
 5580SOL    HW117639   4.004   2.632   5.659
 5580SOL    HW217640   4.100   2.752   5.715
 5581SOL     OW17641   2.706   6.502   1.738
 5581SOL    HW117642   2.663   6.425   1.692
 5581SOL    HW217643   2.715   6.482   1.836
 5582SOL     OW17644   3.851   3.594   3.557
 5582SOL    HW117645   3.842   3.559   3.464
 5582SOL    HW217646   3.946   3.588   3.587
 5583SOL     OW17647   4.550   6.902   2.626
 5583SOL    HW117648   4.534   6.907   2.724
 5583SOL    HW217649   4.551   6.806   2.597
 5584SOL     OW17650   5.679   4.223   4.150
 5584SOL    HW117651   5.702   4.141   4.097
 5584SOL    HW217652   5.621   4.198   4.227
 5585SOL     OW17653   4.459   6.538   4.063
 5585SOL    HW117654   4.469   6.441   4.084
 5585SOL    HW217655   4.362   6.563   4.066
 5586SOL     OW17656   0.762   2.424   6.544
 5586SOL    HW117657   0.698   2.483   6.495
 5586SOL    HW217658   0.841   2.405   6.486
 5587SOL     OW17659   4.320   6.153   2.629
 5587SOL    HW117660   4.408   6.199   2.613
 5587SOL    HW217661   4.246   6.219   2.617
 5588SOL     OW17662   1.823   6.794   2.852
 5588SOL    HW117663   1.738   6.770   2.900
 5588SOL    HW217664   1.802   6.847   2.771
 5589SOL     OW17665   5.797   2.466   6.832
 5589SOL    HW117666   5.788   2.391   6.766
 5589SOL    HW217667   5.880   2.453   6.886
 5590SOL     OW17668   6.680   6.048   3.334
 5590SOL    HW117669   6.738   5.976   3.371
 5590SOL    HW217670   6.667   6.119   3.403
 5591SOL     OW17671   6.159   1.193   6.331
 5591SOL    HW117672   6.198   1.115   6.283
 5591SOL    HW217673   6.112   1.253   6.266
 5592SOL     OW17674   1.006   4.120   2.816
 5592SOL    HW117675   0.950   4.100   2.735
 5592SOL    HW217676   1.102   4.100   2.795
 5593SOL     OW17677   6.741   2.347   5.918
 5593SOL    HW117678   6.686   2.349   6.001
 5593SOL    HW217679   6.800   2.428   5.915
 5594SOL     OW17680   2.453   1.118   7.012
 5594SOL    HW117681   2.462   1.150   6.918
 5594SOL    HW217682   2.513   1.039   0.008
 5595SOL     OW17683   6.492   0.802   5.065
 5595SOL    HW117684   6.468   0.890   5.024
 5595SOL    HW217685   6.487   0.730   4.995
 5596SOL     OW17686   5.001   0.530   2.495
 5596SOL    HW117687   5.028   0.596   2.424
 5596SOL    HW217688   4.901   0.519   2.493
 5597SOL     OW17689   5.561   1.666   5.567
 5597SOL    HW117690   5.586   1.643   5.472
 5597SOL    HW217691   5.513   1.753   5.569
 5598SOL     OW17692   5.523   2.331   3.970
 5598SOL    HW117693   5.592   2.308   3.901
 5598SOL    HW217694   5.494   2.426   3.958
 5599SOL     OW17695   6.604   2.949   1.938
 5599SOL    HW117696   6.698   2.924   1.918
 5599SOL    HW217697   6.569   3.007   1.864
 5600SOL     OW17698   1.979   0.364   2.061
 5600SOL    HW117699   1.914   0.440   2.064
 5600SOL    HW217700   1.989   0.325   2.152
 5601SOL     OW17701   3.812   1.599   6.494
 5601SOL    HW117702   3.719   1.619   6.464
 5601SOL    HW217703   3.864   1.561   6.417
 5602SOL     OW17704   0.775   0.386   2.341
 5602SOL    HW117705   0.748   0.294   2.312
 5602SOL    HW217706   0.714   0.417   2.413
 5603SOL     OW17707   5.250   2.056   5.925
 5603SOL    HW117708   5.202   2.121   5.866
 5603SOL    HW217709   5.270   1.973   5.873
 5604SOL     OW17710   0.274   2.428   5.009
 5604SOL    HW117711   0.273   2.345   4.952
 5604SOL    HW217712   0.188   2.478   4.997
 5605SOL     OW17713   2.046   6.884   4.480
 5605SOL    HW117714   2.090   6.798   4.502
 5605SOL    HW217715   1.948   6.869   4.463
 5606SOL     OW17716   4.938   0.814   0.363
 5606SOL    HW117717   4.844   0.797   0.333
 5606SOL    HW217718   4.966   0.741   0.426
 5607SOL     OW17719   5.124   1.683   3.719
 5607SOL    HW117720   5.041   1.718   3.675
 5607SOL    HW217721   5.170   1.757   3.767
 5608SOL     OW17722   5.931   1.481   2.896
 5608SOL    HW117723   5.879   1.515   2.974
 5608SOL    HW217724   5.878   1.492   2.812
 5609SOL     OW17725   4.766   5.657   0.906
 5609SOL    HW117726   4.783   5.575   0.961
 5609SOL    HW217727   4.841   5.722   0.920
 5610SOL     OW17728   5.819   4.216   1.499
 5610SOL    HW117729   5.879   4.261   1.433
 5610SOL    HW217730   5.738   4.181   1.451
 5611SOL     OW17731   0.724   4.894   2.200
 5611SOL    HW117732   0.651   4.933   2.145
 5611SOL    HW217733   0.696   4.803   2.233
 5612SOL     OW17734   3.974   2.853   0.236
 5612SOL    HW117735   3.900   2.785   0.228
 5612SOL    HW217736   3.938   2.944   0.217
 5613SOL     OW17737   6.084   5.090   5.367
 5613SOL    HW117738   6.139   5.129   5.441
 5613SOL    HW217739   6.082   4.990   5.376
 5614SOL     OW17740   5.652   3.217   5.009
 5614SOL    HW117741   5.647   3.140   5.072
 5614SOL    HW217742   5.645   3.184   4.915
 5615SOL     OW17743   6.718   1.676   3.433
 5615SOL    HW117744   6.691   1.753   3.375
 5615SOL    HW217745   6.714   1.704   3.529
 5616SOL     OW17746   2.163   3.042   4.841
 5616SOL    HW117747   2.196   3.121   4.789
 5616SOL    HW217748   2.222   3.027   4.920
 5617SOL     OW17749   1.280   3.871   5.219
 5617SOL    HW117750   1.250   3.869   5.314
 5617SOL    HW217751   1.260   3.783   5.176
 5618SOL     OW17752   6.769   4.624   3.539
 5618SOL    HW117753   6.754   4.537   3.585
 5618SOL    HW217754   6.789   4.695   3.606
 5619SOL     OW17755   3.272   3.729   3.336
 5619SOL    HW117756   3.293   3.637   3.368
 5619SOL    HW217757   3.238   3.784   3.412
 5620SOL     OW17758   4.542   3.900   6.409
 5620SOL    HW117759   4.514   3.815   6.365
 5620SOL    HW217760   4.461   3.953   6.434
 5621SOL     OW17761   1.535   3.530   6.131
 5621SOL    HW117762   1.478   3.529   6.214
 5621SOL    HW217763   1.609   3.595   6.142
 5622SOL     OW17764   4.848   6.559   5.836
 5622SOL    HW117765   4.826   6.519   5.747
 5622SOL    HW217766   4.941   6.595   5.835
 5623SOL     OW17767   4.890   6.232   5.223
 5623SOL    HW117768   4.988   6.212   5.226
 5623SOL    HW217769   4.839   6.159   5.269
 5624SOL     OW17770   0.612   5.105   3.749
 5624SOL    HW117771   0.647   5.086   3.657
 5624SOL    HW217772   0.556   5.028   3.780
 5625SOL     OW17773   0.130   5.227   5.379
 5625SOL    HW117774   0.034   5.235   5.406
 5625SOL    HW217775   0.152   5.132   5.359
 5626SOL     OW17776   2.582   5.694   3.827
 5626SOL    HW117777   2.636   5.654   3.901
 5626SOL    HW217778   2.512   5.754   3.866
 5627SOL     OW17779   0.051   5.105   5.957
 5627SOL    HW117780   6.996   5.159   5.999
 5627SOL    HW217781   0.048   5.118   5.858
 5628SOL     OW17782   2.442   2.187   1.091
 5628SOL    HW117783   2.487   2.256   1.034
 5628SOL    HW217784   2.512   2.133   1.139
 5629SOL     OW17785   5.206   2.700   2.180
 5629SOL    HW117786   5.122   2.658   2.216
 5629SOL    HW217787   5.188   2.741   2.091
 5630SOL     OW17788   1.760   4.239   6.814
 5630SOL    HW117789   1.735   4.309   6.881
 5630SOL    HW217790   1.846   4.264   6.769
 5631SOL     OW17791   5.341   1.385   1.043
 5631SOL    HW117792   5.410   1.456   1.029
 5631SOL    HW217793   5.386   1.297   1.059
 5632SOL     OW17794   3.998   2.012   5.383
 5632SOL    HW117795   3.986   1.931   5.327
 5632SOL    HW217796   3.909   2.056   5.398
 5633SOL     OW17797   6.119   4.516   4.854
 5633SOL    HW117798   6.150   4.421   4.857
 5633SOL    HW217799   6.027   4.522   4.892
 5634SOL     OW17800   2.243   5.151   3.870
 5634SOL    HW117801   2.176   5.141   3.944
 5634SOL    HW217802   2.333   5.126   3.903
 5635SOL     OW17803   1.985   6.150   6.465
 5635SOL    HW117804   2.040   6.157   6.382
 5635SOL    HW217805   1.899   6.198   6.452
 5636SOL     OW17806   5.787   0.128   5.220
 5636SOL    HW117807   5.886   0.125   5.228
 5636SOL    HW217808   5.762   0.148   5.125
 5637SOL     OW17809   3.218   6.815   3.617
 5637SOL    HW117810   3.121   6.798   3.637
 5637SOL    HW217811   3.272   6.735   3.642
 5638SOL     OW17812   6.196   4.341   1.057
 5638SOL    HW117813   6.165   4.423   1.105
 5638SOL    HW217814   6.249   4.368   0.977
 5639SOL     OW17815   2.369   0.359   1.819
 5639SOL    HW117816   2.324   0.439   1.778
 5639SOL    HW217817   2.342   0.351   1.915
 5640SOL     OW17818   3.064   0.718   2.759
 5640SOL    HW117819   3.155   0.717   2.800
 5640SOL    HW217820   3.040   0.812   2.733
 5641SOL     OW17821   0.200   4.875   5.999
 5641SOL    HW117822   0.165   4.968   5.987
 5641SOL    HW217823   0.298   4.874   5.979
 5642SOL     OW17824   0.849   5.209   4.900
 5642SOL    HW117825   0.869   5.297   4.856
 5642SOL    HW217826   0.915   5.141   4.870
 5643SOL     OW17827   3.620   1.196   4.327
 5643SOL    HW117828   3.623   1.283   4.376
 5643SOL    HW217829   3.696   1.138   4.357
 5644SOL     OW17830   3.648   0.401   4.130
 5644SOL    HW117831   3.633   0.475   4.065
 5644SOL    HW217832   3.565   0.387   4.185
 5645SOL     OW17833   6.041   4.447   3.128
 5645SOL    HW117834   5.981   4.504   3.071
 5645SOL    HW217835   6.127   4.431   3.080
 5646SOL     OW17836   1.125   6.013   2.943
 5646SOL    HW117837   1.121   6.057   2.853
 5646SOL    HW217838   1.033   5.984   2.970
 5647SOL     OW17839   5.860   6.447   0.679
 5647SOL    HW117840   5.884   6.419   0.586
 5647SOL    HW217841   5.810   6.533   0.676
 5648SOL     OW17842   2.069   1.714   3.358
 5648SOL    HW117843   2.103   1.791   3.305
 5648SOL    HW217844   2.146   1.667   3.402
 5649SOL     OW17845   6.495   6.551   5.435
 5649SOL    HW117846   6.468   6.475   5.494
 5649SOL    HW217847   6.429   6.626   5.446
 5650SOL     OW17848   0.801   5.568   1.100
 5650SOL    HW117849   0.898   5.578   1.124
 5650SOL    HW217850   0.760   5.659   1.089
 5651SOL     OW17851   0.306   1.262   1.548
 5651SOL    HW117852   0.265   1.170   1.542
 5651SOL    HW217853   0.389   1.258   1.604
 5652SOL     OW17854   5.753   6.783   1.728
 5652SOL    HW117855   5.765   6.795   1.827
 5652SOL    HW217856   5.726   6.869   1.686
 5653SOL     OW17857   0.801   5.768   6.759
 5653SOL    HW117858   0.712   5.766   6.806
 5653SOL    HW217859   0.805   5.694   6.692
 5654SOL     OW17860   6.452   6.285   5.632
 5654SOL    HW117861   6.368   6.316   5.677
 5654SOL    HW217862   6.528   6.291   5.697
 5655SOL     OW17863   1.448   3.530   5.242
 5655SOL    HW117864   1.384   3.581   5.300
 5655SOL    HW217865   1.514   3.594   5.202
 5656SOL     OW17866   0.781   3.016   0.840
 5656SOL    HW117867   0.833   3.099   0.819
 5656SOL    HW217868   0.833   2.959   0.904
 5657SOL     OW17869   5.637   0.824   0.341
 5657SOL    HW117870   5.562   0.833   0.276
 5657SOL    HW217871   5.612   0.870   0.426
 5658SOL     OW17872   3.709   5.269   5.858
 5658SOL    HW117873   3.618   5.229   5.845
 5658SOL    HW217874   3.778   5.204   5.827
 5659SOL     OW17875   4.121   3.555   3.574
 5659SOL    HW117876   4.133   3.601   3.487
 5659SOL    HW217877   4.130   3.621   3.649
 5660SOL     OW17878   5.756   0.017   5.487
 5660SOL    HW117879   5.677   6.974   5.475
 5660SOL    HW217880   5.771   0.069   5.403
 5661SOL     OW17881   1.328   4.459   4.825
 5661SOL    HW117882   1.398   4.506   4.879
 5661SOL    HW217883   1.370   4.382   4.776
 5662SOL     OW17884   3.058   5.410   3.421
 5662SOL    HW117885   3.154   5.390   3.399
 5662SOL    HW217886   3.024   5.480   3.358
 5663SOL     OW17887   2.340   2.994   6.803
 5663SOL    HW117888   2.343   2.971   6.900
 5663SOL    HW217889   2.414   2.947   6.755
 5664SOL     OW17890   6.827   4.218   4.747
 5664SOL    HW117891   6.829   4.152   4.672
 5664SOL    HW217892   6.736   4.259   4.753
 5665SOL     OW17893   1.281   2.488   6.647
 5665SOL    HW117894   1.241   2.442   6.727
 5665SOL    HW217895   1.372   2.452   6.630
 5666SOL     OW17896   5.787   5.591   1.301
 5666SOL    HW117897   5.760   5.663   1.366
 5666SOL    HW217898   5.835   5.632   1.224
 5667SOL     OW17899   0.920   4.472   3.408
 5667SOL    HW117900   0.986   4.546   3.392
 5667SOL    HW217901   0.969   4.387   3.424
 5668SOL     OW17902   4.906   2.246   5.347
 5668SOL    HW117903   4.908   2.163   5.291
 5668SOL    HW217904   4.824   2.299   5.324
 5669SOL     OW17905   0.810   2.670   0.207
 5669SOL    HW117906   0.862   2.709   0.132
 5669SOL    HW217907   0.730   2.621   0.171
 5670SOL     OW17908   6.362   2.722   3.759
 5670SOL    HW117909   6.430   2.781   3.803
 5670SOL    HW217910   6.279   2.720   3.815
 5671SOL     OW17911   0.689   5.662   0.046
 5671SOL    HW117912   0.703   5.719   0.127
 5671SOL    HW217913   0.621   5.705   7.004
 5672SOL     OW17914   4.187   5.090   6.478
 5672SOL    HW117915   4.285   5.079   6.493
 5672SOL    HW217916   4.154   5.170   6.529
 5673SOL     OW17917   1.151   6.782   1.855
 5673SOL    HW117918   1.060   6.810   1.886
 5673SOL    HW217919   1.220   6.821   1.916
 5674SOL     OW17920   6.887   4.976   4.571
 5674SOL    HW117921   6.939   5.055   4.603
 5674SOL    HW217922   6.854   4.924   4.650
 5675SOL     OW17923   4.535   1.993   5.418
 5675SOL    HW117924   4.443   1.957   5.431
 5675SOL    HW217925   4.546   2.025   5.324
 5676SOL     OW17926   2.274   2.578   2.456
 5676SOL    HW117927   2.220   2.524   2.391
 5676SOL    HW217928   2.350   2.523   2.490
 5677SOL     OW17929   0.511   1.246   2.929
 5677SOL    HW117930   0.460   1.288   3.003
 5677SOL    HW217931   0.503   1.303   2.847
 5678SOL     OW17932   3.428   6.470   2.979
 5678SOL    HW117933   3.521   6.435   2.992
 5678SOL    HW217934   3.417   6.555   3.031
 5679SOL     OW17935   1.013   1.136   4.183
 5679SOL    HW117936   0.946   1.112   4.254
 5679SOL    HW217937   0.982   1.103   4.095
 5680SOL     OW17938   1.327   5.173   0.169
 5680SOL    HW117939   1.245   5.173   0.226
 5680SOL    HW217940   1.360   5.079   0.157
 5681SOL     OW17941   0.414   4.368   0.077
 5681SOL    HW117942   0.480   4.430   0.119
 5681SOL    HW217943   0.397   4.396   7.000
 5682SOL     OW17944   2.129   4.408   6.287
 5682SOL    HW117945   2.161   4.313   6.277
 5682SOL    HW217946   2.030   4.411   6.271
 5683SOL     OW17947   4.050   0.815   0.320
 5683SOL    HW117948   4.022   0.719   0.312
 5683SOL    HW217949   3.985   0.864   0.377
 5684SOL     OW17950   3.324   2.900   4.606
 5684SOL    HW117951   3.230   2.913   4.636
 5684SOL    HW217952   3.385   2.899   4.686
 5685SOL     OW17953   1.950   3.067   2.685
 5685SOL    HW117954   2.047   3.047   2.679
 5685SOL    HW217955   1.924   3.079   2.782
 5686SOL     OW17956   2.696   0.253   6.177
 5686SOL    HW117957   2.671   0.281   6.085
 5686SOL    HW217958   2.716   0.334   6.232
 5687SOL     OW17959   0.634   4.277   5.934
 5687SOL    HW117960   0.678   4.267   5.845
 5687SOL    HW217961   0.553   4.335   5.925
 5688SOL     OW17962   0.439   2.271   0.155
 5688SOL    HW117963   0.364   2.284   0.090
 5688SOL    HW217964   0.402   2.240   0.243
 5689SOL     OW17965   4.608   0.737   0.924
 5689SOL    HW117966   4.684   0.672   0.924
 5689SOL    HW217967   4.596   0.774   0.831
 5690SOL     OW17968   2.450   6.183   0.769
 5690SOL    HW117969   2.516   6.225   0.707
 5690SOL    HW217970   2.431   6.089   0.740
 5691SOL     OW17971   2.661   6.615   2.134
 5691SOL    HW117972   2.761   6.619   2.141
 5691SOL    HW217973   2.624   6.707   2.145
 5692SOL     OW17974   6.688   3.021   6.809
 5692SOL    HW117975   6.681   3.016   6.908
 5692SOL    HW217976   6.777   2.987   6.780
 5693SOL     OW17977   5.670   2.082   2.704
 5693SOL    HW117978   5.614   2.019   2.759
 5693SOL    HW217979   5.677   2.170   2.750
 5694SOL     OW17980   0.847   2.249   4.007
 5694SOL    HW117981   0.803   2.251   4.097
 5694SOL    HW217982   0.944   2.226   4.018
 5695SOL     OW17983   1.065   2.667   3.110
 5695SOL    HW117984   1.059   2.746   3.170
 5695SOL    HW217985   0.980   2.614   3.116
 5696SOL     OW17986   1.458   1.013   2.956
 5696SOL    HW117987   1.492   1.053   2.871
 5696SOL    HW217988   1.531   1.013   3.025
 5697SOL     OW17989   5.874   2.410   1.615
 5697SOL    HW117990   5.795   2.349   1.611
 5697SOL    HW217991   5.882   2.448   1.707
 5698SOL     OW17992   0.250   3.505   3.220
 5698SOL    HW117993   0.279   3.599   3.236
 5698SOL    HW217994   0.304   3.443   3.278
 5699SOL     OW17995   6.472   2.611   2.837
 5699SOL    HW117996   6.450   2.663   2.754
 5699SOL    HW217997   6.570   2.597   2.843
 5700SOL     OW17998   6.570   6.277   4.554
 5700SOL    HW117999   6.634   6.331   4.608
 5700SOL    HW218000   6.505   6.231   4.615
 5701SOL     OW18001   2.009   0.201   3.003
 5701SOL    HW118002   1.937   0.227   3.067
 5701SOL    HW218003   1.969   0.163   2.920
 5702SOL     OW18004   2.591   6.200   5.738
 5702SOL    HW118005   2.624   6.116   5.781
 5702SOL    HW218006   2.551   6.177   5.649
 5703SOL     OW18007   5.969   4.575   1.788
 5703SOL    HW118008   5.967   4.671   1.815
 5703SOL    HW218009   5.996   4.519   1.866
 5704SOL     OW18010   3.964   5.079   2.410
 5704SOL    HW118011   3.973   4.979   2.403
 5704SOL    HW218012   3.937   5.116   2.321
 5705SOL     OW18013   4.551   0.654   1.543
 5705SOL    HW118014   4.621   0.587   1.568
 5705SOL    HW218015   4.472   0.607   1.505
 5706SOL     OW18016   7.013   3.105   0.372
 5706SOL    HW118017   0.084   3.140   0.343
 5706SOL    HW218018   6.955   3.181   0.402
 5707SOL     OW18019   6.879   6.851   0.652
 5707SOL    HW118020   6.930   6.825   0.734
 5707SOL    HW218021   6.883   6.777   0.585
 5708SOL     OW18022   4.811   5.933   0.976
 5708SOL    HW118023   4.813   5.917   0.877
 5708SOL    HW218024   4.793   6.030   0.994
 5709SOL     OW18025   1.751   0.350   3.089
 5709SOL    HW118026   1.677   0.322   3.150
 5709SOL    HW218027   1.757   0.450   3.088
 5710SOL     OW18028   2.572   3.278   6.497
 5710SOL    HW118029   2.588   3.344   6.570
 5710SOL    HW218030   2.578   3.185   6.534
 5711SOL     OW18031   4.867   1.204   2.880
 5711SOL    HW118032   4.963   1.179   2.867
 5711SOL    HW218033   4.826   1.142   2.947
 5712SOL     OW18034   0.958   5.943   6.074
 5712SOL    HW118035   0.942   5.889   6.157
 5712SOL    HW218036   1.051   5.927   6.041
 5713SOL     OW18037   2.635   3.089   1.710
 5713SOL    HW118038   2.689   3.128   1.785
 5713SOL    HW218039   2.637   2.990   1.716
 5714SOL     OW18040   1.053   5.642   6.911
 5714SOL    HW118041   0.965   5.670   6.873
 5714SOL    HW218042   1.047   5.642   7.011
 5715SOL     OW18043   0.950   6.797   3.172
 5715SOL    HW118044   0.885   6.721   3.169
 5715SOL    HW218045   0.960   6.835   3.080
 5716SOL     OW18046   1.578   4.158   0.079
 5716SOL    HW118047   1.598   4.077   0.133
 5716SOL    HW218048   1.663   4.207   0.060
 5717SOL     OW18049   1.564   6.160   1.188
 5717SOL    HW118050   1.484   6.165   1.248
 5717SOL    HW218051   1.577   6.247   1.141
 5718SOL     OW18052   1.154   3.058   5.702
 5718SOL    HW118053   1.092   3.015   5.768
 5718SOL    HW218054   1.220   2.989   5.670
 5719SOL     OW18055   2.881   1.189   5.853
 5719SOL    HW118056   2.929   1.116   5.902
 5719SOL    HW218057   2.892   1.275   5.902
 5720SOL     OW18058   1.512   5.423   3.780
 5720SOL    HW118059   1.560   5.456   3.861
 5720SOL    HW218060   1.431   5.372   3.808
 5721SOL     OW18061   0.358   4.038   1.131
 5721SOL    HW118062   0.395   3.982   1.205
 5721SOL    HW218063   0.258   4.042   1.140
 5722SOL     OW18064   6.324   1.341   5.570
 5722SOL    HW118065   6.284   1.275   5.633
 5722SOL    HW218066   6.257   1.411   5.547
 5723SOL     OW18067   4.485   3.725   7.009
 5723SOL    HW118068   4.442   3.670   6.937
 5723SOL    HW218069   4.431   3.717   0.075
 5724SOL     OW18070   4.435   2.614   5.194
 5724SOL    HW118071   4.359   2.624   5.259
 5724SOL    HW218072   4.398   2.593   5.103
 5725SOL     OW18073   6.002   5.603   3.648
 5725SOL    HW118074   5.990   5.575   3.744
 5725SOL    HW218075   6.083   5.559   3.611
 5726SOL     OW18076   0.138   4.638   4.787
 5726SOL    HW118077   0.137   4.684   4.875
 5726SOL    HW218078   0.044   4.627   4.754
 5727SOL     OW18079   0.168   2.403   3.824
 5727SOL    HW118080   0.167   2.316   3.874
 5727SOL    HW218081   0.215   2.390   3.736
 5728SOL     OW18082   4.179   1.409   6.484
 5728SOL    HW118083   4.247   1.396   6.412
 5728SOL    HW218084   4.087   1.410   6.445
 5729SOL     OW18085   0.946   1.533   0.370
 5729SOL    HW118086   0.983   1.572   0.454
 5729SOL    HW218087   0.943   1.434   0.378
 5730SOL     OW18088   4.374   5.092   5.777
 5730SOL    HW118089   4.325   5.036   5.710
 5730SOL    HW218090   4.341   5.071   5.869
 5731SOL     OW18091   1.235   6.615   4.042
 5731SOL    HW118092   1.190   6.670   3.971
 5731SOL    HW218093   1.334   6.624   4.033
 5732SOL     OW18094   6.488   5.048   4.663
 5732SOL    HW118095   6.404   5.089   4.699
 5732SOL    HW218096   6.565   5.110   4.679
 5733SOL     OW18097   3.371   0.313   5.315
 5733SOL    HW118098   3.346   0.234   5.261
 5733SOL    HW218099   3.328   0.395   5.278
 5734SOL     OW18100   0.873   6.210   6.047
 5734SOL    HW118101   0.797   6.227   6.110
 5734SOL    HW218102   0.890   6.111   6.043
 5735SOL     OW18103   3.980   1.927   2.200
 5735SOL    HW118104   3.918   1.990   2.246
 5735SOL    HW218105   4.071   1.934   2.242
 5736SOL     OW18106   5.945   3.971   0.606
 5736SOL    HW118107   5.894   3.909   0.666
 5736SOL    HW218108   5.978   4.049   0.658
 5737SOL     OW18109   4.592   5.596   0.108
 5737SOL    HW118110   4.648   5.516   0.086
 5737SOL    HW218111   4.634   5.646   0.184
 5738SOL     OW18112   2.700   2.792   6.372
 5738SOL    HW118113   2.765   2.814   6.444
 5738SOL    HW218114   2.724   2.843   6.289
 5739SOL     OW18115   0.906   6.747   5.216
 5739SOL    HW118116   0.931   6.810   5.290
 5739SOL    HW218117   0.807   6.748   5.203
 5740SOL     OW18118   4.249   3.357   0.663
 5740SOL    HW118119   4.209   3.405   0.585
 5740SOL    HW218120   4.220   3.401   0.747
 5741SOL     OW18121   6.571   4.293   4.762
 5741SOL    HW118122   6.516   4.343   4.696
 5741SOL    HW218123   6.518   4.218   4.800
 5742SOL     OW18124   4.829   6.652   2.739
 5742SOL    HW118125   4.745   6.631   2.690
 5742SOL    HW218126   4.871   6.567   2.772
 5743SOL     OW18127   2.442   6.112   4.903
 5743SOL    HW118128   2.350   6.074   4.910
 5743SOL    HW218129   2.437   6.210   4.882
 5744SOL     OW18130   4.955   1.131   1.314
 5744SOL    HW118131   4.983   1.198   1.246
 5744SOL    HW218132   5.035   1.099   1.364
 5745SOL     OW18133   1.769   1.773   4.113
 5745SOL    HW118134   1.763   1.697   4.179
 5745SOL    HW218135   1.780   1.859   4.162
 5746SOL     OW18136   5.446   0.222   1.031
 5746SOL    HW118137   5.504   0.242   0.952
 5746SOL    HW218138   5.356   0.262   1.018
 5747SOL     OW18139   0.835   4.515   2.497
 5747SOL    HW118140   0.911   4.553   2.549
 5747SOL    HW218141   0.760   4.493   2.558
 5748SOL     OW18142   1.508   6.804   0.376
 5748SOL    HW118143   1.608   6.805   0.388
 5748SOL    HW218144   1.476   6.898   0.365
 5749SOL     OW18145   1.581   6.042   4.446
 5749SOL    HW118146   1.637   5.962   4.468
 5749SOL    HW218147   1.585   6.059   4.347
 5750SOL     OW18148   6.613   5.721   4.658
 5750SOL    HW118149   6.576   5.719   4.751
 5750SOL    HW218150   6.711   5.743   4.662
 5751SOL     OW18151   2.203   2.840   4.648
 5751SOL    HW118152   2.223   2.931   4.685
 5751SOL    HW218153   2.115   2.808   4.684
 5752SOL     OW18154   6.890   0.483   0.191
 5752SOL    HW118155   6.871   0.387   0.210
 5752SOL    HW218156   6.936   0.524   0.270
 5753SOL     OW18157   3.589   3.261   4.137
 5753SOL    HW118158   3.649   3.255   4.058
 5753SOL    HW218159   3.633   3.219   4.216
 5754SOL     OW18160   6.829   4.845   1.948
 5754SOL    HW118161   6.819   4.746   1.938
 5754SOL    HW218162   6.873   4.865   2.036
 5755SOL     OW18163   2.430   2.717   6.346
 5755SOL    HW118164   2.528   2.735   6.342
 5755SOL    HW218165   2.414   2.624   6.377
 5756SOL     OW18166   6.259   0.117   3.369
 5756SOL    HW118167   6.264   0.026   3.409
 5756SOL    HW218168   6.209   0.178   3.430
 5757SOL     OW18169   7.001   6.793   3.365
 5757SOL    HW118170   0.041   6.729   3.415
 5757SOL    HW218171   0.029   6.882   3.357
 5758SOL     OW18172   2.437   0.487   4.577
 5758SOL    HW118173   2.514   0.551   4.583
 5758SOL    HW218174   2.472   0.393   4.576
 5759SOL     OW18175   4.963   1.935   0.017
 5759SOL    HW118176   5.027   1.864   7.007
 5759SOL    HW218177   4.905   1.960   6.957
 5760SOL     OW18178   6.987   4.080   0.849
 5760SOL    HW118179   0.050   4.138   0.853
 5760SOL    HW218180   6.916   4.125   0.794
 5761SOL     OW18181   6.100   5.553   6.664
 5761SOL    HW118182   6.114   5.620   6.737
 5761SOL    HW218183   6.187   5.533   6.619
 5762SOL     OW18184   4.279   4.017   0.223
 5762SOL    HW118185   4.254   4.086   0.155
 5762SOL    HW218186   4.202   4.000   0.284
 5763SOL     OW18187   6.949   6.607   0.525
 5763SOL    HW118188   6.977   6.535   0.461
 5763SOL    HW218189   6.981   6.584   0.617
 5764SOL     OW18190   5.016   5.094   5.498
 5764SOL    HW118191   5.043   5.188   5.516
 5764SOL    HW218192   5.098   5.039   5.480
 5765SOL     OW18193   5.808   2.819   0.259
 5765SOL    HW118194   5.874   2.755   0.298
 5765SOL    HW218195   5.796   2.897   0.320
 5766SOL     OW18196   2.183   1.844   6.773
 5766SOL    HW118197   2.184   1.941   6.752
 5766SOL    HW218198   2.114   1.798   6.717
 5767SOL     OW18199   1.780   1.683   0.301
 5767SOL    HW118200   1.871   1.721   0.285
 5767SOL    HW218201   1.781   1.630   0.386
 5768SOL     OW18202   1.420   6.243   3.700
 5768SOL    HW118203   1.443   6.271   3.607
 5768SOL    HW218204   1.405   6.323   3.757
 5769SOL     OW18205   2.476   5.934   4.562
 5769SOL    HW118206   2.412   5.889   4.625
 5769SOL    HW218207   2.442   5.924   4.468
 5770SOL     OW18208   6.240   6.322   0.275
 5770SOL    HW118209   6.307   6.394   0.259
 5770SOL    HW218210   6.160   6.336   0.216
 5771SOL     OW18211   1.570   0.448   3.590
 5771SOL    HW118212   1.666   0.446   3.619
 5771SOL    HW218213   1.511   0.423   3.666
 5772SOL     OW18214   6.056   2.070   1.316
 5772SOL    HW118215   5.998   2.124   1.256
 5772SOL    HW218216   6.000   2.002   1.364
 5773SOL     OW18217   4.638   0.360   3.244
 5773SOL    HW118218   4.668   0.331   3.153
 5773SOL    HW218219   4.716   0.357   3.307
 5774SOL     OW18220   2.656   6.154   3.436
 5774SOL    HW118221   2.583   6.221   3.446
 5774SOL    HW218222   2.640   6.076   3.497
 5775SOL     OW18223   1.615   1.013   2.288
 5775SOL    HW118224   1.533   0.963   2.317
 5775SOL    HW218225   1.594   1.068   2.207
 5776SOL     OW18226   6.891   0.595   4.479
 5776SOL    HW118227   6.934   0.595   4.569
 5776SOL    HW218228   6.796   0.625   4.487
 5777SOL     OW18229   6.180   6.753   5.937
 5777SOL    HW118230   6.119   6.720   6.009
 5777SOL    HW218231   6.153   6.713   5.849
 5778SOL     OW18232   1.791   1.029   1.434
 5778SOL    HW118233   1.739   1.028   1.519
 5778SOL    HW218234   1.805   1.124   1.404
 5779SOL     OW18235   4.907   2.482   0.697
 5779SOL    HW118236   4.956   2.470   0.784
 5779SOL    HW218237   4.913   2.398   0.644
 5780SOL     OW18238   6.243   5.454   3.566
 5780SOL    HW118239   6.190   5.369   3.562
 5780SOL    HW218240   6.285   5.471   3.477
 5781SOL     OW18241   0.357   4.549   4.182
 5781SOL    HW118242   0.329   4.633   4.228
 5781SOL    HW218243   0.305   4.472   4.218
 5782SOL     OW18244   0.914   1.470   0.755
 5782SOL    HW118245   0.975   1.544   0.729
 5782SOL    HW218246   0.855   1.499   0.831
 5783SOL     OW18247   1.929   0.638   1.477
 5783SOL    HW118248   1.957   0.734   1.480
 5783SOL    HW218249   2.010   0.579   1.488
 5784SOL     OW18250   7.009   5.959   0.709
 5784SOL    HW118251   6.951   5.878   0.722
 5784SOL    HW218252   7.001   6.019   0.789
 5785SOL     OW18253   1.756   2.083   0.637
 5785SOL    HW118254   1.659   2.079   0.659
 5785SOL    HW218255   1.788   2.178   0.641
 5786SOL     OW18256   0.599   4.485   1.097
 5786SOL    HW118257   0.626   4.492   1.193
 5786SOL    HW218258   0.631   4.565   1.047
 5787SOL     OW18259   3.969   1.754   5.296
 5787SOL    HW118260   4.003   1.726   5.386
 5787SOL    HW218261   3.885   1.704   5.276
 5788SOL     OW18262   3.671   1.798   1.421
 5788SOL    HW118263   3.600   1.727   1.420
 5788SOL    HW218264   3.754   1.764   1.378
 5789SOL     OW18265   3.128   4.612   0.619
 5789SOL    HW118266   3.089   4.521   0.628
 5789SOL    HW218267   3.137   4.635   0.522
 5790SOL     OW18268   0.329   4.721   4.595
 5790SOL    HW118269   0.423   4.705   4.627
 5790SOL    HW218270   0.265   4.681   4.660
 5791SOL     OW18271   3.358   1.741   2.577
 5791SOL    HW118272   3.412   1.796   2.640
 5791SOL    HW218273   3.269   1.784   2.562
 5792SOL     OW18274   5.619   3.021   2.109
 5792SOL    HW118275   5.577   3.112   2.106
 5792SOL    HW218276   5.656   2.999   2.019
 5793SOL     OW18277   5.350   0.558   3.982
 5793SOL    HW118278   5.329   0.465   4.012
 5793SOL    HW218279   5.385   0.556   3.888
 5794SOL     OW18280   2.055   1.163   6.928
 5794SOL    HW118281   2.057   1.064   6.911
 5794SOL    HW218282   1.982   1.204   6.874
 5795SOL     OW18283   0.048   6.625   0.027
 5795SOL    HW118284   0.029   6.647   6.949
 5795SOL    HW218285   0.070   6.710   0.075
 5796SOL     OW18286   4.755   0.726   5.692
 5796SOL    HW118287   4.730   0.813   5.651
 5796SOL    HW218288   4.854   0.713   5.686
 5797SOL     OW18289   4.731   2.223   0.292
 5797SOL    HW118290   4.637   2.191   0.282
 5797SOL    HW218291   4.764   2.258   0.204
 5798SOL     OW18292   6.320   5.170   4.189
 5798SOL    HW118293   6.335   5.195   4.285
 5798SOL    HW218294   6.227   5.195   4.162
 5799SOL     OW18295   0.331   1.015   4.092
 5799SOL    HW118296   0.366   0.924   4.070
 5799SOL    HW218297   0.407   1.076   4.114
 5800SOL     OW18298   6.300   0.042   1.510
 5800SOL    HW118299   6.212   0.089   1.499
 5800SOL    HW218300   6.288   6.980   1.568
 5801SOL     OW18301   1.996   2.938   3.188
 5801SOL    HW118302   1.926   2.931   3.259
 5801SOL    HW218303   2.033   2.848   3.169
 5802SOL     OW18304   6.833   3.321   2.217
 5802SOL    HW118305   6.736   3.326   2.238
 5802SOL    HW218306   6.854   3.234   2.173
 5803SOL     OW18307   2.307   5.429   2.244
 5803SOL    HW118308   2.382   5.489   2.273
 5803SOL    HW218309   2.222   5.459   2.287
 5804SOL     OW18310   0.170   4.914   3.056
 5804SOL    HW118311   0.073   4.937   3.060
 5804SOL    HW218312   0.193   4.856   3.135
 5805SOL     OW18313   1.898   3.352   0.580
 5805SOL    HW118314   1.851   3.437   0.603
 5805SOL    HW218315   1.875   3.282   0.648
 5806SOL     OW18316   6.218   5.552   4.448
 5806SOL    HW118317   6.309   5.547   4.490
 5806SOL    HW218318   6.187   5.647   4.449
 5807SOL     OW18319   0.855   4.809   0.778
 5807SOL    HW118320   0.824   4.903   0.793
 5807SOL    HW218321   0.952   4.809   0.754
 5808SOL     OW18322   6.216   5.355   3.939
 5808SOL    HW118323   6.179   5.297   3.866
 5808SOL    HW218324   6.315   5.364   3.928
 5809SOL     OW18325   6.415   1.628   5.191
 5809SOL    HW118326   6.457   1.702   5.243
 5809SOL    HW218327   6.460   1.542   5.211
 5810SOL     OW18328   4.763   1.587   5.221
 5810SOL    HW118329   4.732   1.577   5.316
 5810SOL    HW218330   4.689   1.627   5.166
 5811SOL     OW18331   3.492   0.631   4.853
 5811SOL    HW118332   3.500   0.538   4.817
 5811SOL    HW218333   3.396   0.657   4.860
 5812SOL     OW18334   5.640   3.447   4.862
 5812SOL    HW118335   5.665   3.370   4.920
 5812SOL    HW218336   5.548   3.478   4.884
 5813SOL     OW18337   1.990   1.654   1.389
 5813SOL    HW118338   2.088   1.669   1.397
 5813SOL    HW218339   1.944   1.689   1.471
 5814SOL     OW18340   6.296   3.819   2.095
 5814SOL    HW118341   6.255   3.770   2.172
 5814SOL    HW218342   6.395   3.823   2.106
 5815SOL     OW18343   3.949   1.712   4.111
 5815SOL    HW118344   4.035   1.662   4.116
 5815SOL    HW218345   3.872   1.649   4.125
 5816SOL     OW18346   4.891   4.599   0.553
 5816SOL    HW118347   4.971   4.568   0.502
 5816SOL    HW218348   4.887   4.551   0.641
 5817SOL     OW18349   5.805   4.110   5.774
 5817SOL    HW118350   5.849   4.067   5.852
 5817SOL    HW218351   5.723   4.058   5.748
 5818SOL     OW18352   6.471   5.085   5.311
 5818SOL    HW118353   6.555   5.120   5.269
 5818SOL    HW218354   6.416   5.037   5.242
 5819SOL     OW18355   3.723   0.485   6.886
 5819SOL    HW118356   3.768   0.396   6.882
 5819SOL    HW218357   3.784   0.550   6.933
 5820SOL     OW18358   4.566   4.421   3.340
 5820SOL    HW118359   4.646   4.364   3.320
 5820SOL    HW218360   4.534   4.402   3.433
 5821SOL     OW18361   0.383   0.691   2.032
 5821SOL    HW118362   0.291   0.708   1.996
 5821SOL    HW218363   0.447   0.683   1.956
 5822SOL     OW18364   1.522   2.624   1.286
 5822SOL    HW118365   1.437   2.667   1.254
 5822SOL    HW218366   1.538   2.540   1.235
 5823SOL     OW18367   2.742   0.251   4.453
 5823SOL    HW118368   2.782   0.272   4.364
 5823SOL    HW218369   2.815   0.241   4.521
 5824SOL     OW18370   0.027   5.833   2.584
 5824SOL    HW118371   0.061   5.761   2.644
 5824SOL    HW218372   0.085   5.840   2.503
 5825SOL     OW18373   0.039   7.004   4.649
 5825SOL    HW118374   7.010   0.035   4.575
 5825SOL    HW218375   0.027   6.906   4.637
 5826SOL     OW18376   0.603   5.080   6.002
 5826SOL    HW118377   0.539   5.016   5.960
 5826SOL    HW218378   0.638   5.143   5.932
 5827SOL     OW18379   1.776   3.728   5.433
 5827SOL    HW118380   1.705   3.681   5.486
 5827SOL    HW218381   1.799   3.674   5.352
 5828SOL     OW18382   5.896   2.138   1.794
 5828SOL    HW118383   5.824   2.169   1.857
 5828SOL    HW218384   5.953   2.070   1.840
 5829SOL     OW18385   1.668   0.439   3.995
 5829SOL    HW118386   1.595   0.394   3.944
 5829SOL    HW218387   1.755   0.394   3.977
 5830SOL     OW18388   5.609   6.474   5.744
 5830SOL    HW118389   5.618   6.531   5.826
 5830SOL    HW218390   5.580   6.382   5.771
 5831SOL     OW18391   1.187   0.967   5.611
 5831SOL    HW118392   1.203   0.988   5.707
 5831SOL    HW218393   1.189   0.868   5.598
 5832SOL     OW18394   3.702   5.557   6.912
 5832SOL    HW118395   3.688   5.467   6.953
 5832SOL    HW218396   3.624   5.617   6.934
 5833SOL     OW18397   3.426   4.347   5.274
 5833SOL    HW118398   3.375   4.428   5.303
 5833SOL    HW218399   3.375   4.300   5.201
 5834SOL     OW18400   0.011   2.843   0.410
 5834SOL    HW118401   0.007   2.941   0.393
 5834SOL    HW218402   0.018   2.794   0.323
 5835SOL     OW18403   5.419   3.092   3.715
 5835SOL    HW118404   5.372   3.106   3.628
 5835SOL    HW218405   5.404   3.172   3.774
 5836SOL     OW18406   3.116   0.684   1.847
 5836SOL    HW118407   3.126   0.694   1.946
 5836SOL    HW218408   3.168   0.603   1.816
 5837SOL     OW18409   3.040   4.318   0.049
 5837SOL    HW118410   3.022   4.408   0.088
 5837SOL    HW218411   3.112   4.325   6.998
 5838SOL     OW18412   3.170   2.003   0.944
 5838SOL    HW118413   3.206   2.060   1.018
 5838SOL    HW218414   3.218   2.024   0.859
 5839SOL     OW18415   1.370   1.704   2.160
 5839SOL    HW118416   1.309   1.636   2.121
 5839SOL    HW218417   1.410   1.759   2.087
 5840SOL     OW18418   0.927   4.983   6.508
 5840SOL    HW118419   0.901   4.886   6.510
 5840SOL    HW218420   0.934   5.013   6.413
 5841SOL     OW18421   5.000   1.404   2.522
 5841SOL    HW118422   4.904   1.426   2.540
 5841SOL    HW218423   5.058   1.445   2.592
 5842SOL     OW18424   4.792   2.631   1.581
 5842SOL    HW118425   4.833   2.549   1.541
 5842SOL    HW218426   4.846   2.711   1.555
 5843SOL     OW18427   1.526   4.216   2.340
 5843SOL    HW118428   1.535   4.118   2.321
 5843SOL    HW218429   1.495   4.229   2.434
 5844SOL     OW18430   1.605   5.879   5.771
 5844SOL    HW118431   1.549   5.800   5.796
 5844SOL    HW218432   1.701   5.857   5.785
 5845SOL     OW18433   0.480   0.368   2.330
 5845SOL    HW118434   0.471   0.467   2.321
 5845SOL    HW218435   0.572   0.341   2.304
 5846SOL     OW18436   5.994   3.237   6.230
 5846SOL    HW118437   6.012   3.171   6.303
 5846SOL    HW218438   6.035   3.204   6.145
 5847SOL     OW18439   2.748   2.272   2.286
 5847SOL    HW118440   2.808   2.309   2.215
 5847SOL    HW218441   2.684   2.207   2.245
 5848SOL     OW18442   1.738   5.838   3.361
 5848SOL    HW118443   1.659   5.899   3.368
 5848SOL    HW218444   1.822   5.893   3.361
 5849SOL     OW18445   1.028   0.369   5.317
 5849SOL    HW118446   0.948   0.310   5.324
 5849SOL    HW218447   1.071   0.357   5.228
 5850SOL     OW18448   6.884   3.074   1.679
 5850SOL    HW118449   6.941   3.064   1.762
 5850SOL    HW218450   6.847   3.167   1.676
 5851SOL     OW18451   5.187   3.080   2.612
 5851SOL    HW118452   5.256   3.152   2.606
 5851SOL    HW218453   5.210   3.006   2.548
 5852SOL     OW18454   5.931   6.193   3.274
 5852SOL    HW118455   5.871   6.114   3.288
 5852SOL    HW218456   6.026   6.166   3.290
 5853SOL     OW18457   3.367   5.490   4.971
 5853SOL    HW118458   3.397   5.432   4.895
 5853SOL    HW218459   3.274   5.464   4.997
 5854SOL     OW18460   4.530   4.256   6.425
 5854SOL    HW118461   4.466   4.214   6.361
 5854SOL    HW218462   4.587   4.322   6.376
 5855SOL     OW18463   1.058   1.080   5.101
 5855SOL    HW118464   0.974   1.047   5.143
 5855SOL    HW218465   1.038   1.120   5.011
 5856SOL     OW18466   2.274   6.192   3.305
 5856SOL    HW118467   2.353   6.251   3.320
 5856SOL    HW218468   2.190   6.244   3.320
 5857SOL     OW18469   6.538   1.997   5.980
 5857SOL    HW118470   6.594   1.915   5.990
 5857SOL    HW218471   6.450   1.972   5.938
 5858SOL     OW18472   2.504   2.183   2.777
 5858SOL    HW118473   2.503   2.156   2.874
 5858SOL    HW218474   2.454   2.269   2.766
 5859SOL     OW18475   6.005   5.989   1.763
 5859SOL    HW118476   6.084   6.047   1.745
 5859SOL    HW218477   6.008   5.955   1.857
 5860SOL     OW18478   0.400   3.608   2.873
 5860SOL    HW118479   0.463   3.559   2.812
 5860SOL    HW218480   0.333   3.659   2.819
 5861SOL     OW18481   4.697   1.784   4.485
 5861SOL    HW118482   4.723   1.709   4.546
 5861SOL    HW218483   4.776   1.811   4.430
 5862SOL     OW18484   5.861   5.489   1.039
 5862SOL    HW118485   5.812   5.434   1.108
 5862SOL    HW218486   5.794   5.539   0.984
 5863SOL     OW18487   3.121   2.039   5.143
 5863SOL    HW118488   3.149   2.111   5.081
 5863SOL    HW218489   3.104   2.077   5.234
 5864SOL     OW18490   3.992   3.751   2.466
 5864SOL    HW118491   4.028   3.663   2.499
 5864SOL    HW218492   3.944   3.797   2.540
 5865SOL     OW18493   5.815   6.825   5.171
 5865SOL    HW118494   5.717   6.824   5.154
 5865SOL    HW218495   5.834   6.777   5.256
 5866SOL     OW18496   3.347   4.329   0.640
 5866SOL    HW118497   3.343   4.414   0.692
 5866SOL    HW218498   3.281   4.263   0.678
 5867SOL     OW18499   2.299   3.416   1.114
 5867SOL    HW118500   2.272   3.397   1.019
 5867SOL    HW218501   2.222   3.457   1.163
 5868SOL     OW18502   1.249   1.215   5.431
 5868SOL    HW118503   1.260   1.124   5.470
 5868SOL    HW218504   1.317   1.277   5.471
 5869SOL     OW18505   2.191   6.634   3.008
 5869SOL    HW118506   2.171   6.608   2.913
 5869SOL    HW218507   2.160   6.728   3.023
 5870SOL     OW18508   4.242   6.593   4.928
 5870SOL    HW118509   4.234   6.581   5.027
 5870SOL    HW218510   4.326   6.644   4.908
 5871SOL     OW18511   3.270   3.420   1.287
 5871SOL    HW118512   3.175   3.451   1.280
 5871SOL    HW218513   3.305   3.400   1.196
 5872SOL     OW18514   4.658   6.256   1.059
 5872SOL    HW118515   4.573   6.216   1.092
 5872SOL    HW218516   4.671   6.347   1.099
 5873SOL     OW18517   3.859   1.334   2.108
 5873SOL    HW118518   3.814   1.417   2.141
 5873SOL    HW218519   3.934   1.311   2.170
 5874SOL     OW18520   2.917   4.971   6.486
 5874SOL    HW118521   2.878   5.034   6.419
 5874SOL    HW218522   2.847   4.947   6.553
 5875SOL     OW18523   4.157   1.705   0.260
 5875SOL    HW118524   4.171   1.606   0.256
 5875SOL    HW218525   4.233   1.748   0.309
 5876SOL     OW18526   4.266   3.088   0.492
 5876SOL    HW118527   4.245   3.170   0.439
 5876SOL    HW218528   4.182   3.050   0.530
 5877SOL     OW18529   0.646   0.106   1.567
 5877SOL    HW118530   0.626   0.200   1.537
 5877SOL    HW218531   0.737   0.080   1.536
 5878SOL     OW18532   6.121   5.160   3.764
 5878SOL    HW118533   6.078   5.201   3.685
 5878SOL    HW218534   6.054   5.105   3.815
 5879SOL     OW18535   1.480   4.116   6.845
 5879SOL    HW118536   1.491   4.127   6.944
 5879SOL    HW218537   1.564   4.146   6.799
 5880SOL     OW18538   4.858   4.534   5.973
 5880SOL    HW118539   4.862   4.631   5.949
 5880SOL    HW218540   4.942   4.508   6.020
 5881SOL     OW18541   0.644   0.202   2.190
 5881SOL    HW118542   0.671   0.228   2.098
 5881SOL    HW218543   0.646   0.102   2.199
 5882SOL     OW18544   6.640   5.246   0.835
 5882SOL    HW118545   6.555   5.196   0.815
 5882SOL    HW218546   6.618   5.335   0.875
 5883SOL     OW18547   1.063   1.574   6.335
 5883SOL    HW118548   1.053   1.604   6.240
 5883SOL    HW218549   0.984   1.518   6.361
 5884SOL     OW18550   4.134   0.927   4.550
 5884SOL    HW118551   4.150   0.979   4.635
 5884SOL    HW218552   4.040   0.893   4.550
 5885SOL     OW18553   0.590   6.649   2.450
 5885SOL    HW118554   0.617   6.583   2.379
 5885SOL    HW218555   0.493   6.668   2.443
 5886SOL     OW18556   6.954   2.553   4.470
 5886SOL    HW118557   0.019   2.607   4.480
 5886SOL    HW218558   6.974   2.474   4.411
 5887SOL     OW18559   2.697   1.868   2.074
 5887SOL    HW118560   2.694   1.877   1.975
 5887SOL    HW218561   2.633   1.796   2.103
 5888SOL     OW18562   3.126   0.430   1.304
 5888SOL    HW118563   3.156   0.437   1.399
 5888SOL    HW218564   3.200   0.459   1.243
 5889SOL     OW18565   0.713   0.572   0.657
 5889SOL    HW118566   0.722   0.668   0.633
 5889SOL    HW218567   0.712   0.563   0.757
 5890SOL     OW18568   2.196   1.331   3.401
 5890SOL    HW118569   2.200   1.431   3.396
 5890SOL    HW218570   2.288   1.294   3.387
 5891SOL     OW18571   3.222   3.199   6.924
 5891SOL    HW118572   3.143   3.260   6.937
 5891SOL    HW218573   3.260   3.174   7.014
 5892SOL     OW18574   0.694   5.606   2.074
 5892SOL    HW118575   0.653   5.517   2.052
 5892SOL    HW218576   0.775   5.591   2.132
 5893SOL     OW18577   2.382   4.338   3.685
 5893SOL    HW118578   2.305   4.399   3.664
 5893SOL    HW218579   2.425   4.307   3.601
 5894SOL     OW18580   6.897   5.728   4.018
 5894SOL    HW118581   6.853   5.716   3.929
 5894SOL    HW218582   6.852   5.669   4.086
 5895SOL     OW18583   5.466   3.710   4.102
 5895SOL    HW118584   5.366   3.702   4.100
 5895SOL    HW218585   5.506   3.618   4.095
 5896SOL     OW18586   3.506   0.905   0.547
 5896SOL    HW118587   3.450   0.862   0.477
 5896SOL    HW218588   3.583   0.953   0.504
 5897SOL     OW18589   4.535   6.961   1.333
 5897SOL    HW118590   4.628   6.927   1.321
 5897SOL    HW218591   4.471   6.902   1.282
 5898SOL     OW18592   2.397   0.072   3.747
 5898SOL    HW118593   2.317   0.021   3.715
 5898SOL    HW218594   2.440   0.023   3.824
 5899SOL     OW18595   6.391   5.771   0.281
 5899SOL    HW118596   6.363   5.861   0.250
 5899SOL    HW218597   6.312   5.721   0.316
 5900SOL     OW18598   6.396   5.189   3.708
 5900SOL    HW118599   6.306   5.160   3.740
 5900SOL    HW218600   6.467   5.145   3.763
 5901SOL     OW18601   2.435   1.767   0.117
 5901SOL    HW118602   2.429   1.674   0.154
 5901SOL    HW218603   2.434   1.764   0.018
 5902SOL     OW18604   5.737   1.879   5.077
 5902SOL    HW118605   5.755   1.900   5.174
 5902SOL    HW218606   5.641   1.858   5.065
 5903SOL     OW18607   4.727   4.278   0.182
 5903SOL    HW118608   4.632   4.300   0.160
 5903SOL    HW218609   4.788   4.324   0.117
 5904SOL     OW18610   0.782   4.499   1.538
 5904SOL    HW118611   0.707   4.435   1.519
 5904SOL    HW218612   0.832   4.468   1.619
 5905SOL     OW18613   6.607   6.651   3.970
 5905SOL    HW118614   6.698   6.679   3.998
 5905SOL    HW218615   6.613   6.591   3.890
 5906SOL     OW18616   3.716   2.122   3.913
 5906SOL    HW118617   3.789   2.107   3.845
 5906SOL    HW218618   3.751   2.179   3.987
 5907SOL     OW18619   1.126   4.856   0.739
 5907SOL    HW118620   1.172   4.813   0.661
 5907SOL    HW218621   1.185   4.925   0.779
 5908SOL     OW18622   0.259   3.264   6.728
 5908SOL    HW118623   0.211   3.315   6.656
 5908SOL    HW218624   0.263   3.167   6.703
 5909SOL     OW18625   6.843   5.113   0.978
 5909SOL    HW118626   6.771   5.163   0.930
 5909SOL    HW218627   6.881   5.043   0.916
 5910SOL     OW18628   0.851   4.064   3.407
 5910SOL    HW118629   0.931   4.003   3.412
 5910SOL    HW218630   0.845   4.118   3.491
 5911SOL     OW18631   0.084   5.568   6.266
 5911SOL    HW118632   0.118   5.628   6.193
 5911SOL    HW218633   0.014   5.507   6.229
 5912SOL     OW18634   5.783   1.812   6.637
 5912SOL    HW118635   5.856   1.843   6.576
 5912SOL    HW218636   5.712   1.766   6.585
 5913SOL     OW18637   5.093   3.110   6.131
 5913SOL    HW118638   5.027   3.092   6.204
 5913SOL    HW218639   5.178   3.146   6.169
 5914SOL     OW18640   1.463   5.670   5.878
 5914SOL    HW118641   1.540   5.636   5.932
 5914SOL    HW218642   1.380   5.620   5.903
 5915SOL     OW18643   4.501   5.470   1.226
 5915SOL    HW118644   4.497   5.544   1.293
 5915SOL    HW218645   4.430   5.485   1.156
 5916SOL     OW18646   5.065   6.563   3.970
 5916SOL    HW118647   5.155   6.557   4.014
 5916SOL    HW218648   5.051   6.483   3.911
 5917SOL     OW18649   2.924   3.630   4.009
 5917SOL    HW118650   2.935   3.538   4.047
 5917SOL    HW218651   2.926   3.626   3.909
 5918SOL     OW18652   2.157   3.566   6.288
 5918SOL    HW118653   2.094   3.630   6.244
 5918SOL    HW218654   2.182   3.494   6.224
 5919SOL     OW18655   3.565   3.420   2.400
 5919SOL    HW118656   3.515   3.506   2.410
 5919SOL    HW218657   3.524   3.351   2.459
 5920SOL     OW18658   4.224   0.437   6.592
 5920SOL    HW118659   4.220   0.510   6.659
 5920SOL    HW218660   4.278   0.361   6.628
 5921SOL     OW18661   4.006   5.278   6.582
 5921SOL    HW118662   3.955   5.213   6.526
 5921SOL    HW218663   3.955   5.296   6.666
 5922SOL     OW18664   5.542   5.232   2.850
 5922SOL    HW118665   5.639   5.216   2.869
 5922SOL    HW218666   5.534   5.290   2.768
 5923SOL     OW18667   6.237   1.290   1.357
 5923SOL    HW118668   6.183   1.272   1.439
 5923SOL    HW218669   6.216   1.381   1.322
 5924SOL     OW18670   6.594   0.992   2.836
 5924SOL    HW118671   6.599   1.072   2.776
 5924SOL    HW218672   6.554   0.915   2.787
 5925SOL     OW18673   3.849   6.742   2.111
 5925SOL    HW118674   3.816   6.733   2.205
 5925SOL    HW218675   3.919   6.814   2.107
 5926SOL     OW18676   3.954   5.477   1.277
 5926SOL    HW118677   4.000   5.409   1.335
 5926SOL    HW218678   3.861   5.446   1.258
 5927SOL     OW18679   1.379   4.171   2.601
 5927SOL    HW118680   1.300   4.147   2.545
 5927SOL    HW218681   1.378   4.117   2.685
 5928SOL     OW18682   4.091   0.444   1.074
 5928SOL    HW118683   4.024   0.437   1.147
 5928SOL    HW218684   4.160   0.372   1.084
 5929SOL     OW18685   0.278   0.036   6.943
 5929SOL    HW118686   0.279   6.962   6.903
 5929SOL    HW218687   0.185   0.073   6.940
 5930SOL     OW18688   6.616   3.325   3.726
 5930SOL    HW118689   6.583   3.231   3.740
 5930SOL    HW218690   6.648   3.335   3.632
 5931SOL     OW18691   6.480   5.336   3.167
 5931SOL    HW118692   6.544   5.313   3.092
 5931SOL    HW218693   6.440   5.251   3.202
 5932SOL     OW18694   3.327   0.493   0.780
 5932SOL    HW118695   3.323   0.403   0.737
 5932SOL    HW218696   3.300   0.563   0.714
 5933SOL     OW18697   6.498   6.245   3.146
 5933SOL    HW118698   6.527   6.321   3.088
 5933SOL    HW218699   6.575   6.216   3.204
 5934SOL     OW18700   3.699   2.925   4.178
 5934SOL    HW118701   3.667   2.890   4.266
 5934SOL    HW218702   3.779   2.983   4.192
 5935SOL     OW18703   5.275   5.295   6.404
 5935SOL    HW118704   5.258   5.312   6.307
 5935SOL    HW218705   5.196   5.325   6.458
 5936SOL     OW18706   3.821   2.998   1.239
 5936SOL    HW118707   3.787   3.090   1.219
 5936SOL    HW218708   3.748   2.944   1.281
 5937SOL     OW18709   0.282   4.132   2.496
 5937SOL    HW118710   0.253   4.126   2.401
 5937SOL    HW218711   0.372   4.090   2.507
 5938SOL     OW18712   0.347   5.569   2.968
 5938SOL    HW118713   0.290   5.621   3.032
 5938SOL    HW218714   0.441   5.564   3.002
 5939SOL     OW18715   3.257   6.722   2.834
 5939SOL    HW118716   3.177   6.756   2.783
 5939SOL    HW218717   3.258   6.622   2.832
 5940SOL     OW18718   5.152   5.849   0.939
 5940SOL    HW118719   5.076   5.791   0.970
 5940SOL    HW218720   5.172   5.828   0.843
 5941SOL     OW18721   6.100   2.867   2.050
 5941SOL    HW118722   6.162   2.890   2.124
 5941SOL    HW218723   6.128   2.914   1.966
 5942SOL     OW18724   4.765   3.575   6.776
 5942SOL    HW118725   4.846   3.518   6.767
 5942SOL    HW218726   4.683   3.517   6.775
 5943SOL     OW18727   3.137   4.926   6.623
 5943SOL    HW118728   3.046   4.935   6.582
 5943SOL    HW218729   3.176   5.016   6.637
 5944SOL     OW18730   6.110   3.186   1.225
 5944SOL    HW118731   6.127   3.250   1.150
 5944SOL    HW218732   6.088   3.096   1.188
 5945SOL     OW18733   6.182   5.328   4.664
 5945SOL    HW118734   6.095   5.283   4.682
 5945SOL    HW218735   6.167   5.409   4.608
 5946SOL     OW18736   3.658   3.347   6.388
 5946SOL    HW118737   3.574   3.395   6.364
 5946SOL    HW218738   3.637   3.253   6.414
 5947SOL     OW18739   3.720   3.744   2.084
 5947SOL    HW118740   3.632   3.788   2.068
 5947SOL    HW218741   3.776   3.749   2.002
 5948SOL     OW18742   4.502   5.240   3.750
 5948SOL    HW118743   4.550   5.293   3.681
 5948SOL    HW218744   4.407   5.226   3.723
 5949SOL     OW18745   5.131   3.573   1.864
 5949SOL    HW118746   5.115   3.652   1.924
 5949SOL    HW218747   5.046   3.521   1.854
 5950SOL     OW18748   4.886   1.523   5.783
 5950SOL    HW118749   4.943   1.605   5.774
 5950SOL    HW218750   4.801   1.547   5.830
 5951SOL     OW18751   1.545   5.844   4.086
 5951SOL    HW118752   1.473   5.836   4.155
 5951SOL    HW218753   1.505   5.876   4.000
 5952SOL     OW18754   5.425   4.817   3.292
 5952SOL    HW118755   5.380   4.905   3.307
 5952SOL    HW218756   5.518   4.833   3.258
 5953SOL     OW18757   6.344   2.320   5.669
 5953SOL    HW118758   6.328   2.328   5.767
 5953SOL    HW218759   6.443   2.309   5.653
 5954SOL     OW18760   0.242   4.061   5.787
 5954SOL    HW118761   0.268   4.036   5.881
 5954SOL    HW218762   0.308   4.023   5.723
 5955SOL     OW18763   4.831   6.173   2.699
 5955SOL    HW118764   4.833   6.106   2.773
 5955SOL    HW218765   4.907   6.156   2.637
 5956SOL     OW18766   4.324   1.373   5.202
 5956SOL    HW118767   4.416   1.399   5.231
 5956SOL    HW218768   4.273   1.338   5.281
 5957SOL     OW18769   4.470   0.638   5.026
 5957SOL    HW118770   4.412   0.558   5.011
 5957SOL    HW218771   4.417   0.710   5.072
 5958SOL     OW18772   5.977   0.247   2.964
 5958SOL    HW118773   6.046   0.179   2.989
 5958SOL    HW218774   6.018   0.315   2.904
 5959SOL     OW18775   3.977   2.809   5.299
 5959SOL    HW118776   3.889   2.786   5.259
 5959SOL    HW218777   4.044   2.740   5.275
 5960SOL     OW18778   3.176   5.220   4.667
 5960SOL    HW118779   3.098   5.162   4.643
 5960SOL    HW218780   3.144   5.299   4.719
 5961SOL     OW18781   5.309   1.296   2.548
 5961SOL    HW118782   5.404   1.274   2.526
 5961SOL    HW218783   5.272   1.356   2.477
 5962SOL     OW18784   5.940   5.913   0.262
 5962SOL    HW118785   6.003   5.901   0.339
 5962SOL    HW218786   5.856   5.862   0.281
 5963SOL     OW18787   3.770   3.905   5.431
 5963SOL    HW118788   3.830   3.974   5.471
 5963SOL    HW218789   3.676   3.939   5.431
 5964SOL     OW18790   0.436   5.322   5.456
 5964SOL    HW118791   0.369   5.294   5.388
 5964SOL    HW218792   0.509   5.374   5.412
 5965SOL     OW18793   1.498   2.300   6.583
 5965SOL    HW118794   1.565   2.303   6.509
 5965SOL    HW218795   1.524   2.230   6.650
 5966SOL     OW18796   2.741   5.568   5.733
 5966SOL    HW118797   2.791   5.488   5.700
 5966SOL    HW218798   2.788   5.651   5.704
 5967SOL     OW18799   4.131   6.862   6.474
 5967SOL    HW118800   4.072   6.874   6.394
 5967SOL    HW218801   4.214   6.813   6.447
 5968SOL     OW18802   5.300   1.648   1.111
 5968SOL    HW118803   5.255   1.559   1.104
 5968SOL    HW218804   5.231   1.719   1.124
 5969SOL     OW18805   0.024   6.657   6.431
 5969SOL    HW118806   6.945   6.655   6.454
 5969SOL    HW218807   0.054   6.751   6.419
 5970SOL     OW18808   0.367   4.322   2.731
 5970SOL    HW118809   0.374   4.295   2.827
 5970SOL    HW218810   0.296   4.268   2.686
 5971SOL     OW18811   0.724   1.280   2.477
 5971SOL    HW118812   0.803   1.334   2.446
 5971SOL    HW218813   0.755   1.191   2.510
 5972SOL     OW18814   5.849   5.003   6.147
 5972SOL    HW118815   5.931   5.012   6.091
 5972SOL    HW218816   5.768   5.001   6.088
 5973SOL     OW18817   1.515   3.475   2.742
 5973SOL    HW118818   1.500   3.563   2.697
 5973SOL    HW218819   1.477   3.401   2.686
 5974SOL     OW18820   5.215   5.278   6.150
 5974SOL    HW118821   5.168   5.211   6.094
 5974SOL    HW218822   5.314   5.267   6.140
 5975SOL     OW18823   4.297   0.661   0.293
 5975SOL    HW118824   4.283   0.748   0.245
 5975SOL    HW218825   4.373   0.612   0.252
 5976SOL     OW18826   3.400   2.825   5.475
 5976SOL    HW118827   3.310   2.837   5.517
 5976SOL    HW218828   3.465   2.887   5.518
 5977SOL     OW18829   1.824   5.246   6.842
 5977SOL    HW118830   1.762   5.168   6.846
 5977SOL    HW218831   1.853   5.261   6.747
 5978SOL     OW18832   4.918   5.703   2.304
 5978SOL    HW118833   4.845   5.654   2.256
 5978SOL    HW218834   4.893   5.715   2.400
 5979SOL     OW18835   5.808   0.944   2.707
 5979SOL    HW118836   5.759   1.027   2.678
 5979SOL    HW218837   5.865   0.911   2.632
 5980SOL     OW18838   4.218   4.203   1.216
 5980SOL    HW118839   4.309   4.181   1.181
 5980SOL    HW218840   4.166   4.253   1.146
 5981SOL     OW18841   5.366   2.342   1.526
 5981SOL    HW118842   5.351   2.378   1.433
 5981SOL    HW218843   5.278   2.320   1.568
 5982SOL     OW18844   6.327   3.421   2.351
 5982SOL    HW118845   6.370   3.349   2.295
 5982SOL    HW218846   6.394   3.461   2.413
 5983SOL     OW18847   1.340   1.835   4.299
 5983SOL    HW118848   1.435   1.864   4.313
 5983SOL    HW218849   1.334   1.776   4.219
 5984SOL     OW18850   6.910   5.695   3.424
 5984SOL    HW118851   6.892   5.601   3.454
 5984SOL    HW218852   6.848   5.758   3.470
 5985SOL     OW18853   0.103   2.902   4.208
 5985SOL    HW118854   0.018   2.890   4.156
 5985SOL    HW218855   0.102   2.990   4.255
 5986SOL     OW18856   2.943   3.894   4.134
 5986SOL    HW118857   2.862   3.924   4.083
 5986SOL    HW218858   2.962   3.799   4.113
 5987SOL     OW18859   5.542   0.318   3.706
 5987SOL    HW118860   5.525   0.254   3.781
 5987SOL    HW218861   5.581   0.269   3.628
 5988SOL     OW18862   4.630   6.901   5.669
 5988SOL    HW118863   4.602   6.835   5.738
 5988SOL    HW218864   4.553   6.962   5.648
 5989SOL     OW18865   2.073   6.288   6.220
 5989SOL    HW118866   1.981   6.276   6.183
 5989SOL    HW218867   2.071   6.356   6.294
 5990SOL     OW18868   3.687   4.398   6.986
 5990SOL    HW118869   3.684   4.429   6.891
 5990SOL    HW218870   3.612   4.440   0.019
 5991SOL     OW18871   2.773   5.258   0.189
 5991SOL    HW118872   2.863   5.229   0.222
 5991SOL    HW218873   2.760   5.355   0.209
 5992SOL     OW18874   3.685   0.452   2.464
 5992SOL    HW118875   3.638   0.529   2.421
 5992SOL    HW218876   3.637   0.426   2.548
 5993SOL     OW18877   3.223   5.990   6.672
 5993SOL    HW118878   3.227   5.891   6.686
 5993SOL    HW218879   3.131   6.022   6.693
 5994SOL     OW18880   5.894   2.796   2.621
 5994SOL    HW118881   5.805   2.796   2.668
 5994SOL    HW218882   5.958   2.855   2.671
 5995SOL     OW18883   4.968   3.674   2.412
 5995SOL    HW118884   5.062   3.710   2.410
 5995SOL    HW218885   4.932   3.669   2.319
 5996SOL     OW18886   1.211   6.445   0.554
 5996SOL    HW118887   1.115   6.472   0.548
 5996SOL    HW218888   1.264   6.519   0.596
 5997SOL     OW18889   0.235   5.725   2.750
 5997SOL    HW118890   0.281   5.653   2.802
 5997SOL    HW218891   0.199   5.794   2.813
 5998SOL     OW18892   5.973   0.818   3.414
 5998SOL    HW118893   5.913   0.864   3.480
 5998SOL    HW218894   6.000   0.729   3.450
 5999SOL     OW18895   1.572   1.642   2.534
 5999SOL    HW118896   1.651   1.660   2.475
 5999SOL    HW218897   1.516   1.725   2.540
 6000SOL     OW18898   4.157   6.979   0.755
 6000SOL    HW118899   4.099   7.014   0.828
 6000SOL    HW218900   4.152   6.879   0.753
 6001SOL     OW18901   0.895   4.214   0.281
 6001SOL    HW118902   0.857   4.135   0.232
 6001SOL    HW218903   0.878   4.203   0.379
 6002SOL     OW18904   5.634   0.352   0.522
 6002SOL    HW118905   5.693   0.310   0.453
 6002SOL    HW218906   5.633   0.451   0.508
 6003SOL     OW18907   5.734   2.523   5.205
 6003SOL    HW118908   5.767   2.438   5.245
 6003SOL    HW218909   5.698   2.506   5.113
 6004SOL     OW18910   0.116   3.707   3.019
 6004SOL    HW118911   0.073   3.750   2.940
 6004SOL    HW218912   0.213   3.691   2.999
 6005SOL     OW18913   4.616   5.818   4.262
 6005SOL    HW118914   4.633   5.784   4.170
 6005SOL    HW218915   4.605   5.917   4.259
 6006SOL     OW18916   2.523   0.743   5.511
 6006SOL    HW118917   2.449   0.743   5.445
 6006SOL    HW218918   2.588   0.815   5.489
 6007SOL     OW18919   4.482   3.731   5.878
 6007SOL    HW118920   4.503   3.749   5.781
 6007SOL    HW218921   4.494   3.816   5.930
 6008SOL     OW18922   2.367   4.209   5.589
 6008SOL    HW118923   2.383   4.248   5.680
 6008SOL    HW218924   2.268   4.206   5.572
 6009SOL     OW18925   3.084   0.308   3.176
 6009SOL    HW118926   3.061   0.234   3.240
 6009SOL    HW218927   3.012   0.377   3.178
 6010SOL     OW18928   1.283   4.197   4.199
 6010SOL    HW118929   1.348   4.238   4.263
 6010SOL    HW218930   1.274   4.257   4.119
 6011SOL     OW18931   4.751   2.886   3.026
 6011SOL    HW118932   4.666   2.917   2.984
 6011SOL    HW218933   4.804   2.833   2.960
 6012SOL     OW18934   5.274   1.185   6.935
 6012SOL    HW118935   5.226   1.152   7.017
 6012SOL    HW218936   5.343   1.252   6.962
 6013SOL     OW18937   4.767   1.859   2.478
 6013SOL    HW118938   4.804   1.948   2.453
 6013SOL    HW218939   4.692   1.835   2.416
 6014SOL     OW18940   3.951   3.417   1.736
 6014SOL    HW118941   3.956   3.457   1.645
 6014SOL    HW218942   4.037   3.434   1.784
 6015SOL     OW18943   5.764   3.754   4.226
 6015SOL    HW118944   5.842   3.691   4.224
 6015SOL    HW218945   5.690   3.718   4.170
 6016SOL     OW18946   5.993   1.867   6.009
 6016SOL    HW118947   5.963   1.834   5.920
 6016SOL    HW218948   5.914   1.873   6.070
 6017SOL     OW18949   6.712   4.171   3.346
 6017SOL    HW118950   6.643   4.187   3.417
 6017SOL    HW218951   6.689   4.224   3.265
 6018SOL     OW18952   3.834   0.488   6.504
 6018SOL    HW118953   3.789   0.400   6.515
 6018SOL    HW218954   3.916   0.478   6.448
 6019SOL     OW18955   0.017   1.506   4.387
 6019SOL    HW118956   0.039   1.562   4.467
 6019SOL    HW218957   6.974   1.557   4.326
 6020SOL     OW18958   0.684   5.067   0.678
 6020SOL    HW118959   0.740   5.053   0.596
 6020SOL    HW218960   0.650   5.161   0.679
 6021SOL     OW18961   4.671   0.516   2.537
 6021SOL    HW118962   4.620   0.524   2.623
 6021SOL    HW218963   4.607   0.494   2.463
 6022SOL     OW18964   4.736   2.322   4.304
 6022SOL    HW118965   4.803   2.250   4.323
 6022SOL    HW218966   4.725   2.331   4.205
 6023SOL     OW18967   6.064   0.482   2.201
 6023SOL    HW118968   6.077   0.507   2.105
 6023SOL    HW218969   6.017   0.557   2.248
 6024SOL     OW18970   1.216   4.242   3.059
 6024SOL    HW118971   1.298   4.296   3.040
 6024SOL    HW218972   1.153   4.295   3.115
 6025SOL     OW18973   3.726   1.555   2.821
 6025SOL    HW118974   3.732   1.543   2.722
 6025SOL    HW218975   3.736   1.652   2.843
 6026SOL     OW18976   0.358   4.341   5.487
 6026SOL    HW118977   0.408   4.401   5.424
 6026SOL    HW218978   0.353   4.384   5.577
 6027SOL     OW18979   1.123   3.895   6.433
 6027SOL    HW118980   1.216   3.931   6.424
 6027SOL    HW218981   1.066   3.929   6.359
 6028SOL     OW18982   6.741   4.960   6.980
 6028SOL    HW118983   6.810   4.967   0.034
 6028SOL    HW218984   6.768   5.017   6.902
 6029SOL     OW18985   2.482   6.250   5.196
 6029SOL    HW118986   2.466   6.269   5.099
 6029SOL    HW218987   2.545   6.173   5.205
 6030SOL     OW18988   3.977   6.051   2.544
 6030SOL    HW118989   3.923   6.052   2.460
 6030SOL    HW218990   4.028   5.966   2.550
 6031SOL     OW18991   2.763   5.369   3.430
 6031SOL    HW118992   2.734   5.363   3.334
 6031SOL    HW218993   2.860   5.349   3.436
 6032SOL     OW18994   2.110   4.533   2.972
 6032SOL    HW118995   2.090   4.437   2.989
 6032SOL    HW218996   2.209   4.545   2.962
 6033SOL     OW18997   3.102   2.197   3.167
 6033SOL    HW118998   3.188   2.158   3.134
 6033SOL    HW218999   3.107   2.212   3.266
 6034SOL     OW19000   1.241   5.492   4.417
 6034SOL    HW119001   1.144   5.510   4.404
 6034SOL    HW219002   1.253   5.408   4.469
 6035SOL     OW19003   0.345   0.877   2.744
 6035SOL    HW119004   0.395   0.938   2.806
 6035SOL    HW219005   0.250   0.907   2.737
 6036SOL     OW19006   5.260   5.676   3.165
 6036SOL    HW119007   5.220   5.723   3.244
 6036SOL    HW219008   5.192   5.670   3.092
 6037SOL     OW19009   4.248   5.274   0.083
 6037SOL    HW119010   4.339   5.272   0.043
 6037SOL    HW219011   4.180   5.245   0.015
 6038SOL     OW19012   1.575   1.926   5.686
 6038SOL    HW119013   1.487   1.937   5.640
 6038SOL    HW219014   1.649   1.929   5.619
 6039SOL     OW19015   2.993   3.509   2.505
 6039SOL    HW119016   2.962   3.604   2.512
 6039SOL    HW219017   3.083   3.507   2.463
 6040SOL     OW19018   0.958   1.650   6.718
 6040SOL    HW119019   0.863   1.681   6.717
 6040SOL    HW219020   0.963   1.556   6.685
 6041SOL     OW19021   2.922   0.137   4.930
 6041SOL    HW119022   2.849   0.182   4.982
 6041SOL    HW219023   3.010   0.155   4.973
 6042SOL     OW19024   4.913   6.031   2.139
 6042SOL    HW119025   4.971   5.950   2.145
 6042SOL    HW219026   4.822   6.005   2.106
 6043SOL     OW19027   1.052   4.546   5.417
 6043SOL    HW119028   0.986   4.615   5.389
 6043SOL    HW219029   1.094   4.574   5.504
 6044SOL     OW19030   1.138   2.353   1.596
 6044SOL    HW119031   1.055   2.298   1.590
 6044SOL    HW219032   1.206   2.305   1.651
 6045SOL     OW19033   5.747   4.847   2.075
 6045SOL    HW119034   5.726   4.749   2.077
 6045SOL    HW219035   5.664   4.899   2.056
 6046SOL     OW19036   4.101   2.114   0.229
 6046SOL    HW119037   4.048   2.030   0.245
 6046SOL    HW219038   4.172   2.096   0.162
 6047SOL     OW19039   4.998   1.777   1.927
 6047SOL    HW119040   5.029   1.846   1.992
 6047SOL    HW219041   4.899   1.772   1.929
 6048SOL     OW19042   4.410   5.384   5.094
 6048SOL    HW119043   4.419   5.372   5.192
 6048SOL    HW219044   4.497   5.413   5.055
 6049SOL     OW19045   5.191   3.263   6.494
 6049SOL    HW119046   5.266   3.254   6.559
 6049SOL    HW219047   5.157   3.172   6.470
 6050SOL     OW19048   3.718   5.787   5.010
 6050SOL    HW119049   3.635   5.843   5.007
 6050SOL    HW219050   3.695   5.695   5.042
 6051SOL     OW19051   2.633   0.572   4.104
 6051SOL    HW119052   2.689   0.630   4.162
 6051SOL    HW219053   2.566   0.523   4.160
 6052SOL     OW19054   6.565   0.432   0.571
 6052SOL    HW119055   6.561   0.391   0.662
 6052SOL    HW219056   6.473   0.458   0.542
 6053SOL     OW19057   3.839   1.614   6.790
 6053SOL    HW119058   3.927   1.657   6.811
 6053SOL    HW219059   3.822   1.618   6.692
 6054SOL     OW19060   2.461   3.936   0.325
 6054SOL    HW119061   2.423   3.844   0.336
 6054SOL    HW219062   2.455   3.963   0.229
 6055SOL     OW19063   4.500   0.268   5.364
 6055SOL    HW119064   4.600   0.269   5.377
 6055SOL    HW219065   4.480   0.262   5.266
 6056SOL     OW19066   4.779   2.881   4.701
 6056SOL    HW119067   4.707   2.905   4.635
 6056SOL    HW219068   4.787   2.953   4.770
 6057SOL     OW19069   5.435   3.272   4.051
 6057SOL    HW119070   5.489   3.336   4.106
 6057SOL    HW219071   5.470   3.180   4.063
 6058SOL     OW19072   5.075   2.661   1.702
 6058SOL    HW119073   5.035   2.752   1.688
 6058SOL    HW219074   5.010   2.605   1.753
 6059SOL     OW19075   5.055   4.532   4.753
 6059SOL    HW119076   5.100   4.480   4.825
 6059SOL    HW219077   5.072   4.630   4.767
 6060SOL     OW19078   3.144   4.627   0.351
 6060SOL    HW119079   3.093   4.542   0.364
 6060SOL    HW219080   3.092   4.688   0.290
 6061SOL     OW19081   3.807   1.935   1.030
 6061SOL    HW119082   3.868   1.884   0.970
 6061SOL    HW219083   3.728   1.878   1.054
 6062SOL     OW19084   2.613   1.089   5.033
 6062SOL    HW119085   2.708   1.060   5.038
 6062SOL    HW219086   2.584   1.122   5.123
 6063SOL     OW19087   3.735   1.800   6.166
 6063SOL    HW119088   3.654   1.808   6.224
 6063SOL    HW219089   3.760   1.704   6.158
 6064SOL     OW19090   1.840   5.947   0.865
 6064SOL    HW119091   1.779   5.974   0.790
 6064SOL    HW219092   1.832   6.013   0.940
 6065SOL     OW19093   6.493   0.167   1.650
 6065SOL    HW119094   6.480   0.154   1.749
 6065SOL    HW219095   6.444   0.095   1.601
 6066SOL     OW19096   4.616   1.153   5.853
 6066SOL    HW119097   4.683   1.170   5.925
 6066SOL    HW219098   4.535   1.111   5.893
 6067SOL     OW19099   5.563   1.090   5.654
 6067SOL    HW119100   5.650   1.125   5.688
 6067SOL    HW219101   5.580   1.018   5.587
 6068SOL     OW19102   5.383   3.762   4.462
 6068SOL    HW119103   5.482   3.748   4.451
 6068SOL    HW219104   5.367   3.816   4.545
 6069SOL     OW19105   6.607   2.560   5.327
 6069SOL    HW119106   6.613   2.497   5.250
 6069SOL    HW219107   6.530   2.622   5.314
 6070SOL     OW19108   2.413   2.836   0.445
 6070SOL    HW119109   2.392   2.921   0.494
 6070SOL    HW219110   2.329   2.799   0.405
 6071SOL     OW19111   5.176   5.302   4.173
 6071SOL    HW119112   5.163   5.401   4.176
 6071SOL    HW219113   5.138   5.261   4.256
 6072SOL     OW19114   0.079   0.448   1.943
 6072SOL    HW119115   0.079   0.354   1.911
 6072SOL    HW219116   0.046   0.508   1.870
 6073SOL     OW19117   5.620   3.809   6.973
 6073SOL    HW119118   5.683   3.767   0.021
 6073SOL    HW219119   5.617   3.755   6.890
 6074SOL     OW19120   1.576   6.751   4.406
 6074SOL    HW119121   1.657   6.796   4.445
 6074SOL    HW219122   1.582   6.753   4.306
 6075SOL     OW19123   6.607   1.451   6.270
 6075SOL    HW119124   6.688   1.401   6.241
 6075SOL    HW219125   6.634   1.533   6.319
 6076SOL     OW19126   2.579   5.629   4.130
 6076SOL    HW119127   2.593   5.726   4.110
 6076SOL    HW219128   2.487   5.616   4.167
 6077SOL     OW19129   5.603   6.156   1.084
 6077SOL    HW119130   5.626   6.232   1.023
 6077SOL    HW219131   5.611   6.186   1.179
 6078SOL     OW19132   4.117   4.549   0.617
 6078SOL    HW119133   4.163   4.558   0.705
 6078SOL    HW219134   4.085   4.639   0.586
 6079SOL     OW19135   3.868   3.609   6.045
 6079SOL    HW119136   3.910   3.586   6.133
 6079SOL    HW219137   3.783   3.558   6.034
 6080SOL     OW19138   0.185   0.925   0.906
 6080SOL    HW119139   0.119   0.904   0.834
 6080SOL    HW219140   0.146   0.993   0.968
 6081SOL     OW19141   6.697   3.442   6.061
 6081SOL    HW119142   6.786   3.487   6.072
 6081SOL    HW219143   6.634   3.505   6.016
 6082SOL     OW19144   2.233   1.912   3.943
 6082SOL    HW119145   2.184   1.909   3.856
 6082SOL    HW219146   2.271   2.003   3.956
 6083SOL     OW19147   7.003   4.947   0.129
 6083SOL    HW119148   0.003   5.031   0.180
 6083SOL    HW219149   0.012   4.959   0.033
 6084SOL     OW19150   0.809   7.010   3.810
 6084SOL    HW119151   0.755   6.991   3.727
 6084SOL    HW219152   0.795   6.936   3.876
 6085SOL     OW19153   0.928   4.555   0.545
 6085SOL    HW119154   0.954   4.586   0.637
 6085SOL    HW219155   0.835   4.520   0.547
 6086SOL     OW19156   3.571   0.525   6.238
 6086SOL    HW119157   3.601   0.582   6.315
 6086SOL    HW219158   3.651   0.486   6.193
 6087SOL     OW19159   3.796   5.498   0.934
 6087SOL    HW119160   3.791   5.492   1.034
 6087SOL    HW219161   3.796   5.406   0.895
 6088SOL     OW19162   5.624   5.566   3.870
 6088SOL    HW119163   5.679   5.498   3.919
 6088SOL    HW219164   5.586   5.526   3.787
 6089SOL     OW19165   5.707   3.376   0.446
 6089SOL    HW119166   5.717   3.294   0.390
 6089SOL    HW219167   5.620   3.420   0.425
 6090SOL     OW19168   2.180   5.912   6.088
 6090SOL    HW119169   2.179   5.871   6.180
 6090SOL    HW219170   2.241   5.992   6.088
 6091SOL     OW19171   1.536   1.792   0.693
 6091SOL    HW119172   1.540   1.813   0.596
 6091SOL    HW219173   1.569   1.870   0.746
 6092SOL     OW19174   3.952   6.858   2.865
 6092SOL    HW119175   3.957   6.958   2.865
 6092SOL    HW219176   3.996   6.823   2.783
 6093SOL     OW19177   1.702   3.580   2.459
 6093SOL    HW119178   1.772   3.633   2.410
 6093SOL    HW219179   1.625   3.562   2.397
 6094SOL     OW19180   3.070   0.268   1.521
 6094SOL    HW119181   3.038   0.250   1.428
 6094SOL    HW219182   3.000   0.320   1.571
 6095SOL     OW19183   4.603   3.476   0.406
 6095SOL    HW119184   4.680   3.523   0.450
 6095SOL    HW219185   4.578   3.525   0.323
 6096SOL     OW19186   0.196   0.261   3.193
 6096SOL    HW119187   0.243   0.341   3.156
 6096SOL    HW219188   0.247   0.178   3.169
 6097SOL     OW19189   2.634   0.096   2.285
 6097SOL    HW119190   2.552   0.103   2.340
 6097SOL    HW219191   2.647   0.001   2.256
 6098SOL     OW19192   1.619   2.487   5.468
 6098SOL    HW119193   1.656   2.409   5.418
 6098SOL    HW219194   1.682   2.513   5.542
 6099SOL     OW19195   6.452   6.526   0.236
 6099SOL    HW119196   6.467   6.500   0.331
 6099SOL    HW219197   6.511   6.603   0.213
 6100SOL     OW19198   4.538   4.533   6.933
 6100SOL    HW119199   4.481   4.612   6.956
 6100SOL    HW219200   4.529   4.463   7.003
 6101SOL     OW19201   6.224   2.366   4.996
 6101SOL    HW119202   6.264   2.278   4.969
 6101SOL    HW219203   6.184   2.357   5.087
 6102SOL     OW19204   3.542   6.499   3.404
 6102SOL    HW119205   3.444   6.514   3.420
 6102SOL    HW219206   3.559   6.402   3.390
 6103SOL     OW19207   6.665   2.492   2.169
 6103SOL    HW119208   6.617   2.427   2.228
 6103SOL    HW219209   6.617   2.500   2.082
 6104SOL     OW19210   6.092   0.618   5.580
 6104SOL    HW119211   6.189   0.639   5.568
 6104SOL    HW219212   6.036   0.690   5.538
 6105SOL     OW19213   2.900   0.044   5.920
 6105SOL    HW119214   2.805   0.023   5.939
 6105SOL    HW219215   2.908   0.138   5.889
 6106SOL     OW19216   2.823   4.423   5.831
 6106SOL    HW119217   2.822   4.328   5.862
 6106SOL    HW219218   2.775   4.430   5.744
 6107SOL     OW19219   2.299   4.806   4.716
 6107SOL    HW119220   2.215   4.825   4.664
 6107SOL    HW219221   2.347   4.729   4.674
 6108SOL     OW19222   1.170   2.362   2.021
 6108SOL    HW119223   1.146   2.441   1.966
 6108SOL    HW219224   1.230   2.390   2.096
 6109SOL     OW19225   5.423   2.755   5.413
 6109SOL    HW119226   5.334   2.793   5.440
 6109SOL    HW219227   5.422   2.656   5.427
 6110SOL     OW19228   4.103   3.915   0.413
 6110SOL    HW119229   4.110   3.816   0.405
 6110SOL    HW219230   4.010   3.944   0.391
 6111SOL     OW19231   2.308   4.226   2.447
 6111SOL    HW119232   2.330   4.129   2.441
 6111SOL    HW219233   2.273   4.247   2.538
 6112SOL     OW19234   3.924   0.376   2.668
 6112SOL    HW119235   3.865   0.414   2.738
 6112SOL    HW219236   3.879   0.382   2.578
 6113SOL     OW19237   2.065   1.012   6.418
 6113SOL    HW119238   2.067   1.105   6.381
 6113SOL    HW219239   2.144   0.961   6.385
 6114SOL     OW19240   5.067   5.719   1.349
 6114SOL    HW119241   5.091   5.798   1.406
 6114SOL    HW219242   4.989   5.671   1.390
 6115SOL     OW19243   5.519   6.797   3.930
 6115SOL    HW119244   5.490   6.815   3.836
 6115SOL    HW219245   5.618   6.783   3.932
 6116SOL     OW19246   3.356   0.767   6.763
 6116SOL    HW119247   3.266   0.737   6.792
 6116SOL    HW219248   3.370   0.862   6.792
 6117SOL     OW19249   1.203   1.287   5.182
 6117SOL    HW119250   1.211   1.275   5.281
 6117SOL    HW219251   1.160   1.206   5.142
 6118SOL     OW19252   6.587   0.992   2.284
 6118SOL    HW119253   6.548   0.918   2.228
 6118SOL    HW219254   6.558   0.981   2.379
 6119SOL     OW19255   1.875   3.468   6.103
 6119SOL    HW119256   1.814   3.399   6.141
 6119SOL    HW219257   1.917   3.433   6.019
 6120SOL     OW19258   3.600   6.690   4.582
 6120SOL    HW119259   3.696   6.694   4.610
 6120SOL    HW219260   3.579   6.770   4.525
 6121SOL     OW19261   1.517   3.298   5.755
 6121SOL    HW119262   1.614   3.316   5.737
 6121SOL    HW219263   1.461   3.341   5.684
 6122SOL     OW19264   4.403   6.203   0.333
 6122SOL    HW119265   4.479   6.203   0.398
 6122SOL    HW219266   4.410   6.123   0.273
 6123SOL     OW19267   6.453   6.966   6.329
 6123SOL    HW119268   6.536   6.996   6.283
 6123SOL    HW219269   6.408   6.894   6.275
 6124SOL     OW19270   2.110   0.368   5.701
 6124SOL    HW119271   2.156   0.430   5.765
 6124SOL    HW219272   2.100   0.413   5.612
 6125SOL     OW19273   1.151   6.010   0.349
 6125SOL    HW119274   1.170   5.931   0.408
 6125SOL    HW219275   1.195   5.997   0.260
 6126SOL     OW19276   0.902   0.826   4.199
 6126SOL    HW119277   0.803   0.840   4.202
 6126SOL    HW219278   0.928   0.793   4.108
 6127SOL     OW19279   3.575   0.008   1.493
 6127SOL    HW119280   3.584   6.949   1.556
 6127SOL    HW219281   3.484   0.006   1.451
 6128SOL     OW19282   6.307   3.237   6.871
 6128SOL    HW119283   6.320   3.244   6.772
 6128SOL    HW219284   6.261   3.151   6.892
 6129SOL     OW19285   6.378   3.569   3.365
 6129SOL    HW119286   6.425   3.630   3.301
 6129SOL    HW219287   6.358   3.482   3.320
 6130SOL     OW19288   5.737   2.172   3.835
 6130SOL    HW119289   5.793   2.239   3.785
 6130SOL    HW219290   5.740   2.084   3.787
 6131SOL     OW19291   6.716   1.013   5.157
 6131SOL    HW119292   6.647   1.065   5.106
 6131SOL    HW219293   6.674   0.971   5.237
 6132SOL     OW19294   4.878   1.811   0.577
 6132SOL    HW119295   4.823   1.791   0.497
 6132SOL    HW219296   4.874   1.733   0.640
 6133SOL     OW19297   0.997   2.601   2.413
 6133SOL    HW119298   1.068   2.653   2.365
 6133SOL    HW219299   1.028   2.508   2.427
 6134SOL     OW19300   3.694   4.596   6.500
 6134SOL    HW119301   3.595   4.582   6.504
 6134SOL    HW219302   3.714   4.691   6.475
 6135SOL     OW19303   0.797   0.568   2.085
 6135SOL    HW119304   0.716   0.592   2.032
 6135SOL    HW219305   0.775   0.497   2.152
 6136SOL     OW19306   0.804   2.908   2.757
 6136SOL    HW119307   0.810   3.004   2.730
 6136SOL    HW219308   0.714   2.872   2.731
 6137SOL     OW19309   6.613   2.223   3.936
 6137SOL    HW119310   6.542   2.167   3.977
 6137SOL    HW219311   6.582   2.318   3.931
 6138SOL     OW19312   4.453   6.796   2.873
 6138SOL    HW119313   4.505   6.763   2.953
 6138SOL    HW219314   4.426   6.718   2.817
 6139SOL     OW19315   1.123   0.882   6.514
 6139SOL    HW119316   1.221   0.880   6.496
 6139SOL    HW219317   1.075   0.829   6.444
 6140SOL     OW19318   0.490   6.893   1.529
 6140SOL    HW119319   0.534   6.835   1.461
 6140SOL    HW219320   0.551   6.970   1.550
 6141SOL     OW19321   6.728   5.625   6.226
 6141SOL    HW119322   6.751   5.703   6.167
 6141SOL    HW219323   6.794   5.552   6.213
 6142SOL     OW19324   1.331   5.775   0.872
 6142SOL    HW119325   1.375   5.850   0.921
 6142SOL    HW219326   1.248   5.749   0.920
 6143SOL     OW19327   6.902   3.988   1.086
 6143SOL    HW119328   6.838   4.064   1.095
 6143SOL    HW219329   6.954   3.998   1.001
 6144SOL     OW19330   5.715   4.482   3.261
 6144SOL    HW119331   5.625   4.454   3.226
 6144SOL    HW219332   5.760   4.403   3.303
 6145SOL     OW19333   4.827   5.314   3.326
 6145SOL    HW119334   4.922   5.326   3.356
 6145SOL    HW219335   4.799   5.219   3.339
 6146SOL     OW19336   2.518   6.287   3.031
 6146SOL    HW119337   2.559   6.260   2.943
 6146SOL    HW219338   2.588   6.286   3.102
 6147SOL     OW19339   1.680   3.473   4.341
 6147SOL    HW119340   1.681   3.561   4.294
 6147SOL    HW219341   1.716   3.484   4.433
 6148SOL     OW19342   6.376   6.758   3.772
 6148SOL    HW119343   6.460   6.798   3.735
 6148SOL    HW219344   6.373   6.773   3.871
 6149SOL     OW19345   2.998   5.452   1.378
 6149SOL    HW119346   2.916   5.421   1.426
 6149SOL    HW219347   3.053   5.509   1.439
 6150SOL     OW19348   4.279   4.558   0.362
 6150SOL    HW119349   4.369   4.513   0.369
 6150SOL    HW219350   4.233   4.553   0.451
 6151SOL     OW19351   6.062   4.228   5.662
 6151SOL    HW119352   6.137   4.186   5.715
 6151SOL    HW219353   5.980   4.171   5.671
 6152SOL     OW19354   6.212   5.178   5.124
 6152SOL    HW119355   6.187   5.163   5.220
 6152SOL    HW219356   6.134   5.156   5.066
 6153SOL     OW19357   5.555   3.953   1.207
 6153SOL    HW119358   5.560   3.857   1.233
 6153SOL    HW219359   5.462   3.975   1.177
 6154SOL     OW19360   6.294   2.410   2.460
 6154SOL    HW119361   6.253   2.375   2.544
 6154SOL    HW219362   6.277   2.508   2.452
 6155SOL     OW19363   1.856   2.056   4.573
 6155SOL    HW119364   1.841   1.967   4.529
 6155SOL    HW219365   1.929   2.104   4.526
 6156SOL     OW19366   4.047   4.673   1.621
 6156SOL    HW119367   4.106   4.668   1.541
 6156SOL    HW219368   3.982   4.598   1.620
 6157SOL     OW19369   1.253   0.896   3.929
 6157SOL    HW119370   1.161   0.885   3.968
 6157SOL    HW219371   1.313   0.937   3.997
 6158SOL     OW19372   3.959   1.453   6.282
 6158SOL    HW119373   3.909   1.445   6.196
 6158SOL    HW219374   4.050   1.491   6.265
 6159SOL     OW19375   4.922   2.509   1.876
 6159SOL    HW119376   4.855   2.528   1.948
 6159SOL    HW219377   5.013   2.505   1.916
 6160SOL     OW19378   4.724   0.999   6.303
 6160SOL    HW119379   4.704   0.915   6.252
 6160SOL    HW219380   4.639   1.036   6.341
 6161SOL     OW19381   5.111   1.299   4.932
 6161SOL    HW119382   5.063   1.257   4.855
 6161SOL    HW219383   5.139   1.392   4.908
 6162SOL     OW19384   0.955   6.707   3.629
 6162SOL    HW119385   0.871   6.677   3.583
 6162SOL    HW219386   1.016   6.628   3.640
 6163SOL     OW19387   6.488   6.376   0.984
 6163SOL    HW119388   6.440   6.453   1.026
 6163SOL    HW219389   6.429   6.295   0.986
 6164SOL     OW19390   3.300   2.950   1.967
 6164SOL    HW119391   3.228   2.895   1.924
 6164SOL    HW219392   3.360   2.890   2.019
 6165SOL     OW19393   4.595   1.026   6.757
 6165SOL    HW119394   4.598   1.108   6.699
 6165SOL    HW219395   4.628   0.948   6.704
 6166SOL     OW19396   4.696   0.990   5.605
 6166SOL    HW119397   4.705   1.038   5.518
 6166SOL    HW219398   4.676   1.057   5.677
 6167SOL     OW19399   1.185   5.152   3.334
 6167SOL    HW119400   1.137   5.239   3.330
 6167SOL    HW219401   1.284   5.169   3.344
 6168SOL     OW19402   0.753   3.736   1.206
 6168SOL    HW119403   0.816   3.762   1.132
 6168SOL    HW219404   0.801   3.680   1.273
 6169SOL     OW19405   1.546   2.326   0.773
 6169SOL    HW119406   1.521   2.232   0.751
 6169SOL    HW219407   1.646   2.337   0.767
 6170SOL     OW19408   1.151   4.163   5.466
 6170SOL    HW119409   1.249   4.185   5.466
 6170SOL    HW219410   1.109   4.198   5.382
 6171SOL     OW19411   0.601   2.794   0.938
 6171SOL    HW119412   0.661   2.820   0.861
 6171SOL    HW219413   0.532   2.865   0.951
 6172SOL     OW19414   2.222   2.833   2.381
 6172SOL    HW119415   2.242   2.742   2.418
 6172SOL    HW219416   2.249   2.837   2.285
 6173SOL     OW19417   7.009   5.869   1.949
 6173SOL    HW119418   6.937   5.875   2.018
 6173SOL    HW219419   6.997   5.785   1.896
 6174SOL     OW19420   4.674   5.982   3.559
 6174SOL    HW119421   4.630   6.018   3.477
 6174SOL    HW219422   4.604   5.968   3.630
 6175SOL     OW19423   4.692   0.272   3.688
 6175SOL    HW119424   4.610   0.230   3.727
 6175SOL    HW219425   4.769   0.259   3.750
 6176SOL     OW19426   5.005   4.324   5.333
 6176SOL    HW119427   5.000   4.418   5.366
 6176SOL    HW219428   4.990   4.322   5.234
 6177SOL     OW19429   5.985   1.061   1.295
 6177SOL    HW119430   6.083   1.081   1.302
 6177SOL    HW219431   5.942   1.125   1.232
 6178SOL     OW19432   4.586   4.408   2.533
 6178SOL    HW119433   4.515   4.370   2.474
 6178SOL    HW219434   4.662   4.441   2.477
 6179SOL     OW19435   5.982   4.955   3.892
 6179SOL    HW119436   6.072   4.931   3.927
 6179SOL    HW219437   5.913   4.938   3.962
 6180SOL     OW19438   2.701   4.493   0.987
 6180SOL    HW119439   2.692   4.588   0.958
 6180SOL    HW219440   2.660   4.433   0.919
 6181SOL     OW19441   4.857   6.340   6.646
 6181SOL    HW119442   4.933   6.387   6.601
 6181SOL    HW219443   4.883   6.246   6.667
 6182SOL     OW19444   5.133   2.886   5.206
 6182SOL    HW119445   5.213   2.831   5.182
 6182SOL    HW219446   5.087   2.916   5.122
 6183SOL     OW19447   1.225   2.631   3.777
 6183SOL    HW119448   1.189   2.721   3.752
 6183SOL    HW219449   1.190   2.604   3.867
 6184SOL     OW19450   2.561   6.437   6.715
 6184SOL    HW119451   2.598   6.509   6.656
 6184SOL    HW219452   2.523   6.364   6.657
 6185SOL     OW19453   0.582   3.758   6.274
 6185SOL    HW119454   0.498   3.719   6.237
 6185SOL    HW219455   0.559   3.825   6.344
 6186SOL     OW19456   0.306   0.722   0.270
 6186SOL    HW119457   0.400   0.706   0.239
 6186SOL    HW219458   0.292   0.820   0.282
 6187SOL     OW19459   5.337   4.465   4.152
 6187SOL    HW119460   5.425   4.483   4.109
 6187SOL    HW219461   5.271   4.435   4.083
 6188SOL     OW19462   2.239   1.637   6.529
 6188SOL    HW119463   2.309   1.694   6.572
 6188SOL    HW219464   2.230   1.551   6.579
 6189SOL     OW19465   4.437   4.543   2.815
 6189SOL    HW119466   4.377   4.610   2.772
 6189SOL    HW219467   4.480   4.486   2.745
 6190SOL     OW19468   0.833   3.872   5.458
 6190SOL    HW119469   0.737   3.851   5.474
 6190SOL    HW219470   0.870   3.812   5.387
 6191SOL     OW19471   2.841   2.637   6.791
 6191SOL    HW119472   2.925   2.588   6.813
 6191SOL    HW219473   2.762   2.576   6.800
 6192SOL     OW19474   2.870   2.473   5.695
 6192SOL    HW119475   2.847   2.428   5.781
 6192SOL    HW219476   2.795   2.464   5.631
 6193SOL     OW19477   4.286   6.659   1.803
 6193SOL    HW119478   4.327   6.621   1.886
 6193SOL    HW219479   4.189   6.634   1.800
 6194SOL     OW19480   1.021   0.231   0.551
 6194SOL    HW119481   1.054   0.175   0.627
 6194SOL    HW219482   1.081   0.220   0.472
 6195SOL     OW19483   4.440   5.927   4.660
 6195SOL    HW119484   4.343   5.938   4.642
 6195SOL    HW219485   4.493   5.984   4.597
 6196SOL     OW19486   5.445   3.473   1.739
 6196SOL    HW119487   5.452   3.557   1.791
 6196SOL    HW219488   5.536   3.438   1.718
 6197SOL     OW19489   3.446   5.065   1.250
 6197SOL    HW119490   3.358   5.020   1.244
 6197SOL    HW219491   3.446   5.147   1.191
 6198SOL     OW19492   4.036   6.617   1.458
 6198SOL    HW119493   4.071   6.531   1.422
 6198SOL    HW219494   3.973   6.658   1.391
 6199SOL     OW19495   1.195   1.379   0.318
 6199SOL    HW119496   1.233   1.461   0.361
 6199SOL    HW219497   1.164   1.316   0.389
 6200SOL     OW19498   1.346   1.532   6.027
 6200SOL    HW119499   1.381   1.596   5.959
 6200SOL    HW219500   1.273   1.575   6.080
 6201SOL     OW19501   0.785   4.268   5.718
 6201SOL    HW119502   0.873   4.259   5.765
 6201SOL    HW219503   0.800   4.285   5.621
 6202SOL     OW19504   4.557   1.329   1.375
 6202SOL    HW119505   4.638   1.367   1.330
 6202SOL    HW219506   4.575   1.234   1.402
 6203SOL     OW19507   6.524   5.744   1.922
 6203SOL    HW119508   6.528   5.816   1.991
 6203SOL    HW219509   6.432   5.705   1.920
 6204SOL     OW19510   0.076   5.573   4.145
 6204SOL    HW119511   0.009   5.645   4.163
 6204SOL    HW219512   0.076   5.508   4.221
 6205SOL     OW19513   6.634   5.735   1.531
 6205SOL    HW119514   6.731   5.713   1.523
 6205SOL    HW219515   6.622   5.818   1.584
 6206SOL     OW19516   5.694   1.916   3.274
 6206SOL    HW119517   5.685   2.009   3.310
 6206SOL    HW219518   5.785   1.904   3.235
 6207SOL     OW19519   1.502   5.020   5.701
 6207SOL    HW119520   1.586   4.966   5.698
 6207SOL    HW219521   1.525   5.117   5.708
 6208SOL     OW19522   4.694   2.814   5.759
 6208SOL    HW119523   4.740   2.866   5.686
 6208SOL    HW219524   4.737   2.834   5.846
 6209SOL     OW19525   3.437   6.310   6.927
 6209SOL    HW119526   3.371   6.288   6.999
 6209SOL    HW219527   3.391   6.311   6.839
 6210SOL     OW19528   4.863   3.149   4.127
 6210SOL    HW119529   4.839   3.155   4.224
 6210SOL    HW219530   4.949   3.196   4.110
 6211SOL     OW19531   3.020   6.008   6.067
 6211SOL    HW119532   3.056   6.093   6.106
 6211SOL    HW219533   2.927   6.022   6.036
 6212SOL     OW19534   2.571   4.611   4.921
 6212SOL    HW119535   2.663   4.607   4.960
 6212SOL    HW219536   2.506   4.568   4.983
 6213SOL     OW19537   6.217   0.187   6.668
 6213SOL    HW119538   6.171   0.274   6.652
 6213SOL    HW219539   6.307   0.204   6.707
 6214SOL     OW19540   5.075   5.449   4.585
 6214SOL    HW119541   5.000   5.386   4.604
 6214SOL    HW219542   5.045   5.543   4.603
 6215SOL     OW19543   4.095   2.503   6.194
 6215SOL    HW119544   4.143   2.472   6.112
 6215SOL    HW219545   4.006   2.540   6.167
 6216SOL     OW19546   6.184   2.064   2.733
 6216SOL    HW119547   6.204   2.160   2.715
 6216SOL    HW219548   6.168   2.016   2.646
 6217SOL     OW19549   0.593   3.717   2.536
 6217SOL    HW119550   0.585   3.627   2.580
 6217SOL    HW219551   0.556   3.787   2.597
 6218SOL     OW19552   3.754   6.444   6.302
 6218SOL    HW119553   3.819   6.420   6.374
 6218SOL    HW219554   3.713   6.360   6.265
 6219SOL     OW19555   1.087   2.036   4.582
 6219SOL    HW119556   1.033   2.048   4.665
 6219SOL    HW219557   1.170   2.091   4.587
 6220SOL     OW19558   2.666   1.048   4.757
 6220SOL    HW119559   2.654   1.037   4.855
 6220SOL    HW219560   2.761   1.073   4.738
 6221SOL     OW19561   5.667   6.593   6.956
 6221SOL    HW119562   5.699   6.556   6.869
 6221SOL    HW219563   5.578   6.552   6.979
 6222SOL     OW19564   1.711   0.026   1.491
 6222SOL    HW119565   1.678   0.112   1.531
 6222SOL    HW219566   1.808   0.035   1.469
 6223SOL     OW19567   1.422   4.963   3.388
 6223SOL    HW119568   1.450   4.926   3.477
 6223SOL    HW219569   1.364   4.896   3.341
 6224SOL     OW19570   3.714   1.152   6.082
 6224SOL    HW119571   3.671   1.072   6.039
 6224SOL    HW219572   3.646   1.200   6.137
 6225SOL     OW19573   3.950   3.151   6.689
 6225SOL    HW119574   3.928   3.056   6.663
 6225SOL    HW219575   4.028   3.183   6.634
 6226SOL     OW19576   0.814   1.842   4.710
 6226SOL    HW119577   0.767   1.925   4.679
 6226SOL    HW219578   0.843   1.854   4.805
 6227SOL     OW19579   3.027   4.989   4.935
 6227SOL    HW119580   2.932   4.964   4.916
 6227SOL    HW219581   3.076   4.909   4.968
 6228SOL     OW19582   0.539   2.990   2.311
 6228SOL    HW119583   0.542   2.958   2.216
 6228SOL    HW219584   0.632   3.000   2.346
 6229SOL     OW19585   0.817   2.277   4.723
 6229SOL    HW119586   0.741   2.297   4.786
 6229SOL    HW219587   0.884   2.219   4.769
 6230SOL     OW19588   0.445   2.372   4.189
 6230SOL    HW119589   0.530   2.320   4.200
 6230SOL    HW219590   0.370   2.310   4.167
 6231SOL     OW19591   6.019   5.592   0.576
 6231SOL    HW119592   5.985   5.500   0.554
 6231SOL    HW219593   6.103   5.609   0.526
 6232SOL     OW19594   6.517   1.254   0.806
 6232SOL    HW119595   6.548   1.236   0.900
 6232SOL    HW219596   6.489   1.168   0.763
 6233SOL     OW19597   6.802   2.372   1.419
 6233SOL    HW119598   6.821   2.276   1.398
 6233SOL    HW219599   6.888   2.422   1.424
 6234SOL     OW19600   6.917   6.925   5.336
 6234SOL    HW119601   6.906   7.010   5.387
 6234SOL    HW219602   6.860   6.927   5.255
 6235SOL     OW19603   6.935   0.216   1.454
 6235SOL    HW119604   6.960   0.312   1.462
 6235SOL    HW219605   6.837   0.208   1.439
 6236SOL     OW19606   0.476   4.629   1.462
 6236SOL    HW119607   0.540   4.693   1.419
 6236SOL    HW219608   0.404   4.604   1.398
 6237SOL     OW19609   3.491   0.068   6.752
 6237SOL    HW119610   3.507   0.147   6.693
 6237SOL    HW219611   3.424   0.092   6.823
 6238SOL     OW19612   5.069   5.483   2.695
 6238SOL    HW119613   5.015   5.556   2.736
 6238SOL    HW219614   5.071   5.404   2.757
 6239SOL     OW19615   4.107   1.566   1.567
 6239SOL    HW119616   4.191   1.512   1.567
 6239SOL    HW219617   4.085   1.594   1.660
 6240SOL     OW19618   2.405   3.694   5.460
 6240SOL    HW119619   2.367   3.713   5.369
 6240SOL    HW219620   2.503   3.717   5.461
 6241SOL     OW19621   3.223   0.907   2.291
 6241SOL    HW119622   3.302   0.866   2.245
 6241SOL    HW219623   3.188   0.983   2.236
 6242SOL     OW19624   3.957   6.972   3.233
 6242SOL    HW119625   3.943   6.874   3.217
 6242SOL    HW219626   3.885   0.006   3.187
 6243SOL     OW19627   6.930   6.504   5.151
 6243SOL    HW119628   6.838   6.522   5.185
 6243SOL    HW219629   6.981   6.590   5.145
 6244SOL     OW19630   5.456   3.240   3.319
 6244SOL    HW119631   5.414   3.168   3.374
 6244SOL    HW219632   5.472   3.206   3.226
 6245SOL     OW19633   1.593   3.433   1.038
 6245SOL    HW119634   1.666   3.496   1.013
 6245SOL    HW219635   1.625   3.371   1.110
 6246SOL     OW19636   0.853   2.039   5.298
 6246SOL    HW119637   0.830   2.003   5.388
 6246SOL    HW219638   0.905   2.124   5.308
 6247SOL     OW19639   0.376   6.196   3.881
 6247SOL    HW119640   0.386   6.258   3.958
 6247SOL    HW219641   0.455   6.205   3.820
 6248SOL     OW19642   3.940   4.151   0.088
 6248SOL    HW119643   3.981   4.198   0.010
 6248SOL    HW219644   3.973   4.057   0.091
 6249SOL     OW19645   6.813   3.266   1.042
 6249SOL    HW119646   6.819   3.166   1.040
 6249SOL    HW219647   6.899   3.304   1.074
 6250SOL     OW19648   6.516   0.182   1.165
 6250SOL    HW119649   6.440   0.239   1.196
 6250SOL    HW219650   6.597   0.202   1.221
 6251SOL     OW19651   4.395   5.806   4.919
 6251SOL    HW119652   4.412   5.875   4.990
 6251SOL    HW219653   4.423   5.841   4.830
 6252SOL     OW19654   2.632   6.012   6.498
 6252SOL    HW119655   2.643   6.013   6.597
 6252SOL    HW219656   2.718   5.982   6.455
 6253SOL     OW19657   2.795   5.049   4.222
 6253SOL    HW119658   2.765   5.003   4.138
 6253SOL    HW219659   2.752   5.005   4.301
 6254SOL     OW19660   6.148   1.536   1.263
 6254SOL    HW119661   6.058   1.549   1.223
 6254SOL    HW219662   6.217   1.534   1.191
 6255SOL     OW19663   2.682   0.904   0.913
 6255SOL    HW119664   2.723   0.988   0.877
 6255SOL    HW219665   2.689   0.903   1.013
 6256SOL     OW19666   3.646   5.124   2.763
 6256SOL    HW119667   3.650   5.164   2.672
 6256SOL    HW219668   3.584   5.179   2.821
 6257SOL     OW19669   4.416   2.894   0.333
 6257SOL    HW119670   4.493   2.936   0.284
 6257SOL    HW219671   4.382   2.958   0.402
 6258SOL     OW19672   2.960   0.118   3.382
 6258SOL    HW119673   2.885   0.052   3.385
 6258SOL    HW219674   2.948   0.185   3.455
 6259SOL     OW19675   1.593   1.375   6.666
 6259SOL    HW119676   1.631   1.462   6.699
 6259SOL    HW219677   1.657   1.301   6.687
 6260SOL     OW19678   3.277   6.018   0.211
 6260SOL    HW119679   3.319   5.930   0.234
 6260SOL    HW219680   3.306   6.087   0.278
 6261SOL     OW19681   4.845   0.297   6.528
 6261SOL    HW119682   4.891   0.222   6.481
 6261SOL    HW219683   4.858   0.287   6.627
 6262SOL     OW19684   1.972   6.396   1.705
 6262SOL    HW119685   2.047   6.459   1.727
 6262SOL    HW219686   1.904   6.443   1.650
 6263SOL     OW19687   0.670   6.924   4.487
 6263SOL    HW119688   0.693   6.836   4.528
 6263SOL    HW219689   0.582   6.956   4.522
 6264SOL     OW19690   1.875   0.694   1.819
 6264SOL    HW119691   1.953   0.633   1.806
 6264SOL    HW219692   1.906   0.789   1.818
 6265SOL     OW19693   3.840   3.378   0.234
 6265SOL    HW119694   3.850   3.390   0.135
 6265SOL    HW219695   3.756   3.422   0.265
 6266SOL     OW19696   5.239   0.113   3.534
 6266SOL    HW119697   5.206   0.191   3.587
 6266SOL    HW219698   5.163   0.052   3.512
 6267SOL     OW19699   2.618   6.991   5.044
 6267SOL    HW119700   2.676   6.926   4.995
 6267SOL    HW219701   2.531   6.947   5.069
 6268SOL     OW19702   3.251   1.056   2.555
 6268SOL    HW119703   3.215   1.149   2.555
 6268SOL    HW219704   3.274   1.029   2.462
 6269SOL     OW19705   6.761   0.012   2.261
 6269SOL    HW119706   6.775   7.009   2.358
 6269SOL    HW219707   6.769   6.945   2.207
 6270SOL     OW19708   0.218   0.448   6.002
 6270SOL    HW119709   0.203   0.464   6.100
 6270SOL    HW219710   0.196   0.352   5.981
 6271SOL     OW19711   5.651   2.397   5.681
 6271SOL    HW119712   5.568   2.435   5.641
 6271SOL    HW219713   5.693   2.466   5.741
 6272SOL     OW19714   0.716   2.240   0.266
 6272SOL    HW119715   0.772   2.315   0.231
 6272SOL    HW219716   0.623   2.247   0.228
 6273SOL     OW19717   0.547   6.501   2.911
 6273SOL    HW119718   0.607   6.422   2.923
 6273SOL    HW219719   0.497   6.493   2.825
 6274SOL     OW19720   3.038   6.755   5.422
 6274SOL    HW119721   2.976   6.688   5.462
 6274SOL    HW219722   3.035   6.747   5.322
 6275SOL     OW19723   2.232   6.431   0.049
 6275SOL    HW119724   2.202   6.386   6.982
 6275SOL    HW219725   2.246   6.362   0.120
 6276SOL     OW19726   2.311   5.418   3.451
 6276SOL    HW119727   2.323   5.412   3.551
 6276SOL    HW219728   2.306   5.515   3.425
 6277SOL     OW19729   4.598   2.672   0.989
 6277SOL    HW119730   4.647   2.688   1.074
 6277SOL    HW219731   4.647   2.717   0.914
 6278SOL     OW19732   4.893   0.151   4.528
 6278SOL    HW119733   4.892   0.055   4.503
 6278SOL    HW219734   4.918   0.206   4.448
 6279SOL     OW19735   3.117   6.268   0.410
 6279SOL    HW119736   3.109   6.214   0.493
 6279SOL    HW219737   3.203   6.247   0.364
 6280SOL     OW19738   0.258   1.008   6.105
 6280SOL    HW119739   0.289   1.098   6.075
 6280SOL    HW219740   0.190   1.018   6.177
 6281SOL     OW19741   6.803   5.206   4.180
 6281SOL    HW119742   6.708   5.222   4.156
 6281SOL    HW219743   6.863   5.244   4.109
 6282SOL     OW19744   6.040   4.713   5.844
 6282SOL    HW119745   6.072   4.618   5.848
 6282SOL    HW219746   5.983   4.725   5.763
 6283SOL     OW19747   0.033   4.160   4.327
 6283SOL    HW119748   0.056   4.069   4.292
 6283SOL    HW219749   0.117   4.209   4.350
 6284SOL     OW19750   1.972   4.931   5.199
 6284SOL    HW119751   2.015   4.914   5.287
 6284SOL    HW219752   1.873   4.935   5.210
 6285SOL     OW19753   0.550   3.473   4.100
 6285SOL    HW119754   0.479   3.513   4.041
 6285SOL    HW219755   0.566   3.534   4.178
 6286SOL     OW19756   6.681   2.384   4.540
 6286SOL    HW119757   6.769   2.430   4.554
 6286SOL    HW219758   6.607   2.445   4.567
 6287SOL     OW19759   3.306   4.961   4.904
 6287SOL    HW119760   3.218   4.988   4.864
 6287SOL    HW219761   3.372   4.947   4.831
 6288SOL     OW19762   4.736   4.464   2.018
 6288SOL    HW119763   4.779   4.507   2.098
 6288SOL    HW219764   4.670   4.396   2.049
 6289SOL     OW19765   1.621   5.012   6.970
 6289SOL    HW119766   1.691   4.951   6.934
 6289SOL    HW219767   1.663   5.078   0.015
 6290SOL     OW19768   6.183   4.525   6.115
 6290SOL    HW119769   6.241   4.567   6.185
 6290SOL    HW219770   6.240   4.471   6.053
 6291SOL     OW19771   4.088   3.690   3.792
 6291SOL    HW119772   4.077   3.784   3.825
 6291SOL    HW219773   4.077   3.626   3.869
 6292SOL     OW19774   2.116   2.308   5.076
 6292SOL    HW119775   2.169   2.374   5.129
 6292SOL    HW219776   2.060   2.356   5.008
 6293SOL     OW19777   4.008   1.966   1.215
 6293SOL    HW119778   4.044   1.905   1.286
 6293SOL    HW219779   3.941   1.917   1.159
 6294SOL     OW19780   3.946   0.482   3.694
 6294SOL    HW119781   3.903   0.448   3.777
 6294SOL    HW219782   3.963   0.580   3.702
 6295SOL     OW19783   4.872   4.788   4.476
 6295SOL    HW119784   4.955   4.747   4.513
 6295SOL    HW219785   4.867   4.884   4.505
 6296SOL     OW19786   6.826   4.995   6.243
 6296SOL    HW119787   6.854   5.031   6.154
 6296SOL    HW219788   6.855   4.900   6.252
 6297SOL     OW19789   5.500   0.084   5.087
 6297SOL    HW119790   5.593   0.120   5.079
 6297SOL    HW219791   5.504   7.006   5.114
 6298SOL     OW19792   1.674   3.474   6.574
 6298SOL    HW119793   1.757   3.432   6.536
 6298SOL    HW219794   1.651   3.556   6.521
 6299SOL     OW19795   6.051   2.525   2.093
 6299SOL    HW119796   6.113   2.448   2.082
 6299SOL    HW219797   6.104   2.609   2.106
 6300SOL     OW19798   6.490   0.927   6.557
 6300SOL    HW119799   6.466   0.980   6.638
 6300SOL    HW219800   6.541   0.986   6.493
 6301SOL     OW19801   2.891   6.864   0.063
 6301SOL    HW119802   2.867   6.820   6.994
 6301SOL    HW219803   2.836   6.824   0.137
 6302SOL     OW19804   1.890   2.159   5.116
 6302SOL    HW119805   1.888   2.096   5.039
 6302SOL    HW219806   1.958   2.230   5.099
 6303SOL     OW19807   1.049   0.704   4.880
 6303SOL    HW119808   1.042   0.704   4.980
 6303SOL    HW219809   1.145   0.698   4.853
 6304SOL     OW19810   3.549   1.029   1.751
 6304SOL    HW119811   3.453   1.000   1.749
 6304SOL    HW219812   3.592   0.999   1.836
 6305SOL     OW19813   5.531   6.280   0.433
 6305SOL    HW119814   5.605   6.345   0.416
 6305SOL    HW219815   5.445   6.316   0.397
 6306SOL     OW19816   6.822   4.309   4.269
 6306SOL    HW119817   6.871   4.394   4.247
 6306SOL    HW219818   6.885   4.246   4.314
 6307SOL     OW19819   3.466   3.870   3.595
 6307SOL    HW119820   3.371   3.847   3.618
 6307SOL    HW219821   3.528   3.806   3.638
 6308SOL     OW19822   1.779   3.111   4.324
 6308SOL    HW119823   1.720   3.032   4.343
 6308SOL    HW219824   1.875   3.082   4.327
 6309SOL     OW19825   6.848   6.047   4.563
 6309SOL    HW119826   6.802   6.081   4.481
 6309SOL    HW219827   6.866   6.123   4.625
 6310SOL     OW19828   1.754   6.524   2.491
 6310SOL    HW119829   1.814   6.514   2.571
 6310SOL    HW219830   1.699   6.441   2.482
 6311SOL     OW19831   4.369   1.461   6.027
 6311SOL    HW119832   4.440   1.502   6.084
 6311SOL    HW219833   4.410   1.393   5.966
 6312SOL     OW19834   0.054   6.678   4.820
 6312SOL    HW119835   0.015   6.696   4.730
 6312SOL    HW219836   0.005   6.732   4.889
 6313SOL     OW19837   6.662   5.916   3.781
 6313SOL    HW119838   6.746   5.967   3.796
 6313SOL    HW219839   6.630   5.878   3.867
 6314SOL     OW19840   3.528   6.719   1.506
 6314SOL    HW119841   3.439   6.716   1.552
 6314SOL    HW219842   3.525   6.664   1.423
 6315SOL     OW19843   3.000   2.146   5.757
 6315SOL    HW119844   2.906   2.135   5.725
 6315SOL    HW219845   3.007   2.113   5.851
 6316SOL     OW19846   4.702   2.063   6.063
 6316SOL    HW119847   4.678   1.966   6.063
 6316SOL    HW219848   4.618   2.117   6.073
 6317SOL     OW19849   4.864   4.702   1.417
 6317SOL    HW119850   4.956   4.718   1.452
 6317SOL    HW219851   4.869   4.649   1.332
 6318SOL     OW19852   4.365   6.951   6.111
 6318SOL    HW119853   4.361   6.914   6.204
 6318SOL    HW219854   4.330   0.027   6.112
 6319SOL     OW19855   6.544   2.007   5.652
 6319SOL    HW119856   6.542   2.030   5.555
 6319SOL    HW219857   6.570   2.088   5.705
 6320SOL     OW19858   6.840   6.290   4.755
 6320SOL    HW119859   6.910   6.342   4.706
 6320SOL    HW219860   6.868   6.277   4.850
 6321SOL     OW19861   4.403   2.957   1.003
 6321SOL    HW119862   4.352   2.970   0.918
 6321SOL    HW219863   4.442   2.865   1.005
 6322SOL     OW19864   2.291   2.433   1.210
 6322SOL    HW119865   2.243   2.412   1.295
 6322SOL    HW219866   2.347   2.355   1.183
 6323SOL     OW19867   1.659   2.715   1.671
 6323SOL    HW119868   1.747   2.682   1.706
 6323SOL    HW219869   1.584   2.667   1.718
 6324SOL     OW19870   4.531   1.217   0.804
 6324SOL    HW119871   4.472   1.295   0.784
 6324SOL    HW219872   4.501   1.173   0.888
 6325SOL     OW19873   1.837   3.365   2.585
 6325SOL    HW119874   1.790   3.444   2.545
 6325SOL    HW219875   1.788   3.281   2.561
 6326SOL     OW19876   5.458   5.161   0.594
 6326SOL    HW119877   5.546   5.161   0.547
 6326SOL    HW219878   5.462   5.223   0.672
 6327SOL     OW19879   6.935   2.052   4.842
 6327SOL    HW119880   6.891   1.967   4.814
 6327SOL    HW219881   0.002   2.064   4.791
 6328SOL     OW19882   4.322   3.747   0.191
 6328SOL    HW119883   4.278   3.719   0.277
 6328SOL    HW219884   4.318   3.846   0.182
 6329SOL     OW19885   1.466   3.048   3.921
 6329SOL    HW119886   1.517   3.121   3.968
 6329SOL    HW219887   1.378   3.084   3.891
 6330SOL     OW19888   5.792   0.027   1.631
 6330SOL    HW119889   5.718   0.081   1.673
 6330SOL    HW219890   5.875   0.083   1.626
 6331SOL     OW19891   6.727   3.627   5.283
 6331SOL    HW119892   6.643   3.572   5.280
 6331SOL    HW219893   6.797   3.583   5.227
 6332SOL     OW19894   0.779   2.842   1.273
 6332SOL    HW119895   0.819   2.753   1.297
 6332SOL    HW219896   0.833   2.915   1.314
 6333SOL     OW19897   4.398   6.907   5.320
 6333SOL    HW119898   4.480   6.941   5.275
 6333SOL    HW219899   4.400   6.807   5.323
 6334SOL     OW19900   3.520   1.270   2.410
 6334SOL    HW119901   3.527   1.226   2.500
 6334SOL    HW219902   3.546   1.204   2.339
 6335SOL     OW19903   4.094   0.442   0.803
 6335SOL    HW119904   4.075   0.535   0.774
 6335SOL    HW219905   4.081   0.434   0.902
 6336SOL     OW19906   0.973   2.239   6.542
 6336SOL    HW119907   0.973   2.292   6.627
 6336SOL    HW219908   1.066   2.232   6.507
 6337SOL     OW19909   4.271   5.177   5.470
 6337SOL    HW119910   4.271   5.086   5.510
 6337SOL    HW219911   4.189   5.227   5.499
 6338SOL     OW19912   3.087   2.174   4.003
 6338SOL    HW119913   2.988   2.190   4.004
 6338SOL    HW219914   3.131   2.237   4.066
 6339SOL     OW19915   1.046   3.567   3.822
 6339SOL    HW119916   0.957   3.529   3.846
 6339SOL    HW219917   1.073   3.535   3.732
 6340SOL     OW19918   1.768   4.983   1.304
 6340SOL    HW119919   1.749   5.072   1.345
 6340SOL    HW219920   1.718   4.976   1.217
 6341SOL     OW19921   6.603   3.669   4.776
 6341SOL    HW119922   6.697   3.638   4.792
 6341SOL    HW219923   6.598   3.768   4.789
 6342SOL     OW19924   2.852   1.710   1.217
 6342SOL    HW119925   2.929   1.702   1.154
 6342SOL    HW219926   2.868   1.654   1.298
 6343SOL     OW19927   4.383   0.858   6.234
 6343SOL    HW119928   4.446   0.793   6.192
 6343SOL    HW219929   4.293   0.815   6.243
 6344SOL     OW19930   5.226   2.247   4.502
 6344SOL    HW119931   5.155   2.255   4.432
 6344SOL    HW219932   5.198   2.182   4.572
 6345SOL     OW19933   5.452   2.611   2.174
 6345SOL    HW119934   5.448   2.537   2.241
 6345SOL    HW219935   5.361   2.651   2.163
 6346SOL     OW19936   6.341   5.567   4.054
 6346SOL    HW119937   6.407   5.542   4.125
 6346SOL    HW219938   6.279   5.490   4.038
 6347SOL     OW19939   2.418   1.556   0.264
 6347SOL    HW119940   2.499   1.583   0.317
 6347SOL    HW219941   2.365   1.490   0.316
 6348SOL     OW19942   1.903   2.635   6.224
 6348SOL    HW119943   1.979   2.677   6.273
 6348SOL    HW219944   1.912   2.653   6.126
 6349SOL     OW19945   1.844   1.211   0.939
 6349SOL    HW119946   1.855   1.157   0.855
 6349SOL    HW219947   1.887   1.163   1.016
 6350SOL     OW19948   0.248   5.175   4.015
 6350SOL    HW119949   0.316   5.191   3.944
 6350SOL    HW219950   0.294   5.151   4.101
 6351SOL     OW19951   6.155   3.547   3.654
 6351SOL    HW119952   6.107   3.631   3.627
 6351SOL    HW219953   6.253   3.566   3.661
 6352SOL     OW19954   2.818   6.791   5.023
 6352SOL    HW119955   2.895   6.803   4.959
 6352SOL    HW219956   2.813   6.695   5.051
 6353SOL     OW19957   0.918   5.918   5.529
 6353SOL    HW119958   1.006   5.952   5.497
 6353SOL    HW219959   0.933   5.859   5.609
 6354SOL     OW19960   3.572   5.494   2.983
 6354SOL    HW119961   3.638   5.497   2.908
 6354SOL    HW219962   3.594   5.419   3.044
 6355SOL     OW19963   1.844   5.471   0.002
 6355SOL    HW119964   1.832   5.390   6.962
 6355SOL    HW219965   1.805   5.551   6.974
 6356SOL     OW19966   4.616   5.209   1.329
 6356SOL    HW119967   4.583   5.302   1.319
 6356SOL    HW219968   4.561   5.147   1.272
 6357SOL     OW19969   5.989   3.455   2.946
 6357SOL    HW119970   5.892   3.437   2.928
 6357SOL    HW219971   6.003   3.465   3.044
 6358SOL     OW19972   0.422   1.704   6.259
 6358SOL    HW119973   0.355   1.689   6.187
 6358SOL    HW219974   0.453   1.616   6.294
 6359SOL     OW19975   6.469   6.945   0.251
 6359SOL    HW119976   6.432   6.927   0.343
 6359SOL    HW219977   6.401   6.994   0.197
 6360SOL     OW19978   1.189   3.620   5.405
 6360SOL    HW119979   1.162   3.714   5.424
 6360SOL    HW219980   1.110   3.560   5.417
 6361SOL     OW19981   1.267   0.865   0.884
 6361SOL    HW119982   1.341   0.903   0.828
 6361SOL    HW219983   1.229   0.785   0.838
 6362SOL     OW19984   0.769   5.534   6.659
 6362SOL    HW119985   0.781   5.476   6.739
 6362SOL    HW219986   0.672   5.534   6.632
 6363SOL     OW19987   2.266   5.996   3.507
 6363SOL    HW119988   2.279   6.054   3.427
 6363SOL    HW219989   2.354   5.956   3.535
 6364SOL     OW19990   3.061   1.839   5.718
 6364SOL    HW119991   3.019   1.881   5.798
 6364SOL    HW219992   3.031   1.744   5.710
 6365SOL     OW19993   5.063   6.788   3.798
 6365SOL    HW119994   4.977   6.790   3.747
 6365SOL    HW219995   5.059   6.715   3.866
 6366SOL     OW19996   1.029   5.359   5.158
 6366SOL    HW119997   0.962   5.303   5.110
 6366SOL    HW219998   1.011   5.456   5.138
 6367SOL     OW19999   4.265   1.475   3.952
 6367SOL    HW120000   4.242   1.536   3.877
 6367SOL    HW220001   4.253   1.523   4.039
 6368SOL     OW20002   3.537   4.926   3.715
 6368SOL    HW120003   3.571   5.014   3.683
 6368SOL    HW220004   3.457   4.900   3.661
 6369SOL     OW20005   2.178   0.466   4.679
 6369SOL    HW120006   2.274   0.472   4.649
 6369SOL    HW220007   2.168   0.516   4.765
 6370SOL     OW20008   6.055   3.449   3.927
 6370SOL    HW120009   6.146   3.423   3.957
 6370SOL    HW220010   6.060   3.491   3.836
 6371SOL     OW20011   5.295   4.605   3.165
 6371SOL    HW120012   5.241   4.644   3.090
 6371SOL    HW220013   5.352   4.676   3.206
 6372SOL     OW20014   1.595   1.659   1.972
 6372SOL    HW120015   1.601   1.602   2.054
 6372SOL    HW220016   1.609   1.603   1.891
 6373SOL     OW20017   4.984   4.144   2.693
 6373SOL    HW120018   4.899   4.194   2.709
 6373SOL    HW220019   5.036   4.138   2.778
 6374SOL     OW20020   4.203   3.422   1.861
 6374SOL    HW120021   4.267   3.485   1.817
 6374SOL    HW220022   4.254   3.358   1.920
 6375SOL     OW20023   0.181   2.010   2.313
 6375SOL    HW120024   0.097   1.955   2.311
 6375SOL    HW220025   0.237   1.982   2.390
 6376SOL     OW20026   4.938   2.227   6.075
 6376SOL    HW120027   4.863   2.162   6.072
 6376SOL    HW220028   5.018   2.184   6.118
 6377SOL     OW20029   6.767   0.969   5.631
 6377SOL    HW120030   6.712   1.027   5.691
 6377SOL    HW220031   6.844   0.932   5.681
 6378SOL     OW20032   4.596   4.446   3.655
 6378SOL    HW120033   4.567   4.542   3.656
 6378SOL    HW220034   4.610   4.415   3.748
 6379SOL     OW20035   0.750   4.104   5.127
 6379SOL    HW120036   0.707   4.067   5.045
 6379SOL    HW220037   0.743   4.037   5.201
 6380SOL     OW20038   0.148   1.589   5.130
 6380SOL    HW120039   0.174   1.567   5.224
 6380SOL    HW220040   0.140   1.688   5.120
 6381SOL     OW20041   4.123   2.941   1.193
 6381SOL    HW120042   4.183   2.862   1.189
 6381SOL    HW220043   4.138   2.990   1.279
 6382SOL     OW20044   3.311   2.076   0.718
 6382SOL    HW120045   3.300   2.158   0.662
 6382SOL    HW220046   3.393   2.087   0.775
 6383SOL     OW20047   2.415   2.520   3.238
 6383SOL    HW120048   2.409   2.585   3.314
 6383SOL    HW220049   2.322   2.495   3.209
 6384SOL     OW20050   6.328   3.626   3.031
 6384SOL    HW120051   6.410   3.677   3.059
 6384SOL    HW220052   6.285   3.586   3.111
 6385SOL     OW20053   7.018   3.356   3.745
 6385SOL    HW120054   0.001   3.419   3.667
 6385SOL    HW220055   7.014   3.262   3.711
 6386SOL     OW20056   2.990   3.507   6.833
 6386SOL    HW120057   2.930   3.581   6.863
 6386SOL    HW220058   2.992   3.436   6.903
 6387SOL     OW20059   6.916   1.955   6.859
 6387SOL    HW120060   6.853   1.954   6.936
 6387SOL    HW220061   6.995   1.897   6.879
 6388SOL     OW20062   4.390   6.298   1.595
 6388SOL    HW120063   4.382   6.198   1.594
 6388SOL    HW220064   4.459   6.325   1.663
 6389SOL     OW20065   0.853   6.680   0.661
 6389SOL    HW120066   0.876   6.709   0.568
 6389SOL    HW220067   0.905   6.597   0.684
 6390SOL     OW20068   0.210   0.549   5.570
 6390SOL    HW120069   0.170   0.579   5.657
 6390SOL    HW220070   0.148   0.572   5.495
 6391SOL     OW20071   1.248   0.536   6.257
 6391SOL    HW120072   1.337   0.547   6.212
 6391SOL    HW220073   1.248   0.586   6.344
 6392SOL     OW20074   2.811   5.053   2.680
 6392SOL    HW120075   2.736   5.001   2.639
 6392SOL    HW220076   2.883   5.067   2.613
 6393SOL     OW20077   0.448   5.957   2.063
 6393SOL    HW120078   0.542   5.925   2.055
 6393SOL    HW220079   0.447   6.057   2.062
 6394SOL     OW20080   1.598   5.775   0.691
 6394SOL    HW120081   1.537   5.742   0.763
 6394SOL    HW220082   1.570   5.867   0.663
 6395SOL     OW20083   0.538   2.864   1.571
 6395SOL    HW120084   0.471   2.797   1.603
 6395SOL    HW220085   0.535   2.944   1.631
 6396SOL     OW20086   6.138   3.001   6.984
 6396SOL    HW120087   6.121   2.906   6.956
 6396SOL    HW220088   6.074   3.025   0.039
 6397SOL     OW20089   5.816   1.293   1.839
 6397SOL    HW120090   5.798   1.201   1.874
 6397SOL    HW220091   5.851   1.351   1.912
 6398SOL     OW20092   2.896   0.090   1.884
 6398SOL    HW120093   2.808   0.119   1.845
 6398SOL    HW220094   2.953   0.170   1.902
 6399SOL     OW20095   1.504   0.402   6.759
 6399SOL    HW120096   1.576   0.363   6.817
 6399SOL    HW220097   1.447   0.328   6.722
 6400SOL     OW20098   2.000   4.877   2.301
 6400SOL    HW120099   2.003   4.818   2.220
 6400SOL    HW220100   2.050   4.832   2.375
 6401SOL     OW20101   5.751   5.964   3.297
 6401SOL    HW120102   5.775   5.867   3.289
 6401SOL    HW220103   5.691   5.977   3.376
 6402SOL     OW20104   2.159   3.159   3.268
 6402SOL    HW120105   2.138   3.074   3.219
 6402SOL    HW220106   2.141   3.146   3.366
 6403SOL     OW20107   6.557   5.104   6.252
 6403SOL    HW120108   6.646   5.061   6.269
 6403SOL    HW220109   6.523   5.146   6.336
 6404SOL     OW20110   4.049   1.265   2.291
 6404SOL    HW120111   4.011   1.173   2.302
 6404SOL    HW220112   4.145   1.265   2.321
 6405SOL     OW20113   3.927   0.716   3.900
 6405SOL    HW120114   3.834   0.682   3.916
 6405SOL    HW220115   3.973   0.729   3.988
 6406SOL     OW20116   0.295   2.773   2.927
 6406SOL    HW120117   0.212   2.829   2.924
 6406SOL    HW220118   0.372   2.826   2.892
 6407SOL     OW20119   2.474   6.989   4.003
 6407SOL    HW120120   2.547   0.030   4.037
 6407SOL    HW220121   2.462   6.912   4.065
 6408SOL     OW20122   5.536   0.964   0.563
 6408SOL    HW120123   5.597   1.029   0.608
 6408SOL    HW220124   5.457   0.947   0.622
 6409SOL     OW20125   6.352   4.667   4.452
 6409SOL    HW120126   6.441   4.647   4.492
 6409SOL    HW220127   6.352   4.760   4.415
 6410SOL     OW20128   2.071   1.073   5.787
 6410SOL    HW120129   2.083   1.016   5.868
 6410SOL    HW220130   2.027   1.159   5.813
 6411SOL     OW20131   0.477   3.099   3.104
 6411SOL    HW120132   0.384   3.101   3.141
 6411SOL    HW220133   0.483   3.030   3.032
 6412SOL     OW20134   1.896   1.345   5.133
 6412SOL    HW120135   1.808   1.334   5.180
 6412SOL    HW220136   1.917   1.443   5.124
 6413SOL     OW20137   4.012   4.795   3.659
 6413SOL    HW120138   3.978   4.834   3.745
 6413SOL    HW220139   3.943   4.805   3.588
 6414SOL     OW20140   5.352   1.222   0.465
 6414SOL    HW120141   5.306   1.248   0.550
 6414SOL    HW220142   5.410   1.142   0.482
 6415SOL     OW20143   1.402   3.377   3.619
 6415SOL    HW120144   1.356   3.402   3.704
 6415SOL    HW220145   1.358   3.295   3.581
 6416SOL     OW20146   1.724   6.951   6.753
 6416SOL    HW120147   1.721   0.026   6.789
 6416SOL    HW220148   1.722   6.953   6.653
 6417SOL     OW20149   5.547   4.600   0.526
 6417SOL    HW120150   5.640   4.624   0.553
 6417SOL    HW220151   5.549   4.518   0.469
 6418SOL     OW20152   4.992   3.399   2.511
 6418SOL    HW120153   4.936   3.324   2.474
 6418SOL    HW220154   4.990   3.476   2.447
 6419SOL     OW20155   0.845   5.249   2.873
 6419SOL    HW120156   0.853   5.155   2.907
 6419SOL    HW220157   0.781   5.251   2.796
 6420SOL     OW20158   2.376   6.797   4.178
 6420SOL    HW120159   2.369   6.716   4.119
 6420SOL    HW220160   2.303   6.862   4.153
 6421SOL     OW20161   4.536   0.562   2.275
 6421SOL    HW120162   4.585   0.638   2.317
 6421SOL    HW220163   4.464   0.598   2.215
 6422SOL     OW20164   6.678   0.104   4.939
 6422SOL    HW120165   6.580   0.085   4.945
 6422SOL    HW220166   6.698   0.191   4.984
 6423SOL     OW20167   4.862   5.742   3.428
 6423SOL    HW120168   4.829   5.658   3.470
 6423SOL    HW220169   4.819   5.820   3.472
 6424SOL     OW20170   0.496   4.095   4.396
 6424SOL    HW120171   0.519   4.162   4.467
 6424SOL    HW220172   0.491   4.004   4.436
 6425SOL     OW20173   6.825   6.573   2.972
 6425SOL    HW120174   6.899   6.522   2.928
 6425SOL    HW220175   6.742   6.517   2.972
 6426SOL     OW20176   0.624   5.263   2.708
 6426SOL    HW120177   0.549   5.327   2.723
 6426SOL    HW220178   0.683   5.297   2.634
 6427SOL     OW20179   4.034   3.863   4.064
 6427SOL    HW120180   3.974   3.935   4.100
 6427SOL    HW220181   4.039   3.788   4.129
 6428SOL     OW20182   5.428   3.317   6.675
 6428SOL    HW120183   5.417   3.257   6.754
 6428SOL    HW220184   5.397   3.409   6.699
 6429SOL     OW20185   6.978   1.512   5.779
 6429SOL    HW120186   6.896   1.520   5.723
 6429SOL    HW220187   6.958   1.540   5.873
 6430SOL     OW20188   6.192   0.784   4.074
 6430SOL    HW120189   6.285   0.812   4.099
 6430SOL    HW220190   6.196   0.708   4.009
 6431SOL     OW20191   3.679   5.981   3.589
 6431SOL    HW120192   3.633   5.894   3.608
 6431SOL    HW220193   3.662   6.045   3.664
 6432SOL     OW20194   4.633   4.381   6.011
 6432SOL    HW120195   4.715   4.438   6.004
 6432SOL    HW220196   4.659   4.289   6.038
 6433SOL     OW20197   1.551   5.286   5.739
 6433SOL    HW120198   1.650   5.294   5.749
 6433SOL    HW220199   1.519   5.349   5.668
 6434SOL     OW20200   2.961   6.638   6.063
 6434SOL    HW120201   3.053   6.647   6.025
 6434SOL    HW220202   2.941   6.717   6.121
 6435SOL     OW20203   5.479   6.961   0.412
 6435SOL    HW120204   5.416   6.885   0.399
 6435SOL    HW220205   5.431   0.018   0.459
 6436SOL     OW20206   1.253   3.002   2.620
 6436SOL    HW120207   1.169   3.051   2.594
 6436SOL    HW220208   1.239   2.958   2.709
 6437SOL     OW20209   1.421   2.488   6.956
 6437SOL    HW120210   1.519   2.472   6.943
 6437SOL    HW220211   1.374   2.401   6.966
 6438SOL     OW20212   0.556   3.808   5.499
 6438SOL    HW120213   0.563   3.808   5.599
 6438SOL    HW220214   0.461   3.795   5.472
 6439SOL     OW20215   5.365   0.964   1.931
 6439SOL    HW120216   5.408   0.874   1.941
 6439SOL    HW220217   5.393   1.022   2.007
 6440SOL     OW20218   2.563   1.282   5.921
 6440SOL    HW120219   2.573   1.193   5.966
 6440SOL    HW220220   2.627   1.347   5.961
 6441SOL     OW20221   0.291   0.199   1.338
 6441SOL    HW120222   0.383   0.172   1.309
 6441SOL    HW220223   0.225   0.132   1.304
 6442SOL     OW20224   2.526   1.664   5.180
 6442SOL    HW120225   2.514   1.639   5.276
 6442SOL    HW220226   2.505   1.761   5.168
 6443SOL     OW20227   3.700   2.623   5.360
 6443SOL    HW120228   3.697   2.698   5.294
 6443SOL    HW220229   3.613   2.619   5.411
 6444SOL     OW20230   5.610   3.118   4.764
 6444SOL    HW120231   5.629   3.188   4.695
 6444SOL    HW220232   5.537   3.058   4.731
 6445SOL     OW20233   4.133   3.447   4.451
 6445SOL    HW120234   4.165   3.533   4.490
 6445SOL    HW220235   4.153   3.372   4.515
 6446SOL     OW20236   1.091   1.185   6.874
 6446SOL    HW120237   1.152   1.115   6.911
 6446SOL    HW220238   1.117   1.206   6.780
 6447SOL     OW20239   6.359   5.021   2.714
 6447SOL    HW120240   6.411   4.983   2.791
 6447SOL    HW220241   6.326   4.946   2.657
 6448SOL     OW20242   5.115   5.451   1.463
 6448SOL    HW120243   5.146   5.536   1.419
 6448SOL    HW220244   5.019   5.461   1.491
 6449SOL     OW20245   3.896   6.007   1.556
 6449SOL    HW120246   3.913   5.975   1.650
 6449SOL    HW220247   3.885   6.107   1.557
 6450SOL     OW20248   1.466   3.027   0.766
 6450SOL    HW120249   1.368   3.047   0.762
 6450SOL    HW220250   1.517   3.106   0.733
 6451SOL     OW20251   2.392   0.470   5.365
 6451SOL    HW120252   2.378   0.568   5.354
 6451SOL    HW220253   2.472   0.441   5.312
 6452SOL     OW20254   4.500   4.469   3.052
 6452SOL    HW120255   4.479   4.494   2.958
 6452SOL    HW220256   4.520   4.371   3.056
 6453SOL     OW20257   2.267   6.854   1.810
 6453SOL    HW120258   2.330   6.789   1.852
 6453SOL    HW220259   2.307   6.945   1.810
 6454SOL     OW20260   0.697   1.667   3.582
 6454SOL    HW120261   0.679   1.591   3.520
 6454SOL    HW220262   0.689   1.636   3.677
 6455SOL     OW20263   0.512   3.179   4.299
 6455SOL    HW120264   0.420   3.216   4.291
 6455SOL    HW220265   0.509   3.094   4.351
 6456SOL     OW20266   1.638   1.452   3.141
 6456SOL    HW120267   1.605   1.491   3.055
 6456SOL    HW220268   1.562   1.413   3.192
 6457SOL     OW20269   4.820   0.745   1.685
 6457SOL    HW120270   4.855   0.838   1.682
 6457SOL    HW220271   4.722   0.746   1.667
 6458SOL     OW20272   0.955   5.628   4.071
 6458SOL    HW120273   1.051   5.646   4.050
 6458SOL    HW220274   0.896   5.679   4.009
 6459SOL     OW20275   6.469   3.377   1.582
 6459SOL    HW120276   6.456   3.463   1.631
 6459SOL    HW220277   6.443   3.390   1.486
 6460SOL     OW20278   6.227   6.138   6.288
 6460SOL    HW120279   6.201   6.055   6.238
 6460SOL    HW220280   6.312   6.123   6.337
 6461SOL     OW20281   2.675   4.600   6.993
 6461SOL    HW120282   2.648   4.661   0.049
 6461SOL    HW220283   2.609   4.607   6.918
 6462SOL     OW20284   1.922   3.092   4.632
 6462SOL    HW120285   1.841   3.151   4.630
 6462SOL    HW220286   2.004   3.148   4.640
 6463SOL     OW20287   5.526   1.558   0.564
 6463SOL    HW120288   5.461   1.633   0.564
 6463SOL    HW220289   5.522   1.509   0.651
 6464SOL     OW20290   1.623   4.901   4.955
 6464SOL    HW120291   1.682   4.905   5.036
 6464SOL    HW220292   1.672   4.857   4.880
 6465SOL     OW20293   6.728   3.225   2.559
 6465SOL    HW120294   6.678   3.235   2.645
 6465SOL    HW220295   6.806   3.164   2.573
 6466SOL     OW20296   6.143   1.152   5.723
 6466SOL    HW120297   6.090   1.075   5.761
 6466SOL    HW220298   6.230   1.159   5.771
 6467SOL     OW20299   3.830   0.177   6.950
 6467SOL    HW120300   3.842   0.092   7.000
 6467SOL    HW220301   3.913   0.196   6.898
 6468SOL     OW20302   2.706   6.417   1.230
 6468SOL    HW120303   2.647   6.496   1.217
 6468SOL    HW220304   2.736   6.382   1.141
 6469SOL     OW20305   4.454   2.272   4.043
 6469SOL    HW120306   4.552   2.278   4.026
 6469SOL    HW220307   4.404   2.313   3.966
 6470SOL     OW20308   5.568   2.712   0.951
 6470SOL    HW120309   5.560   2.774   1.029
 6470SOL    HW220310   5.646   2.739   0.895
 6471SOL     OW20311   0.272   6.217   5.520
 6471SOL    HW120312   0.359   6.260   5.545
 6471SOL    HW220313   0.203   6.287   5.504
 6472SOL     OW20314   6.818   6.158   1.533
 6472SOL    HW120315   6.820   6.255   1.507
 6472SOL    HW220316   6.835   6.151   1.631
 6473SOL     OW20317   2.958   1.610   4.672
 6473SOL    HW120318   2.881   1.653   4.719
 6473SOL    HW220319   3.001   1.677   4.611
 6474SOL     OW20320   3.583   5.385   6.405
 6474SOL    HW120321   3.667   5.333   6.387
 6474SOL    HW220322   3.580   5.410   6.502
 6475SOL     OW20323   5.868   4.786   3.717
 6475SOL    HW120324   5.925   4.853   3.764
 6475SOL    HW220325   5.925   4.724   3.664
 6476SOL     OW20326   4.971   3.557   0.637
 6476SOL    HW120327   5.012   3.484   0.692
 6476SOL    HW220328   5.000   3.547   0.542
 6477SOL     OW20329   5.859   4.870   0.225
 6477SOL    HW120330   5.894   4.950   0.177
 6477SOL    HW220331   5.927   4.839   0.292
 6478SOL     OW20332   3.461   0.017   2.246
 6478SOL    HW120333   3.453   0.114   2.223
 6478SOL    HW220334   3.466   0.007   2.345
 6479SOL     OW20335   4.401   5.452   3.969
 6479SOL    HW120336   4.309   5.420   3.990
 6479SOL    HW220337   4.412   5.459   3.869
 6480SOL     OW20338   2.858   1.027   6.826
 6480SOL    HW120339   2.824   1.081   6.904
 6480SOL    HW220340   2.834   0.931   6.839
 6481SOL     OW20341   3.354   2.071   2.272
 6481SOL    HW120342   3.310   2.096   2.358
 6481SOL    HW220343   3.288   2.024   2.213
 6482SOL     OW20344   6.562   1.711   5.743
 6482SOL    HW120345   6.503   1.664   5.677
 6482SOL    HW220346   6.576   1.806   5.713
 6483SOL     OW20347   0.776   0.504   3.258
 6483SOL    HW120348   0.822   0.451   3.329
 6483SOL    HW220349   0.797   0.465   3.169
 6484SOL     OW20350   3.319   0.191   1.533
 6484SOL    HW120351   3.225   0.225   1.531
 6484SOL    HW220352   3.328   0.115   1.468
 6485SOL     OW20353   2.032   5.383   3.685
 6485SOL    HW120354   2.127   5.406   3.704
 6485SOL    HW220355   2.006   5.420   3.595
 6486SOL     OW20356   0.420   4.166   3.015
 6486SOL    HW120357   0.361   4.091   2.986
 6486SOL    HW220358   0.513   4.132   3.029
 6487SOL     OW20359   0.882   6.726   4.893
 6487SOL    HW120360   0.952   6.669   4.852
 6487SOL    HW220361   0.901   6.737   4.991
 6488SOL     OW20362   3.955   6.290   4.446
 6488SOL    HW120363   3.860   6.298   4.418
 6488SOL    HW220364   3.961   6.289   4.545
 6489SOL     OW20365   3.134   3.552   6.289
 6489SOL    HW120366   3.135   3.651   6.302
 6489SOL    HW220367   3.170   3.529   6.199
 6490SOL     OW20368   3.855   1.249   6.410
 6490SOL    HW120369   3.876   1.294   6.324
 6490SOL    HW220370   3.756   1.237   6.419
 6491SOL     OW20371   3.783   0.861   1.430
 6491SOL    HW120372   3.878   0.833   1.439
 6491SOL    HW220373   3.776   0.931   1.359
 6492SOL     OW20374   3.943   4.877   6.196
 6492SOL    HW120375   3.951   4.927   6.110
 6492SOL    HW220376   4.035   4.855   6.230
 6493SOL     OW20377   1.965   4.576   6.019
 6493SOL    HW120378   2.010   4.502   6.068
 6493SOL    HW220379   1.937   4.544   5.928
 6494SOL     OW20380   6.790   0.430   3.319
 6494SOL    HW120381   6.872   0.405   3.267
 6494SOL    HW220382   6.795   0.526   3.346
 6495SOL     OW20383   6.552   0.364   4.879
 6495SOL    HW120384   6.565   0.301   4.803
 6495SOL    HW220385   6.515   0.451   4.844
 6496SOL     OW20386   6.081   0.961   3.222
 6496SOL    HW120387   6.074   0.929   3.128
 6496SOL    HW220388   6.048   0.890   3.285
 6497SOL     OW20389   0.963   1.117   1.314
 6497SOL    HW120390   0.923   1.050   1.252
 6497SOL    HW220391   0.891   1.162   1.367
 6498SOL     OW20392   1.629   3.231   4.051
 6498SOL    HW120393   1.723   3.205   4.030
 6498SOL    HW220394   1.623   3.262   4.146
 6499SOL     OW20395   5.304   4.200   5.315
 6499SOL    HW120396   5.204   4.197   5.319
 6499SOL    HW220397   5.336   4.153   5.232
 6500SOL     OW20398   6.473   3.837   5.016
 6500SOL    HW120399   6.544   3.869   4.952
 6500SOL    HW220400   6.459   3.739   5.003
 6501SOL     OW20401   6.792   0.850   6.345
 6501SOL    HW120402   6.835   0.784   6.284
 6501SOL    HW220403   6.692   0.844   6.336
 6502SOL     OW20404   6.595   3.288   2.334
 6502SOL    HW120405   6.634   3.274   2.424
 6502SOL    HW220406   6.563   3.201   2.297
 6503SOL     OW20407   5.525   1.381   3.686
 6503SOL    HW120408   5.478   1.349   3.769
 6503SOL    HW220409   5.480   1.342   3.606
 6504SOL     OW20410   4.537   6.184   5.263
 6504SOL    HW120411   4.459   6.134   5.227
 6504SOL    HW220412   4.561   6.258   5.200
 6505SOL     OW20413   5.526   5.850   6.231
 6505SOL    HW120414   5.456   5.811   6.291
 6505SOL    HW220415   5.615   5.845   6.277
 6506SOL     OW20416   6.867   2.810   2.730
 6506SOL    HW120417   6.789   2.857   2.771
 6506SOL    HW220418   6.863   2.712   2.752
 6507SOL     OW20419   1.684   5.455   6.517
 6507SOL    HW120420   1.656   5.429   6.424
 6507SOL    HW220421   1.634   5.538   6.544
 6508SOL     OW20422   1.794   0.972   2.798
 6508SOL    HW120423   1.855   1.049   2.780
 6508SOL    HW220424   1.722   0.970   2.728
 6509SOL     OW20425   4.274   1.826   4.711
 6509SOL    HW120426   4.351   1.862   4.763
 6509SOL    HW220427   4.291   1.838   4.613
 6510SOL     OW20428   6.630   5.269   0.301
 6510SOL    HW120429   6.657   5.288   0.395
 6510SOL    HW220430   6.584   5.180   0.298
 6511SOL     OW20431   3.667   1.122   4.804
 6511SOL    HW120432   3.735   1.096   4.873
 6511SOL    HW220433   3.671   1.220   4.788
 6512SOL     OW20434   3.843   6.375   2.005
 6512SOL    HW120435   3.889   6.287   1.990
 6512SOL    HW220436   3.911   6.447   2.016
 6513SOL     OW20437   2.628   5.022   3.272
 6513SOL    HW120438   2.685   5.018   3.190
 6513SOL    HW220439   2.532   5.010   3.246
 6514SOL     OW20440   5.991   1.549   4.072
 6514SOL    HW120441   5.922   1.500   4.019
 6514SOL    HW220442   5.949   1.625   4.120
 6515SOL     OW20443   0.732   4.637   3.547
 6515SOL    HW120444   0.755   4.733   3.529
 6515SOL    HW220445   0.803   4.578   3.508
 6516SOL     OW20446   0.460   3.366   1.802
 6516SOL    HW120447   0.487   3.461   1.822
 6516SOL    HW220448   0.361   3.359   1.807
 6517SOL     OW20449   6.914   1.282   1.933
 6517SOL    HW120450   6.855   1.205   1.957
 6517SOL    HW220451   6.964   1.312   2.014
 6518SOL     OW20452   0.174   0.497   0.377
 6518SOL    HW120453   0.091   0.552   0.383
 6518SOL    HW220454   0.253   0.557   0.369
 6519SOL     OW20455   0.672   2.268   3.167
 6519SOL    HW120456   0.722   2.256   3.082
 6519SOL    HW220457   0.730   2.241   3.244
 6520SOL     OW20458   6.366   5.158   1.282
 6520SOL    HW120459   6.309   5.153   1.364
 6520SOL    HW220460   6.308   5.148   1.201
 6521SOL     OW20461   2.023   2.725   4.004
 6521SOL    HW120462   1.936   2.748   4.047
 6521SOL    HW220463   2.094   2.786   4.038
 6522SOL     OW20464   2.771   4.814   5.521
 6522SOL    HW120465   2.744   4.818   5.617
 6522SOL    HW220466   2.729   4.891   5.472
 6523SOL     OW20467   3.443   1.346   6.736
 6523SOL    HW120468   3.443   1.375   6.640
 6523SOL    HW220469   3.364   1.384   6.783
 6524SOL     OW20470   3.001   3.475   1.614
 6524SOL    HW120471   3.026   3.384   1.582
 6524SOL    HW220472   3.083   3.533   1.616
 6525SOL     OW20473   2.120   5.284   3.223
 6525SOL    HW120474   2.142   5.362   3.282
 6525SOL    HW220475   2.056   5.313   3.152
 6526SOL     OW20476   2.443   0.854   0.823
 6526SOL    HW120477   2.540   0.868   0.841
 6526SOL    HW220478   2.390   0.927   0.866
 6527SOL     OW20479   0.181   1.578   5.379
 6527SOL    HW120480   0.164   1.502   5.441
 6527SOL    HW220481   0.198   1.661   5.433
 6528SOL     OW20482   5.921   0.971   4.850
 6528SOL    HW120483   5.906   1.040   4.921
 6528SOL    HW220484   5.861   0.990   4.773
 6529SOL     OW20485   2.178   0.911   2.948
 6529SOL    HW120486   2.213   0.859   3.026
 6529SOL    HW220487   2.253   0.928   2.883
 6530SOL     OW20488   0.098   2.213   0.058
 6530SOL    HW120489   0.125   2.139   0.119
 6530SOL    HW220490   0.150   2.207   6.991
 6531SOL     OW20491   4.892   3.216   5.301
 6531SOL    HW120492   4.891   3.187   5.206
 6531SOL    HW220493   4.841   3.301   5.311
 6532SOL     OW20494   0.265   1.303   1.274
 6532SOL    HW120495   0.292   1.311   1.370
 6532SOL    HW220496   0.282   1.210   1.243
 6533SOL     OW20497   4.603   0.006   0.968
 6533SOL    HW120498   4.529   0.059   0.927
 6533SOL    HW220499   4.677   7.012   0.902
 6534SOL     OW20500   4.754   3.929   1.515
 6534SOL    HW120501   4.720   3.986   1.590
 6534SOL    HW220502   4.725   3.968   1.427
 6535SOL     OW20503   6.321   4.719   3.782
 6535SOL    HW120504   6.284   4.690   3.870
 6535SOL    HW220505   6.414   4.755   3.796
 6536SOL     OW20506   0.432   1.129   5.612
 6536SOL    HW120507   0.464   1.162   5.523
 6536SOL    HW220508   0.507   1.081   5.658
 6537SOL     OW20509   6.751   5.054   6.713
 6537SOL    HW120510   6.766   5.151   6.697
 6537SOL    HW220511   6.813   5.001   6.655
 6538SOL     OW20512   2.494   3.734   6.279
 6538SOL    HW120513   2.469   3.641   6.309
 6538SOL    HW220514   2.579   3.761   6.323
 6539SOL     OW20515   5.282   0.975   6.549
 6539SOL    HW120516   5.256   0.905   6.616
 6539SOL    HW220517   5.211   1.045   6.545
 6540SOL     OW20518   4.417   1.947   6.122
 6540SOL    HW120519   4.453   1.960   6.029
 6540SOL    HW220520   4.318   1.960   6.121
 6541SOL     OW20521   4.868   1.622   4.868
 6541SOL    HW120522   4.938   1.612   4.797
 6541SOL    HW220523   4.800   1.549   4.857
 6542SOL     OW20524   6.477   3.084   4.396
 6542SOL    HW120525   6.487   2.995   4.351
 6542SOL    HW220526   6.380   3.108   4.400
 6543SOL     OW20527   4.764   3.118   5.929
 6543SOL    HW120528   4.730   3.034   5.970
 6543SOL    HW220529   4.775   3.187   6.001
 6544SOL     OW20530   1.249   6.666   2.990
 6544SOL    HW120531   1.217   6.640   3.081
 6544SOL    HW220532   1.334   6.718   2.998
 6545SOL     OW20533   4.084   0.720   1.020
 6545SOL    HW120534   4.097   0.732   0.921
 6545SOL    HW220535   4.083   0.623   1.042
 6546SOL     OW20536   2.834   4.313   0.339
 6546SOL    HW120537   2.748   4.282   0.299
 6546SOL    HW220538   2.865   4.395   0.292
 6547SOL     OW20539   4.849   1.206   6.109
 6547SOL    HW120540   4.809   1.130   6.160
 6547SOL    HW220541   4.862   1.284   6.171
 6548SOL     OW20542   0.392   4.014   0.863
 6548SOL    HW120543   0.375   3.916   0.855
 6548SOL    HW220544   0.378   4.042   0.958
 6549SOL     OW20545   3.719   0.349   1.722
 6549SOL    HW120546   3.705   0.446   1.740
 6549SOL    HW220547   3.743   0.303   1.808
 6550SOL     OW20548   0.152   7.008   3.353
 6550SOL    HW120549   0.183   6.992   3.447
 6550SOL    HW220550   0.228   6.993   3.290
 6551SOL     OW20551   1.422   4.695   1.962
 6551SOL    HW120552   1.498   4.637   1.993
 6551SOL    HW220553   1.459   4.777   1.919
 6552SOL     OW20554   1.915   0.033   0.341
 6552SOL    HW120555   1.892   0.101   0.411
 6552SOL    HW220556   1.974   0.076   0.272
 6553SOL     OW20557   6.675   2.438   3.262
 6553SOL    HW120558   6.746   2.392   3.208
 6553SOL    HW220559   6.682   2.408   3.357
 6554SOL     OW20560   0.807   0.453   4.896
 6554SOL    HW120561   0.779   0.449   4.801
 6554SOL    HW220562   0.874   0.527   4.908
 6555SOL     OW20563   5.574   1.417   3.241
 6555SOL    HW120564   5.570   1.507   3.284
 6555SOL    HW220565   5.535   1.349   3.302
 6556SOL     OW20566   4.993   4.265   4.128
 6556SOL    HW120567   4.956   4.334   4.190
 6556SOL    HW220568   5.047   4.198   4.180
 6557SOL     OW20569   3.198   6.881   2.431
 6557SOL    HW120570   3.131   6.946   2.395
 6557SOL    HW220571   3.174   6.789   2.402
 6558SOL     OW20572   6.928   5.130   0.471
 6558SOL    HW120573   6.997   5.142   0.399
 6558SOL    HW220574   6.866   5.057   0.445
 6559SOL     OW20575   0.641   4.024   0.392
 6559SOL    HW120576   0.696   4.079   0.454
 6559SOL    HW220577   0.573   3.972   0.444
 6560SOL     OW20578   4.688   4.919   1.477
 6560SOL    HW120579   4.688   4.906   1.577
 6560SOL    HW220580   4.756   4.858   1.436
 6561SOL     OW20581   3.153   4.238   1.717
 6561SOL    HW120582   3.073   4.205   1.667
 6561SOL    HW220583   3.157   4.193   1.806
 6562SOL     OW20584   6.223   3.178   0.848
 6562SOL    HW120585   6.313   3.182   0.805
 6562SOL    HW220586   6.154   3.209   0.783
 6563SOL     OW20587   5.161   5.620   6.241
 6563SOL    HW120588   5.233   5.647   6.305
 6563SOL    HW220589   5.106   5.699   6.218
 6564SOL     OW20590   6.789   3.859   3.035
 6564SOL    HW120591   6.789   3.821   3.127
 6564SOL    HW220592   6.851   3.806   2.977
 6565SOL     OW20593   5.365   1.875   2.921
 6565SOL    HW120594   5.432   1.828   2.979
 6565SOL    HW220595   5.399   1.966   2.899
 6566SOL     OW20596   4.016   6.141   1.959
 6566SOL    HW120597   4.069   6.193   1.892
 6566SOL    HW220598   4.050   6.162   2.051
 6567SOL     OW20599   4.945   0.855   2.793
 6567SOL    HW120600   4.950   0.906   2.708
 6567SOL    HW220601   4.852   0.821   2.807
 6568SOL     OW20602   2.690   1.098   3.657
 6568SOL    HW120603   2.706   1.037   3.735
 6568SOL    HW220604   2.731   1.058   3.575
 6569SOL     OW20605   2.842   3.540   0.638
 6569SOL    HW120606   2.744   3.539   0.658
 6569SOL    HW220607   2.866   3.627   0.595
 6570SOL     OW20608   3.502   1.145   2.651
 6570SOL    HW120609   3.410   1.139   2.690
 6570SOL    HW220610   3.544   1.054   2.651
 6571SOL     OW20611   3.128   5.343   1.952
 6571SOL    HW120612   3.121   5.251   1.914
 6571SOL    HW220613   3.161   5.338   2.047
 6572SOL     OW20614   0.339   4.904   4.810
 6572SOL    HW120615   0.289   4.868   4.730
 6572SOL    HW220616   0.429   4.937   4.780
 6573SOL     OW20617   0.981   2.075   2.532
 6573SOL    HW120618   0.883   2.059   2.546
 6573SOL    HW220619   0.995   2.167   2.496
 6574SOL     OW20620   2.583   5.234   2.357
 6574SOL    HW120621   2.514   5.235   2.430
 6574SOL    HW220622   2.549   5.287   2.279
 6575SOL     OW20623   0.968   0.299   3.172
 6575SOL    HW120624   1.007   0.248   3.249
 6575SOL    HW220625   0.980   0.247   3.088
 6576SOL     OW20626   2.116   6.356   6.832
 6576SOL    HW120627   2.051   6.280   6.828
 6576SOL    HW220628   2.069   6.441   6.812
 6577SOL     OW20629   0.544   1.752   4.364
 6577SOL    HW120630   0.635   1.712   4.376
 6577SOL    HW220631   0.485   1.687   4.316
 6578SOL     OW20632   0.880   5.936   3.048
 6578SOL    HW120633   0.875   5.836   3.051
 6578SOL    HW220634   0.925   5.969   3.131
 6579SOL     OW20635   0.022   3.548   4.253
 6579SOL    HW120636   0.102   3.563   4.311
 6579SOL    HW220637   0.036   3.465   4.199
 6580SOL     OW20638   0.941   2.209   1.051
 6580SOL    HW120639   0.920   2.303   1.076
 6580SOL    HW220640   0.885   2.181   0.973
 6581SOL     OW20641   2.838   0.976   0.649
 6581SOL    HW120642   2.758   0.932   0.610
 6581SOL    HW220643   2.883   1.033   0.580
 6582SOL     OW20644   0.421   1.268   3.540
 6582SOL    HW120645   0.400   1.355   3.496
 6582SOL    HW220646   0.449   1.284   3.635
 6583SOL     OW20647   4.464   0.067   5.563
 6583SOL    HW120648   4.496   0.147   5.514
 6583SOL    HW220649   4.407   0.011   5.502
 6584SOL     OW20650   4.526   2.387   0.913
 6584SOL    HW120651   4.567   2.395   0.822
 6584SOL    HW220652   4.557   2.462   0.970
 6585SOL     OW20653   6.800   6.297   0.130
 6585SOL    HW120654   6.822   6.392   0.154
 6585SOL    HW220655   6.786   6.290   0.032
 6586SOL     OW20656   5.335   0.713   5.372
 6586SOL    HW120657   5.274   0.734   5.296
 6586SOL    HW220658   5.408   0.652   5.340
 6587SOL     OW20659   1.835   5.476   5.420
 6587SOL    HW120660   1.821   5.516   5.510
 6587SOL    HW220661   1.933   5.467   5.402
 6588SOL     OW20662   0.752   3.217   1.988
 6588SOL    HW120663   0.769   3.130   1.943
 6588SOL    HW220664   0.660   3.217   2.027
 6589SOL     OW20665   4.903   0.899   0.776
 6589SOL    HW120666   4.863   0.811   0.801
 6589SOL    HW220667   4.929   0.948   0.859
 6590SOL     OW20668   0.062   1.218   5.793
 6590SOL    HW120669   0.046   1.315   5.772
 6590SOL    HW220670   0.099   1.173   5.712
 6591SOL     OW20671   6.181   5.259   2.352
 6591SOL    HW120672   6.280   5.257   2.367
 6591SOL    HW220673   6.135   5.294   2.433
 6592SOL     OW20674   5.642   6.991   3.123
 6592SOL    HW120675   5.665   0.067   3.096
 6592SOL    HW220676   5.669   6.976   3.218
 6593SOL     OW20677   2.004   2.575   2.869
 6593SOL    HW120678   2.049   2.631   2.800
 6593SOL    HW220679   1.905   2.591   2.866
 6594SOL     OW20680   3.523   1.667   6.823
 6594SOL    HW120681   3.621   1.688   6.815
 6594SOL    HW220682   3.490   1.700   6.912
 6595SOL     OW20683   1.312   4.344   6.857
 6595SOL    HW120684   1.265   4.335   6.944
 6595SOL    HW220685   1.379   4.271   6.847
 6596SOL     OW20686   3.364   6.514   4.544
 6596SOL    HW120687   3.436   6.552   4.600
 6596SOL    HW220688   3.283   6.497   4.600
 6597SOL     OW20689   1.251   5.628   1.455
 6597SOL    HW120690   1.319   5.597   1.522
 6597SOL    HW220691   1.178   5.559   1.448
 6598SOL     OW20692   1.442   5.690   4.441
 6598SOL    HW120693   1.382   5.638   4.502
 6598SOL    HW220694   1.392   5.714   4.358
 6599SOL     OW20695   3.952   6.166   6.385
 6599SOL    HW120696   3.892   6.126   6.454
 6599SOL    HW220697   4.018   6.098   6.354
 6600SOL     OW20698   4.330   5.662   5.387
 6600SOL    HW120699   4.405   5.718   5.354
 6600SOL    HW220700   4.260   5.654   5.315
 6601SOL     OW20701   1.536   2.342   4.876
 6601SOL    HW120702   1.465   2.390   4.825
 6601SOL    HW220703   1.576   2.270   4.819
 6602SOL     OW20704   1.655   1.158   2.551
 6602SOL    HW120705   1.678   1.091   2.480
 6602SOL    HW220706   1.699   1.245   2.531
 6603SOL     OW20707   6.859   2.735   3.679
 6603SOL    HW120708   6.761   2.717   3.681
 6603SOL    HW220709   6.909   2.649   3.674
 6604SOL     OW20710   1.631   0.529   0.796
 6604SOL    HW120711   1.656   0.606   0.854
 6604SOL    HW220712   1.589   0.458   0.851
 6605SOL     OW20713   5.771   4.965   1.382
 6605SOL    HW120714   5.671   4.965   1.373
 6605SOL    HW220715   5.795   4.959   1.479
 6606SOL     OW20716   0.429   5.444   2.204
 6606SOL    HW120717   0.367   5.494   2.265
 6606SOL    HW220718   0.376   5.388   2.141
 6607SOL     OW20719   1.859   3.739   2.252
 6607SOL    HW120720   1.820   3.828   2.229
 6607SOL    HW220721   1.902   3.698   2.172
 6608SOL     OW20722   6.481   6.219   1.311
 6608SOL    HW120723   6.404   6.282   1.327
 6608SOL    HW220724   6.561   6.272   1.282
 6609SOL     OW20725   5.000   0.996   6.412
 6609SOL    HW120726   4.923   1.017   6.351
 6609SOL    HW220727   5.069   1.068   6.405
 6610SOL     OW20728   2.513   6.234   0.018
 6610SOL    HW120729   2.471   6.243   6.946
 6610SOL    HW220730   2.589   6.168   0.013
 6611SOL     OW20731   4.878   2.465   3.827
 6611SOL    HW120732   4.922   2.515   3.753
 6611SOL    HW220733   4.880   2.520   3.910
 6612SOL     OW20734   6.036   2.060   6.273
 6612SOL    HW120735   6.132   2.042   6.254
 6612SOL    HW220736   5.979   1.999   6.219
 6613SOL     OW20737   6.352   6.485   5.103
 6613SOL    HW120738   6.352   6.574   5.149
 6613SOL    HW220739   6.326   6.414   5.168
 6614SOL     OW20740   4.308   5.531   0.078
 6614SOL    HW120741   4.405   5.529   0.055
 6614SOL    HW220742   4.279   5.440   0.105
 6615SOL     OW20743   1.861   5.838   1.245
 6615SOL    HW120744   1.906   5.911   1.194
 6615SOL    HW220745   1.777   5.812   1.198
 6616SOL     OW20746   5.140   0.745   6.048
 6616SOL    HW120747   5.120   0.818   5.982
 6616SOL    HW220748   5.075   0.670   6.037
 6617SOL     OW20749   4.615   5.031   3.873
 6617SOL    HW120750   4.551   5.105   3.855
 6617SOL    HW220751   4.701   5.047   3.823
 6618SOL     OW20752   1.332   2.517   2.166
 6618SOL    HW120753   1.297   2.600   2.209
 6618SOL    HW220754   1.379   2.541   2.081
 6619SOL     OW20755   5.809   0.330   4.002
 6619SOL    HW120756   5.869   0.359   4.077
 6619SOL    HW220757   5.715   0.356   4.023
 6620SOL     OW20758   1.787   2.572   5.675
 6620SOL    HW120759   1.880   2.609   5.676
 6620SOL    HW220760   1.725   2.639   5.716
 6621SOL     OW20761   3.408   3.201   5.632
 6621SOL    HW120762   3.331   3.155   5.587
 6621SOL    HW220763   3.391   3.207   5.730
 6622SOL     OW20764   5.928   6.306   1.975
 6622SOL    HW120765   5.914   6.300   1.877
 6622SOL    HW220766   5.961   6.219   2.010
 6623SOL     OW20767   3.521   2.900   4.814
 6623SOL    HW120768   3.490   2.867   4.903
 6623SOL    HW220769   3.615   2.934   4.822
 6624SOL     OW20770   0.374   4.398   5.968
 6624SOL    HW120771   0.286   4.410   6.014
 6624SOL    HW220772   0.378   4.456   5.887
 6625SOL     OW20773   5.361   1.405   5.120
 6625SOL    HW120774   5.290   1.373   5.183
 6625SOL    HW220775   5.317   1.443   5.038
 6626SOL     OW20776   3.621   5.536   5.108
 6626SOL    HW120777   3.604   5.522   5.206
 6626SOL    HW220778   3.535   5.542   5.059
 6627SOL     OW20779   2.130   6.725   5.571
 6627SOL    HW120780   2.078   6.732   5.656
 6627SOL    HW220781   2.132   6.815   5.526
 6628SOL     OW20782   5.256   5.133   4.477
 6628SOL    HW120783   5.249   5.037   4.451
 6628SOL    HW220784   5.237   5.143   4.575
 6629SOL     OW20785   4.587   6.177   6.733
 6629SOL    HW120786   4.495   6.194   6.770
 6629SOL    HW220787   4.651   6.163   6.808
 6630SOL     OW20788   3.842   1.695   1.244
 6630SOL    HW120789   3.768   1.649   1.195
 6630SOL    HW220790   3.921   1.635   1.251
 6631SOL     OW20791   2.348   5.142   3.441
 6631SOL    HW120792   2.300   5.229   3.430
 6631SOL    HW220793   2.417   5.151   3.513
 6632SOL     OW20794   0.187   0.688   0.998
 6632SOL    HW120795   0.226   0.627   0.929
 6632SOL    HW220796   0.191   0.782   0.965
 6633SOL     OW20797   1.545   4.454   6.492
 6633SOL    HW120798   1.453   4.416   6.482
 6633SOL    HW220799   1.539   4.547   6.529
 6634SOL     OW20800   5.005   2.268   4.977
 6634SOL    HW120801   4.922   2.214   4.992
 6634SOL    HW220802   5.064   2.261   5.057
 6635SOL     OW20803   4.753   4.875   2.953
 6635SOL    HW120804   4.680   4.816   2.986
 6635SOL    HW220805   4.806   4.828   2.882
 6636SOL     OW20806   4.450   1.713   6.258
 6636SOL    HW120807   4.486   1.756   6.341
 6636SOL    HW220808   4.443   1.782   6.186
 6637SOL     OW20809   1.186   0.035   6.663
 6637SOL    HW120810   1.240   7.003   6.731
 6637SOL    HW220811   1.092   7.017   6.663
 6638SOL     OW20812   2.959   3.786   3.034
 6638SOL    HW120813   3.007   3.842   2.967
 6638SOL    HW220814   3.009   3.701   3.049
 6639SOL     OW20815   4.835   4.697   6.286
 6639SOL    HW120816   4.920   4.705   6.337
 6639SOL    HW220817   4.854   4.701   6.188
 6640SOL     OW20818   0.621   1.996   4.904
 6640SOL    HW120819   0.622   2.096   4.902
 6640SOL    HW220820   0.688   1.963   4.970
 6641SOL     OW20821   2.576   1.124   6.247
 6641SOL    HW120822   2.570   1.049   6.313
 6641SOL    HW220823   2.537   1.096   6.160
 6642SOL     OW20824   1.879   5.666   6.639
 6642SOL    HW120825   1.810   5.616   6.587
 6642SOL    HW220826   1.840   5.693   6.727
 6643SOL     OW20827   5.847   5.373   0.444
 6643SOL    HW120828   5.759   5.393   0.400
 6643SOL    HW220829   5.831   5.336   0.536
 6644SOL     OW20830   2.575   5.777   1.307
 6644SOL    HW120831   2.480   5.801   1.325
 6644SOL    HW220832   2.629   5.794   1.389
 6645SOL     OW20833   6.335   4.538   0.367
 6645SOL    HW120834   6.346   4.604   0.294
 6645SOL    HW220835   6.410   4.471   0.363
 6646SOL     OW20836   3.942   0.488   4.741
 6646SOL    HW120837   3.903   0.506   4.831
 6646SOL    HW220838   4.033   0.529   4.736
 6647SOL     OW20839   5.003   0.975   1.008
 6647SOL    HW120840   5.088   1.001   1.055
 6647SOL    HW220841   4.925   1.008   1.062
 6648SOL     OW20842   3.501   6.214   3.803
 6648SOL    HW120843   3.414   6.231   3.850
 6648SOL    HW220844   3.546   6.135   3.844
 6649SOL     OW20845   5.357   1.313   6.667
 6649SOL    HW120846   5.351   1.267   6.756
 6649SOL    HW220847   5.416   1.259   6.606
 6650SOL     OW20848   3.383   1.205   5.545
 6650SOL    HW120849   3.373   1.277   5.476
 6650SOL    HW220850   3.295   1.187   5.588
 6651SOL     OW20851   2.648   0.674   5.905
 6651SOL    HW120852   2.718   0.722   5.854
 6651SOL    HW220853   2.557   0.705   5.875
 6652SOL     OW20854   0.811   4.072   0.878
 6652SOL    HW120855   0.805   4.015   0.795
 6652SOL    HW220856   0.790   4.167   0.855
 6653SOL     OW20857   3.975   3.588   1.525
 6653SOL    HW120858   4.006   3.677   1.557
 6653SOL    HW220859   3.914   3.601   1.446
 6654SOL     OW20860   0.938   5.138   1.344
 6654SOL    HW120861   0.865   5.201   1.317
 6654SOL    HW220862   0.983   5.102   1.262
 6655SOL     OW20863   1.015   0.089   4.008
 6655SOL    HW120864   0.972   0.159   4.066
 6655SOL    HW220865   0.962   0.078   3.924
 6656SOL     OW20866   4.927   1.816   3.916
 6656SOL    HW120867   4.844   1.836   3.967
 6656SOL    HW220868   4.949   1.718   3.925
 6657SOL     OW20869   6.368   4.583   6.298
 6657SOL    HW120870   6.386   4.496   6.252
 6657SOL    HW220871   6.443   4.603   6.362
 6658SOL     OW20872   6.378   0.862   4.723
 6658SOL    HW120873   6.293   0.914   4.720
 6658SOL    HW220874   6.455   0.925   4.730
 6659SOL     OW20875   2.173   3.634   0.112
 6659SOL    HW120876   2.198   3.728   0.088
 6659SOL    HW220877   2.113   3.597   0.041
 6660SOL     OW20878   1.052   5.443   1.472
 6660SOL    HW120879   0.983   5.394   1.524
 6660SOL    HW220880   1.045   5.417   1.376
 6661SOL     OW20881   1.151   6.695   5.111
 6661SOL    HW120882   1.066   6.741   5.135
 6661SOL    HW220883   1.148   6.600   5.142
 6662SOL     OW20884   1.497   6.971   0.058
 6662SOL    HW120885   1.422   0.011   0.025
 6662SOL    HW220886   1.549   0.002   0.127
 6663SOL     OW20887   5.964   5.466   4.396
 6663SOL    HW120888   5.923   5.555   4.375
 6663SOL    HW220889   6.064   5.477   4.403
 6664SOL     OW20890   2.176   0.042   0.476
 6664SOL    HW120891   2.160   6.972   0.431
 6664SOL    HW220892   2.161   0.116   0.410
 6665SOL     OW20893   1.870   5.778   4.789
 6665SOL    HW120894   1.841   5.741   4.878
 6665SOL    HW220895   1.880   5.703   4.724
 6666SOL     OW20896   6.435   6.443   5.963
 6666SOL    HW120897   6.472   6.503   5.892
 6666SOL    HW220898   6.344   6.474   5.990
 6667SOL     OW20899   6.828   6.221   6.619
 6667SOL    HW120900   6.782   6.137   6.589
 6667SOL    HW220901   6.858   6.273   6.539
 6668SOL     OW20902   6.289   5.395   0.666
 6668SOL    HW120903   6.326   5.308   0.697
 6668SOL    HW220904   6.328   5.419   0.577
 6669SOL     OW20905   1.745   2.420   2.976
 6669SOL    HW120906   1.684   2.341   2.985
 6669SOL    HW220907   1.733   2.480   3.056
 6670SOL     OW20908   3.378   1.481   5.422
 6670SOL    HW120909   3.441   1.440   5.356
 6670SOL    HW220910   3.395   1.579   5.428
 6671SOL     OW20911   4.853   6.734   0.586
 6671SOL    HW120912   4.933   6.787   0.560
 6671SOL    HW220913   4.848   6.651   0.529
 6672SOL     OW20914   6.300   2.514   6.703
 6672SOL    HW120915   6.338   2.423   6.719
 6672SOL    HW220916   6.301   2.534   6.605
 6673SOL     OW20917   4.851   4.510   4.590
 6673SOL    HW120918   4.926   4.507   4.656
 6673SOL    HW220919   4.792   4.588   4.611
 6674SOL     OW20920   0.691   3.616   6.725
 6674SOL    HW120921   0.687   3.591   6.822
 6674SOL    HW220922   0.777   3.585   6.685
 6675SOL     OW20923   5.483   3.568   0.501
 6675SOL    HW120924   5.472   3.653   0.553
 6675SOL    HW220925   5.395   3.519   0.500
 6676SOL     OW20926   1.057   4.172   5.751
 6676SOL    HW120927   1.061   4.156   5.653
 6676SOL    HW220928   1.149   4.191   5.786
 6677SOL     OW20929   1.497   1.809   5.943
 6677SOL    HW120930   1.566   1.740   5.967
 6677SOL    HW220931   1.522   1.853   5.857
 6678SOL     OW20932   3.341   3.000   6.486
 6678SOL    HW120933   3.330   3.092   6.448
 6678SOL    HW220934   3.257   2.948   6.471
 6679SOL     OW20935   3.276   1.176   3.922
 6679SOL    HW120936   3.247   1.272   3.926
 6679SOL    HW220937   3.308   1.147   4.012
 6680SOL     OW20938   5.305   6.883   6.795
 6680SOL    HW120939   5.287   6.980   6.780
 6680SOL    HW220940   5.399   6.871   6.825
 6681SOL     OW20941   3.664   5.464   1.259
 6681SOL    HW120942   3.673   5.470   1.358
 6681SOL    HW220943   3.609   5.541   1.227
 6682SOL     OW20944   1.070   4.375   2.059
 6682SOL    HW120945   1.023   4.297   2.101
 6682SOL    HW220946   1.169   4.365   2.071
 6683SOL     OW20947   5.897   3.492   5.203
 6683SOL    HW120948   5.930   3.451   5.287
 6683SOL    HW220949   5.911   3.428   5.127
 6684SOL     OW20950   2.834   0.039   1.275
 6684SOL    HW120951   2.857   0.134   1.251
 6684SOL    HW220952   2.741   0.019   1.242
 6685SOL     OW20953   6.381   2.738   5.658
 6685SOL    HW120954   6.445   2.689   5.717
 6685SOL    HW220955   6.288   2.723   5.690
 6686SOL     OW20956   4.763   6.334   4.181
 6686SOL    HW120957   4.806   6.423   4.165
 6686SOL    HW220958   4.734   6.328   4.276
 6687SOL     OW20959   1.309   3.440   0.952
 6687SOL    HW120960   1.377   3.372   0.980
 6687SOL    HW220961   1.217   3.404   0.967
 6688SOL     OW20962   5.859   4.585   2.393
 6688SOL    HW120963   5.857   4.678   2.429
 6688SOL    HW220964   5.842   4.521   2.468
 6689SOL     OW20965   4.045   3.144   6.966
 6689SOL    HW120966   4.130   3.195   6.970
 6689SOL    HW220967   4.019   3.129   6.870
 6690SOL     OW20968   0.843   1.270   0.577
 6690SOL    HW120969   0.923   1.210   0.573
 6690SOL    HW220970   0.862   1.346   0.639
 6691SOL     OW20971   2.999   6.329   2.306
 6691SOL    HW120972   2.940   6.362   2.380
 6691SOL    HW220973   3.011   6.230   2.315
 6692SOL     OW20974   3.350   2.942   4.339
 6692SOL    HW120975   3.448   2.928   4.324
 6692SOL    HW220976   3.327   2.916   4.433
 6693SOL     OW20977   4.285   3.194   5.611
 6693SOL    HW120978   4.245   3.282   5.585
 6693SOL    HW220979   4.382   3.205   5.630
 6694SOL     OW20980   4.083   5.622   1.066
 6694SOL    HW120981   4.023   5.573   1.129
 6694SOL    HW220982   4.036   5.634   0.978
 6695SOL     OW20983   2.875   1.913   0.010
 6695SOL    HW120984   2.806   1.892   0.079
 6695SOL    HW220985   2.955   1.954   0.053
 6696SOL     OW20986   2.924   2.941   5.488
 6696SOL    HW120987   2.868   2.960   5.407
 6696SOL    HW220988   2.999   2.880   5.463
 6697SOL     OW20989   4.975   2.347   2.809
 6697SOL    HW120990   4.999   2.414   2.739
 6697SOL    HW220991   4.903   2.286   2.774
 6698SOL     OW20992   2.927   2.300   1.023
 6698SOL    HW120993   2.985   2.300   1.104
 6698SOL    HW220994   2.984   2.310   0.941
 6699SOL     OW20995   2.446   5.848   5.370
 6699SOL    HW120996   2.525   5.868   5.312
 6699SOL    HW220997   2.377   5.919   5.358
 6700SOL     OW20998   1.011   0.576   1.425
 6700SOL    HW120999   0.967   0.513   1.362
 6700SOL    HW221000   0.956   0.584   1.508
 6701SOL     OW21001   5.669   4.599   2.189
 6701SOL    HW121002   5.734   4.599   2.265
 6701SOL    HW221003   5.681   4.515   2.136
 6702SOL     OW21004   3.182   2.145   1.681
 6702SOL    HW121005   3.176   2.097   1.593
 6702SOL    HW221006   3.276   2.138   1.716
 6703SOL     OW21007   6.741   1.648   6.983
 6703SOL    HW121008   6.732   1.593   0.049
 6703SOL    HW221009   6.760   1.743   7.007
 6704SOL     OW21010   3.472   1.326   3.522
 6704SOL    HW121011   3.483   1.244   3.578
 6704SOL    HW221012   3.387   1.372   3.547
 6705SOL     OW21013   6.613   3.646   1.805
 6705SOL    HW121014   6.533   3.677   1.754
 6705SOL    HW221015   6.585   3.581   1.876
 6706SOL     OW21016   1.822   4.599   2.225
 6706SOL    HW121017   1.791   4.587   2.131
 6706SOL    HW221018   1.849   4.511   2.264
 6707SOL     OW21019   6.664   6.263   3.877
 6707SOL    HW121020   6.634   6.205   3.953
 6707SOL    HW221021   6.760   6.245   3.857
 6708SOL     OW21022   6.710   4.970   1.172
 6708SOL    HW121023   6.755   5.035   1.110
 6708SOL    HW221024   6.709   5.008   1.265
 6709SOL     OW21025   2.811   6.461   2.933
 6709SOL    HW121026   2.725   6.499   2.897
 6709SOL    HW221027   2.881   6.465   2.862
 6710SOL     OW21028   3.299   0.370   6.296
 6710SOL    HW121029   3.386   0.411   6.270
 6710SOL    HW221030   3.264   0.416   6.378
 6711SOL     OW21031   4.630   5.883   5.886
 6711SOL    HW121032   4.641   5.959   5.822
 6711SOL    HW221033   4.616   5.798   5.835
 6712SOL     OW21034   5.287   4.152   0.635
 6712SOL    HW121035   5.315   4.122   0.726
 6712SOL    HW221036   5.243   4.076   0.587
 6713SOL     OW21037   2.253   0.443   2.449
 6713SOL    HW121038   2.341   0.463   2.493
 6713SOL    HW221039   2.181   0.439   2.518
 6714SOL     OW21040   6.550   0.615   5.921
 6714SOL    HW121041   6.556   0.644   5.825
 6714SOL    HW221042   6.640   0.620   5.963
 6715SOL     OW21043   0.626   0.350   6.979
 6715SOL    HW121044   0.582   0.390   6.899
 6715SOL    HW221045   0.725   0.347   6.965
 6716SOL     OW21046   0.223   5.795   2.077
 6716SOL    HW121047   0.152   5.840   2.023
 6716SOL    HW221048   0.307   5.849   2.074
 6717SOL     OW21049   3.935   2.985   6.300
 6717SOL    HW121050   4.000   3.036   6.243
 6717SOL    HW221051   3.927   2.892   6.266
 6718SOL     OW21052   5.731   0.602   0.465
 6718SOL    HW121053   5.829   0.592   0.448
 6718SOL    HW221054   5.698   0.687   0.424
 6719SOL     OW21055   2.406   6.766   6.216
 6719SOL    HW121056   2.411   6.812   6.305
 6719SOL    HW221057   2.407   6.833   6.143
 6720SOL     OW21058   1.505   0.194   4.288
 6720SOL    HW121059   1.500   0.293   4.274
 6720SOL    HW221060   1.471   0.171   4.379
 6721SOL     OW21061   6.769   0.248   0.450
 6721SOL    HW121062   6.854   0.243   0.503
 6721SOL    HW221063   6.713   0.323   0.485
 6722SOL     OW21064   6.323   2.704   1.893
 6722SOL    HW121065   6.277   2.775   1.841
 6722SOL    HW221066   6.400   2.668   1.840
 6723SOL     OW21067   2.273   6.269   2.898
 6723SOL    HW121068   2.207   6.217   2.953
 6723SOL    HW221069   2.352   6.292   2.955
 6724SOL     OW21070   2.186   3.354   6.133
 6724SOL    HW121071   2.095   3.326   6.103
 6724SOL    HW221072   2.255   3.310   6.075
 6725SOL     OW21073   0.187   3.265   1.816
 6725SOL    HW121074   0.135   3.196   1.866
 6725SOL    HW221075   0.124   3.336   1.783
 6726SOL     OW21076   0.388   2.363   5.700
 6726SOL    HW121077   0.479   2.347   5.661
 6726SOL    HW221078   0.359   2.283   5.751
 6727SOL     OW21079   0.235   4.537   5.130
 6727SOL    HW121080   0.158   4.533   5.066
 6727SOL    HW221081   0.214   4.483   5.211
 6728SOL     OW21082   3.630   2.044   2.994
 6728SOL    HW121083   3.633   2.068   2.897
 6728SOL    HW221084   3.613   1.945   3.003
 6729SOL     OW21085   0.113   1.179   2.908
 6729SOL    HW121086   0.128   1.161   3.005
 6729SOL    HW221087   0.092   1.093   2.861
 6730SOL     OW21088   1.638   6.678   1.190
 6730SOL    HW121089   1.599   6.705   1.102
 6730SOL    HW221090   1.717   6.737   1.211
 6731SOL     OW21091   0.825   6.471   1.008
 6731SOL    HW121092   0.750   6.513   0.958
 6731SOL    HW221093   0.790   6.426   1.089
 6732SOL     OW21094   5.375   4.781   4.641
 6732SOL    HW121095   5.414   4.838   4.569
 6732SOL    HW221096   5.435   4.702   4.657
 6733SOL     OW21097   3.940   5.687   6.871
 6733SOL    HW121098   3.940   5.787   6.878
 6733SOL    HW221099   3.847   5.653   6.879
 6734SOL     OW21100   6.067   2.644   4.374
 6734SOL    HW121101   6.058   2.587   4.292
 6734SOL    HW221102   6.017   2.729   4.362
 6735SOL     OW21103   6.813   4.384   5.172
 6735SOL    HW121104   6.742   4.407   5.105
 6735SOL    HW221105   6.793   4.429   5.259
 6736SOL     OW21106   3.177   4.003   0.642
 6736SOL    HW121107   3.118   4.031   0.566
 6736SOL    HW221108   3.241   3.933   0.611
 6737SOL     OW21109   1.608   2.693   0.547
 6737SOL    HW121110   1.552   2.691   0.465
 6737SOL    HW221111   1.550   2.713   0.627
 6738SOL     OW21112   1.973   6.043   3.147
 6738SOL    HW121113   1.984   6.047   3.247
 6738SOL    HW221114   2.023   5.964   3.112
 6739SOL     OW21115   3.470   5.826   5.224
 6739SOL    HW121116   3.386   5.879   5.236
 6739SOL    HW221117   3.543   5.885   5.191
 6740SOL     OW21118   1.409   0.162   4.534
 6740SOL    HW121119   1.415   0.243   4.594
 6740SOL    HW221120   1.354   0.092   4.580
 6741SOL     OW21121   3.792   1.734   5.656
 6741SOL    HW121122   3.766   1.655   5.712
 6741SOL    HW221123   3.718   1.756   5.592
 6742SOL     OW21124   6.064   6.113   2.554
 6742SOL    HW121125   5.996   6.070   2.495
 6742SOL    HW221126   6.018   6.176   2.616
 6743SOL     OW21127   3.444   5.622   0.039
 6743SOL    HW121128   3.382   5.567   0.095
 6743SOL    HW221129   3.501   5.678   0.099
 6744SOL     OW21130   5.929   3.886   5.867
 6744SOL    HW121131   5.968   3.808   5.917
 6744SOL    HW221132   5.924   3.865   5.770
 6745SOL     OW21133   6.781   6.905   2.925
 6745SOL    HW121134   6.856   6.854   2.968
 6745SOL    HW221135   6.698   6.849   2.926
 6746SOL     OW21136   0.780   1.736   3.917
 6746SOL    HW121137   0.846   1.664   3.934
 6746SOL    HW221138   0.693   1.713   3.959
 6747SOL     OW21139   5.446   1.072   4.893
 6747SOL    HW121140   5.418   0.979   4.918
 6747SOL    HW221141   5.366   1.131   4.886
 6748SOL     OW21142   2.452   0.906   3.339
 6748SOL    HW121143   2.456   0.815   3.382
 6748SOL    HW221144   2.481   0.975   3.405
 6749SOL     OW21145   2.745   5.409   0.729
 6749SOL    HW121146   2.806   5.481   0.762
 6749SOL    HW221147   2.672   5.394   0.796
 6750SOL     OW21148   3.938   1.977   5.055
 6750SOL    HW121149   3.994   1.894   5.054
 6750SOL    HW221150   3.995   2.056   5.031
 6751SOL     OW21151   4.344   0.007   3.621
 6751SOL    HW121152   4.343   6.956   3.549
 6751SOL    HW221153   4.269   0.072   3.606
 6752SOL     OW21154   0.818   1.607   3.163
 6752SOL    HW121155   0.762   1.688   3.179
 6752SOL    HW221156   0.812   1.580   3.067
 6753SOL     OW21157   3.065   0.348   6.461
 6753SOL    HW121158   3.044   0.252   6.442
 6753SOL    HW221159   3.145   0.354   6.520
 6754SOL     OW21160   0.577   1.845   0.417
 6754SOL    HW121161   0.568   1.912   0.490
 6754SOL    HW221162   0.655   1.869   0.358
 6755SOL     OW21163   4.357   0.416   2.994
 6755SOL    HW121164   4.317   0.483   3.057
 6755SOL    HW221165   4.285   0.356   2.958
 6756SOL     OW21166   3.798   4.913   5.066
 6756SOL    HW121167   3.738   4.944   4.992
 6756SOL    HW221168   3.744   4.861   5.132
 6757SOL     OW21169   4.252   1.819   1.168
 6757SOL    HW121170   4.336   1.847   1.215
 6757SOL    HW221171   4.188   1.896   1.166
 6758SOL     OW21172   6.673   2.162   1.929
 6758SOL    HW121173   6.693   2.064   1.940
 6758SOL    HW221174   6.720   2.196   1.848
 6759SOL     OW21175   0.920   4.416   4.655
 6759SOL    HW121176   0.929   4.330   4.705
 6759SOL    HW221177   0.948   4.403   4.560
 6760SOL     OW21178   6.565   3.942   2.493
 6760SOL    HW121179   6.504   3.979   2.423
 6760SOL    HW221180   6.654   3.987   2.487
 6761SOL     OW21181   6.475   2.179   6.179
 6761SOL    HW121182   6.502   2.114   6.108
 6761SOL    HW221183   6.486   2.136   6.269
 6762SOL     OW21184   0.827   5.821   3.887
 6762SOL    HW121185   0.758   5.856   3.950
 6762SOL    HW221186   0.781   5.785   3.805
 6763SOL     OW21187   1.144   5.172   2.699
 6763SOL    HW121188   1.087   5.249   2.671
 6763SOL    HW221189   1.174   5.121   2.618
 6764SOL     OW21190   1.754   5.389   0.612
 6764SOL    HW121191   1.820   5.379   0.687
 6764SOL    HW221192   1.781   5.331   0.535
 6765SOL     OW21193   5.664   4.051   3.496
 6765SOL    HW121194   5.625   4.041   3.587
 6765SOL    HW221195   5.701   4.143   3.485
 6766SOL     OW21196   5.069   6.711   6.262
 6766SOL    HW121197   5.149   6.768   6.240
 6766SOL    HW221198   5.027   6.744   6.346
 6767SOL     OW21199   1.590   2.450   1.090
 6767SOL    HW121200   1.587   2.351   1.104
 6767SOL    HW221201   1.512   2.478   1.033
 6768SOL     OW21202   1.174   6.524   3.664
 6768SOL    HW121203   1.267   6.530   3.629
 6768SOL    HW221204   1.172   6.551   3.760
 6769SOL     OW21205   2.771   0.596   5.186
 6769SOL    HW121206   2.710   0.655   5.133
 6769SOL    HW221207   2.846   0.565   5.127
 6770SOL     OW21208   4.872   2.056   3.552
 6770SOL    HW121209   4.966   2.091   3.544
 6770SOL    HW221210   4.874   1.965   3.592
 6771SOL     OW21211   4.240   1.331   2.482
 6771SOL    HW121212   4.302   1.406   2.504
 6771SOL    HW221213   4.200   1.294   2.567
 6772SOL     OW21214   4.497   2.422   2.090
 6772SOL    HW121215   4.585   2.378   2.101
 6772SOL    HW221216   4.484   2.489   2.163
 6773SOL     OW21217   0.784   6.346   2.043
 6773SOL    HW121218   0.722   6.321   1.968
 6773SOL    HW221219   0.872   6.375   2.005
 6774SOL     OW21220   2.119   3.505   4.842
 6774SOL    HW121221   2.170   3.451   4.909
 6774SOL    HW221222   2.109   3.599   4.875
 6775SOL     OW21223   1.445   2.584   3.285
 6775SOL    HW121224   1.399   2.549   3.366
 6775SOL    HW221225   1.390   2.564   3.204
 6776SOL     OW21226   4.515   3.373   0.690
 6776SOL    HW121227   4.553   3.416   0.608
 6776SOL    HW221228   4.421   3.344   0.671
 6777SOL     OW21229   5.110   5.006   0.868
 6777SOL    HW121230   5.115   5.004   0.768
 6777SOL    HW221231   5.132   5.099   0.900
 6778SOL     OW21232   6.968   5.176   1.946
 6778SOL    HW121233   6.916   5.219   2.019
 6778SOL    HW221234   0.025   5.122   1.985
 6779SOL     OW21235   5.831   4.651   6.007
 6779SOL    HW121236   5.846   4.678   6.102
 6779SOL    HW221237   5.908   4.681   5.951
 6780SOL     OW21238   1.361   2.948   2.861
 6780SOL    HW121239   1.325   2.886   2.932
 6780SOL    HW221240   1.440   2.906   2.817
 6781SOL     OW21241   6.081   1.335   4.663
 6781SOL    HW121242   6.037   1.306   4.578
 6781SOL    HW221243   6.026   1.303   4.740
 6782SOL     OW21244   1.020   1.420   3.213
 6782SOL    HW121245   0.945   1.485   3.226
 6782SOL    HW221246   1.106   1.466   3.235
 6783SOL     OW21247   0.674   1.609   5.441
 6783SOL    HW121248   0.605   1.623   5.371
 6783SOL    HW221249   0.644   1.650   5.527
 6784SOL     OW21250   1.965   3.737   0.852
 6784SOL    HW121251   2.009   3.697   0.771
 6784SOL    HW221252   1.985   3.835   0.856
 6785SOL     OW21253   6.117   5.544   5.287
 6785SOL    HW121254   6.061   5.579   5.212
 6785SOL    HW221255   6.204   5.510   5.250
 6786SOL     OW21256   1.103   2.230   0.565
 6786SOL    HW121257   1.137   2.219   0.659
 6786SOL    HW221258   1.169   2.191   0.501
 6787SOL     OW21259   3.439   3.182   0.375
 6787SOL    HW121260   3.457   3.278   0.351
 6787SOL    HW221261   3.392   3.138   0.299
 6788SOL     OW21262   0.931   4.606   1.947
 6788SOL    HW121263   1.003   4.542   1.973
 6788SOL    HW221264   0.966   4.699   1.952
 6789SOL     OW21265   0.480   4.874   3.802
 6789SOL    HW121266   0.390   4.834   3.781
 6789SOL    HW221267   0.550   4.803   3.796
 6790SOL     OW21268   0.581   3.319   0.320
 6790SOL    HW121269   0.583   3.220   0.330
 6790SOL    HW221270   0.673   3.352   0.296
 6791SOL     OW21271   3.815   2.131   2.298
 6791SOL    HW121272   3.798   2.192   2.221
 6791SOL    HW221273   3.728   2.111   2.344
 6792SOL     OW21274   5.187   6.819   5.146
 6792SOL    HW121275   5.217   6.735   5.191
 6792SOL    HW221276   5.186   6.894   5.212
 6793SOL     OW21277   2.573   1.174   6.765
 6793SOL    HW121278   2.667   1.149   6.739
 6793SOL    HW221279   2.514   1.170   6.685
 6794SOL     OW21280   5.647   1.184   5.050
 6794SOL    HW121281   5.593   1.256   5.092
 6794SOL    HW221282   5.590   1.130   4.988
 6795SOL     OW21283   0.888   6.558   1.302
 6795SOL    HW121284   0.885   6.493   1.226
 6795SOL    HW221285   0.964   6.536   1.363
 6796SOL     OW21286   6.354   1.026   3.113
 6796SOL    HW121287   6.404   0.939   3.108
 6796SOL    HW221288   6.260   1.009   3.142
 6797SOL     OW21289   0.007   2.217   1.804
 6797SOL    HW121290   0.024   2.262   1.892
 6797SOL    HW221291   0.043   2.124   1.807
 6798SOL     OW21292   5.780   6.494   1.654
 6798SOL    HW121293   5.772   6.592   1.675
 6798SOL    HW221294   5.697   6.447   1.684
 6799SOL     OW21295   6.125   0.843   2.090
 6799SOL    HW121296   6.202   0.832   2.027
 6799SOL    HW221297   6.159   0.861   2.182
 6800SOL     OW21298   2.332   2.635   2.157
 6800SOL    HW121299   2.317   2.723   2.112
 6800SOL    HW221300   2.250   2.579   2.149
 6801SOL     OW21301   1.578   0.732   3.442
 6801SOL    HW121302   1.600   0.651   3.497
 6801SOL    HW221303   1.564   0.810   3.503
 6802SOL     OW21304   3.143   5.657   1.516
 6802SOL    HW121305   3.213   5.720   1.482
 6802SOL    HW221306   3.178   5.607   1.596
 6803SOL     OW21307   3.867   3.926   6.284
 6803SOL    HW121308   3.904   3.930   6.191
 6803SOL    HW221309   3.899   3.843   6.329
 6804SOL     OW21310   3.827   5.142   3.736
 6804SOL    HW121311   3.777   5.135   3.649
 6804SOL    HW221312   3.859   5.052   3.763
 6805SOL     OW21313   0.412   4.679   6.293
 6805SOL    HW121314   0.472   4.733   6.233
 6805SOL    HW221315   0.429   4.582   6.278
 6806SOL     OW21316   6.528   1.465   3.363
 6806SOL    HW121317   6.464   1.531   3.402
 6806SOL    HW221318   6.621   1.503   3.367
 6807SOL     OW21319   3.333   3.042   1.644
 6807SOL    HW121320   3.310   3.121   1.700
 6807SOL    HW221321   3.339   2.961   1.702
 6808SOL     OW21322   6.839   1.774   5.825
 6808SOL    HW121323   6.745   1.743   5.814
 6808SOL    HW221324   6.841   1.857   5.881
 6809SOL     OW21325   0.078   3.451   1.614
 6809SOL    HW121326   7.011   3.498   1.642
 6809SOL    HW221327   0.135   3.514   1.561
 6810SOL     OW21328   3.344   1.458   2.591
 6810SOL    HW121329   3.413   1.437   2.521
 6810SOL    HW221330   3.347   1.556   2.611
 6811SOL     OW21331   5.707   3.452   1.710
 6811SOL    HW121332   5.750   3.395   1.639
 6811SOL    HW221333   5.742   3.545   1.704
 6812SOL     OW21334   3.172   4.067   5.012
 6812SOL    HW121335   3.084   4.064   5.060
 6812SOL    HW221336   3.161   4.028   4.921
 6813SOL     OW21337   5.673   3.024   2.617
 6813SOL    HW121338   5.604   3.062   2.555
 6813SOL    HW221339   5.763   3.060   2.592
 6814SOL     OW21340   3.801   2.042   5.980
 6814SOL    HW121341   3.883   2.099   5.975
 6814SOL    HW221342   3.753   2.061   6.066
 6815SOL     OW21343   2.221   6.023   6.944
 6815SOL    HW121344   2.291   6.078   6.898
 6815SOL    HW221345   2.138   6.077   6.956
 6816SOL     OW21346   6.386   0.623   5.666
 6816SOL    HW121347   6.378   0.566   5.748
 6816SOL    HW221348   6.364   0.718   5.689
 6817SOL     OW21349   2.348   2.563   3.602
 6817SOL    HW121350   2.318   2.568   3.697
 6817SOL    HW221351   2.361   2.655   3.566
 6818SOL     OW21352   2.171   6.587   0.645
 6818SOL    HW121353   2.216   6.562   0.559
 6818SOL    HW221354   2.076   6.611   0.627
 6819SOL     OW21355   4.316   1.368   2.766
 6819SOL    HW121356   4.361   1.432   2.828
 6819SOL    HW221357   4.243   1.320   2.815
 6820SOL     OW21358   2.021   6.174   1.524
 6820SOL    HW121359   1.973   6.236   1.586
 6820SOL    HW221360   2.112   6.211   1.503
 6821SOL     OW21361   3.948   2.481   5.349
 6821SOL    HW121362   4.013   2.546   5.308
 6821SOL    HW221363   3.860   2.527   5.364
 6822SOL     OW21364   5.845   2.202   5.765
 6822SOL    HW121365   5.770   2.257   5.728
 6822SOL    HW221366   5.929   2.222   5.714
 6823SOL     OW21367   5.502   3.557   5.641
 6823SOL    HW121368   5.495   3.586   5.545
 6823SOL    HW221369   5.419   3.507   5.667
 6824SOL     OW21370   0.985   1.855   0.506
 6824SOL    HW121371   0.930   1.885   0.428
 6824SOL    HW221372   0.944   1.889   0.590
 6825SOL     OW21373   6.263   0.098   0.089
 6825SOL    HW121374   6.291   0.181   0.138
 6825SOL    HW221375   6.199   0.047   0.146
 6826SOL     OW21376   1.799   3.626   3.462
 6826SOL    HW121377   1.763   3.624   3.368
 6826SOL    HW221378   1.889   3.584   3.464
 6827SOL     OW21379   4.963   4.826   6.059
 6827SOL    HW121380   4.945   4.910   6.007
 6827SOL    HW221381   5.036   4.844   6.126
 6828SOL     OW21382   3.713   1.781   1.679
 6828SOL    HW121383   3.785   1.834   1.722
 6828SOL    HW221384   3.694   1.816   1.587
 6829SOL     OW21385   5.549   6.185   5.829
 6829SOL    HW121386   5.471   6.146   5.878
 6829SOL    HW221387   5.626   6.120   5.832
 6830SOL     OW21388   5.747   0.480   3.297
 6830SOL    HW121389   5.654   0.456   3.269
 6830SOL    HW221390   5.773   0.567   3.255
 6831SOL     OW21391   1.828   0.995   6.253
 6831SOL    HW121392   1.909   0.990   6.312
 6831SOL    HW221393   1.856   0.988   6.157
 6832SOL     OW21394   2.172   4.605   0.783
 6832SOL    HW121395   2.090   4.562   0.746
 6832SOL    HW221396   2.208   4.672   0.718
 6833SOL     OW21397   2.667   4.832   0.400
 6833SOL    HW121398   2.750   4.877   0.367
 6833SOL    HW221399   2.617   4.794   0.323
 6834SOL     OW21400   6.293   0.193   0.476
 6834SOL    HW121401   6.204   0.147   0.484
 6834SOL    HW221402   6.285   0.286   0.513
 6835SOL     OW21403   3.796   1.041   4.479
 6835SOL    HW121404   3.864   1.093   4.531
 6835SOL    HW221405   3.839   0.959   4.440
 6836SOL     OW21406   3.466   4.803   6.941
 6836SOL    HW121407   3.421   4.864   7.005
 6836SOL    HW221408   3.399   4.741   6.901
 6837SOL     OW21409   0.502   2.493   3.269
 6837SOL    HW121410   0.519   2.461   3.362
 6837SOL    HW221411   0.523   2.420   3.204
 6838SOL     OW21412   3.134   6.320   6.468
 6838SOL    HW121413   3.136   6.225   6.436
 6838SOL    HW221414   3.161   6.381   6.393
 6839SOL     OW21415   5.326   0.873   5.582
 6839SOL    HW121416   5.289   0.953   5.535
 6839SOL    HW221417   5.351   0.803   5.515
 6840SOL     OW21418   3.366   6.961   4.865
 6840SOL    HW121419   3.357   6.903   4.784
 6840SOL    HW221420   3.278   6.967   4.912
 6841SOL     OW21421   3.639   4.977   0.207
 6841SOL    HW121422   3.560   4.917   0.223
 6841SOL    HW221423   3.656   4.985   0.109
 6842SOL     OW21424   2.407   2.919   0.927
 6842SOL    HW121425   2.409   2.893   1.023
 6842SOL    HW221426   2.325   2.881   0.883
 6843SOL     OW21427   5.763   0.375   2.094
 6843SOL    HW121428   5.810   0.386   2.182
 6843SOL    HW221429   5.665   0.363   2.110
 6844SOL     OW21430   5.828   6.841   3.595
 6844SOL    HW121431   5.735   6.807   3.602
 6844SOL    HW221432   5.833   6.913   3.526
 6845SOL     OW21433   5.813   5.186   2.898
 6845SOL    HW121434   5.851   5.094   2.890
 6845SOL    HW221435   5.852   5.245   2.827
 6846SOL     OW21436   4.110   3.212   1.078
 6846SOL    HW121437   4.089   3.139   1.143
 6846SOL    HW221438   4.132   3.172   0.989
 6847SOL     OW21439   6.936   5.022   3.369
 6847SOL    HW121440   6.929   5.103   3.311
 6847SOL    HW221441   6.877   5.034   3.449
 6848SOL     OW21442   3.333   6.469   3.919
 6848SOL    HW121443   3.304   6.407   3.992
 6848SOL    HW221444   3.400   6.534   3.955
 6849SOL     OW21445   2.963   5.013   5.556
 6849SOL    HW121446   2.959   5.064   5.470
 6849SOL    HW221447   2.920   4.923   5.543
 6850SOL     OW21448   5.758   3.699   2.062
 6850SOL    HW121449   5.672   3.693   2.010
 6850SOL    HW221450   5.835   3.710   1.999
 6851SOL     OW21451   0.702   2.923   3.553
 6851SOL    HW121452   0.638   2.911   3.477
 6851SOL    HW221453   0.775   2.855   3.546
 6852SOL     OW21454   1.582   5.171   0.745
 6852SOL    HW121455   1.652   5.111   0.783
 6852SOL    HW221456   1.620   5.263   0.735
 6853SOL     OW21457   6.401   3.605   6.966
 6853SOL    HW121458   6.473   3.537   6.967
 6853SOL    HW221459   6.312   3.560   6.958
 6854SOL     OW21460   4.682   1.712   6.625
 6854SOL    HW121461   4.599   1.657   6.632
 6854SOL    HW221462   4.667   1.785   6.559
 6855SOL     OW21463   3.038   5.810   3.522
 6855SOL    HW121464   2.981   5.880   3.566
 6855SOL    HW221465   3.041   5.729   3.579
 6856SOL     OW21466   4.937   3.539   5.527
 6856SOL    HW121467   5.006   3.595   5.573
 6856SOL    HW221468   4.880   3.493   5.596
 6857SOL     OW21469   2.970   2.296   0.057
 6857SOL    HW121470   2.995   2.200   0.071
 6857SOL    HW221471   3.026   2.354   0.116
 6858SOL     OW21472   3.787   3.728   3.925
 6858SOL    HW121473   3.743   3.774   4.002
 6858SOL    HW221474   3.872   3.686   3.955
 6859SOL     OW21475   0.713   0.560   0.941
 6859SOL    HW121476   0.649   0.483   0.933
 6859SOL    HW221477   0.691   0.612   1.024
 6860SOL     OW21478   6.152   5.124   1.098
 6860SOL    HW121479   6.138   5.089   1.006
 6860SOL    HW221480   6.096   5.072   1.163
 6861SOL     OW21481   4.546   4.440   0.424
 6861SOL    HW121482   4.483   4.366   0.447
 6861SOL    HW221483   4.640   4.405   0.425
 6862SOL     OW21484   1.989   4.260   5.553
 6862SOL    HW121485   1.937   4.270   5.638
 6862SOL    HW221486   2.071   4.206   5.571
 6863SOL     OW21487   5.603   0.462   5.700
 6863SOL    HW121488   5.516   0.488   5.742
 6863SOL    HW221489   5.666   0.540   5.701
 6864SOL     OW21490   2.935   5.884   4.391
 6864SOL    HW121491   3.021   5.920   4.426
 6864SOL    HW221492   2.922   5.790   4.425
 6865SOL     OW21493   0.591   5.780   3.086
 6865SOL    HW121494   0.572   5.816   2.994
 6865SOL    HW221495   0.683   5.741   3.089
 6866SOL     OW21496   6.302   4.872   3.093
 6866SOL    HW121497   6.323   4.774   3.083
 6866SOL    HW221498   6.355   4.924   3.025
 6867SOL     OW21499   2.178   4.765   1.462
 6867SOL    HW121500   2.219   4.855   1.478
 6867SOL    HW221501   2.238   4.711   1.403
 6868SOL     OW21502   1.098   5.546   6.406
 6868SOL    HW121503   1.048   5.508   6.484
 6868SOL    HW221504   1.124   5.471   6.345
 6869SOL     OW21505   4.945   0.664   4.641
 6869SOL    HW121506   4.879   0.739   4.634
 6869SOL    HW221507   5.032   0.692   4.600
 6870SOL     OW21508   6.645   4.725   2.217
 6870SOL    HW121509   6.710   4.780   2.165
 6870SOL    HW221510   6.585   4.675   2.154
 6871SOL     OW21511   6.393   4.621   3.045
 6871SOL    HW121512   6.478   4.619   2.992
 6871SOL    HW221513   6.344   4.535   3.032
 6872SOL     OW21514   0.759   3.047   1.498
 6872SOL    HW121515   0.713   3.073   1.413
 6872SOL    HW221516   0.692   3.049   1.573
 6873SOL     OW21517   6.814   4.112   5.000
 6873SOL    HW121518   6.785   4.141   5.092
 6873SOL    HW221519   6.782   4.177   4.932
 6874SOL     OW21520   0.694   5.863   1.983
 6874SOL    HW121521   0.785   5.891   2.014
 6874SOL    HW221522   0.693   5.764   1.968
 6875SOL     OW21523   1.699   2.469   3.424
 6875SOL    HW121524   1.603   2.459   3.452
 6875SOL    HW221525   1.704   2.531   3.346
 6876SOL     OW21526   3.772   6.208   3.739
 6876SOL    HW121527   3.801   6.205   3.835
 6876SOL    HW221528   3.679   6.244   3.734
 6877SOL     OW21529   2.382   3.729   0.886
 6877SOL    HW121530   2.362   3.763   0.978
 6877SOL    HW221531   2.333   3.784   0.819
 6878SOL     OW21532   3.261   1.372   5.154
 6878SOL    HW121533   3.265   1.274   5.175
 6878SOL    HW221534   3.206   1.418   5.224
 6879SOL     OW21535   1.151   2.118   0.180
 6879SOL    HW121536   1.166   2.072   0.268
 6879SOL    HW221537   1.094   2.060   0.122
 6880SOL     OW21538   1.873   4.359   5.350
 6880SOL    HW121539   1.907   4.307   5.428
 6880SOL    HW221540   1.938   4.352   5.274
 6881SOL     OW21541   1.089   3.670   1.630
 6881SOL    HW121542   1.161   3.735   1.604
 6881SOL    HW221543   1.129   3.579   1.641
 6882SOL     OW21544   3.111   0.602   6.819
 6882SOL    HW121545   3.083   0.506   6.832
 6882SOL    HW221546   3.101   0.626   6.723
 6883SOL     OW21547   4.372   1.358   0.431
 6883SOL    HW121548   4.354   1.340   0.527
 6883SOL    HW221549   4.287   1.345   0.379
 6884SOL     OW21550   2.119   4.459   4.397
 6884SOL    HW121551   2.049   4.420   4.337
 6884SOL    HW221552   2.196   4.397   4.403
 6885SOL     OW21553   3.628   5.328   3.772
 6885SOL    HW121554   3.644   5.387   3.851
 6885SOL    HW221555   3.701   5.260   3.766
 6886SOL     OW21556   6.554   0.186   4.633
 6886SOL    HW121557   6.650   0.215   4.624
 6886SOL    HW221558   6.550   0.086   4.638
 6887SOL     OW21559   5.332   6.065   5.959
 6887SOL    HW121560   5.344   6.087   6.056
 6887SOL    HW221561   5.235   6.064   5.937
 6888SOL     OW21562   5.326   6.232   6.706
 6888SOL    HW121563   5.417   6.272   6.696
 6888SOL    HW221564   5.259   6.290   6.659
 6889SOL     OW21565   1.874   2.045   4.861
 6889SOL    HW121566   1.850   2.058   4.765
 6889SOL    HW221567   1.974   2.037   4.870
 6890SOL     OW21568   3.870   6.272   1.651
 6890SOL    HW121569   3.956   6.306   1.690
 6890SOL    HW221570   3.793   6.323   1.689
 6891SOL     OW21571   2.028   4.238   3.510
 6891SOL    HW121572   1.987   4.248   3.600
 6891SOL    HW221573   2.127   4.235   3.519
 6892SOL     OW21574   3.055   2.185   3.450
 6892SOL    HW121575   3.035   2.091   3.422
 6892SOL    HW221576   3.029   2.198   3.546
 6893SOL     OW21577   4.362   4.399   6.746
 6893SOL    HW121578   4.291   4.464   6.720
 6893SOL    HW221579   4.445   4.448   6.772
 6894SOL     OW21580   6.147   4.783   0.202
 6894SOL    HW121581   6.123   4.848   0.130
 6894SOL    HW221582   6.114   4.692   0.178
 6895SOL     OW21583   2.452   5.829   0.222
 6895SOL    HW121584   2.381   5.818   0.152
 6895SOL    HW221585   2.542   5.828   0.178
 6896SOL     OW21586   1.692   0.072   3.426
 6896SOL    HW121587   1.640   0.145   3.381
 6896SOL    HW221588   1.781   0.108   3.456
 6897SOL     OW21589   3.463   3.599   6.529
 6897SOL    HW121590   3.386   3.565   6.583
 6897SOL    HW221591   3.445   3.580   6.432
 6898SOL     OW21592   3.891   1.608   1.954
 6898SOL    HW121593   3.833   1.689   1.959
 6898SOL    HW221594   3.835   1.528   1.933
 6899SOL     OW21595   5.949   6.674   0.984
 6899SOL    HW121596   5.891   6.715   0.913
 6899SOL    HW221597   5.979   6.584   0.954
 6900SOL     OW21598   6.713   6.375   5.738
 6900SOL    HW121599   6.697   6.469   5.767
 6900SOL    HW221600   6.782   6.333   5.797
 6901SOL     OW21601   0.409   6.113   6.062
 6901SOL    HW121602   0.312   6.135   6.066
 6901SOL    HW221603   0.422   6.027   6.014
 6902SOL     OW21604   6.026   5.923   7.001
 6902SOL    HW121605   5.994   5.927   0.078
 6902SOL    HW221606   5.989   6.001   6.950
 6903SOL     OW21607   3.272   5.593   4.377
 6903SOL    HW121608   3.302   5.662   4.311
 6903SOL    HW221609   3.244   5.639   4.461
 6904SOL     OW21610   6.151   1.027   4.506
 6904SOL    HW121611   6.204   0.949   4.473
 6904SOL    HW221612   6.163   1.036   4.605
 6905SOL     OW21613   5.956   6.124   6.508
 6905SOL    HW121614   5.983   6.128   6.412
 6905SOL    HW221615   6.023   6.173   6.564
 6906SOL     OW21616   4.988   1.023   3.692
 6906SOL    HW121617   5.038   1.099   3.735
 6906SOL    HW221618   4.945   1.055   3.608
 6907SOL     OW21619   5.267   2.457   1.253
 6907SOL    HW121620   5.170   2.461   1.227
 6907SOL    HW221621   5.310   2.544   1.234
 6908SOL     OW21622   0.905   5.820   6.315
 6908SOL    HW121623   0.847   5.896   6.344
 6908SOL    HW221624   0.860   5.733   6.339
 6909SOL     OW21625   6.203   4.421   1.333
 6909SOL    HW121626   6.296   4.386   1.322
 6909SOL    HW221627   6.205   4.506   1.385
 6910SOL     OW21628   6.667   2.688   3.423
 6910SOL    HW121629   6.681   2.607   3.366
 6910SOL    HW221630   6.591   2.672   3.486
 6911SOL     OW21631   4.106   5.973   3.729
 6911SOL    HW121632   4.045   5.987   3.808
 6911SOL    HW221633   4.123   6.062   3.686
 6912SOL     OW21634   3.019   5.590   0.519
 6912SOL    HW121635   3.098   5.623   0.572
 6912SOL    HW221636   2.988   5.503   0.555
 6913SOL     OW21637   4.731   5.095   4.856
 6913SOL    HW121638   4.741   5.195   4.848
 6913SOL    HW221639   4.738   5.069   4.952
 6914SOL     OW21640   6.388   4.089   5.615
 6914SOL    HW121641   6.465   4.026   5.617
 6914SOL    HW221642   6.421   4.181   5.596
 6915SOL     OW21643   6.005   3.561   1.479
 6915SOL    HW121644   5.962   3.485   1.529
 6915SOL    HW221645   6.049   3.526   1.396
 6916SOL     OW21646   6.972   3.516   0.061
 6916SOL    HW121647   0.005   3.602   0.054
 6916SOL    HW221648   6.981   3.465   6.993
 6917SOL     OW21649   2.804   6.076   0.938
 6917SOL    HW121650   2.834   6.003   0.999
 6917SOL    HW221651   2.826   6.052   0.843
 6918SOL     OW21652   6.873   3.114   4.642
 6918SOL    HW121653   6.775   3.133   4.641
 6918SOL    HW221654   6.919   3.175   4.707
 6919SOL     OW21655   0.406   6.272   2.300
 6919SOL    HW121656   0.482   6.280   2.236
 6919SOL    HW221657   0.320   6.264   2.249
 6920SOL     OW21658   4.763   5.027   5.514
 6920SOL    HW121659   4.858   5.055   5.508
 6920SOL    HW221660   4.728   5.046   5.606
 6921SOL     OW21661   5.575   5.924   2.959
 6921SOL    HW121662   5.622   5.920   2.871
 6921SOL    HW221663   5.590   5.838   3.008
 6922SOL     OW21664   1.956   6.001   5.960
 6922SOL    HW121665   2.036   5.967   6.008
 6922SOL    HW221666   1.977   6.012   5.863
 6923SOL     OW21667   4.519   5.401   3.551
 6923SOL    HW121668   4.432   5.437   3.582
 6923SOL    HW221669   4.519   5.396   3.451
 6924SOL     OW21670   2.038   4.217   6.819
 6924SOL    HW121671   1.969   4.146   6.823
 6924SOL    HW221672   2.120   4.182   6.773
 6925SOL     OW21673   4.287   6.152   4.885
 6925SOL    HW121674   4.239   6.115   4.806
 6925SOL    HW221675   4.386   6.145   4.871
 6926SOL     OW21676   3.348   2.859   1.323
 6926SOL    HW121677   3.320   2.955   1.326
 6926SOL    HW221678   3.348   2.828   1.228
 6927SOL     OW21679   5.100   2.731   6.232
 6927SOL    HW121680   5.179   2.724   6.172
 6927SOL    HW221681   5.124   2.787   6.312
 6928SOL     OW21682   6.458   5.939   1.178
 6928SOL    HW121683   6.556   5.924   1.166
 6928SOL    HW221684   6.444   6.023   1.231
 6929SOL     OW21685   5.573   4.873   0.697
 6929SOL    HW121686   5.669   4.853   0.677
 6929SOL    HW221687   5.515   4.827   0.629
 6930SOL     OW21688   0.439   6.224   2.010
 6930SOL    HW121689   0.497   6.243   1.930
 6930SOL    HW221690   0.355   6.278   2.003
 6931SOL     OW21691   1.926   0.721   2.180
 6931SOL    HW121692   1.864   0.659   2.133
 6931SOL    HW221693   1.987   0.764   2.113
 6932SOL     OW21694   4.108   6.731   0.717
 6932SOL    HW121695   4.029   6.710   0.659
 6932SOL    HW221696   4.113   6.663   0.791
 6933SOL     OW21697   2.896   6.490   4.457
 6933SOL    HW121698   2.807   6.463   4.494
 6933SOL    HW221699   2.893   6.587   4.430
 6934SOL     OW21700   4.652   3.584   6.051
 6934SOL    HW121701   4.725   3.650   6.068
 6934SOL    HW221702   4.581   3.627   5.995
 6935SOL     OW21703   4.215   4.728   2.979
 6935SOL    HW121704   4.283   4.700   2.912
 6935SOL    HW221705   4.149   4.790   2.937
 6936SOL     OW21706   6.282   2.226   4.268
 6936SOL    HW121707   6.292   2.321   4.299
 6936SOL    HW221708   6.211   2.181   4.323
 6937SOL     OW21709   0.120   6.378   0.405
 6937SOL    HW121710   0.119   6.280   0.428
 6937SOL    HW221711   0.141   6.389   0.308
 6938SOL     OW21712   5.171   3.290   5.571
 6938SOL    HW121713   5.152   3.386   5.590
 6938SOL    HW221714   5.091   3.248   5.527
 6939SOL     OW21715   0.661   4.638   2.303
 6939SOL    HW121716   0.584   4.575   2.296
 6939SOL    HW221717   0.736   4.594   2.352
 6940SOL     OW21718   4.667   0.881   0.186
 6940SOL    HW121719   4.711   0.933   0.113
 6940SOL    HW221720   4.652   0.787   0.155
 6941SOL     OW21721   3.819   3.341   1.980
 6941SOL    HW121722   3.895   3.339   2.046
 6941SOL    HW221723   3.856   3.360   1.889
 6942SOL     OW21724   5.445   1.137   1.740
 6942SOL    HW121725   5.413   1.068   1.804
 6942SOL    HW221726   5.383   1.216   1.742
 6943SOL     OW21727   4.286   6.197   6.796
 6943SOL    HW121728   4.273   6.098   6.805
 6943SOL    HW221729   4.262   6.226   6.704
 6944SOL     OW21730   0.949   3.871   7.017
 6944SOL    HW121731   0.859   3.827   0.001
 6944SOL    HW221732   0.995   3.858   0.087
 6945SOL     OW21733   6.418   2.082   6.441
 6945SOL    HW121734   6.353   2.008   6.459
 6945SOL    HW221735   6.367   2.168   6.430
 6946SOL     OW21736   6.092   6.258   1.117
 6946SOL    HW121737   6.151   6.199   1.063
 6946SOL    HW221738   6.040   6.318   1.056
 6947SOL     OW21739   3.621   6.216   6.192
 6947SOL    HW121740   3.633   6.134   6.248
 6947SOL    HW221741   3.609   6.190   6.096
 6948SOL     OW21742   6.832   0.157   6.760
 6948SOL    HW121743   6.811   0.134   6.855
 6948SOL    HW221744   6.820   0.255   6.745
 6949SOL     OW21745   5.116   6.449   2.942
 6949SOL    HW121746   5.059   6.432   2.862
 6949SOL    HW221747   5.072   6.518   3.000
 6950SOL     OW21748   2.398   1.140   4.767
 6950SOL    HW121749   2.406   1.216   4.831
 6950SOL    HW221750   2.489   1.110   4.738
 6951SOL     OW21751   6.751   5.607   5.327
 6951SOL    HW121752   6.651   5.607   5.330
 6951SOL    HW221753   6.783   5.699   5.304
 6952SOL     OW21754   0.796   6.329   3.852
 6952SOL    HW121755   0.877   6.332   3.910
 6952SOL    HW221756   0.793   6.243   3.802
 6953SOL     OW21757   5.320   6.454   0.378
 6953SOL    HW121758   5.349   6.549   0.362
 6953SOL    HW221759   5.226   6.454   0.414
 6954SOL     OW21760   0.158   3.930   3.642
 6954SOL    HW121761   0.209   3.902   3.724
 6954SOL    HW221762   0.217   3.921   3.562
 6955SOL     OW21763   6.710   0.723   2.447
 6955SOL    HW121764   6.778   0.653   2.468
 6955SOL    HW221765   6.629   0.708   2.503
 6956SOL     OW21766   5.004   5.668   3.023
 6956SOL    HW121767   5.011   5.569   3.028
 6956SOL    HW221768   4.928   5.699   3.081
 6957SOL     OW21769   6.146   5.035   0.802
 6957SOL    HW121770   6.062   5.089   0.806
 6957SOL    HW221771   6.132   4.949   0.851
 6958SOL     OW21772   2.883   3.393   4.412
 6958SOL    HW121773   2.794   3.403   4.455
 6958SOL    HW221774   2.921   3.303   4.436
 6959SOL     OW21775   1.869   1.818   4.409
 6959SOL    HW121776   1.920   1.735   4.431
 6959SOL    HW221777   1.920   1.872   4.343
 6960SOL     OW21778   2.576   5.149   1.661
 6960SOL    HW121779   2.618   5.167   1.750
 6960SOL    HW221780   2.481   5.182   1.661
 6961SOL     OW21781   5.640   2.056   4.092
 6961SOL    HW121782   5.696   2.070   4.010
 6961SOL    HW221783   5.545   2.082   4.073
 6962SOL     OW21784   4.727   6.175   1.844
 6962SOL    HW121785   4.672   6.256   1.824
 6962SOL    HW221786   4.738   6.121   1.760
 6963SOL     OW21787   5.542   5.958   1.309
 6963SOL    HW121788   5.507   5.972   1.217
 6963SOL    HW221789   5.499   6.022   1.372
 6964SOL     OW21790   3.514   0.383   4.716
 6964SOL    HW121791   3.440   0.317   4.727
 6964SOL    HW221792   3.602   0.337   4.727
 6965SOL     OW21793   0.898   3.201   1.190
 6965SOL    HW121794   0.815   3.146   1.197
 6965SOL    HW221795   0.912   3.251   1.275
 6966SOL     OW21796   6.925   2.561   3.071
 6966SOL    HW121797   6.994   2.617   3.117
 6966SOL    HW221798   6.963   2.470   3.053
 6967SOL     OW21799   2.404   6.491   5.317
 6967SOL    HW121800   2.438   6.403   5.283
 6967SOL    HW221801   2.343   6.532   5.249
 6968SOL     OW21802   4.593   6.608   2.593
 6968SOL    HW121803   4.543   6.570   2.515
 6968SOL    HW221804   4.555   6.572   2.678
 6969SOL     OW21805   2.854   2.168   1.350
 6969SOL    HW121806   2.933   2.212   1.308
 6969SOL    HW221807   2.825   2.220   1.430
 6970SOL     OW21808   3.152   4.430   6.529
 6970SOL    HW121809   3.126   4.510   6.582
 6970SOL    HW221810   3.079   4.362   6.532
 6971SOL     OW21811   6.075   4.451   1.991
 6971SOL    HW121812   6.077   4.501   2.077
 6971SOL    HW221813   6.069   4.353   2.009
 6972SOL     OW21814   4.847   3.847   3.269
 6972SOL    HW121815   4.774   3.897   3.223
 6972SOL    HW221816   4.882   3.775   3.209
 6973SOL     OW21817   0.486   2.947   4.469
 6973SOL    HW121818   0.554   2.931   4.541
 6973SOL    HW221819   0.394   2.930   4.506
 6974SOL     OW21820   3.225   4.041   2.215
 6974SOL    HW121821   3.298   4.028   2.148
 6974SOL    HW221822   3.169   4.119   2.189
 6975SOL     OW21823   2.061   6.463   6.416
 6975SOL    HW121824   2.004   6.460   6.498
 6975SOL    HW221825   2.142   6.517   6.434
 6976SOL     OW21826   4.872   5.970   5.007
 6976SOL    HW121827   4.835   5.879   4.992
 6976SOL    HW221828   4.951   5.965   5.067
 6977SOL     OW21829   4.239   2.586   1.582
 6977SOL    HW121830   4.326   2.565   1.537
 6977SOL    HW221831   4.221   2.684   1.578
 6978SOL     OW21832   4.495   1.103   2.734
 6978SOL    HW121833   4.496   1.184   2.676
 6978SOL    HW221834   4.528   1.024   2.682
 6979SOL     OW21835   0.835   4.153   1.320
 6979SOL    HW121836   0.894   4.218   1.273
 6979SOL    HW221837   0.741   4.161   1.286
 6980SOL     OW21838   1.583   1.448   3.691
 6980SOL    HW121839   1.588   1.401   3.603
 6980SOL    HW221840   1.603   1.384   3.764
 6981SOL     OW21841   3.837   2.609   5.607
 6981SOL    HW121842   3.808   2.598   5.512
 6981SOL    HW221843   3.825   2.522   5.656
 6982SOL     OW21844   1.390   0.745   4.223
 6982SOL    HW121845   1.387   0.653   4.262
 6982SOL    HW221846   1.299   0.786   4.226
 6983SOL     OW21847   3.947   2.097   3.764
 6983SOL    HW121848   4.000   2.014   3.777
 6983SOL    HW221849   3.994   2.174   3.805
 6984SOL     OW21850   2.609   1.793   3.668
 6984SOL    HW121851   2.568   1.778   3.758
 6984SOL    HW221852   2.688   1.854   3.677
 6985SOL     OW21853   4.669   5.185   2.004
 6985SOL    HW121854   4.645   5.150   2.094
 6985SOL    HW221855   4.742   5.254   2.013
 6986SOL     OW21856   1.771   6.850   6.479
 6986SOL    HW121857   1.731   6.931   6.436
 6986SOL    HW221858   1.725   6.768   6.444
 6987SOL     OW21859   6.423   1.587   5.557
 6987SOL    HW121860   6.438   1.491   5.582
 6987SOL    HW221861   6.332   1.598   5.517
 6988SOL     OW21862   0.431   0.281   5.372
 6988SOL    HW121863   0.358   0.255   5.435
 6988SOL    HW221864   0.500   0.333   5.422
 6989SOL     OW21865   0.944   4.371   2.935
 6989SOL    HW121866   0.918   4.327   3.021
 6989SOL    HW221867   1.013   4.315   2.888
 6990SOL     OW21868   4.972   2.723   1.246
 6990SOL    HW121869   4.985   2.821   1.231
 6990SOL    HW221870   4.876   2.706   1.270
 6991SOL     OW21871   3.236   4.889   3.340
 6991SOL    HW121872   3.143   4.878   3.306
 6991SOL    HW221873   3.233   4.913   3.437
 6992SOL     OW21874   5.088   6.130   6.364
 6992SOL    HW121875   5.176   6.115   6.319
 6992SOL    HW221876   5.032   6.192   6.308
 6993SOL     OW21877   6.051   0.822   2.990
 6993SOL    HW121878   5.998   0.896   2.949
 6993SOL    HW221879   5.989   0.751   3.025
 6994SOL     OW21880   0.353   2.568   4.353
 6994SOL    HW121881   0.346   2.650   4.295
 6994SOL    HW221882   0.393   2.493   4.299
 6995SOL     OW21883   7.011   4.459   6.134
 6995SOL    HW121884   0.003   4.463   6.034
 6995SOL    HW221885   0.058   4.392   6.171
 6996SOL     OW21886   1.347   0.246   6.587
 6996SOL    HW121887   1.279   0.184   6.548
 6996SOL    HW221888   1.303   0.332   6.612
 6997SOL     OW21889   0.022   5.617   5.130
 6997SOL    HW121890   0.038   5.708   5.091
 6997SOL    HW221891   0.067   5.610   5.219
 6998SOL     OW21892   2.256   1.051   1.919
 6998SOL    HW121893   2.254   1.141   1.965
 6998SOL    HW221894   2.241   1.064   1.821
 6999SOL     OW21895   2.576   2.281   5.983
 6999SOL    HW121896   2.524   2.362   6.010
 6999SOL    HW221897   2.673   2.303   5.982
 7000SOL     OW21898   5.443   6.214   1.497
 7000SOL    HW121899   5.393   6.291   1.458
 7000SOL    HW221900   5.492   6.244   1.579
 7001SOL     OW21901   1.939   2.591   5.339
 7001SOL    HW121902   1.842   2.570   5.325
 7001SOL    HW221903   1.981   2.613   5.251
 7002SOL     OW21904   1.839   5.583   3.770
 7002SOL    HW121905   1.885   5.495   3.782
 7002SOL    HW221906   1.789   5.583   3.684
 7003SOL     OW21907   3.887   5.168   0.488
 7003SOL    HW121908   3.970   5.153   0.542
 7003SOL    HW221909   3.890   5.112   0.406
 7004SOL     OW21910   1.075   4.661   2.574
 7004SOL    HW121911   1.039   4.709   2.654
 7004SOL    HW221912   1.067   4.720   2.494
 7005SOL     OW21913   1.711   0.509   0.294
 7005SOL    HW121914   1.757   0.592   0.261
 7005SOL    HW221915   1.729   0.498   0.391
 7006SOL     OW21916   5.015   4.898   3.831
 7006SOL    HW121917   5.050   4.831   3.897
 7006SOL    HW221918   5.067   4.891   3.746
 7007SOL     OW21919   5.409   0.153   3.296
 7007SOL    HW121920   5.384   0.090   3.223
 7007SOL    HW221921   5.344   0.143   3.372
 7008SOL     OW21922   1.025   4.141   4.760
 7008SOL    HW121923   0.986   4.078   4.692
 7008SOL    HW221924   0.982   4.125   4.849
 7009SOL     OW21925   5.745   6.343   2.155
 7009SOL    HW121926   5.812   6.336   2.081
 7009SOL    HW221927   5.792   6.354   2.242
 7010SOL     OW21928   5.377   4.748   4.220
 7010SOL    HW121929   5.377   4.799   4.134
 7010SOL    HW221930   5.345   4.654   4.203
 7011SOL     OW21931   3.586   6.826   6.776
 7011SOL    HW121932   3.588   6.800   6.679
 7011SOL    HW221933   3.567   6.924   6.784
 7012SOL     OW21934   1.618   2.231   1.464
 7012SOL    HW121935   1.556   2.310   1.469
 7012SOL    HW221936   1.704   2.259   1.421
 7013SOL     OW21937   0.617   0.482   0.390
 7013SOL    HW121938   0.546   0.417   0.364
 7013SOL    HW221939   0.611   0.501   0.488
 7014SOL     OW21940   4.214   3.438   0.937
 7014SOL    HW121941   4.177   3.353   0.974
 7014SOL    HW221942   4.160   3.516   0.971
 7015SOL     OW21943   5.639   5.015   2.306
 7015SOL    HW121944   5.688   4.969   2.232
 7015SOL    HW221945   5.543   4.987   2.304
 7016SOL     OW21946   3.722   4.635   1.364
 7016SOL    HW121947   3.734   4.608   1.459
 7016SOL    HW221948   3.659   4.713   1.359
 7017SOL     OW21949   2.010   4.860   2.003
 7017SOL    HW121950   2.035   4.765   1.981
 7017SOL    HW221951   2.093   4.911   2.027
 7018SOL     OW21952   5.577   3.962   4.279
 7018SOL    HW121953   5.502   3.939   4.217
 7018SOL    HW221954   5.647   3.891   4.274
 7019SOL     OW21955   3.220   4.021   0.243
 7019SOL    HW121956   3.247   4.092   0.308
 7019SOL    HW221957   3.296   4.004   0.180
 7020SOL     OW21958   6.706   5.414   0.051
 7020SOL    HW121959   6.745   5.351   0.118
 7020SOL    HW221960   6.609   5.394   0.039
 7021SOL     OW21961   1.334   1.654   5.684
 7021SOL    HW121962   1.326   1.558   5.654
 7021SOL    HW221963   1.423   1.690   5.657
 7022SOL     OW21964   4.934   0.079   6.309
 7022SOL    HW121965   5.018   0.059   6.359
 7022SOL    HW221966   4.955   0.090   6.212
 7023SOL     OW21967   0.383   1.936   4.473
 7023SOL    HW121968   0.443   1.865   4.434
 7023SOL    HW221969   0.429   1.979   4.551
 7024SOL     OW21970   2.562   3.942   5.360
 7024SOL    HW121971   2.499   3.960   5.285
 7024SOL    HW221972   2.607   4.027   5.387
 7025SOL     OW21973   2.857   1.472   0.355
 7025SOL    HW121974   2.885   1.440   0.264
 7025SOL    HW221975   2.868   1.398   0.421
 7026SOL     OW21976   3.445   1.750   2.129
 7026SOL    HW121977   3.349   1.723   2.127
 7026SOL    HW221978   3.453   1.849   2.118
 7027SOL     OW21979   2.352   5.574   4.228
 7027SOL    HW121980   2.284   5.524   4.175
 7027SOL    HW221981   2.316   5.592   4.319
 7028SOL     OW21982   3.892   1.119   3.876
 7028SOL    HW121983   3.982   1.133   3.917
 7028SOL    HW221984   3.861   1.203   3.833
 7029SOL     OW21985   4.970   4.707   5.257
 7029SOL    HW121986   4.926   4.675   5.173
 7029SOL    HW221987   4.901   4.716   5.329
 7030SOL     OW21988   1.492   1.123   5.152
 7030SOL    HW121989   1.405   1.084   5.181
 7030SOL    HW221990   1.559   1.049   5.141
 7031SOL     OW21991   2.666   5.931   4.869
 7031SOL    HW121992   2.581   5.983   4.872
 7031SOL    HW221993   2.700   5.916   4.961
 7032SOL     OW21994   4.128   0.570   3.161
 7032SOL    HW121995   4.059   0.512   3.118
 7032SOL    HW221996   4.137   0.545   3.257
 7033SOL     OW21997   1.351   2.330   3.959
 7033SOL    HW121998   1.402   2.364   3.880
 7033SOL    HW221999   1.257   2.311   3.932
 7034SOL     OW22000   6.252   0.544   3.883
 7034SOL    HW122001   6.155   0.524   3.868
 7034SOL    HW222002   6.290   0.587   3.801
 7035SOL     OW22003   1.429   6.403   1.580
 7035SOL    HW122004   1.383   6.434   1.497
 7035SOL    HW222005   1.394   6.454   1.658
 7036SOL     OW22006   0.489   0.507   2.840
 7036SOL    HW122007   0.441   0.581   2.793
 7036SOL    HW222008   0.437   0.422   2.831
 7037SOL     OW22009   1.676   1.653   6.661
 7037SOL    HW122010   1.775   1.671   6.661
 7037SOL    HW222011   1.650   1.608   6.576
 7038SOL     OW22012   2.813   3.193   5.831
 7038SOL    HW122013   2.892   3.254   5.826
 7038SOL    HW222014   2.846   3.099   5.843
 7039SOL     OW22015   3.106   5.057   2.025
 7039SOL    HW122016   3.194   5.084   2.066
 7039SOL    HW222017   3.119   4.977   1.967
 7040SOL     OW22018   6.175   1.750   5.310
 7040SOL    HW122019   6.217   1.833   5.346
 7040SOL    HW222020   6.238   1.706   5.245
 7041SOL     OW22021   6.729   1.901   1.921
 7041SOL    HW122022   6.640   1.865   1.946
 7041SOL    HW222023   6.795   1.825   1.914
 7042SOL     OW22024   4.683   4.864   5.316
 7042SOL    HW122025   4.585   4.845   5.317
 7042SOL    HW222026   4.710   4.904   5.404
 7043SOL     OW22027   1.981   3.858   2.856
 7043SOL    HW122028   1.940   3.767   2.862
 7043SOL    HW222029   1.976   3.890   2.761
 7044SOL     OW22030   4.450   4.528   4.045
 7044SOL    HW122031   4.449   4.624   4.072
 7044SOL    HW222032   4.375   4.509   3.982
 7045SOL     OW22033   4.805   5.771   3.177
 7045SOL    HW122034   4.815   5.752   3.274
 7045SOL    HW222035   4.708   5.776   3.154
 7046SOL     OW22036   3.358   0.829   3.285
 7046SOL    HW122037   3.287   0.809   3.217
 7046SOL    HW222038   3.446   0.842   3.238
 7047SOL     OW22039   6.912   1.972   2.637
 7047SOL    HW122040   6.934   2.044   2.703
 7047SOL    HW222041   6.996   1.922   2.615
 7048SOL     OW22042   5.575   6.112   3.157
 7048SOL    HW122043   5.634   6.056   3.214
 7048SOL    HW222044   5.575   6.076   3.063
 7049SOL     OW22045   3.801   1.779   0.708
 7049SOL    HW122046   3.869   1.768   0.781
 7049SOL    HW222047   3.822   1.714   0.634
 7050SOL     OW22048   4.424   3.580   1.218
 7050SOL    HW122049   4.431   3.565   1.119
 7050SOL    HW222050   4.397   3.675   1.236
 7051SOL     OW22051   6.824   0.346   1.718
 7051SOL    HW122052   6.902   0.286   1.735
 7051SOL    HW222053   6.756   0.333   1.790
 7052SOL     OW22054   5.697   2.737   3.406
 7052SOL    HW122055   5.698   2.836   3.425
 7052SOL    HW222056   5.742   2.720   3.318
 7053SOL     OW22057   0.980   3.258   5.655
 7053SOL    HW122058   1.064   3.205   5.666
 7053SOL    HW222059   0.924   3.250   5.738
 7054SOL     OW22060   0.976   6.612   0.374
 7054SOL    HW122061   0.952   6.519   0.403
 7054SOL    HW222062   1.076   6.619   0.369
 7055SOL     OW22063   2.829   0.005   5.245
 7055SOL    HW122064   2.863   6.960   5.176
 7055SOL    HW222065   2.730   0.018   5.234
 7056SOL     OW22066   6.435   4.598   2.101
 7056SOL    HW122067   6.438   4.498   2.111
 7056SOL    HW222068   6.401   4.621   2.010
 7057SOL     OW22069   1.623   5.592   3.969
 7057SOL    HW122070   1.590   5.675   4.014
 7057SOL    HW222071   1.681   5.617   3.891
 7058SOL     OW22072   5.854   4.729   5.647
 7058SOL    HW122073   5.826   4.633   5.653
 7058SOL    HW222074   5.775   4.786   5.627
 7059SOL     OW22075   6.574   1.295   3.920
 7059SOL    HW122076   6.593   1.393   3.922
 7059SOL    HW222077   6.495   1.276   3.978
 7060SOL     OW22078   4.148   0.241   1.439
 7060SOL    HW122079   4.223   0.190   1.396
 7060SOL    HW222080   4.061   0.210   1.400
 7061SOL     OW22081   0.564   2.856   3.332
 7061SOL    HW122082   0.468   2.833   3.320
 7061SOL    HW222083   0.607   2.869   3.242
 7062SOL     OW22084   4.072   0.938   5.331
 7062SOL    HW122085   4.016   1.011   5.369
 7062SOL    HW222086   4.125   0.895   5.403
 7063SOL     OW22087   1.559   0.097   1.847
 7063SOL    HW122088   1.620   0.149   1.907
 7063SOL    HW222089   1.531   0.154   1.771
 7064SOL     OW22090   4.190   1.891   0.754
 7064SOL    HW122091   4.132   1.918   0.677
 7064SOL    HW222092   4.265   1.833   0.721
 7065SOL     OW22093   4.006   3.929   5.731
 7065SOL    HW122094   3.962   3.992   5.667
 7065SOL    HW222095   4.048   3.854   5.679
 7066SOL     OW22096   4.652   0.764   6.656
 7066SOL    HW122097   4.718   0.719   6.596
 7066SOL    HW222098   4.582   0.698   6.684
 7067SOL     OW22099   1.897   2.883   5.084
 7067SOL    HW122100   1.821   2.891   5.150
 7067SOL    HW222101   1.885   2.951   5.012
 7068SOL     OW22102   6.462   4.368   4.485
 7068SOL    HW122103   6.472   4.309   4.405
 7068SOL    HW222104   6.505   4.457   4.466
 7069SOL     OW22105   5.520   1.628   4.320
 7069SOL    HW122106   5.519   1.724   4.295
 7069SOL    HW222107   5.533   1.619   4.419
 7070SOL     OW22108   0.014   6.436   4.619
 7070SOL    HW122109   6.997   6.529   4.607
 7070SOL    HW222110   0.082   6.417   4.549
 7071SOL     OW22111   3.023   5.749   6.076
 7071SOL    HW122112   3.035   5.719   6.171
 7071SOL    HW222113   3.037   5.848   6.070
 7072SOL     OW22114   1.719   6.500   0.085
 7072SOL    HW122115   1.636   6.551   0.063
 7072SOL    HW222116   1.733   6.501   0.184
 7073SOL     OW22117   4.986   6.656   4.341
 7073SOL    HW122118   4.965   6.689   4.248
 7073SOL    HW222119   4.948   6.720   4.408
 7074SOL     OW22120   5.086   2.417   1.581
 7074SOL    HW122121   5.087   2.370   1.669
 7074SOL    HW222122   5.100   2.515   1.596
 7075SOL     OW22123   1.924   3.883   5.587
 7075SOL    HW122124   1.974   3.940   5.522
 7075SOL    HW222125   1.857   3.827   5.536
 7076SOL     OW22126   5.813   2.256   6.034
 7076SOL    HW122127   5.877   2.323   6.072
 7076SOL    HW222128   5.830   2.244   5.936
 7077SOL     OW22129   2.574   4.836   3.720
 7077SOL    HW122130   2.673   4.847   3.713
 7077SOL    HW222131   2.554   4.759   3.780
 7078SOL     OW22132   7.009   6.703   1.669
 7078SOL    HW122133   6.991   6.801   1.681
 7078SOL    HW222134   0.070   6.691   1.608
 7079SOL     OW22135   0.049   5.932   4.095
 7079SOL    HW122136   6.993   5.868   4.075
 7079SOL    HW222137   0.063   5.939   4.194
 7080SOL     OW22138   3.419   0.974   5.039
 7080SOL    HW122139   3.414   1.022   4.951
 7080SOL    HW222140   3.423   0.875   5.022
 7081SOL     OW22141   2.917   6.744   6.770
 7081SOL    HW122142   2.845   6.744   6.701
 7081SOL    HW222143   2.927   6.652   6.808
 7082SOL     OW22144   6.640   3.905   7.004
 7082SOL    HW122145   6.570   3.866   0.046
 7082SOL    HW222146   6.719   3.933   0.040
 7083SOL     OW22147   2.580   0.385   0.892
 7083SOL    HW122148   2.574   0.289   0.919
 7083SOL    HW222149   2.505   0.436   0.934
 7084SOL     OW22150   0.251   5.664   5.773
 7084SOL    HW122151   0.189   5.609   5.717
 7084SOL    HW222152   0.325   5.699   5.716
 7085SOL     OW22153   1.070   1.275   1.940
 7085SOL    HW122154   0.981   1.319   1.932
 7085SOL    HW222155   1.086   1.216   1.861
 7086SOL     OW22156   5.195   0.030   5.304
 7086SOL    HW122157   5.268   0.095   5.284
 7086SOL    HW222158   5.147   0.058   5.387
 7087SOL     OW22159   6.361   4.062   4.747
 7087SOL    HW122160   6.320   4.104   4.666
 7087SOL    HW222161   6.351   3.963   4.741
 7088SOL     OW22162   5.095   2.710   3.807
 7088SOL    HW122163   5.124   2.706   3.902
 7088SOL    HW222164   5.069   2.804   3.784
 7089SOL     OW22165   2.713   1.768   4.809
 7089SOL    HW122166   2.789   1.817   4.853
 7089SOL    HW222167   2.678   1.822   4.732
 7090SOL     OW22168   2.304   0.793   0.062
 7090SOL    HW122169   2.217   0.801   0.110
 7090SOL    HW222170   2.378   0.782   0.129
 7091SOL     OW22171   0.569   2.069   0.579
 7091SOL    HW122172   0.654   2.122   0.583
 7091SOL    HW222173   0.526   2.069   0.670
 7092SOL     OW22174   3.650   3.360   5.668
 7092SOL    HW122175   3.578   3.293   5.653
 7092SOL    HW222176   3.739   3.316   5.659
 7093SOL     OW22177   3.237   3.834   2.413
 7093SOL    HW122178   3.232   3.762   2.344
 7093SOL    HW222179   3.206   3.920   2.374
 7094SOL     OW22180   0.115   6.071   6.039
 7094SOL    HW122181   0.034   6.125   6.018
 7094SOL    HW222182   0.102   6.023   6.125
 7095SOL     OW22183   4.374   4.626   5.515
 7095SOL    HW122184   4.283   4.638   5.555
 7095SOL    HW222185   4.434   4.582   5.582
 7096SOL     OW22186   6.739   0.837   3.736
 7096SOL    HW122187   6.646   0.871   3.746
 7096SOL    HW222188   6.798   0.880   3.805
 7097SOL     OW22189   5.465   1.736   1.439
 7097SOL    HW122190   5.366   1.723   1.453
 7097SOL    HW222191   5.492   1.691   1.354
 7098SOL     OW22192   1.854   5.760   5.876
 7098SOL    HW122193   1.806   5.699   5.940
 7098SOL    HW222194   1.891   5.839   5.926
 7099SOL     OW22195   3.911   1.439   5.406
 7099SOL    HW122196   3.867   1.451   5.495
 7099SOL    HW222197   3.868   1.499   5.339
 7100SOL     OW22198   6.037   3.299   0.387
 7100SOL    HW122199   6.031   3.304   0.487
 7100SOL    HW222200   6.103   3.367   0.355
 7101SOL     OW22201   2.027   1.375   4.819
 7101SOL    HW122202   2.043   1.299   4.883
 7101SOL    HW222203   2.094   1.448   4.837
 7102SOL     OW22204   5.240   6.948   0.681
 7102SOL    HW122205   5.159   6.935   0.623
 7102SOL    HW222206   5.264   0.027   0.683
 7103SOL     OW22207   5.023   4.918   2.470
 7103SOL    HW122208   5.078   4.993   2.433
 7103SOL    HW222209   5.025   4.841   2.406
 7104SOL     OW22210   0.041   3.108   3.650
 7104SOL    HW122211   0.029   3.044   3.574
 7104SOL    HW222212   0.076   3.060   3.730
 7105SOL     OW22213   3.533   3.248   5.075
 7105SOL    HW122214   3.501   3.310   5.147
 7105SOL    HW222215   3.501   3.156   5.093
 7106SOL     OW22216   3.808   3.517   2.433
 7106SOL    HW122217   3.782   3.583   2.503
 7106SOL    HW222218   3.750   3.436   2.439
 7107SOL     OW22219   4.668   1.042   0.614
 7107SOL    HW122220   4.750   1.016   0.664
 7107SOL    HW222221   4.612   1.103   0.670
 7108SOL     OW22222   3.599   6.247   2.724
 7108SOL    HW122223   3.660   6.281   2.796
 7108SOL    HW222224   3.535   6.319   2.697
 7109SOL     OW22225   2.509   0.334   5.745
 7109SOL    HW122226   2.439   0.266   5.726
 7109SOL    HW222227   2.589   0.317   5.687
 7110SOL     OW22228   2.881   5.571   4.405
 7110SOL    HW122229   2.811   5.575   4.333
 7110SOL    HW222230   2.900   5.475   4.426
 7111SOL     OW22231   1.291   2.734   5.192
 7111SOL    HW122232   1.323   2.745   5.287
 7111SOL    HW222233   1.303   2.821   5.144
 7112SOL     OW22234   1.864   4.979   4.613
 7112SOL    HW122235   1.808   5.047   4.567
 7112SOL    HW222236   1.868   4.999   4.711
 7113SOL     OW22237   3.508   3.926   4.675
 7113SOL    HW122238   3.460   4.002   4.632
 7113SOL    HW222239   3.556   3.873   4.606
 7114SOL     OW22240   5.139   6.153   1.335
 7114SOL    HW122241   5.211   6.220   1.320
 7114SOL    HW222242   5.106   6.120   1.247
 7115SOL     OW22243   5.272   3.176   0.889
 7115SOL    HW122244   5.351   3.137   0.936
 7115SOL    HW222245   5.191   3.165   0.946
 7116SOL     OW22246   5.798   4.157   2.936
 7116SOL    HW122247   5.751   4.197   3.016
 7116SOL    HW222248   5.841   4.071   2.963
 7117SOL     OW22249   0.497   6.372   5.540
 7117SOL    HW122250   0.499   6.422   5.626
 7117SOL    HW222251   0.478   6.436   5.465
 7118SOL     OW22252   2.829   4.826   0.773
 7118SOL    HW122253   2.838   4.845   0.871
 7118SOL    HW222254   2.747   4.772   0.756
 7119SOL     OW22255   4.472   2.013   4.184
 7119SOL    HW122256   4.489   2.089   4.121
 7119SOL    HW222257   4.539   1.941   4.167
 7120SOL     OW22258   3.588   2.094   2.451
 7120SOL    HW122259   3.565   2.001   2.481
 7120SOL    HW222260   3.519   2.126   2.386
 7121SOL     OW22261   0.777   0.221   3.688
 7121SOL    HW122262   0.807   0.138   3.735
 7121SOL    HW222263   0.678   0.219   3.676
 7122SOL     OW22264   1.714   0.579   5.966
 7122SOL    HW122265   1.667   0.659   5.928
 7122SOL    HW222266   1.748   0.522   5.892
 7123SOL     OW22267   1.687   4.538   2.885
 7123SOL    HW122268   1.648   4.582   2.966
 7123SOL    HW222269   1.623   4.547   2.808
 7124SOL     OW22270   6.766   2.082   1.457
 7124SOL    HW122271   6.752   2.016   1.531
 7124SOL    HW222272   6.691   2.075   1.392
 7125SOL     OW22273   0.810   0.111   0.838
 7125SOL    HW122274   0.836   0.016   0.821
 7125SOL    HW222275   0.733   0.135   0.779
 7126SOL     OW22276   3.390   5.012   0.384
 7126SOL    HW122277   3.374   5.011   0.482
 7126SOL    HW222278   3.452   5.087   0.361
 7127SOL     OW22279   1.664   4.978   5.952
 7127SOL    HW122280   1.754   4.975   5.908
 7127SOL    HW222281   1.651   4.894   6.005
 7128SOL     OW22282   2.774   4.993   0.148
 7128SOL    HW122283   2.773   5.092   0.157
 7128SOL    HW222284   2.792   4.968   0.053
 7129SOL     OW22285   2.208   1.934   0.047
 7129SOL    HW122286   2.293   1.901   0.089
 7129SOL    HW222287   2.198   1.894   6.974
 7130SOL     OW22288   3.881   5.475   5.045
 7130SOL    HW122289   3.910   5.382   5.019
 7130SOL    HW222290   3.785   5.474   5.070
 7131SOL     OW22291   2.693   0.537   1.184
 7131SOL    HW122292   2.747   0.581   1.257
 7131SOL    HW222293   2.748   0.531   1.101
 7132SOL     OW22294   3.868   4.040   0.327
 7132SOL    HW122295   3.882   4.070   0.233
 7132SOL    HW222296   3.798   4.097   0.371
 7133SOL     OW22297   4.921   5.623   5.790
 7133SOL    HW122298   4.836   5.572   5.774
 7133SOL    HW222299   4.971   5.582   5.866
 7134SOL     OW22300   5.180   6.624   1.600
 7134SOL    HW122301   5.145   6.538   1.637
 7134SOL    HW222302   5.137   6.701   1.648
 7135SOL     OW22303   1.366   2.496   3.550
 7135SOL    HW122304   1.439   2.515   3.615
 7135SOL    HW222305   1.282   2.542   3.579
 7136SOL     OW22306   2.142   1.919   0.596
 7136SOL    HW122307   2.174   2.013   0.587
 7136SOL    HW222308   2.059   1.917   0.651
 7137SOL     OW22309   3.731   0.221   6.448
 7137SOL    HW122310   3.754   0.168   6.530
 7137SOL    HW222311   3.688   0.160   6.381
 7138SOL     OW22312   2.823   2.253   0.354
 7138SOL    HW122313   2.896   2.185   0.364
 7138SOL    HW222314   2.794   2.257   0.258
 7139SOL     OW22315   6.247   3.980   1.685
 7139SOL    HW122316   6.312   4.049   1.653
 7139SOL    HW222317   6.284   3.889   1.665
 7140SOL     OW22318   6.460   3.518   2.586
 7140SOL    HW122319   6.444   3.616   2.593
 7140SOL    HW222320   6.407   3.470   2.657
 7141SOL     OW22321   3.935   6.114   0.505
 7141SOL    HW122322   4.013   6.176   0.493
 7141SOL    HW222323   3.944   6.066   0.592
 7142SOL     OW22324   4.240   6.967   2.930
 7142SOL    HW122325   4.307   6.898   2.904
 7142SOL    HW222326   4.231   0.016   2.856
 7143SOL     OW22327   1.487   2.325   5.733
 7143SOL    HW122328   1.584   2.320   5.710
 7143SOL    HW222329   1.439   2.379   5.664
 7144SOL     OW22330   2.133   2.125   2.748
 7144SOL    HW122331   2.136   2.144   2.650
 7144SOL    HW222332   2.216   2.076   2.775
 7145SOL     OW22333   4.406   0.182   0.364
 7145SOL    HW122334   4.394   0.108   0.430
 7145SOL    HW222335   4.343   0.168   0.287
 7146SOL     OW22336   1.941   6.665   0.553
 7146SOL    HW122337   1.865   6.663   0.618
 7146SOL    HW222338   1.906   6.656   0.460
 7147SOL     OW22339   6.749   0.262   2.726
 7147SOL    HW122340   6.679   0.196   2.698
 7147SOL    HW222341   6.745   0.276   2.825
 7148SOL     OW22342   0.102   6.560   1.065
 7148SOL    HW122343   0.122   6.645   1.113
 7148SOL    HW222344   0.178   6.496   1.075
 7149SOL     OW22345   6.710   6.815   3.273
 7149SOL    HW122346   6.645   6.742   3.294
 7149SOL    HW222347   6.801   6.789   3.305
 7150SOL     OW22348   3.646   2.647   1.131
 7150SOL    HW122349   3.669   2.628   1.226
 7150SOL    HW222350   3.603   2.567   1.090
 7151SOL     OW22351   2.661   6.817   0.510
 7151SOL    HW122352   2.562   6.808   0.498
 7151SOL    HW222353   2.706   6.794   0.423
 7152SOL     OW22354   0.461   0.871   5.870
 7152SOL    HW122355   0.418   0.912   5.950
 7152SOL    HW222356   0.425   0.779   5.855
 7153SOL     OW22357   4.293   5.236   1.582
 7153SOL    HW122358   4.355   5.291   1.639
 7153SOL    HW222359   4.199   5.261   1.602
 7154SOL     OW22360   4.933   6.481   3.251
 7154SOL    HW122361   4.911   6.552   3.318
 7154SOL    HW222362   5.032   6.482   3.234
 7155SOL     OW22363   1.975   3.418   1.153
 7155SOL    HW122364   1.945   3.501   1.105
 7155SOL    HW222365   1.955   3.428   1.251
 7156SOL     OW22366   6.544   3.224   4.166
 7156SOL    HW122367   6.461   3.225   4.111
 7156SOL    HW222368   6.522   3.190   4.258
 7157SOL     OW22369   0.429   3.416   1.549
 7157SOL    HW122370   0.362   3.486   1.523
 7157SOL    HW222371   0.434   3.409   1.648
 7158SOL     OW22372   1.437   0.313   3.800
 7158SOL    HW122373   1.396   0.282   3.886
 7158SOL    HW222374   1.481   0.236   3.754
 7159SOL     OW22375   0.856   4.772   3.106
 7159SOL    HW122376   0.812   4.751   3.193
 7159SOL    HW222377   0.821   4.860   3.072
 7160SOL     OW22378   5.748   0.662   2.908
 7160SOL    HW122379   5.757   0.647   3.006
 7160SOL    HW222380   5.672   0.725   2.891
 7161SOL     OW22381   3.344   4.169   3.271
 7161SOL    HW122382   3.252   4.132   3.286
 7161SOL    HW222383   3.382   4.200   3.358
 7162SOL     OW22384   0.991   5.233   6.910
 7162SOL    HW122385   0.905   5.267   6.874
 7162SOL    HW222386   1.065   5.295   6.885
 7163SOL     OW22387   2.848   6.383   2.525
 7163SOL    HW122388   2.889   6.458   2.578
 7163SOL    HW222389   2.869   6.296   2.568
 7164SOL     OW22390   2.904   0.744   3.978
 7164SOL    HW122391   2.995   0.711   3.955
 7164SOL    HW222392   2.868   0.799   3.902
 7165SOL     OW22393   0.046   0.936   2.755
 7165SOL    HW122394   6.989   0.951   2.690
 7165SOL    HW222395   0.058   0.838   2.769
 7166SOL     OW22396   5.040   2.132   0.951
 7166SOL    HW122397   4.968   2.162   1.014
 7166SOL    HW222398   4.998   2.100   0.866
 7167SOL     OW22399   5.670   3.245   4.508
 7167SOL    HW122400   5.705   3.315   4.570
 7167SOL    HW222401   5.723   3.245   4.424
 7168SOL     OW22402   1.484   2.584   2.850
 7168SOL    HW122403   1.564   2.644   2.839
 7168SOL    HW222404   1.512   2.489   2.839
 7169SOL     OW22405   0.837   2.910   5.629
 7169SOL    HW122406   0.870   2.816   5.620
 7169SOL    HW222407   0.870   2.964   5.551
 7170SOL     OW22408   5.129   6.688   3.545
 7170SOL    HW122409   5.033   6.682   3.517
 7170SOL    HW222410   5.137   6.749   3.623
 7171SOL     OW22411   6.460   3.786   0.136
 7171SOL    HW122412   6.495   3.740   0.217
 7171SOL    HW222413   6.458   3.722   0.059
 7172SOL     OW22414   0.902   0.002   4.613
 7172SOL    HW122415   0.815   7.018   4.565
 7172SOL    HW222416   0.941   6.928   4.618
 7173SOL     OW22417   6.614   4.261   6.601
 7173SOL    HW122418   6.607   4.217   6.691
 7173SOL    HW222419   6.709   4.283   6.582
 7174SOL     OW22420   1.556   3.307   0.783
 7174SOL    HW122421   1.576   3.327   0.879
 7174SOL    HW222422   1.497   3.379   0.746
 7175SOL     OW22423   5.411   2.990   6.648
 7175SOL    HW122424   5.444   2.956   6.736
 7175SOL    HW222425   5.489   3.003   6.587
 7176SOL     OW22426   6.675   0.862   3.076
 7176SOL    HW122427   6.654   0.917   2.996
 7176SOL    HW222428   6.598   0.802   3.096
 7177SOL     OW22429   1.418   4.982   4.750
 7177SOL    HW122430   1.479   5.055   4.719
 7177SOL    HW222431   1.467   4.923   4.814
 7178SOL     OW22432   0.548   1.628   5.712
 7178SOL    HW122433   0.450   1.647   5.714
 7178SOL    HW222434   0.563   1.529   5.707
 7179SOL     OW22435   2.214   3.073   4.274
 7179SOL    HW122436   2.241   3.156   4.323
 7179SOL    HW222437   2.162   3.013   4.335
 7180SOL     OW22438   1.927   5.231   0.458
 7180SOL    HW122439   1.969   5.263   0.373
 7180SOL    HW222440   1.990   5.170   0.506
 7181SOL     OW22441   2.091   0.318   0.373
 7181SOL    HW122442   2.139   0.390   0.424
 7181SOL    HW222443   2.073   0.350   0.280
 7182SOL     OW22444   0.347   3.290   5.033
 7182SOL    HW122445   0.436   3.262   4.998
 7182SOL    HW222446   0.354   3.382   5.072
 7183SOL     OW22447   1.639   5.710   1.110
 7183SOL    HW122448   1.668   5.658   1.030
 7183SOL    HW222449   1.620   5.647   1.186
 7184SOL     OW22450   6.765   1.131   3.432
 7184SOL    HW122451   6.698   1.202   3.452
 7184SOL    HW222452   6.843   1.140   3.495
 7185SOL     OW22453   5.803   0.285   4.603
 7185SOL    HW122454   5.853   0.325   4.526
 7185SOL    HW222455   5.793   0.354   4.675
 7186SOL     OW22456   6.680   1.901   1.644
 7186SOL    HW122457   6.706   1.898   1.741
 7186SOL    HW222458   6.633   1.816   1.620
 7187SOL     OW22459   3.894   4.479   6.070
 7187SOL    HW122460   3.842   4.462   6.153
 7187SOL    HW222461   3.981   4.522   6.094
 7188SOL     OW22462   5.395   0.367   6.932
 7188SOL    HW122463   5.483   0.410   6.910
 7188SOL    HW222464   5.409   0.298   7.004
 7189SOL     OW22465   6.616   0.935   5.408
 7189SOL    HW122466   6.528   0.967   5.441
 7189SOL    HW222467   6.686   0.949   5.478
 7190SOL     OW22468   7.009   3.918   2.435
 7190SOL    HW122469   0.078   3.965   2.442
 7190SOL    HW222470   0.001   3.837   2.376
 7191SOL     OW22471   1.270   5.510   2.697
 7191SOL    HW122472   1.335   5.435   2.701
 7191SOL    HW222473   1.318   5.597   2.703
 7192SOL     OW22474   2.727   4.443   5.582
 7192SOL    HW122475   2.795   4.482   5.520
 7192SOL    HW222476   2.663   4.387   5.529
 7193SOL     OW22477   1.040   2.779   2.830
 7193SOL    HW122478   1.073   2.762   2.922
 7193SOL    HW222479   0.944   2.805   2.833
 7194SOL     OW22480   2.643   2.734   0.870
 7194SOL    HW122481   2.609   2.681   0.948
 7194SOL    HW222482   2.579   2.808   0.849
 7195SOL     OW22483   1.154   4.291   0.056
 7195SOL    HW122484   1.066   4.268   0.016
 7195SOL    HW222485   1.177   4.225   0.128
 7196SOL     OW22486   2.655   3.705   1.314
 7196SOL    HW122487   2.728   3.767   1.286
 7196SOL    HW222488   2.678   3.662   1.401
 7197SOL     OW22489   0.535   2.369   6.246
 7197SOL    HW122490   0.554   2.271   6.239
 7197SOL    HW222491   0.622   2.419   6.247
 7198SOL     OW22492   7.013   0.983   0.702
 7198SOL    HW122493   0.061   0.950   0.634
 7198SOL    HW222494   6.967   1.064   0.667
 7199SOL     OW22495   1.911   0.915   2.366
 7199SOL    HW122496   1.924   0.851   2.290
 7199SOL    HW222497   1.822   0.960   2.357
 7200SOL     OW22498   2.500   2.684   6.856
 7200SOL    HW122499   2.402   2.664   6.855
 7200SOL    HW222500   2.519   2.757   6.791
 7201SOL     OW22501   0.646   5.793   4.332
 7201SOL    HW122502   0.562   5.739   4.329
 7201SOL    HW222503   0.725   5.731   4.326
 7202SOL     OW22504   5.556   6.934   6.906
 7202SOL    HW122505   5.636   6.989   6.883
 7202SOL    HW222506   5.530   6.952   7.001
 7203SOL     OW22507   0.182   1.727   0.715
 7203SOL    HW122508   0.278   1.752   0.705
 7203SOL    HW222509   0.166   1.694   0.808
 7204SOL     OW22510   6.868   7.012   5.851
 7204SOL    HW122511   6.937   6.984   5.785
 7204SOL    HW222512   6.817   0.072   5.815
 7205SOL     OW22513   1.139   3.816   4.042
 7205SOL    HW122514   1.193   3.808   4.126
 7205SOL    HW222515   1.053   3.765   4.053
 7206SOL     OW22516   1.405   1.147   1.783
 7206SOL    HW122517   1.311   1.139   1.751
 7206SOL    HW222518   1.413   1.103   1.873
 7207SOL     OW22519   3.781   0.764   2.772
 7207SOL    HW122520   3.754   0.849   2.818
 7207SOL    HW222521   3.873   0.775   2.734
 7208SOL     OW22522   4.264   6.760   3.731
 7208SOL    HW122523   4.290   6.854   3.707
 7208SOL    HW222524   4.313   6.696   3.672
 7209SOL     OW22525   2.600   3.407   1.726
 7209SOL    HW122526   2.531   3.429   1.795
 7209SOL    HW222527   2.688   3.391   1.771
 7210SOL     OW22528   4.430   1.366   3.697
 7210SOL    HW122529   4.436   1.437   3.627
 7210SOL    HW222530   4.472   1.282   3.663
 7211SOL     OW22531   2.683   0.033   4.606
 7211SOL    HW122532   2.707   0.118   4.558
 7211SOL    HW222533   2.692   6.974   4.543
 7212SOL     OW22534   0.206   6.324   4.850
 7212SOL    HW122535   0.191   6.418   4.821
 7212SOL    HW222536   0.123   6.289   4.895
 7213SOL     OW22537   4.958   5.694   0.057
 7213SOL    HW122538   5.017   5.720   6.998
 7213SOL    HW222539   5.014   5.683   0.140
 7214SOL     OW22540   6.206   6.305   5.735
 7214SOL    HW122541   6.157   6.278   5.651
 7214SOL    HW222542   6.147   6.362   5.791
 7215SOL     OW22543   6.808   3.531   4.399
 7215SOL    HW122544   6.798   3.434   4.423
 7215SOL    HW222545   6.848   3.539   4.308
 7216SOL     OW22546   3.264   0.148   6.935
 7216SOL    HW122547   3.264   0.236   6.981
 7216SOL    HW222548   3.239   0.076   7.000
 7217SOL     OW22549   2.148   3.803   3.497
 7217SOL    HW122550   2.161   3.851   3.410
 7217SOL    HW222551   2.156   3.705   3.482
 7218SOL     OW22552   5.413   3.112   5.261
 7218SOL    HW122553   5.353   3.102   5.181
 7218SOL    HW222554   5.506   3.087   5.236
 7219SOL     OW22555   5.012   0.128   3.203
 7219SOL    HW122556   5.093   0.153   3.150
 7219SOL    HW222557   4.986   0.204   3.262
 7220SOL     OW22558   1.479   4.557   5.035
 7220SOL    HW122559   1.417   4.546   5.113
 7220SOL    HW222560   1.455   4.640   4.984
 7221SOL     OW22561   3.693   6.162   4.439
 7221SOL    HW122562   3.659   6.234   4.500
 7221SOL    HW222563   3.697   6.076   4.489
 7222SOL     OW22564   6.229   6.853   3.414
 7222SOL    HW122565   6.154   6.789   3.433
 7222SOL    HW222566   6.270   6.832   3.325
 7223SOL     OW22567   2.794   1.297   0.612
 7223SOL    HW122568   2.773   1.391   0.641
 7223SOL    HW222569   2.709   1.251   0.585
 7224SOL     OW22570   5.627   1.685   4.050
 7224SOL    HW122571   5.611   1.655   4.144
 7224SOL    HW222572   5.663   1.609   3.997
 7225SOL     OW22573   0.648   5.597   0.737
 7225SOL    HW122574   0.665   5.643   0.649
 7225SOL    HW222575   0.734   5.580   0.783
 7226SOL     OW22576   6.489   1.787   1.930
 7226SOL    HW122577   6.492   1.688   1.941
 7226SOL    HW222578   6.403   1.814   1.886
 7227SOL     OW22579   1.933   2.201   1.275
 7227SOL    HW122580   2.030   2.174   1.269
 7227SOL    HW222581   1.923   2.274   1.342
 7228SOL     OW22582   0.905   2.330   3.055
 7228SOL    HW122583   0.845   2.410   3.049
 7228SOL    HW222584   0.924   2.296   2.963
 7229SOL     OW22585   1.524   6.218   5.371
 7229SOL    HW122586   1.499   6.182   5.281
 7229SOL    HW222587   1.488   6.311   5.380
 7230SOL     OW22588   3.357   5.177   4.202
 7230SOL    HW122589   3.289   5.127   4.148
 7230SOL    HW222590   3.313   5.216   4.283
 7231SOL     OW22591   4.021   1.090   6.613
 7231SOL    HW122592   4.017   1.164   6.546
 7231SOL    HW222593   3.930   1.077   6.654
 7232SOL     OW22594   5.331   5.950   3.440
 7232SOL    HW122595   5.285   5.868   3.407
 7232SOL    HW222596   5.416   5.925   3.487
 7233SOL     OW22597   1.127   1.996   3.846
 7233SOL    HW122598   1.073   1.952   3.774
 7233SOL    HW222599   1.066   2.050   3.905
 7234SOL     OW22600   5.498   2.688   4.304
 7234SOL    HW122601   5.564   2.739   4.359
 7234SOL    HW222602   5.406   2.721   4.325
 7235SOL     OW22603   0.032   4.654   2.329
 7235SOL    HW122604   0.074   4.714   2.397
 7235SOL    HW222605   0.092   4.576   2.311
 7236SOL     OW22606   2.099   2.265   1.746
 7236SOL    HW122607   2.114   2.176   1.703
 7236SOL    HW222608   2.187   2.306   1.769
 7237SOL     OW22609   3.990   0.252   5.058
 7237SOL    HW122610   4.004   0.226   4.963
 7237SOL    HW222611   4.039   0.188   5.118
 7238SOL     OW22612   3.524   1.927   0.306
 7238SOL    HW122613   3.476   1.957   0.223
 7238SOL    HW222614   3.595   1.993   0.329
 7239SOL     OW22615   1.325   2.674   2.614
 7239SOL    HW122616   1.328   2.773   2.598
 7239SOL    HW222617   1.357   2.655   2.707
 7240SOL     OW22618   1.124   6.930   5.810
 7240SOL    HW122619   1.203   6.936   5.870
 7240SOL    HW222620   1.141   6.983   5.727
 7241SOL     OW22621   1.460   0.810   1.084
 7241SOL    HW122622   1.379   0.842   1.034
 7241SOL    HW222623   1.438   0.724   1.131
 7242SOL     OW22624   6.529   6.132   0.495
 7242SOL    HW122625   6.436   6.108   0.466
 7242SOL    HW222626   6.541   6.231   0.490
 7243SOL     OW22627   6.805   4.478   6.335
 7243SOL    HW122628   6.841   4.410   6.399
 7243SOL    HW222629   6.858   4.473   6.250
 7244SOL     OW22630   6.129   1.130   1.852
 7244SOL    HW122631   6.043   1.081   1.866
 7244SOL    HW222632   6.113   1.228   1.855
 7245SOL     OW22633   0.578   2.140   5.248
 7245SOL    HW122634   0.669   2.137   5.291
 7245SOL    HW222635   0.551   2.047   5.221
 7246SOL     OW22636   0.175   0.067   4.154
 7246SOL    HW122637   0.266   0.098   4.181
 7246SOL    HW222638   0.139   0.127   4.082
 7247SOL     OW22639   1.895   0.704   4.378
 7247SOL    HW122640   1.967   0.635   4.371
 7247SOL    HW222641   1.920   0.773   4.446
 7248SOL     OW22642   2.132   1.266   3.652
 7248SOL    HW122643   2.200   1.275   3.724
 7248SOL    HW222644   2.173   1.287   3.563
 7249SOL     OW22645   6.283   4.791   2.610
 7249SOL    HW122646   6.307   4.724   2.681
 7249SOL    HW222647   6.272   4.743   2.522
 7250SOL     OW22648   4.562   6.726   6.095
 7250SOL    HW122649   4.628   6.683   6.156
 7250SOL    HW222650   4.549   6.821   6.121
 7251SOL     OW22651   0.596   6.488   5.769
 7251SOL    HW122652   0.559   6.417   5.829
 7251SOL    HW222653   0.696   6.482   5.768
 7252SOL     OW22654   3.834   3.566   2.725
 7252SOL    HW122655   3.771   3.638   2.753
 7252SOL    HW222656   3.909   3.560   2.791
 7253SOL     OW22657   1.686   6.138   6.698
 7253SOL    HW122658   1.684   6.048   6.655
 7253SOL    HW222659   1.622   6.199   6.652
 7254SOL     OW22660   4.734   5.139   4.153
 7254SOL    HW122661   4.741   5.040   4.140
 7254SOL    HW222662   4.638   5.164   4.164
 7255SOL     OW22663   2.981   3.806   1.248
 7255SOL    HW122664   3.016   3.886   1.298
 7255SOL    HW222665   2.968   3.730   1.312
 7256SOL     OW22666   3.441   4.892   4.161
 7256SOL    HW122667   3.371   4.870   4.229
 7256SOL    HW222668   3.532   4.880   4.201
 7257SOL     OW22669   5.958   2.869   3.619
 7257SOL    HW122670   6.016   2.876   3.538
 7257SOL    HW222671   5.904   2.784   3.614
 7258SOL     OW22672   4.238   1.633   4.167
 7258SOL    HW122673   4.236   1.729   4.141
 7258SOL    HW222674   4.312   1.619   4.233
 7259SOL     OW22675   2.987   3.506   1.323
 7259SOL    HW122676   2.914   3.438   1.327
 7259SOL    HW222677   3.018   3.527   1.416
 7260SOL     OW22678   3.665   1.755   1.962
 7260SOL    HW122679   3.586   1.704   1.996
 7260SOL    HW222680   3.638   1.851   1.948
 7261SOL     OW22681   1.741   2.590   1.427
 7261SOL    HW122682   1.654   2.602   1.381
 7261SOL    HW222683   1.729   2.602   1.526
 7262SOL     OW22684   4.899   1.862   5.418
 7262SOL    HW122685   4.823   1.818   5.465
 7262SOL    HW222686   4.976   1.799   5.414
 7263SOL     OW22687   0.961   0.479   0.665
 7263SOL    HW122688   0.995   0.402   0.610
 7263SOL    HW222689   0.862   0.489   0.651
 7264SOL     OW22690   5.600   1.659   6.447
 7264SOL    HW122691   5.540   1.711   6.387
 7264SOL    HW222692   5.605   1.564   6.416
 7265SOL     OW22693   5.664   5.331   5.826
 7265SOL    HW122694   5.568   5.356   5.841
 7265SOL    HW222695   5.676   5.303   5.731
 7266SOL     OW22696   5.472   0.077   1.272
 7266SOL    HW122697   5.462   0.111   1.179
 7266SOL    HW222698   5.568   0.055   1.290
 7267SOL     OW22699   6.501   5.589   4.942
 7267SOL    HW122700   6.598   5.591   4.965
 7267SOL    HW222701   6.448   5.564   5.023
 7268SOL     OW22702   5.331   5.096   3.765
 7268SOL    HW122703   5.387   5.058   3.692
 7268SOL    HW222704   5.336   5.196   3.763
 7269SOL     OW22705   0.413   6.708   0.140
 7269SOL    HW122706   0.415   6.693   0.041
 7269SOL    HW222707   0.445   6.801   0.160
 7270SOL     OW22708   1.795   3.321   5.655
 7270SOL    HW122709   1.860   3.356   5.722
 7270SOL    HW222710   1.771   3.393   5.591
 7271SOL     OW22711   0.346   6.186   2.958
 7271SOL    HW122712   0.330   6.106   3.017
 7271SOL    HW222713   0.340   6.269   3.013
 7272SOL     OW22714   5.803   5.497   2.128
 7272SOL    HW122715   5.856   5.429   2.078
 7272SOL    HW222716   5.743   5.547   2.065
 7273SOL     OW22717   5.527   4.949   1.987
 7273SOL    HW122718   5.454   4.936   2.054
 7273SOL    HW222719   5.491   4.934   1.894
 7274SOL     OW22720   0.959   5.967   6.835
 7274SOL    HW122721   0.891   5.900   6.806
 7274SOL    HW222722   0.954   5.980   6.934
 7275SOL     OW22723   6.969   0.084   2.911
 7275SOL    HW122724   6.883   0.036   2.896
 7275SOL    HW222725   6.957   0.153   2.983
 7276SOL     OW22726   3.853   1.797   2.824
 7276SOL    HW122727   3.876   1.825   2.731
 7276SOL    HW222728   3.900   1.857   2.889
 7277SOL     OW22729   5.066   0.387   3.638
 7277SOL    HW122730   5.078   0.485   3.649
 7277SOL    HW222731   4.980   0.358   3.681
 7278SOL     OW22732   2.947   2.808   1.269
 7278SOL    HW122733   2.924   2.801   1.173
 7278SOL    HW222734   2.895   2.741   1.322
 7279SOL     OW22735   3.534   3.977   5.665
 7279SOL    HW122736   3.565   3.931   5.748
 7279SOL    HW222737   3.531   3.910   5.590
 7280SOL     OW22738   0.149   2.152   3.953
 7280SOL    HW122739   0.166   2.060   3.916
 7280SOL    HW222740   0.051   2.167   3.963
 7281SOL     OW22741   1.665   1.298   0.618
 7281SOL    HW122742   1.636   1.376   0.673
 7281SOL    HW222743   1.718   1.234   0.674
 7282SOL     OW22744   5.929   6.188   1.339
 7282SOL    HW122745   5.946   6.108   1.396
 7282SOL    HW222746   5.989   6.186   1.259
 7283SOL     OW22747   3.791   0.760   1.932
 7283SOL    HW122748   3.746   0.724   1.850
 7283SOL    HW222749   3.886   0.784   1.910
 7284SOL     OW22750   6.904   2.140   5.599
 7284SOL    HW122751   6.818   2.132   5.550
 7284SOL    HW222752   6.931   2.236   5.606
 7285SOL     OW22753   5.290   3.356   1.940
 7285SOL    HW122754   5.325   3.402   1.858
 7285SOL    HW222755   5.231   3.419   1.990
 7286SOL     OW22756   1.077   0.811   1.323
 7286SOL    HW122757   1.053   0.732   1.380
 7286SOL    HW222758   1.134   0.874   1.375
 7287SOL     OW22759   6.331   2.718   5.367
 7287SOL    HW122760   6.233   2.739   5.368
 7287SOL    HW222761   6.368   2.731   5.458
 7288SOL     OW22762   1.649   1.778   1.543
 7288SOL    HW122763   1.628   1.864   1.589
 7288SOL    HW222764   1.585   1.764   1.467
 7289SOL     OW22765   5.638   2.456   4.416
 7289SOL    HW122766   5.681   2.402   4.344
 7289SOL    HW222767   5.595   2.537   4.376
 7290SOL     OW22768   2.411   1.361   4.921
 7290SOL    HW122769   2.481   1.430   4.938
 7290SOL    HW222770   2.361   1.342   5.006
 7291SOL     OW22771   1.469   0.062   0.409
 7291SOL    HW122772   1.549   0.088   0.355
 7291SOL    HW222773   1.431   0.143   0.454
 7292SOL     OW22774   3.494   0.577   3.073
 7292SOL    HW122775   3.429   0.514   3.114
 7292SOL    HW222776   3.587   0.542   3.084
 7293SOL     OW22777   0.777   1.886   5.094
 7293SOL    HW122778   0.784   1.788   5.111
 7293SOL    HW222779   0.824   1.936   5.166
 7294SOL     OW22780   3.119   4.993   0.336
 7294SOL    HW122781   3.074   4.963   0.420
 7294SOL    HW222782   3.214   5.016   0.356
 7295SOL     OW22783   6.562   3.974   0.812
 7295SOL    HW122784   6.478   3.925   0.790
 7295SOL    HW222785   6.593   4.025   0.732
 7296SOL     OW22786   4.267   5.854   1.756
 7296SOL    HW122787   4.302   5.936   1.711
 7296SOL    HW222788   4.336   5.817   1.818
 7297SOL     OW22789   3.199   6.716   1.353
 7297SOL    HW122790   3.177   6.706   1.256
 7297SOL    HW222791   3.192   6.812   1.380
 7298SOL     OW22792   4.643   5.123   5.752
 7298SOL    HW122793   4.548   5.095   5.765
 7298SOL    HW222794   4.652   5.221   5.770
 7299SOL     OW22795   1.310   2.440   0.747
 7299SOL    HW122796   1.399   2.396   0.761
 7299SOL    HW222797   1.237   2.377   0.776
 7300SOL     OW22798   0.374   6.921   2.228
 7300SOL    HW122799   0.424   6.835   2.222
 7300SOL    HW222800   0.302   6.914   2.296
 7301SOL     OW22801   5.545   2.235   4.852
 7301SOL    HW122802   5.533   2.334   4.866
 7301SOL    HW222803   5.593   2.196   4.930
 7302SOL     OW22804   0.067   2.500   6.158
 7302SOL    HW122805   6.992   2.467   6.171
 7302SOL    HW222806   0.067   2.600   6.161
 7303SOL     OW22807   3.604   1.011   0.198
 7303SOL    HW122808   3.555   1.093   0.169
 7303SOL    HW222809   3.570   0.931   0.148
 7304SOL     OW22810   2.983   5.037   1.600
 7304SOL    HW122811   3.005   5.105   1.529
 7304SOL    HW222812   2.904   5.069   1.653
 7305SOL     OW22813   5.188   1.720   1.429
 7305SOL    HW122814   5.184   1.632   1.381
 7305SOL    HW222815   5.157   1.708   1.523
 7306SOL     OW22816   3.910   1.945   1.738
 7306SOL    HW122817   3.910   2.000   1.821
 7306SOL    HW222818   3.933   2.003   1.660
 7307SOL     OW22819   3.430   6.464   2.707
 7307SOL    HW122820   3.406   6.478   2.803
 7307SOL    HW222821   3.418   6.550   2.657
 7308SOL     OW22822   6.488   1.712   4.419
 7308SOL    HW122823   6.390   1.700   4.433
 7308SOL    HW222824   6.536   1.702   4.506
 7309SOL     OW22825   3.995   5.668   1.585
 7309SOL    HW122826   3.986   5.746   1.647
 7309SOL    HW222827   4.021   5.701   1.494
 7310SOL     OW22828   1.984   3.704   0.321
 7310SOL    HW122829   2.062   3.695   0.259
 7310SOL    HW222830   1.918   3.631   0.303
 7311SOL     OW22831   1.804   1.948   1.263
 7311SOL    HW122832   1.825   2.045   1.280
 7311SOL    HW222833   1.884   1.904   1.224
 7312SOL     OW22834   0.890   2.670   4.771
 7312SOL    HW122835   0.847   2.599   4.715
 7312SOL    HW222836   0.970   2.707   4.722
 7313SOL     OW22837   2.151   1.684   0.258
 7313SOL    HW122838   2.241   1.645   0.239
 7313SOL    HW222839   2.145   1.706   0.356
 7314SOL     OW22840   0.081   4.105   6.509
 7314SOL    HW122841   0.018   4.030   6.492
 7314SOL    HW222842   0.092   4.119   6.607
 7315SOL     OW22843   5.071   5.711   1.811
 7315SOL    HW122844   5.053   5.806   1.788
 7315SOL    HW222845   5.168   5.690   1.796
 7316SOL     OW22846   2.991   3.434   6.566
 7316SOL    HW122847   3.049   3.491   6.507
 7316SOL    HW222848   3.003   3.462   6.661
 7317SOL     OW22849   4.137   1.830   1.440
 7317SOL    HW122850   4.105   1.738   1.417
 7317SOL    HW222851   4.116   1.849   1.536
 7318SOL     OW22852   3.049   0.185   2.199
 7318SOL    HW122853   3.029   0.282   2.190
 7318SOL    HW222854   3.007   0.135   2.123
 7319SOL     OW22855   6.041   3.687   6.966
 7319SOL    HW122856   6.063   3.590   6.955
 7319SOL    HW222857   6.116   3.742   6.928
 7320SOL     OW22858   0.652   3.515   1.408
 7320SOL    HW122859   0.650   3.614   1.419
 7320SOL    HW222860   0.580   3.474   1.464
 7321SOL     OW22861   2.001   6.713   5.829
 7321SOL    HW122862   2.084   6.681   5.873
 7321SOL    HW222863   1.971   6.799   5.871
 7322SOL     OW22864   6.632   2.879   2.816
 7322SOL    HW122865   6.590   2.950   2.873
 7322SOL    HW222866   6.582   2.793   2.828
 7323SOL     OW22867   2.312   2.925   1.627
 7323SOL    HW122868   2.247   2.914   1.551
 7323SOL    HW222869   2.315   3.021   1.655
 7324SOL     OW22870   5.576   5.233   1.597
 7324SOL    HW122871   5.575   5.219   1.696
 7324SOL    HW222872   5.664   5.272   1.570
 7325SOL     OW22873   2.477   0.126   6.308
 7325SOL    HW122874   2.441   0.072   6.232
 7325SOL    HW222875   2.561   0.171   6.279
 7326SOL     OW22876   3.371   5.971   6.258
 7326SOL    HW122877   3.470   5.973   6.271
 7326SOL    HW222878   3.346   5.892   6.201
 7327SOL     OW22879   6.112   2.377   5.247
 7327SOL    HW122880   6.124   2.472   5.219
 7327SOL    HW222881   6.042   2.372   5.318
 7328SOL     OW22882   4.603   0.007   6.047
 7328SOL    HW122883   4.514   6.980   6.049
 7328SOL    HW222884   4.619   0.051   6.136
 7329SOL     OW22885   0.478   4.318   0.523
 7329SOL    HW122886   0.390   4.282   0.493
 7329SOL    HW222887   0.499   4.283   0.615
 7330SOL     OW22888   2.478   3.455   0.462
 7330SOL    HW122889   2.499   3.417   0.552
 7330SOL    HW222890   2.521   3.399   0.392
 7331SOL     OW22891   5.356   6.702   0.713
 7331SOL    HW122892   5.298   6.623   0.736
 7331SOL    HW222893   5.300   6.785   0.715
 7332SOL     OW22894   3.324   4.964   0.093
 7332SOL    HW122895   3.378   5.036   0.137
 7332SOL    HW222896   3.281   4.908   0.164
 7333SOL     OW22897   6.162   3.080   3.204
 7333SOL    HW122898   6.214   3.117   3.127
 7333SOL    HW222899   6.086   3.142   3.225
 7334SOL     OW22900   1.488   6.572   6.090
 7334SOL    HW122901   1.540   6.581   6.005
 7334SOL    HW222902   1.392   6.595   6.072
 7335SOL     OW22903   0.205   3.277   3.425
 7335SOL    HW122904   0.199   3.201   3.490
 7335SOL    HW222905   0.242   3.357   3.471
 7336SOL     OW22906   2.313   6.786   2.206
 7336SOL    HW122907   2.320   6.764   2.303
 7336SOL    HW222908   2.217   6.789   2.179
 7337SOL     OW22909   1.772   2.955   2.021
 7337SOL    HW122910   1.851   2.996   2.069
 7337SOL    HW222911   1.733   3.022   1.959
 7338SOL     OW22912   5.589   1.710   1.659
 7338SOL    HW122913   5.564   1.740   1.567
 7338SOL    HW222914   5.510   1.665   1.702
 7339SOL     OW22915   5.720   0.218   4.950
 7339SOL    HW122916   5.780   0.165   4.890
 7339SOL    HW222917   5.703   0.308   4.911
 7340SOL     OW22918   3.294   1.240   0.355
 7340SOL    HW122919   3.240   1.322   0.339
 7340SOL    HW222920   3.332   1.242   0.447
 7341SOL     OW22921   0.911   4.686   4.618
 7341SOL    HW122922   0.871   4.595   4.626
 7341SOL    HW222923   1.002   4.686   4.658
 7342SOL     OW22924   0.319   6.759   6.257
 7342SOL    HW122925   0.253   6.820   6.300
 7342SOL    HW222926   0.398   6.812   6.226
 7343SOL     OW22927   5.750   4.512   1.553
 7343SOL    HW122928   5.726   4.430   1.606
 7343SOL    HW222929   5.737   4.593   1.610
 7344SOL     OW22930   1.180   0.684   5.631
 7344SOL    HW122931   1.098   0.634   5.605
 7344SOL    HW222932   1.195   0.676   5.729
 7345SOL     OW22933   5.122   5.651   5.293
 7345SOL    HW122934   5.217   5.663   5.266
 7345SOL    HW222935   5.119   5.615   5.387
 7346SOL     OW22936   4.996   3.893   1.736
 7346SOL    HW122937   4.920   3.863   1.793
 7346SOL    HW222938   5.036   3.813   1.689
 7347SOL     OW22939   0.618   3.126   1.249
 7347SOL    HW122940   0.567   3.040   1.249
 7347SOL    HW222941   0.557   3.201   1.276
 7348SOL     OW22942   1.046   3.872   3.430
 7348SOL    HW122943   1.062   3.794   3.370
 7348SOL    HW222944   1.120   3.878   3.498
 7349SOL     OW22945   4.548   1.983   0.478
 7349SOL    HW122946   4.524   2.048   0.407
 7349SOL    HW222947   4.647   1.966   0.477
 7350SOL     OW22948   2.105   3.007   5.632
 7350SOL    HW122949   2.141   3.096   5.604
 7350SOL    HW222950   2.033   2.978   5.569
 7351SOL     OW22951   5.084   5.938   5.169
 7351SOL    HW122952   5.125   6.028   5.186
 7351SOL    HW222953   5.129   5.870   5.227
 7352SOL     OW22954   1.789   2.959   2.983
 7352SOL    HW122955   1.769   3.056   2.993
 7352SOL    HW222956   1.869   2.935   3.037
 7353SOL     OW22957   0.366   6.906   5.830
 7353SOL    HW122958   0.299   6.863   5.891
 7353SOL    HW222959   0.349   7.004   5.825
 7354SOL     OW22960   0.849   1.863   6.579
 7354SOL    HW122961   0.792   1.901   6.652
 7354SOL    HW222962   0.944   1.888   6.594
 7355SOL     OW22963   2.223   1.365   0.343
 7355SOL    HW122964   2.125   1.375   0.361
 7355SOL    HW222965   2.237   1.288   0.281
 7356SOL     OW22966   3.671   3.424   5.999
 7356SOL    HW122967   3.660   3.328   6.025
 7356SOL    HW222968   3.628   3.439   5.910
 7357SOL     OW22969   4.244   6.928   1.771
 7357SOL    HW122970   4.158   6.908   1.725
 7357SOL    HW222971   4.295   6.843   1.785
 7358SOL     OW22972   6.795   3.121   3.006
 7358SOL    HW122973   6.874   3.178   2.984
 7358SOL    HW222974   6.825   3.028   3.026
 7359SOL     OW22975   2.591   2.447   6.321
 7359SOL    HW122976   2.509   2.444   6.265
 7359SOL    HW222977   2.570   2.414   6.413
 7360SOL     OW22978   3.566   4.265   6.019
 7360SOL    HW122979   3.639   4.221   6.072
 7360SOL    HW222980   3.583   4.252   5.922
 7361SOL     OW22981   4.913   0.195   1.602
 7361SOL    HW122982   4.984   0.144   1.652
 7361SOL    HW222983   4.826   0.146   1.609
 7362SOL     OW22984   1.231   5.072   4.242
 7362SOL    HW122985   1.281   5.090   4.157
 7362SOL    HW222986   1.292   5.086   4.320
 7363SOL     OW22987   4.324   1.256   1.160
 7363SOL    HW122988   4.331   1.356   1.160
 7363SOL    HW222989   4.345   1.221   1.251
 7364SOL     OW22990   4.322   0.685   1.373
 7364SOL    HW122991   4.354   0.683   1.278
 7364SOL    HW222992   4.319   0.780   1.404
 7365SOL     OW22993   1.576   0.258   1.631
 7365SOL    HW122994   1.487   0.290   1.598
 7365SOL    HW222995   1.647   0.321   1.602
 7366SOL     OW22996   2.132   5.805   0.089
 7366SOL    HW122997   2.163   5.846   0.003
 7366SOL    HW222998   2.039   5.836   0.109
 7367SOL     OW22999   4.954   3.464   0.980
 7367SOL    HW123000   4.864   3.441   0.943
 7367SOL    HW223001   4.992   3.383   1.026
 7368SOL     OW23002   3.835   2.965   3.233
 7368SOL    HW123003   3.918   2.994   3.282
 7368SOL    HW223004   3.771   2.925   3.298
 7369SOL     OW23005   4.078   2.523   6.772
 7369SOL    HW123006   4.101   2.539   6.868
 7369SOL    HW223007   4.124   2.590   6.715
 7370SOL     OW23008   2.538   0.806   4.653
 7370SOL    HW123009   2.517   0.791   4.557
 7370SOL    HW223010   2.609   0.877   4.661
 7371SOL     OW23011   1.858   6.306   3.590
 7371SOL    HW123012   1.837   6.209   3.602
 7371SOL    HW223013   1.842   6.355   3.676
 7372SOL     OW23014   4.269   1.167   5.008
 7372SOL    HW123015   4.338   1.099   4.982
 7372SOL    HW223016   4.309   1.232   5.072
 7373SOL     OW23017   5.800   1.392   4.501
 7373SOL    HW123018   5.835   1.299   4.511
 7373SOL    HW223019   5.764   1.424   4.589
 7374SOL     OW23020   2.985   1.334   5.204
 7374SOL    HW123021   3.048   1.347   5.127
 7374SOL    HW223022   2.922   1.412   5.209
 7375SOL     OW23023   2.135   3.426   3.209
 7375SOL    HW123024   2.120   3.327   3.210
 7375SOL    HW223025   2.129   3.459   3.115
 7376SOL     OW23026   3.367   2.041   0.117
 7376SOL    HW123027   3.435   2.113   0.130
 7376SOL    HW223028   3.344   2.035   0.019
 7377SOL     OW23029   5.484   4.298   0.517
 7377SOL    HW123030   5.416   4.243   0.564
 7377SOL    HW223031   5.568   4.245   0.506
 7378SOL     OW23032   0.666   1.010   5.759
 7378SOL    HW123033   0.597   0.963   5.814
 7378SOL    HW223034   0.718   0.943   5.706
 7379SOL     OW23035   3.232   2.110   2.774
 7379SOL    HW123036   3.282   2.168   2.838
 7379SOL    HW223037   3.259   2.015   2.787
 7380SOL     OW23038   0.459   3.688   5.017
 7380SOL    HW123039   0.468   3.635   4.933
 7380SOL    HW223040   0.408   3.636   5.085
 7381SOL     OW23041   4.670   3.419   1.675
 7381SOL    HW123042   4.652   3.497   1.616
 7381SOL    HW223043   4.589   3.360   1.678
 7382SOL     OW23044   0.363   5.515   6.379
 7382SOL    HW123045   0.303   5.467   6.314
 7382SOL    HW223046   0.394   5.601   6.338
 7383SOL     OW23047   0.865   6.810   1.114
 7383SOL    HW123048   0.907   6.736   1.166
 7383SOL    HW223049   0.930   6.886   1.105
 7384SOL     OW23050   5.820   0.973   3.603
 7384SOL    HW123051   5.776   0.903   3.659
 7384SOL    HW223052   5.811   1.062   3.649
 7385SOL     OW23053   4.529   5.826   1.902
 7385SOL    HW123054   4.572   5.907   1.943
 7385SOL    HW223055   4.547   5.825   1.804
 7386SOL     OW23056   0.626   2.219   5.605
 7386SOL    HW123057   0.586   2.130   5.580
 7386SOL    HW223058   0.724   2.207   5.623
 7387SOL     OW23059   4.786   6.468   4.452
 7387SOL    HW123060   4.823   6.545   4.402
 7387SOL    HW223061   4.853   6.436   4.520
 7388SOL     OW23062   0.177   4.922   2.440
 7388SOL    HW123063   0.227   5.006   2.458
 7388SOL    HW223064   0.172   4.867   2.524
 7389SOL     OW23065   0.536   3.253   6.323
 7389SOL    HW123066   0.525   3.251   6.422
 7389SOL    HW223067   0.498   3.338   6.286
 7390SOL     OW23068   1.786   2.084   0.256
 7390SOL    HW123069   1.847   2.153   0.216
 7390SOL    HW223070   1.839   2.026   0.318
 7391SOL     OW23071   4.029   3.781   4.832
 7391SOL    HW123072   4.066   3.851   4.892
 7391SOL    HW223073   3.950   3.818   4.782
 7392SOL     OW23074   2.398   6.161   6.796
 7392SOL    HW123075   2.455   6.086   6.763
 7392SOL    HW223076   2.365   6.215   6.717
 7393SOL     OW23077   5.289   4.798   2.500
 7393SOL    HW123078   5.201   4.834   2.468
 7393SOL    HW223079   5.311   4.715   2.449
 7394SOL     OW23080   3.256   1.918   5.541
 7394SOL    HW123081   3.176   1.895   5.597
 7394SOL    HW223082   3.299   2.000   5.577
 7395SOL     OW23083   1.692   2.477   6.906
 7395SOL    HW123084   1.697   2.576   6.898
 7395SOL    HW223085   1.726   2.435   6.822
 7396SOL     OW23086   1.256   6.691   0.315
 7396SOL    HW123087   1.335   6.726   0.365
 7396SOL    HW223088   1.287   6.645   0.232
 7397SOL     OW23089   4.211   5.226   5.016
 7397SOL    HW123090   4.234   5.140   5.062
 7397SOL    HW223091   4.274   5.298   5.046
 7398SOL     OW23092   2.696   4.794   4.282
 7398SOL    HW123093   2.668   4.733   4.356
 7398SOL    HW223094   2.715   4.740   4.199
 7399SOL     OW23095   0.888   2.093   5.611
 7399SOL    HW123096   0.839   2.006   5.620
 7399SOL    HW223097   0.945   2.108   5.692
 7400SOL     OW23098   4.094   2.870   5.893
 7400SOL    HW123099   4.062   2.916   5.811
 7400SOL    HW223100   4.184   2.904   5.918
 7401SOL     OW23101   1.496   0.913   4.418
 7401SOL    HW123102   1.445   0.991   4.456
 7401SOL    HW223103   1.439   0.867   4.349
 7402SOL     OW23104   2.888   5.996   6.350
 7402SOL    HW123105   2.896   5.897   6.337
 7402SOL    HW223106   2.979   6.037   6.353
 7403SOL     OW23107   2.178   3.975   2.545
 7403SOL    HW123108   2.116   4.020   2.609
 7403SOL    HW223109   2.140   3.886   2.519
 7404SOL     OW23110   1.594   4.983   1.108
 7404SOL    HW123111   1.563   4.938   1.024
 7404SOL    HW223112   1.629   5.074   1.086
 7405SOL     OW23113   3.680   4.924   3.948
 7405SOL    HW123114   3.620   4.909   4.026
 7405SOL    HW223115   3.632   4.900   3.864
 7406SOL     OW23116   0.328   3.258   3.759
 7406SOL    HW123117   0.327   3.230   3.855
 7406SOL    HW223118   0.405   3.215   3.712
 7407SOL     OW23119   0.215   6.329   4.436
 7407SOL    HW123120   0.179   6.256   4.494
 7407SOL    HW223121   0.291   6.375   4.483
 7408SOL     OW23122   2.394   4.288   6.471
 7408SOL    HW123123   2.458   4.235   6.526
 7408SOL    HW223124   2.444   4.352   6.413
 7409SOL     OW23125   0.299   1.457   5.750
 7409SOL    HW123126   0.234   1.442   5.675
 7409SOL    HW223127   0.273   1.540   5.800
 7410SOL     OW23128   0.555   6.962   0.698
 7410SOL    HW123129   0.630   6.924   0.752
 7410SOL    HW223130   0.508   6.887   0.651
 7411SOL     OW23131   2.677   0.235   5.059
 7411SOL    HW123132   2.642   0.144   5.036
 7411SOL    HW223133   2.679   0.246   5.158
 7412SOL     OW23134   5.099   0.165   1.958
 7412SOL    HW123135   5.021   0.227   1.954
 7412SOL    HW223136   5.114   0.124   1.868
 7413SOL     OW23137   4.881   5.812   4.366
 7413SOL    HW123138   4.787   5.794   4.339
 7413SOL    HW223139   4.915   5.893   4.319
 7414SOL     OW23140   0.117   0.302   3.474
 7414SOL    HW123141   0.143   0.307   3.378
 7414SOL    HW223142   0.040   0.238   3.484
 7415SOL     OW23143   1.797   4.115   4.296
 7415SOL    HW123144   1.743   4.096   4.214
 7415SOL    HW223145   1.740   4.101   4.377
 7416SOL     OW23146   2.376   1.910   3.586
 7416SOL    HW123147   2.438   1.833   3.603
 7416SOL    HW223148   2.425   1.996   3.602
 7417SOL     OW23149   1.827   0.694   0.061
 7417SOL    HW123150   1.853   0.618   0.000
 7417SOL    HW223151   1.744   0.737   0.025
 7418SOL     OW23152   2.878   5.876   1.107
 7418SOL    HW123153   2.916   5.789   1.138
 7418SOL    HW223154   2.880   5.942   1.183
 7419SOL     OW23155   5.697   2.967   5.192
 7419SOL    HW123156   5.754   3.015   5.259
 7419SOL    HW223157   5.755   2.911   5.133
 7420SOL     OW23158   0.591   6.923   1.824
 7420SOL    HW123159   0.661   6.993   1.812
 7420SOL    HW223160   0.521   6.956   1.888
 7421SOL     OW23161   3.493   4.179   0.861
 7421SOL    HW123162   3.394   4.174   0.844
 7421SOL    HW223163   3.531   4.087   0.866
 7422SOL     OW23164   7.018   3.274   2.986
 7422SOL    HW123165   6.962   3.351   2.956
 7422SOL    HW223166   0.096   3.298   2.981
 7423SOL     OW23167   6.175   3.912   5.587
 7423SOL    HW123168   6.221   3.999   5.605
 7423SOL    HW223169   6.200   3.879   5.496
 7424SOL     OW23170   6.816   6.718   5.512
 7424SOL    HW123171   6.858   6.798   5.469
 7424SOL    HW223172   6.759   6.671   5.444
 7425SOL     OW23173   4.452   5.357   6.629
 7425SOL    HW123174   4.359   5.385   6.654
 7425SOL    HW223175   4.517   5.427   6.658
 7426SOL     OW23176   2.325   1.029   5.735
 7426SOL    HW123177   2.366   1.077   5.658
 7426SOL    HW223178   2.225   1.042   5.733
 7427SOL     OW23179   3.790   0.114   4.069
 7427SOL    HW123180   3.778   0.211   4.089
 7427SOL    HW223181   3.855   0.074   4.134
 7428SOL     OW23182   3.711   1.512   6.057
 7428SOL    HW123183   3.737   1.418   6.036
 7428SOL    HW223184   3.611   1.518   6.066
 7429SOL     OW23185   0.151   6.789   3.933
 7429SOL    HW123186   0.097   6.869   3.959
 7429SOL    HW223187   0.233   6.818   3.884
 7430SOL     OW23188   0.763   3.126   6.966
 7430SOL    HW123189   0.746   3.074   6.883
 7430SOL    HW223190   0.677   3.163   7.001
 7431SOL     OW23191   0.714   2.888   3.082
 7431SOL    HW123192   0.638   2.870   3.019
 7431SOL    HW223193   0.746   2.981   3.069
 7432SOL     OW23194   1.185   0.983   3.217
 7432SOL    HW123195   1.222   0.903   3.170
 7432SOL    HW223196   1.255   1.021   3.278
 7433SOL     OW23197   4.599   5.582   6.147
 7433SOL    HW123198   4.627   5.498   6.101
 7433SOL    HW223199   4.547   5.558   6.230
 7434SOL     OW23200   5.111   6.380   6.067
 7434SOL    HW123201   5.208   6.400   6.075
 7434SOL    HW223202   5.089   6.360   5.971
 7435SOL     OW23203   4.113   5.425   0.783
 7435SOL    HW123204   4.021   5.423   0.743
 7435SOL    HW223205   4.181   5.431   0.711
 7436SOL     OW23206   5.864   3.818   6.315
 7436SOL    HW123207   5.886   3.914   6.297
 7436SOL    HW223208   5.784   3.792   6.260
 7437SOL     OW23209   0.918   6.291   0.195
 7437SOL    HW123210   1.009   6.330   0.208
 7437SOL    HW223211   0.915   6.239   0.109
 7438SOL     OW23212   1.105   5.632   0.176
 7438SOL    HW123213   1.165   5.554   0.156
 7438SOL    HW223214   1.125   5.667   0.268
 7439SOL     OW23215   1.512   5.700   5.509
 7439SOL    HW123216   1.592   5.755   5.532
 7439SOL    HW223217   1.431   5.737   5.555
 7440SOL     OW23218   0.049   3.859   4.291
 7440SOL    HW123219   7.013   3.775   4.292
 7440SOL    HW223220   0.096   3.870   4.379
 7441SOL     OW23221   5.521   6.196   3.821
 7441SOL    HW123222   5.492   6.267   3.755
 7441SOL    HW223223   5.441   6.143   3.850
 7442SOL     OW23224   6.387   0.893   5.759
 7442SOL    HW123225   6.300   0.858   5.793
 7442SOL    HW223226   6.439   0.932   5.834
 7443SOL     OW23227   6.806   0.081   1.941
 7443SOL    HW123228   6.726   0.064   1.999
 7443SOL    HW223229   6.889   0.077   1.997
 7444SOL     OW23230   6.034   2.876   5.893
 7444SOL    HW123231   5.962   2.807   5.881
 7444SOL    HW223232   6.080   2.861   5.980
 7445SOL     OW23233   3.718   1.329   1.422
 7445SOL    HW123234   3.720   1.398   1.493
 7445SOL    HW223235   3.660   1.252   1.451
 7446SOL     OW23236   5.738   3.508   1.200
 7446SOL    HW123237   5.766   3.445   1.273
 7446SOL    HW223238   5.677   3.460   1.137
 7447SOL     OW23239   0.880   3.492   6.580
 7447SOL    HW123240   0.828   3.516   6.498
 7447SOL    HW223241   0.908   3.396   6.575
 7448SOL     OW23242   6.801   5.958   5.607
 7448SOL    HW123243   6.890   5.912   5.609
 7448SOL    HW223244   6.740   5.914   5.672
 7449SOL     OW23245   6.412   3.488   1.899
 7449SOL    HW123246   6.316   3.481   1.873
 7449SOL    HW223247   6.431   3.423   1.972
 7450SOL     OW23248   5.217   1.919   4.364
 7450SOL    HW123249   5.168   2.004   4.341
 7450SOL    HW223250   5.311   1.925   4.331
 7451SOL     OW23251   6.969   0.305   3.111
 7451SOL    HW123252   0.028   0.256   3.154
 7451SOL    HW223253   7.005   0.370   3.044
 7452SOL     OW23254   0.791   6.102   4.599
 7452SOL    HW123255   0.850   6.156   4.539
 7452SOL    HW223256   0.805   6.129   4.694
 7453SOL     OW23257   4.811   7.013   5.860
 7453SOL    HW123258   4.743   7.018   5.933
 7453SOL    HW223259   4.825   6.918   5.833
 7454SOL     OW23260   0.535   2.477   2.814
 7454SOL    HW123261   0.629   2.494   2.843
 7454SOL    HW223262   0.524   2.506   2.719
 7455SOL     OW23263   0.072   1.707   2.337
 7455SOL    HW123264   0.166   1.696   2.307
 7455SOL    HW223265   0.062   1.673   2.430
 7456SOL     OW23266   1.001   1.390   4.351
 7456SOL    HW123267   1.012   1.295   4.320
 7456SOL    HW223268   0.962   1.390   4.443
 7457SOL     OW23269   3.753   7.005   5.833
 7457SOL    HW123270   3.735   0.078   5.870
 7457SOL    HW223271   3.840   7.006   5.784
 7458SOL     OW23272   1.806   6.539   6.019
 7458SOL    HW123273   1.774   6.458   6.068
 7458SOL    HW223274   1.885   6.515   5.962
 7459SOL     OW23275   4.635   0.422   1.962
 7459SOL    HW123276   4.629   0.520   1.985
 7459SOL    HW223277   4.560   0.373   2.005
 7460SOL     OW23278   1.134   5.211   0.668
 7460SOL    HW123279   1.098   5.269   0.741
 7460SOL    HW223280   1.173   5.269   0.596
 7461SOL     OW23281   5.852   1.485   5.988
 7461SOL    HW123282   5.868   1.579   5.956
 7461SOL    HW223283   5.778   1.444   5.935
 7462SOL     OW23284   1.948   4.110   2.643
 7462SOL    HW123285   1.941   4.157   2.731
 7462SOL    HW223286   1.857   4.103   2.602
 7463SOL     OW23287   2.188   4.335   1.014
 7463SOL    HW123288   2.145   4.396   1.080
 7463SOL    HW223289   2.267   4.380   0.973
 7464SOL     OW23290   4.751   0.238   6.821
 7464SOL    HW123291   4.661   0.210   6.854
 7464SOL    HW223292   4.780   0.321   6.870
 7465SOL     OW23293   0.731   5.513   0.287
 7465SOL    HW123294   0.690   5.551   0.205
 7465SOL    HW223295   0.830   5.500   0.273
 7466SOL     OW23296   0.019   0.577   5.387
 7466SOL    HW123297   0.066   0.595   5.301
 7466SOL    HW223298   6.988   0.660   5.417
 7467SOL     OW23299   0.300   1.946   1.190
 7467SOL    HW123300   0.383   1.890   1.183
 7467SOL    HW223301   0.316   2.034   1.145
 7468SOL     OW23302   5.472   2.777   3.732
 7468SOL    HW123303   5.558   2.805   3.688
 7468SOL    HW223304   5.420   2.858   3.759
 7469SOL     OW23305   6.905   1.219   0.599
 7469SOL    HW123306   6.850   1.211   0.516
 7469SOL    HW223307   6.857   1.274   0.666
 7470SOL     OW23308   6.673   3.603   4.025
 7470SOL    HW123309   6.581   3.608   3.985
 7470SOL    HW223310   6.699   3.507   4.036
 7471SOL     OW23311   6.787   5.822   6.035
 7471SOL    HW123312   6.880   5.809   6.000
 7471SOL    HW223313   6.734   5.873   5.968
 7472SOL     OW23314   6.373   6.769   5.129
 7472SOL    HW123315   6.434   6.847   5.147
 7472SOL    HW223316   6.356   6.762   5.031
 7473SOL     OW23317   6.189   5.091   3.186
 7473SOL    HW123318   6.224   5.006   3.147
 7473SOL    HW223319   6.244   5.117   3.265
 7474SOL     OW23320   1.607   1.332   5.520
 7474SOL    HW123321   1.701   1.324   5.555
 7474SOL    HW223322   1.555   1.251   5.547
 7475SOL     OW23323   4.619   2.029   1.923
 7475SOL    HW123324   4.608   2.035   2.022
 7475SOL    HW223325   4.612   1.934   1.894
 7476SOL     OW23326   3.043   6.542   3.811
 7476SOL    HW123327   3.048   6.582   3.720
 7476SOL    HW223328   3.048   6.442   3.804
 7477SOL     OW23329   0.428   0.906   4.772
 7477SOL    HW123330   0.486   0.849   4.829
 7477SOL    HW223331   0.334   0.872   4.776
 7478SOL     OW23332   4.964   5.502   6.417
 7478SOL    HW123333   4.995   5.504   6.512
 7478SOL    HW223334   5.037   5.535   6.357
 7479SOL     OW23335   4.524   2.214   1.755
 7479SOL    HW123336   4.579   2.157   1.815
 7479SOL    HW223337   4.536   2.310   1.780
 7480SOL     OW23338   0.403   4.152   1.950
 7480SOL    HW123339   0.366   4.244   1.938
 7480SOL    HW223340   0.327   4.087   1.961
 7481SOL     OW23341   5.999   4.956   1.236
 7481SOL    HW123342   5.971   4.970   1.141
 7481SOL    HW223343   5.918   4.941   1.293
 7482SOL     OW23344   4.532   2.005   3.031
 7482SOL    HW123345   4.604   1.983   2.966
 7482SOL    HW223346   4.548   1.955   3.117
 7483SOL     OW23347   4.671   2.616   4.721
 7483SOL    HW123348   4.739   2.690   4.725
 7483SOL    HW223349   4.686   2.554   4.798
 7484SOL     OW23350   1.797   0.808   3.722
 7484SOL    HW123351   1.785   0.907   3.711
 7484SOL    HW223352   1.878   0.779   3.671
 7485SOL     OW23353   4.044   0.221   4.784
 7485SOL    HW123354   3.994   0.146   4.741
 7485SOL    HW223355   4.022   0.307   4.738
 7486SOL     OW23356   2.019   0.017   0.697
 7486SOL    HW123357   1.985   0.103   0.662
 7486SOL    HW223358   2.102   7.008   0.647
 7487SOL     OW23359   2.305   6.504   2.763
 7487SOL    HW123360   2.382   6.506   2.698
 7487SOL    HW223361   2.296   6.413   2.801
 7488SOL     OW23362   2.517   6.641   3.773
 7488SOL    HW123363   2.456   6.673   3.701
 7488SOL    HW223364   2.466   6.631   3.858
 7489SOL     OW23365   4.910   2.635   5.197
 7489SOL    HW123366   4.901   2.611   5.100
 7489SOL    HW223367   4.987   2.585   5.236
 7490SOL     OW23368   1.117   0.939   2.254
 7490SOL    HW123369   1.083   0.855   2.211
 7490SOL    HW223370   1.199   0.918   2.307
 7491SOL     OW23371   5.602   2.045   5.948
 7491SOL    HW123372   5.640   1.959   5.981
 7491SOL    HW223373   5.666   2.120   5.966
 7492SOL     OW23374   2.102   0.430   2.870
 7492SOL    HW123375   2.199   0.432   2.845
 7492SOL    HW223376   2.084   0.346   2.922
 7493SOL     OW23377   0.334   3.588   6.469
 7493SOL    HW123378   0.374   3.663   6.521
 7493SOL    HW223379   0.344   3.606   6.371
 7494SOL     OW23380   4.610   1.128   3.019
 7494SOL    HW123381   4.638   1.034   3.041
 7494SOL    HW223382   4.564   1.128   2.930
 7495SOL     OW23383   2.012   1.611   6.993
 7495SOL    HW123384   1.956   1.688   0.008
 7495SOL    HW223385   2.084   1.592   0.042
 7496SOL     OW23386   6.031   3.455   6.054
 7496SOL    HW123387   6.019   3.387   5.983
 7496SOL    HW223388   6.041   3.410   6.143
 7497SOL     OW23389   2.119   4.312   0.071
 7497SOL    HW123390   2.078   4.397   0.102
 7497SOL    HW223391   2.075   4.282   7.004
 7498SOL     OW23392   2.929   0.500   5.627
 7498SOL    HW123393   2.829   0.509   5.624
 7498SOL    HW223394   2.969   0.546   5.548
 7499SOL     OW23395   3.221   1.854   3.121
 7499SOL    HW123396   3.121   1.855   3.120
 7499SOL    HW223397   3.253   1.769   3.161
 7500SOL     OW23398   3.116   5.189   2.857
 7500SOL    HW123399   3.144   5.156   2.767
 7500SOL    HW223400   3.143   5.123   2.927
 7501SOL     OW23401   5.510   4.133   4.743
 7501SOL    HW123402   5.422   4.087   4.733
 7501SOL    HW223403   5.562   4.123   4.659
 7502SOL     OW23404   1.623   0.695   3.905
 7502SOL    HW123405   1.699   0.711   3.842
 7502SOL    HW223406   1.638   0.609   3.954
 7503SOL     OW23407   2.498   0.728   1.262
 7503SOL    HW123408   2.585   0.766   1.295
 7503SOL    HW223409   2.517   0.661   1.191
 7504SOL     OW23410   1.472   0.059   2.849
 7504SOL    HW123411   1.552   0.044   2.907
 7504SOL    HW223412   1.402   0.108   2.900
 7505SOL     OW23413   2.163   1.396   5.363
 7505SOL    HW123414   2.159   1.494   5.345
 7505SOL    HW223415   2.077   1.366   5.405
 7506SOL     OW23416   5.864   0.717   3.173
 7506SOL    HW123417   5.802   0.787   3.137
 7506SOL    HW223418   5.896   0.745   3.264
 7507SOL     OW23419   0.561   0.995   2.449
 7507SOL    HW123420   0.621   0.915   2.453
 7507SOL    HW223421   0.595   1.066   2.511
 7508SOL     OW23422   1.025   0.060   1.460
 7508SOL    HW123423   0.983   6.998   1.502
 7508SOL    HW223424   1.109   0.033   1.413
 7509SOL     OW23425   5.122   4.263   0.345
 7509SOL    HW123426   5.109   4.216   0.433
 7509SOL    HW223427   5.134   4.195   0.273
 7510SOL     OW23428   3.933   4.111   5.531
 7510SOL    HW123429   4.004   4.110   5.461
 7510SOL    HW223430   3.875   4.191   5.519
 7511SOL     OW23431   2.744   6.820   3.796
 7511SOL    HW123432   2.667   6.758   3.808
 7511SOL    HW223433   2.710   6.911   3.770
 7512SOL     OW23434   2.851   6.421   6.443
 7512SOL    HW123435   2.946   6.390   6.446
 7512SOL    HW223436   2.804   6.378   6.365
 7513SOL     OW23437   2.639   0.776   1.500
 7513SOL    HW123438   2.730   0.733   1.499
 7513SOL    HW223439   2.643   0.861   1.553
 7514SOL     OW23440   2.640   5.953   1.717
 7514SOL    HW123441   2.578   6.010   1.662
 7514SOL    HW223442   2.596   5.930   1.804
 7515SOL     OW23443   6.873   4.855   2.806
 7515SOL    HW123444   6.878   4.948   2.843
 7515SOL    HW223445   6.813   4.854   2.726
 7516SOL     OW23446   6.699   6.613   5.260
 7516SOL    HW123447   6.690   6.699   5.210
 7516SOL    HW223448   6.618   6.599   5.317
 7517SOL     OW23449   0.162   2.679   0.800
 7517SOL    HW123450   0.093   2.616   0.835
 7517SOL    HW223451   0.252   2.651   0.834
 7518SOL     OW23452   4.144   4.796   4.084
 7518SOL    HW123453   4.181   4.730   4.149
 7518SOL    HW223454   4.182   4.780   3.993
 7519SOL     OW23455   0.355   6.758   3.266
 7519SOL    HW123456   0.301   6.685   3.307
 7519SOL    HW223457   0.446   6.722   3.241
 7520SOL     OW23458   2.316   0.116   2.126
 7520SOL    HW123459   2.223   0.096   2.094
 7520SOL    HW223460   2.341   0.052   2.199
 7521SOL     OW23461   5.032   4.190   6.024
 7521SOL    HW123462   4.950   4.170   5.971
 7521SOL    HW223463   5.038   4.128   6.102
 7522SOL     OW23464   1.659   0.784   6.263
 7522SOL    HW123465   1.714   0.867   6.248
 7522SOL    HW223466   1.574   0.791   6.211
 7523SOL     OW23467   5.928   0.387   5.696
 7523SOL    HW123468   5.952   0.474   5.653
 7523SOL    HW223469   5.837   0.393   5.736
 7524SOL     OW23470   1.386   1.928   5.432
 7524SOL    HW123471   1.299   1.896   5.468
 7524SOL    HW223472   1.432   1.854   5.384
 7525SOL     OW23473   3.305   0.515   6.553
 7525SOL    HW123474   3.383   0.536   6.612
 7525SOL    HW223475   3.232   0.582   6.568
 7526SOL     OW23476   2.977   3.373   2.083
 7526SOL    HW123477   2.970   3.372   2.183
 7526SOL    HW223478   3.017   3.287   2.052
 7527SOL     OW23479   3.168   5.897   3.009
 7527SOL    HW123480   3.146   5.862   3.100
 7527SOL    HW223481   3.240   5.840   2.969
 7528SOL     OW23482   5.716   1.864   0.094
 7528SOL    HW123483   5.643   1.862   0.161
 7528SOL    HW223484   5.760   1.774   0.089
 7529SOL     OW23485   4.948   1.044   4.447
 7529SOL    HW123486   4.881   1.108   4.409
 7529SOL    HW223487   4.912   1.004   4.531
 7530SOL     OW23488   0.049   2.884   2.938
 7530SOL    HW123489   0.005   2.903   3.026
 7530SOL    HW223490   6.997   2.880   2.867
 7531SOL     OW23491   5.210   3.107   4.516
 7531SOL    HW123492   5.170   3.193   4.548
 7531SOL    HW223493   5.156   3.072   4.440
 7532SOL     OW23494   5.362   5.651   6.992
 7532SOL    HW123495   5.388   5.737   6.946
 7532SOL    HW223496   5.396   5.574   6.939
 7533SOL     OW23497   2.644   1.606   1.879
 7533SOL    HW123498   2.678   1.515   1.855
 7533SOL    HW223499   2.705   1.675   1.841
 7534SOL     OW23500   4.852   5.973   5.424
 7534SOL    HW123501   4.907   5.890   5.412
 7534SOL    HW223502   4.909   6.044   5.464
 7535SOL     OW23503   1.724   0.275   4.776
 7535SOL    HW123504   1.781   0.194   4.789
 7535SOL    HW223505   1.722   0.300   4.679
 7536SOL     OW23506   4.583   4.479   4.853
 7536SOL    HW123507   4.497   4.505   4.896
 7536SOL    HW223508   4.608   4.546   4.784
 7537SOL     OW23509   2.925   5.907   2.516
 7537SOL    HW123510   2.920   5.813   2.549
 7537SOL    HW223511   2.910   5.908   2.417
 7538SOL     OW23512   2.314   3.253   1.340
 7538SOL    HW123513   2.331   3.280   1.246
 7538SOL    HW223514   2.360   3.316   1.402
 7539SOL     OW23515   1.243   3.931   4.282
 7539SOL    HW123516   1.247   4.027   4.254
 7539SOL    HW223517   1.290   3.921   4.370
 7540SOL     OW23518   3.814   0.258   4.329
 7540SOL    HW123519   3.741   0.190   4.330
 7540SOL    HW223520   3.777   0.346   4.358
 7541SOL     OW23521   0.331   4.779   5.137
 7541SOL    HW123522   0.307   4.682   5.135
 7541SOL    HW223523   0.409   4.794   5.076
 7542SOL     OW23524   1.029   5.232   6.569
 7542SOL    HW123525   1.023   5.287   6.652
 7542SOL    HW223526   0.964   5.157   6.574
 7543SOL     OW23527   3.722   1.985   6.503
 7543SOL    HW123528   3.690   2.079   6.502
 7543SOL    HW223529   3.676   1.932   6.432
 7544SOL     OW23530   6.680   2.732   3.098
 7544SOL    HW123531   6.727   2.819   3.114
 7544SOL    HW223532   6.740   2.657   3.124
 7545SOL     OW23533   0.092   5.647   0.842
 7545SOL    HW123534   0.006   5.663   0.793
 7545SOL    HW223535   0.160   5.612   0.778
 7546SOL     OW23536   3.413   2.116   1.835
 7546SOL    HW123537   3.432   2.064   1.919
 7546SOL    HW223538   3.494   2.115   1.777
 7547SOL     OW23539   5.446   1.108   0.967
 7547SOL    HW123540   5.534   1.104   1.015
 7547SOL    HW223541   5.447   1.045   0.890
 7548SOL     OW23542   4.176   1.354   0.225
 7548SOL    HW123543   4.181   1.305   0.139
 7548SOL    HW223544   4.086   1.340   0.267
 7549SOL     OW23545   4.639   2.563   0.690
 7549SOL    HW123546   4.637   2.662   0.704
 7549SOL    HW223547   4.733   2.530   0.695
 7550SOL     OW23548   2.534   4.941   2.400
 7550SOL    HW123549   2.550   4.952   2.302
 7550SOL    HW223550   2.496   5.025   2.437
 7551SOL     OW23551   5.775   3.509   6.365
 7551SOL    HW123552   5.809   3.528   6.457
 7551SOL    HW223553   5.750   3.595   6.321
 7552SOL     OW23554   1.540   6.334   2.508
 7552SOL    HW123555   1.559   6.239   2.482
 7552SOL    HW223556   1.445   6.342   2.538
 7553SOL     OW23557   4.633   6.096   5.753
 7553SOL    HW123558   4.625   6.150   5.836
 7553SOL    HW223559   4.607   6.151   5.674
 7554SOL     OW23560   4.802   1.201   0.413
 7554SOL    HW123561   4.760   1.150   0.487
 7554SOL    HW223562   4.896   1.171   0.400
 7555SOL     OW23563   2.335   4.601   6.030
 7555SOL    HW123564   2.311   4.620   6.125
 7555SOL    HW223565   2.432   4.574   6.025
 7556SOL     OW23566   2.269   3.243   0.405
 7556SOL    HW123567   2.296   3.335   0.435
 7556SOL    HW223568   2.299   3.176   0.473
 7557SOL     OW23569   5.209   0.891   5.148
 7557SOL    HW123570   5.129   0.902   5.207
 7557SOL    HW223571   5.187   0.922   5.056
 7558SOL     OW23572   1.310   2.774   4.075
 7558SOL    HW123573   1.344   2.766   3.981
 7558SOL    HW223574   1.240   2.845   4.080
 7559SOL     OW23575   4.908   3.504   0.123
 7559SOL    HW123576   4.935   3.447   0.045
 7559SOL    HW223577   4.956   3.591   0.120
 7560SOL     OW23578   5.217   0.400   1.010
 7560SOL    HW123579   5.151   0.458   1.058
 7560SOL    HW223580   5.227   0.430   0.916
 7561SOL     OW23581   0.640   3.509   6.978
 7561SOL    HW123582   0.656   3.421   6.933
 7561SOL    HW223583   0.561   3.502   0.021
 7562SOL     OW23584   0.250   6.580   4.049
 7562SOL    HW123585   0.204   6.643   3.986
 7562SOL    HW223586   0.182   6.533   4.105
 7563SOL     OW23587   3.338   0.472   1.138
 7563SOL    HW123588   3.257   0.491   1.082
 7563SOL    HW223589   3.378   0.385   1.110
 7564SOL     OW23590   4.797   0.246   3.016
 7564SOL    HW123591   4.753   0.198   2.941
 7564SOL    HW223592   4.866   0.187   3.058
 7565SOL     OW23593   5.278   3.332   0.466
 7565SOL    HW123594   5.282   3.349   0.565
 7565SOL    HW223595   5.183   3.325   0.437
 7566SOL     OW23596   5.744   4.756   2.734
 7566SOL    HW123597   5.785   4.676   2.778
 7566SOL    HW223598   5.677   4.797   2.796
 7567SOL     OW23599   2.096   2.153   4.454
 7567SOL    HW123600   2.143   2.236   4.485
 7567SOL    HW223601   2.130   2.127   4.364
 7568SOL     OW23602   5.307   6.077   2.966
 7568SOL    HW123603   5.341   5.987   2.992
 7568SOL    HW223604   5.223   6.097   3.016
 7569SOL     OW23605   3.781   5.144   6.435
 7569SOL    HW123606   3.770   5.047   6.414
 7569SOL    HW223607   3.802   5.194   6.351
 7570SOL     OW23608   5.541   3.248   5.510
 7570SOL    HW123609   5.483   3.219   5.434
 7570SOL    HW223610   5.580   3.338   5.490
 7571SOL     OW23611   4.157   5.247   3.435
 7571SOL    HW123612   4.162   5.229   3.336
 7571SOL    HW223613   4.203   5.174   3.485
 7572SOL     OW23614   4.606   0.855   1.342
 7572SOL    HW123615   4.588   0.795   1.420
 7572SOL    HW223616   4.524   0.905   1.318
 7573SOL     OW23617   0.444   0.479   5.140
 7573SOL    HW123618   0.437   0.404   5.205
 7573SOL    HW223619   0.430   0.445   5.047
 7574SOL     OW23620   4.909   0.312   5.416
 7574SOL    HW123621   4.857   0.382   5.466
 7574SOL    HW223622   4.958   0.355   5.341
 7575SOL     OW23623   5.258   0.058   6.048
 7575SOL    HW123624   5.299   0.148   6.057
 7575SOL    HW223625   5.160   0.067   6.027
 7576SOL     OW23626   4.780   4.586   6.834
 7576SOL    HW123627   4.769   4.659   6.767
 7576SOL    HW223628   4.690   4.546   6.855
 7577SOL     OW23629   0.767   6.883   6.974
 7577SOL    HW123630   0.860   6.879   7.009
 7577SOL    HW223631   0.703   6.879   0.033
 7578SOL     OW23632   1.791   5.238   1.456
 7578SOL    HW123633   1.861   5.303   1.428
 7578SOL    HW223634   1.709   5.250   1.399
 7579SOL     OW23635   0.164   1.149   1.931
 7579SOL    HW123636   0.125   1.086   1.998
 7579SOL    HW223637   0.091   1.197   1.883
 7580SOL     OW23638   0.412   3.770   4.318
 7580SOL    HW123639   0.388   3.695   4.380
 7580SOL    HW223640   0.380   3.856   4.356
 7581SOL     OW23641   0.021   1.110   1.145
 7581SOL    HW123642   6.979   1.030   1.146
 7581SOL    HW223643   0.028   1.147   1.238
 7582SOL     OW23644   4.052   1.164   1.959
 7582SOL    HW123645   4.133   1.215   1.930
 7582SOL    HW223646   3.980   1.228   1.983
 7583SOL     OW23647   6.142   3.438   2.141
 7583SOL    HW123648   6.068   3.392   2.190
 7583SOL    HW223649   6.218   3.453   2.203
 7584SOL     OW23650   3.345   7.008   1.351
 7584SOL    HW123651   3.245   7.001   1.349
 7584SOL    HW223652   3.380   7.011   1.258
 7585SOL     OW23653   1.650   2.928   6.660
 7585SOL    HW123654   1.712   2.851   6.673
 7585SOL    HW223655   1.635   2.943   6.563
 7586SOL     OW23656   2.857   0.294   3.545
 7586SOL    HW123657   2.907   0.320   3.628
 7586SOL    HW223658   2.792   0.366   3.522
 7587SOL     OW23659   2.388   2.761   0.061
 7587SOL    HW123660   2.449   2.726   7.007
 7587SOL    HW223661   2.376   2.692   0.131
 7588SOL     OW23662   1.749   2.890   3.336
 7588SOL    HW123663   1.665   2.929   3.300
 7588SOL    HW223664   1.749   2.897   3.436
 7589SOL     OW23665   0.777   0.706   2.657
 7589SOL    HW123666   0.848   0.704   2.728
 7589SOL    HW223667   0.717   0.785   2.672
 7590SOL     OW23668   3.935   1.623   5.917
 7590SOL    HW123669   3.855   1.611   5.976
 7590SOL    HW223670   4.001   1.550   5.935
 7591SOL     OW23671   0.258   3.485   0.893
 7591SOL    HW123672   0.224   3.458   0.803
 7591SOL    HW223673   0.308   3.409   0.935
 7592SOL     OW23674   6.543   4.751   4.742
 7592SOL    HW123675   6.536   4.841   4.700
 7592SOL    HW223676   6.480   4.745   4.819
 7593SOL     OW23677   6.119   3.389   1.013
 7593SOL    HW123678   6.102   3.472   0.958
 7593SOL    HW223679   6.151   3.316   0.953
 7594SOL     OW23680   1.298   5.303   2.397
 7594SOL    HW123681   1.283   5.211   2.434
 7594SOL    HW223682   1.215   5.358   2.410
 7595SOL     OW23683   6.169   2.954   6.109
 7595SOL    HW123684   6.183   3.046   6.072
 7595SOL    HW223685   6.258   2.913   6.130
 7596SOL     OW23686   3.629   5.432   4.018
 7596SOL    HW123687   3.705   5.496   4.036
 7596SOL    HW223688   3.611   5.379   4.101
 7597SOL     OW23689   2.562   6.427   2.587
 7597SOL    HW123690   2.631   6.356   2.603
 7597SOL    HW223691   2.529   6.420   2.493
 7598SOL     OW23692   0.027   1.402   3.305
 7598SOL    HW123693   6.956   1.362   3.284
 7598SOL    HW223694   0.038   1.487   3.253
 7599SOL     OW23695   5.449   2.303   2.200
 7599SOL    HW123696   5.360   2.261   2.215
 7599SOL    HW223697   5.521   2.240   2.228
 7600SOL     OW23698   1.437   1.735   3.031
 7600SOL    HW123699   1.484   1.796   3.095
 7600SOL    HW223700   1.388   1.790   2.963
 7601SOL     OW23701   2.236   5.545   2.565
 7601SOL    HW123702   2.221   5.628   2.619
 7601SOL    HW223703   2.188   5.468   2.609
 7602SOL     OW23704   2.132   3.925   6.380
 7602SOL    HW123705   2.074   4.006   6.374
 7602SOL    HW223706   2.110   3.875   6.464
 7603SOL     OW23707   1.498   6.095   6.262
 7603SOL    HW123708   1.416   6.105   6.205
 7603SOL    HW223709   1.477   6.124   6.355
 7604SOL     OW23710   2.181   3.773   4.474
 7604SOL    HW123711   2.179   3.845   4.404
 7604SOL    HW223712   2.215   3.811   4.560
 7605SOL     OW23713   1.439   0.581   1.263
 7605SOL    HW123714   1.367   0.572   1.332
 7605SOL    HW223715   1.498   0.500   1.265
 7606SOL     OW23716   5.866   4.134   5.163
 7606SOL    HW123717   5.820   4.221   5.182
 7606SOL    HW223718   5.802   4.058   5.180
 7607SOL     OW23719   3.299   5.493   0.314
 7607SOL    HW123720   3.227   5.494   0.244
 7607SOL    HW223721   3.268   5.440   0.393
 7608SOL     OW23722   4.135   3.716   1.973
 7608SOL    HW123723   4.128   3.678   2.065
 7608SOL    HW223724   4.143   3.642   1.906
 7609SOL     OW23725   1.301   3.560   4.451
 7609SOL    HW123726   1.302   3.595   4.545
 7609SOL    HW223727   1.383   3.589   4.403
 7610SOL     OW23728   4.660   4.843   5.953
 7610SOL    HW123729   4.624   4.793   6.032
 7610SOL    HW223730   4.733   4.904   5.983
 7611SOL     OW23731   6.099   3.528   1.904
 7611SOL    HW123732   6.116   3.501   1.999
 7611SOL    HW223733   6.054   3.454   1.856
 7612SOL     OW23734   4.621   2.686   3.233
 7612SOL    HW123735   4.685   2.758   3.205
 7612SOL    HW223736   4.608   2.622   3.158
 7613SOL     OW23737   6.802   2.957   1.037
 7613SOL    HW123738   6.780   2.877   1.093
 7613SOL    HW223739   6.891   2.943   0.992
 7614SOL     OW23740   4.960   3.164   0.469
 7614SOL    HW123741   4.970   3.257   0.432
 7614SOL    HW223742   4.924   3.168   0.562
 7615SOL     OW23743   3.790   5.732   0.804
 7615SOL    HW123744   3.742   5.730   0.717
 7615SOL    HW223745   3.791   5.641   0.844
 7616SOL     OW23746   5.619   6.097   4.692
 7616SOL    HW123747   5.525   6.105   4.725
 7616SOL    HW223748   5.636   6.166   4.622
 7617SOL     OW23749   3.962   5.645   2.298
 7617SOL    HW123750   3.962   5.720   2.365
 7617SOL    HW223751   4.028   5.665   2.226
 7618SOL     OW23752   6.885   1.221   5.513
 7618SOL    HW123753   6.902   1.131   5.553
 7618SOL    HW223754   6.886   1.215   5.414
 7619SOL     OW23755   5.825   2.720   5.414
 7619SOL    HW123756   5.783   2.655   5.351
 7619SOL    HW223757   5.754   2.770   5.462
 7620SOL     OW23758   4.208   5.943   0.928
 7620SOL    HW123759   4.137   5.937   0.858
 7620SOL    HW223760   4.250   5.853   0.940
 7621SOL     OW23761   6.595   1.411   1.203
 7621SOL    HW123762   6.618   1.451   1.292
 7621SOL    HW223763   6.678   1.373   1.161
 7622SOL     OW23764   4.520   5.269   6.987
 7622SOL    HW123765   4.597   5.326   6.957
 7622SOL    HW223766   4.527   5.252   0.067
 7623SOL     OW23767   4.472   4.337   0.144
 7623SOL    HW123768   4.410   4.274   0.097
 7623SOL    HW223769   4.454   4.334   0.243
 7624SOL     OW23770   6.942   3.317   4.830
 7624SOL    HW123771   6.856   3.280   4.864
 7624SOL    HW223772   6.925   3.405   4.784
 7625SOL     OW23773   4.547   0.228   1.806
 7625SOL    HW123774   4.451   0.256   1.808
 7625SOL    HW223775   4.605   0.304   1.835
 7626SOL     OW23776   5.917   0.321   4.323
 7626SOL    HW123777   5.845   0.252   4.326
 7626SOL    HW223778   6.005   0.279   4.344
 7627SOL     OW23779   4.688   3.078   6.895
 7627SOL    HW123780   4.669   3.167   6.937
 7627SOL    HW223781   4.763   3.089   6.829
 7628SOL     OW23782   3.509   2.005   2.049
 7628SOL    HW123783   3.598   2.051   2.052
 7628SOL    HW223784   3.445   2.054   2.108
 7629SOL     OW23785   0.006   6.348   3.150
 7629SOL    HW123786   0.035   6.258   3.183
 7629SOL    HW223787   0.015   6.352   3.051
 7630SOL     OW23788   0.164   6.819   1.167
 7630SOL    HW123789   0.107   6.899   1.188
 7630SOL    HW223790   0.260   6.845   1.172
 7631SOL     OW23791   0.720   1.011   6.062
 7631SOL    HW123792   0.726   1.060   5.974
 7631SOL    HW223793   0.760   0.920   6.052
 7632SOL     OW23794   4.167   3.118   1.407
 7632SOL    HW123795   4.164   3.094   1.504
 7632SOL    HW223796   4.137   3.212   1.395
 7633SOL     OW23797   5.225   0.719   0.934
 7633SOL    HW123798   5.283   0.704   1.014
 7633SOL    HW223799   5.178   0.807   0.942
 7634SOL     OW23800   1.854   1.903   2.584
 7634SOL    HW123801   1.945   1.878   2.551
 7634SOL    HW223802   1.862   1.964   2.662
 7635SOL     OW23803   2.914   5.206   5.073
 7635SOL    HW123804   2.817   5.227   5.068
 7635SOL    HW223805   2.941   5.149   4.995
 7636SOL     OW23806   1.559   2.772   3.911
 7636SOL    HW123807   1.521   2.865   3.911
 7636SOL    HW223808   1.624   2.762   3.987
 7637SOL     OW23809   1.856   5.216   2.240
 7637SOL    HW123810   1.947   5.257   2.248
 7637SOL    HW223811   1.817   5.239   2.151
 7638SOL     OW23812   2.522   6.204   1.286
 7638SOL    HW123813   2.554   6.158   1.203
 7638SOL    HW223814   2.570   6.291   1.296
 7639SOL     OW23815   0.826   2.189   0.543
 7639SOL    HW123816   0.925   2.196   0.538
 7639SOL    HW223817   0.787   2.213   0.454
 7640SOL     OW23818   2.506   1.020   6.002
 7640SOL    HW123819   2.466   1.017   5.910
 7640SOL    HW223820   2.516   0.927   6.037
 7641SOL     OW23821   1.280   3.735   2.659
 7641SOL    HW123822   1.247   3.712   2.567
 7641SOL    HW223823   1.378   3.749   2.657
 7642SOL     OW23824   3.463   1.551   2.983
 7642SOL    HW123825   3.372   1.532   3.018
 7642SOL    HW223826   3.516   1.466   2.979
 7643SOL     OW23827   4.638   2.683   3.501
 7643SOL    HW123828   4.604   2.681   3.407
 7643SOL    HW223829   4.727   2.728   3.503
 7644SOL     OW23830   6.004   1.611   1.943
 7644SOL    HW123831   5.987   1.680   1.873
 7644SOL    HW223832   6.036   1.656   2.027
 7645SOL     OW23833   4.612   3.609   5.582
 7645SOL    HW123834   4.605   3.704   5.613
 7645SOL    HW223835   4.566   3.599   5.494
 7646SOL     OW23836   1.258   3.405   3.319
 7646SOL    HW123837   1.260   3.434   3.414
 7646SOL    HW223838   1.352   3.393   3.286
 7647SOL     OW23839   6.600   2.944   3.331
 7647SOL    HW123840   6.617   2.846   3.340
 7647SOL    HW223841   6.502   2.961   3.326
 7648SOL     OW23842   3.194   1.389   3.021
 7648SOL    HW123843   3.125   1.318   3.031
 7648SOL    HW223844   3.221   1.395   2.925
 7649SOL     OW23845   0.756   0.960   3.140
 7649SOL    HW123846   0.663   0.923   3.141
 7649SOL    HW223847   0.752   1.060   3.131
 7650SOL     OW23848   4.986   1.311   0.661
 7650SOL    HW123849   5.055   1.381   0.683
 7650SOL    HW223850   4.911   1.318   0.727
 7651SOL     OW23851   2.253   0.567   3.599
 7651SOL    HW123852   2.168   0.619   3.590
 7651SOL    HW223853   2.299   0.593   3.684
 7652SOL     OW23854   6.176   3.349   5.771
 7652SOL    HW123855   6.240   3.330   5.696
 7652SOL    HW223856   6.223   3.402   5.842
 7653SOL     OW23857   1.143   1.404   0.058
 7653SOL    HW123858   1.178   1.385   0.150
 7653SOL    HW223859   1.208   1.370   7.008
 7654SOL     OW23860   4.820   3.076   4.400
 7654SOL    HW123861   4.746   3.020   4.364
 7654SOL    HW223862   4.792   3.117   4.487
 7655SOL     OW23863   4.609   6.738   3.100
 7655SOL    HW123864   4.584   6.763   3.194
 7655SOL    HW223865   4.655   6.649   3.101
 7656SOL     OW23866   3.152   3.841   6.286
 7656SOL    HW123867   3.143   3.860   6.189
 7656SOL    HW223868   3.240   3.875   6.319
 7657SOL     OW23869   1.375   2.521   4.141
 7657SOL    HW123870   1.355   2.455   4.068
 7657SOL    HW223871   1.318   2.603   4.129
 7658SOL     OW23872   4.132   6.636   6.272
 7658SOL    HW123873   4.065   6.705   6.245
 7658SOL    HW223874   4.091   6.545   6.269
 7659SOL     OW23875   5.891   4.750   6.271
 7659SOL    HW123876   5.979   4.763   6.317
 7659SOL    HW223877   5.864   4.836   6.226
 7660SOL     OW23878   0.392   5.920   3.763
 7660SOL    HW123879   0.392   6.020   3.757
 7660SOL    HW223880   0.298   5.886   3.758
 7661SOL     OW23881   5.683   2.202   5.094
 7661SOL    HW123882   5.761   2.233   5.040
 7661SOL    HW223883   5.712   2.131   5.158
 7662SOL     OW23884   1.113   2.908   3.250
 7662SOL    HW123885   1.186   2.961   3.294
 7662SOL    HW223886   1.029   2.962   3.250
 7663SOL     OW23887   0.341   5.041   5.235
 7663SOL    HW123888   0.321   4.947   5.210
 7663SOL    HW223889   0.369   5.092   5.154
 7664SOL     OW23890   4.027   6.937   1.578
 7664SOL    HW123891   3.982   0.005   1.602
 7664SOL    HW223892   3.957   6.869   1.554
 7665SOL     OW23893   6.109   0.183   4.893
 7665SOL    HW123894   6.116   0.249   4.967
 7665SOL    HW223895   6.036   0.118   4.912
 7666SOL     OW23896   0.666   5.292   1.955
 7666SOL    HW123897   0.597   5.359   1.926
 7666SOL    HW223898   0.690   5.232   1.879
 7667SOL     OW23899   4.489   6.884   2.112
 7667SOL    HW123900   4.553   6.836   2.052
 7667SOL    HW223901   4.537   6.914   2.195
 7668SOL     OW23902   3.391   4.741   0.280
 7668SOL    HW123903   3.417   4.806   0.351
 7668SOL    HW223904   3.323   4.678   0.317
 7669SOL     OW23905   4.720   1.448   4.695
 7669SOL    HW123906   4.738   1.441   4.597
 7669SOL    HW223907   4.663   1.528   4.713
 7670SOL     OW23908   0.888   4.819   0.177
 7670SOL    HW123909   0.933   4.875   0.108
 7670SOL    HW223910   0.859   4.877   0.253
 7671SOL     OW23911   4.621   1.019   1.672
 7671SOL    HW123912   4.702   1.042   1.619
 7671SOL    HW223913   4.539   1.036   1.617
 7672SOL     OW23914   0.470   6.685   2.135
 7672SOL    HW123915   0.477   6.593   2.174
 7672SOL    HW223916   0.562   6.720   2.117
 7673SOL     OW23917   1.464   6.431   0.803
 7673SOL    HW123918   1.530   6.395   0.869
 7673SOL    HW223919   1.378   6.380   0.813
 7674SOL     OW23920   5.691   0.907   3.144
 7674SOL    HW123921   5.759   0.964   3.099
 7674SOL    HW223922   5.678   0.937   3.238
 7675SOL     OW23923   6.110   6.818   2.449
 7675SOL    HW123924   6.060   6.743   2.494
 7675SOL    HW223925   6.135   6.790   2.357
 7676SOL     OW23926   3.068   2.368   0.817
 7676SOL    HW123927   3.096   2.395   0.725
 7676SOL    HW223928   3.149   2.352   0.873
 7677SOL     OW23929   0.372   4.915   1.447
 7677SOL    HW123930   0.296   4.859   1.479
 7677SOL    HW223931   0.364   4.930   1.349
 7678SOL     OW23932   1.608   3.174   5.022
 7678SOL    HW123933   1.583   3.201   5.115
 7678SOL    HW223934   1.707   3.164   5.015
 7679SOL     OW23935   3.168   5.886   5.491
 7679SOL    HW123936   3.105   5.929   5.555
 7679SOL    HW223937   3.242   5.950   5.469
 7680SOL     OW23938   0.804   0.952   6.926
 7680SOL    HW123939   0.802   0.872   6.986
 7680SOL    HW223940   0.864   1.022   6.965
 7681SOL     OW23941   2.919   1.331   1.079
 7681SOL    HW123942   2.909   1.372   1.170
 7681SOL    HW223943   2.950   1.399   1.014
 7682SOL     OW23944   3.371   0.284   2.206
 7682SOL    HW123945   3.375   0.369   2.259
 7682SOL    HW223946   3.415   0.298   2.117
 7683SOL     OW23947   5.620   1.958   4.515
 7683SOL    HW123948   5.555   1.979   4.588
 7683SOL    HW223949   5.713   1.960   4.551
 7684SOL     OW23950   2.833   1.845   1.819
 7684SOL    HW123951   2.888   1.928   1.834
 7684SOL    HW223952   2.846   1.813   1.726
 7685SOL     OW23953   2.738   2.026   5.839
 7685SOL    HW123954   2.645   2.020   5.876
 7685SOL    HW223955   2.800   2.056   5.911
 7686SOL     OW23956   6.745   6.403   3.300
 7686SOL    HW123957   6.836   6.402   3.258
 7686SOL    HW223958   6.705   6.494   3.290
 7687SOL     OW23959   5.668   4.826   3.538
 7687SOL    HW123960   5.697   4.808   3.444
 7687SOL    HW223961   5.747   4.819   3.599
 7688SOL     OW23962   0.808   6.148   5.167
 7688SOL    HW123963   0.752   6.161   5.249
 7688SOL    HW223964   0.795   6.055   5.132
 7689SOL     OW23965   5.497   6.567   2.629
 7689SOL    HW123966   5.455   6.582   2.719
 7689SOL    HW223967   5.425   6.565   2.559
 7690SOL     OW23968   5.247   5.243   0.446
 7690SOL    HW123969   5.322   5.218   0.507
 7690SOL    HW223970   5.276   5.232   0.351
 7691SOL     OW23971   5.177   3.924   4.511
 7691SOL    HW123972   5.159   3.994   4.442
 7691SOL    HW223973   5.230   3.849   4.470
 7692SOL     OW23974   0.671   6.265   1.814
 7692SOL    HW123975   0.645   6.170   1.797
 7692SOL    HW223976   0.688   6.311   1.726
 7693SOL     OW23977   3.172   6.630   1.602
 7693SOL    HW123978   3.220   6.547   1.630
 7693SOL    HW223979   3.161   6.629   1.502
 7694SOL     OW23980   5.784   3.465   4.641
 7694SOL    HW123981   5.882   3.477   4.655
 7694SOL    HW223982   5.737   3.464   4.729
 7695SOL     OW23983   5.162   0.240   0.689
 7695SOL    HW123984   5.100   0.193   0.752
 7695SOL    HW223985   5.124   0.330   0.666
 7696SOL     OW23986   0.783   0.733   5.398
 7696SOL    HW123987   0.684   0.750   5.402
 7696SOL    HW223988   0.817   0.715   5.490
 7697SOL     OW23989   2.358   6.790   2.464
 7697SOL    HW123990   2.451   6.752   2.465
 7697SOL    HW223991   2.336   6.826   2.555
 7698SOL     OW23992   5.799   1.020   4.124
 7698SOL    HW123993   5.742   0.939   4.137
 7698SOL    HW223994   5.884   1.010   4.176
 7699SOL     OW23995   3.401   5.384   6.693
 7699SOL    HW123996   3.428   5.334   6.775
 7699SOL    HW223997   3.351   5.323   6.631
 7700SOL     OW23998   4.311   5.876   3.018
 7700SOL    HW123999   4.365   5.877   3.102
 7700SOL    HW224000   4.272   5.966   3.002
 7701SOL     OW24001   6.319   2.228   0.649
 7701SOL    HW124002   6.239   2.208   0.593
 7701SOL    HW224003   6.360   2.142   0.679
 7702SOL     OW24004   3.045   6.303   5.182
 7702SOL    HW124005   3.062   6.399   5.160
 7702SOL    HW224006   3.054   6.289   5.280
 7703SOL     OW24007   6.787   6.328   6.871
 7703SOL    HW124008   6.780   6.296   6.777
 7703SOL    HW224009   6.827   6.420   6.872
 7704SOL     OW24010   5.976   6.788   4.732
 7704SOL    HW124011   6.051   6.739   4.687
 7704SOL    HW224012   5.924   6.839   4.664
 7705SOL     OW24013   2.783   5.846   0.453
 7705SOL    HW124014   2.718   5.903   0.401
 7705SOL    HW224015   2.862   5.825   0.396
 7706SOL     OW24016   3.698   3.757   4.922
 7706SOL    HW124017   3.740   3.818   4.855
 7706SOL    HW224018   3.622   3.707   4.881
 7707SOL     OW24019   6.896   4.728   5.812
 7707SOL    HW124020   6.946   4.698   5.893
 7707SOL    HW224021   6.809   4.769   5.841
 7708SOL     OW24022   0.880   6.621   5.836
 7708SOL    HW124023   0.922   6.533   5.816
 7708SOL    HW224024   0.912   6.653   5.926
 7709SOL     OW24025   6.228   4.200   2.124
 7709SOL    HW124026   6.141   4.183   2.076
 7709SOL    HW224027   6.209   4.229   2.218
 7710SOL     OW24028   3.084   2.031   0.139
 7710SOL    HW124029   3.055   2.045   0.234
 7710SOL    HW224030   3.183   2.019   0.136
 7711SOL     OW24031   5.737   6.273   6.075
 7711SOL    HW124032   5.730   6.174   6.060
 7711SOL    HW224033   5.833   6.298   6.085
 7712SOL     OW24034   6.186   5.252   1.802
 7712SOL    HW124035   6.262   5.209   1.753
 7712SOL    HW224036   6.177   5.211   1.893
 7713SOL     OW24037   2.207   4.095   0.930
 7713SOL    HW124038   2.199   4.188   0.967
 7713SOL    HW224039   2.118   4.065   0.898
 7714SOL     OW24040   0.053   3.457   5.877
 7714SOL    HW124041   0.034   3.375   5.930
 7714SOL    HW224042   0.140   3.497   5.906
 7715SOL     OW24043   3.029   2.087   0.395
 7715SOL    HW124044   3.121   2.125   0.406
 7715SOL    HW224045   2.996   2.054   0.484
 7716SOL     OW24046   6.775   4.420   2.086
 7716SOL    HW124047   6.698   4.478   2.060
 7716SOL    HW224048   6.860   4.473   2.081
 7717SOL     OW24049   2.114   0.955   5.249
 7717SOL    HW124050   2.198   0.994   5.211
 7717SOL    HW224051   2.035   1.006   5.215
 7718SOL     OW24052   6.877   3.846   3.581
 7718SOL    HW124053   6.966   3.891   3.586
 7718SOL    HW224054   6.863   3.792   3.664
 7719SOL     OW24055   0.028   4.423   5.308
 7719SOL    HW124056   6.987   4.399   5.231
 7719SOL    HW224057   0.062   4.340   5.352
 7720SOL     OW24058   6.741   1.299   6.600
 7720SOL    HW124059   6.796   1.311   6.682
 7720SOL    HW224060   6.716   1.389   6.563
 7721SOL     OW24061   0.430   5.053   2.548
 7721SOL    HW124062   0.482   5.103   2.618
 7721SOL    HW224063   0.440   5.099   2.460
 7722SOL     OW24064   1.242   4.079   3.499
 7722SOL    HW124065   1.325   4.108   3.547
 7722SOL    HW224066   1.266   4.012   3.428
 7723SOL     OW24067   4.274   3.546   6.014
 7723SOL    HW124068   4.325   3.493   6.082
 7723SOL    HW224069   4.334   3.616   5.975
 7724SOL     OW24070   3.223   4.011   1.145
 7724SOL    HW124071   3.213   3.946   1.070
 7724SOL    HW224072   3.139   4.012   1.199
 7725SOL     OW24073   6.706   1.694   2.935
 7725SOL    HW124074   6.655   1.763   2.883
 7725SOL    HW224075   6.643   1.643   2.994
 7726SOL     OW24076   1.528   4.776   5.489
 7726SOL    HW124077   1.580   4.855   5.521
 7726SOL    HW224078   1.452   4.758   5.551
 7727SOL     OW24079   0.123   2.407   2.697
 7727SOL    HW124080   0.169   2.321   2.675
 7727SOL    HW224081   0.185   2.484   2.680
 7728SOL     OW24082   1.900   3.265   5.025
 7728SOL    HW124083   1.863   3.324   5.098
 7728SOL    HW224084   1.999   3.277   5.021
 7729SOL     OW24085   5.748   2.161   1.569
 7729SOL    HW124086   5.713   2.085   1.515
 7729SOL    HW224087   5.789   2.126   1.654
 7730SOL     OW24088   6.307   5.740   0.589
 7730SOL    HW124089   6.388   5.779   0.544
 7730SOL    HW224090   6.335   5.675   0.659
 7731SOL     OW24091   0.042   1.343   6.705
 7731SOL    HW124092   6.985   1.402   6.735
 7731SOL    HW224093   0.080   1.295   6.785
 7732SOL     OW24094   4.879   0.166   0.454
 7732SOL    HW124095   4.945   0.235   0.425
 7732SOL    HW224096   4.795   0.210   0.484
 7733SOL     OW24097   5.071   6.117   2.586
 7733SOL    HW124098   5.124   6.039   2.551
 7733SOL    HW224099   5.121   6.160   2.661
 7734SOL     OW24100   1.500   5.032   3.837
 7734SOL    HW124101   1.539   5.005   3.926
 7734SOL    HW224102   1.558   5.101   3.795
 7735SOL     OW24103   4.779   6.481   6.854
 7735SOL    HW124104   4.756   6.420   6.930
 7735SOL    HW224105   4.808   6.426   6.776
 7736SOL     OW24106   3.489   2.887   0.004
 7736SOL    HW124107   3.522   2.925   6.935
 7736SOL    HW224108   3.420   2.818   7.003
 7737SOL     OW24109   3.197   6.529   2.404
 7737SOL    HW124110   3.139   6.551   2.483
 7737SOL    HW224111   3.146   6.472   2.340
 7738SOL     OW24112   2.685   5.746   0.096
 7738SOL    HW124113   2.655   5.714   0.006
 7738SOL    HW224114   2.742   5.676   0.139
 7739SOL     OW24115   0.432   2.178   1.093
 7739SOL    HW124116   0.350   2.235   1.092
 7739SOL    HW224117   0.475   2.183   1.184
 7740SOL     OW24118   2.626   1.387   3.054
 7740SOL    HW124119   2.553   1.318   3.058
 7740SOL    HW224120   2.648   1.407   2.959
 7741SOL     OW24121   0.121   4.717   5.676
 7741SOL    HW124122   0.053   4.727   5.749
 7741SOL    HW224123   0.165   4.805   5.659
 7742SOL     OW24124   4.234   1.612   3.508
 7742SOL    HW124125   4.166   1.674   3.471
 7742SOL    HW224126   4.221   1.520   3.469
 7743SOL     OW24127   5.501   1.663   6.997
 7743SOL    HW124128   5.560   1.703   6.928
 7743SOL    HW224129   5.533   1.691   0.070
 7744SOL     OW24130   0.408   0.290   4.097
 7744SOL    HW124131   0.458   0.373   4.123
 7744SOL    HW224132   0.465   0.210   4.116
 7745SOL     OW24133   3.755   1.461   0.136
 7745SOL    HW124134   3.815   1.390   0.172
 7745SOL    HW224135   3.768   1.468   0.037
 7746SOL     OW24136   1.775   0.485   0.565
 7746SOL    HW124137   1.702   0.478   0.632
 7746SOL    HW224138   1.839   0.557   0.593
 7747SOL     OW24139   5.134   5.935   1.499
 7747SOL    HW124140   5.100   5.952   1.591
 7747SOL    HW224141   5.121   6.016   1.443
 7748SOL     OW24142   2.993   3.606   4.548
 7748SOL    HW124143   3.074   3.566   4.589
 7748SOL    HW224144   2.953   3.542   4.482
 7749SOL     OW24145   3.124   3.427   5.610
 7749SOL    HW124146   3.100   3.406   5.705
 7749SOL    HW224147   3.195   3.498   5.609
 7750SOL     OW24148   0.297   6.439   1.526
 7750SOL    HW124149   0.281   6.471   1.620
 7750SOL    HW224150   0.211   6.407   1.487
 7751SOL     OW24151   1.714   2.614   2.262
 7751SOL    HW124152   1.798   2.560   2.270
 7751SOL    HW224153   1.706   2.675   2.341
 7752SOL     OW24154   5.753   5.932   5.805
 7752SOL    HW124155   5.773   5.885   5.891
 7752SOL    HW224156   5.808   6.015   5.799
 7753SOL     OW24157   1.956   0.798   4.065
 7753SOL    HW124158   1.983   0.710   4.025
 7753SOL    HW224159   1.900   0.781   4.146
 7754SOL     OW24160   3.680   6.652   2.326
 7754SOL    HW124161   3.632   6.688   2.406
 7754SOL    HW224162   3.616   6.603   2.267
 7755SOL     OW24163   1.064   2.024   5.826
 7755SOL    HW124164   1.061   1.924   5.825
 7755SOL    HW224165   1.116   2.054   5.906
 7756SOL     OW24166   2.540   6.054   2.497
 7756SOL    HW124167   2.454   6.075   2.451
 7756SOL    HW224168   2.548   5.955   2.507
 7757SOL     OW24169   6.381   4.905   6.206
 7757SOL    HW124170   6.423   4.819   6.236
 7757SOL    HW224171   6.445   4.980   6.223
 7758SOL     OW24172   1.739   0.904   5.777
 7758SOL    HW124173   1.760   0.949   5.690
 7758SOL    HW224174   1.646   0.868   5.775
 7759SOL     OW24175   1.020   1.390   5.496
 7759SOL    HW124176   1.111   1.350   5.498
 7759SOL    HW224177   1.027   1.487   5.472
 7760SOL     OW24178   5.178   3.361   3.311
 7760SOL    HW124179   5.142   3.311   3.232
 7760SOL    HW224180   5.263   3.316   3.342
 7761SOL     OW24181   0.163   0.548   4.886
 7761SOL    HW124182   0.243   0.490   4.873
 7761SOL    HW224183   0.184   0.641   4.855
 7762SOL     OW24184   3.324   6.806   3.916
 7762SOL    HW124185   3.397   6.866   3.880
 7762SOL    HW224186   3.274   6.765   3.840
 7763SOL     OW24187   1.763   1.149   6.678
 7763SOL    HW124188   1.832   1.077   6.679
 7763SOL    HW224189   1.690   1.125   6.613
 7764SOL     OW24190   3.728   2.941   3.496
 7764SOL    HW124191   3.676   2.910   3.576
 7764SOL    HW224192   3.797   3.006   3.525
 7765SOL     OW24193   6.276   3.344   5.339
 7765SOL    HW124194   6.323   3.312   5.422
 7765SOL    HW224195   6.289   3.442   5.330
 7766SOL     OW24196   6.792   3.516   0.288
 7766SOL    HW124197   6.862   3.507   0.217
 7766SOL    HW224198   6.815   3.593   0.348
 7767SOL     OW24199   5.025   6.322   2.390
 7767SOL    HW124200   4.955   6.256   2.363
 7767SOL    HW224201   5.088   6.280   2.455
 7768SOL     OW24202   4.384   4.805   2.702
 7768SOL    HW124203   4.313   4.797   2.632
 7768SOL    HW224204   4.355   4.871   2.771
 7769SOL     OW24205   4.393   1.945   3.470
 7769SOL    HW124206   4.294   1.951   3.474
 7769SOL    HW224207   4.431   1.956   3.562
 7770SOL     OW24208   1.759   4.454   3.144
 7770SOL    HW124209   1.818   4.528   3.174
 7770SOL    HW224210   1.753   4.453   3.045
 7771SOL     OW24211   3.410   2.250   5.332
 7771SOL    HW124212   3.349   2.292   5.265
 7771SOL    HW224213   3.429   2.155   5.306
 7772SOL     OW24214   4.654   0.165   2.178
 7772SOL    HW124215   4.621   0.086   2.229
 7772SOL    HW224216   4.577   0.210   2.133
 7773SOL     OW24217   2.897   6.100   4.814
 7773SOL    HW124218   2.855   6.015   4.846
 7773SOL    HW224219   2.874   6.115   4.718
 7774SOL     OW24220   4.883   2.014   5.203
 7774SOL    HW124221   4.889   1.956   5.284
 7774SOL    HW224222   4.835   1.966   5.130
 7775SOL     OW24223   4.731   5.400   1.072
 7775SOL    HW124224   4.696   5.321   1.021
 7775SOL    HW224225   4.662   5.431   1.137
 7776SOL     OW24226   1.054   5.574   6.140
 7776SOL    HW124227   1.036   5.592   6.237
 7776SOL    HW224228   0.968   5.578   6.089
 7777SOL     OW24229   6.312   6.444   4.766
 7777SOL    HW124230   6.335   6.460   4.862
 7777SOL    HW224231   6.356   6.359   4.735
 7778SOL     OW24232   5.424   4.156   0.878
 7778SOL    HW124233   5.443   4.248   0.843
 7778SOL    HW224234   5.403   4.161   0.975
 7779SOL     OW24235   2.772   2.543   1.689
 7779SOL    HW124236   2.677   2.540   1.722
 7779SOL    HW224237   2.834   2.514   1.761
 7780SOL     OW24238   1.327   4.751   4.918
 7780SOL    HW124239   1.263   4.742   4.994
 7780SOL    HW224240   1.276   4.759   4.832
 7781SOL     OW24241   1.644   5.265   1.027
 7781SOL    HW124242   1.567   5.280   0.966
 7781SOL    HW224243   1.728   5.300   0.985
 7782SOL     OW24244   5.718   5.147   4.205
 7782SOL    HW124245   5.747   5.184   4.294
 7782SOL    HW224246   5.621   5.124   4.208
 7783SOL     OW24247   1.181   5.695   5.406
 7783SOL    HW124248   1.233   5.710   5.490
 7783SOL    HW224249   1.212   5.759   5.335
 7784SOL     OW24250   3.621   2.223   1.635
 7784SOL    HW124251   3.658   2.234   1.728
 7784SOL    HW224252   3.647   2.302   1.580
 7785SOL     OW24253   2.065   5.903   4.561
 7785SOL    HW124254   2.017   5.875   4.477
 7785SOL    HW224255   1.998   5.916   4.634
 7786SOL     OW24256   2.731   6.579   0.039
 7786SOL    HW124257   2.645   6.585   7.007
 7786SOL    HW224258   2.801   6.541   6.997
 7787SOL     OW24259   1.992   2.678   5.873
 7787SOL    HW124260   1.974   2.777   5.868
 7787SOL    HW224261   2.039   2.649   5.790
 7788SOL     OW24262   2.403   5.003   1.118
 7788SOL    HW124263   2.482   5.031   1.063
 7788SOL    HW224264   2.394   5.064   1.197
 7789SOL     OW24265   1.808   6.302   6.160
 7789SOL    HW124266   1.770   6.335   6.247
 7789SOL    HW224267   1.749   6.229   6.123
 7790SOL     OW24268   5.614   5.717   3.448
 7790SOL    HW124269   5.545   5.740   3.516
 7790SOL    HW224270   5.704   5.747   3.481
 7791SOL     OW24271   2.709   4.933   3.020
 7791SOL    HW124272   2.802   4.921   2.985
 7791SOL    HW224273   2.679   4.847   3.062
 7792SOL     OW24274   1.865   5.365   5.005
 7792SOL    HW124275   1.947   5.407   5.044
 7792SOL    HW224276   1.785   5.395   5.056
 7793SOL     OW24277   3.576   0.872   1.032
 7793SOL    HW124278   3.674   0.870   1.017
 7793SOL    HW224279   3.528   0.860   0.945
 7794SOL     OW24280   6.089   3.829   2.969
 7794SOL    HW124281   6.089   3.911   3.025
 7794SOL    HW224282   6.159   3.766   3.003
 7795SOL     OW24283   1.900   3.703   5.979
 7795SOL    HW124284   1.986   3.707   5.928
 7795SOL    HW224285   1.901   3.624   6.040
 7796SOL     OW24286   3.938   3.069   3.683
 7796SOL    HW124287   3.988   3.156   3.689
 7796SOL    HW224288   4.004   2.994   3.682
 7797SOL     OW24289   1.762   0.431   1.513
 7797SOL    HW124290   1.796   0.523   1.534
 7797SOL    HW224291   1.694   0.436   1.440
 7798SOL     OW24292   2.109   3.516   4.580
 7798SOL    HW124293   2.117   3.516   4.680
 7798SOL    HW224294   2.149   3.600   4.543
 7799SOL     OW24295   1.829   5.845   2.289
 7799SOL    HW124296   1.731   5.828   2.287
 7799SOL    HW224297   1.877   5.761   2.262
 7800SOL     OW24298   0.895   5.731   1.526
 7800SOL    HW124299   0.909   5.756   1.622
 7800SOL    HW224300   0.918   5.634   1.513
 7801SOL     OW24301   2.548   2.098   2.189
 7801SOL    HW124302   2.585   2.015   2.148
 7801SOL    HW224303   2.495   2.148   2.120
 7802SOL     OW24304   5.502   3.118   1.036
 7802SOL    HW124305   5.565   3.041   1.046
 7802SOL    HW224306   5.553   3.203   1.035
 7803SOL     OW24307   4.202   2.023   5.901
 7803SOL    HW124308   4.166   2.053   5.812
 7803SOL    HW224309   4.138   1.958   5.943
 7804SOL     OW24310   4.320   2.017   5.038
 7804SOL    HW124311   4.282   2.092   4.983
 7804SOL    HW224312   4.249   1.948   5.053
 7805SOL     OW24313   5.546   2.292   1.697
 7805SOL    HW124314   5.606   2.226   1.652
 7805SOL    HW224315   5.473   2.318   1.634
 7806SOL     OW24316   6.411   2.078   0.084
 7806SOL    HW124317   6.357   2.015   0.027
 7806SOL    HW224318   6.381   2.070   0.179
 7807SOL     OW24319   0.777   4.846   5.886
 7807SOL    HW124320   0.803   4.755   5.853
 7807SOL    HW224321   0.756   4.905   5.809
 7808SOL     OW24322   6.236   3.568   4.557
 7808SOL    HW124323   6.301   3.593   4.486
 7808SOL    HW224324   6.203   3.475   4.541
 7809SOL     OW24325   3.333   4.994   4.591
 7809SOL    HW124326   3.272   5.071   4.611
 7809SOL    HW224327   3.298   4.943   4.513
 7810SOL     OW24328   3.130   0.083   4.567
 7810SOL    HW124329   3.115   0.069   4.469
 7810SOL    HW224330   3.041   0.095   4.612
 7811SOL     OW24331   1.547   5.779   1.733
 7811SOL    HW124332   1.519   5.853   1.671
 7811SOL    HW224333   1.469   5.752   1.790
 7812SOL     OW24334   7.001   2.352   4.282
 7812SOL    HW124335   6.974   2.397   4.197
 7812SOL    HW224336   0.054   2.284   4.263
 7813SOL     OW24337   4.463   2.164   0.270
 7813SOL    HW124338   4.440   2.176   0.173
 7813SOL    HW224339   4.389   2.201   0.326
 7814SOL     OW24340   0.274   3.848   3.868
 7814SOL    HW124341   0.346   3.890   3.923
 7814SOL    HW224342   0.213   3.796   3.927
 7815SOL     OW24343   5.989   1.276   4.941
 7815SOL    HW124344   5.934   1.349   4.981
 7815SOL    HW224345   6.077   1.271   4.989
 7816SOL     OW24346   1.450   2.442   6.160
 7816SOL    HW124347   1.528   2.503   6.176
 7816SOL    HW224348   1.373   2.470   6.217
 7817SOL     OW24349   4.691   4.451   3.931
 7817SOL    HW124350   4.729   4.543   3.937
 7817SOL    HW224351   4.601   4.450   3.974
 7818SOL     OW24352   4.416   0.294   2.128
 7818SOL    HW124353   4.332   0.277   2.077
 7818SOL    HW224354   4.405   0.377   2.183
 7819SOL     OW24355   6.899   4.220   3.033
 7819SOL    HW124356   6.952   4.303   3.012
 7819SOL    HW224357   6.931   4.182   3.120
 7820SOL     OW24358   1.459   1.395   5.800
 7820SOL    HW124359   1.422   1.306   5.774
 7820SOL    HW224360   1.423   1.421   5.890
 7821SOL     OW24361   6.078   5.382   6.884
 7821SOL    HW124362   6.071   5.439   6.802
 7821SOL    HW224363   6.136   5.303   6.865
 7822SOL     OW24364   1.217   1.553   6.745
 7822SOL    HW124365   1.253   1.487   6.811
 7822SOL    HW224366   1.183   1.504   6.664
 7823SOL     OW24367   2.897   3.549   4.941
 7823SOL    HW124368   2.965   3.607   4.987
 7823SOL    HW224369   2.808   3.594   4.942
 7824SOL     OW24370   5.922   1.105   3.893
 7824SOL    HW124371   5.866   1.079   3.972
 7824SOL    HW224372   5.870   1.169   3.836
 7825SOL     OW24373   1.438   3.188   1.032
 7825SOL    HW124374   1.461   3.154   0.941
 7825SOL    HW224375   1.428   3.111   1.095
 7826SOL     OW24376   5.980   1.225   0.078
 7826SOL    HW124377   5.991   1.258   7.001
 7826SOL    HW224378   6.013   1.296   0.141
 7827SOL     OW24379   3.112   4.803   1.501
 7827SOL    HW124380   3.130   4.810   1.403
 7827SOL    HW224381   3.077   4.890   1.536
 7828SOL     OW24382   0.365   4.967   0.044
 7828SOL    HW124383   0.416   4.935   0.123
 7828SOL    HW224384   0.331   4.889   7.010
 7829SOL     OW24385   1.725   2.926   0.443
 7829SOL    HW124386   1.822   2.925   0.419
 7829SOL    HW224387   1.704   2.846   0.499
 7830SOL     OW24388   2.828   4.149   5.796
 7830SOL    HW124389   2.737   4.127   5.830
 7830SOL    HW224390   2.860   4.075   5.737
 7831SOL     OW24391   1.542   5.944   1.002
 7831SOL    HW124392   1.582   5.861   1.042
 7831SOL    HW224393   1.531   6.012   1.074
 7832SOL     OW24394   4.578   1.124   3.683
 7832SOL    HW124395   4.642   1.137   3.759
 7832SOL    HW224396   4.618   1.063   3.616
 7833SOL     OW24397   0.590   0.620   6.385
 7833SOL    HW124398   0.512   0.614   6.323
 7833SOL    HW224399   0.578   0.697   6.447
 7834SOL     OW24400   6.179   1.039   3.535
 7834SOL    HW124401   6.102   1.023   3.474
 7834SOL    HW224402   6.261   1.059   3.481
 7835SOL     OW24403   2.758   1.775   5.368
 7835SOL    HW124404   2.726   1.847   5.306
 7835SOL    HW224405   2.783   1.815   5.456
 7836SOL     OW24406   3.159   2.987   5.026
 7836SOL    HW124407   3.121   3.032   5.107
 7836SOL    HW224408   3.085   2.966   4.962
 7837SOL     OW24409   6.082   5.902   1.004
 7837SOL    HW124410   6.082   5.848   0.921
 7837SOL    HW224411   5.990   5.939   1.020
 7838SOL     OW24412   4.532   6.930   6.768
 7838SOL    HW124413   4.471   6.938   6.847
 7838SOL    HW224414   4.539   6.834   6.741
 7839SOL     OW24415   6.034   3.926   5.207
 7839SOL    HW124416   6.085   3.920   5.121
 7839SOL    HW224417   5.964   3.997   5.200
 7840SOL     OW24418   6.173   2.701   3.944
 7840SOL    HW124419   6.133   2.790   3.967
 7840SOL    HW224420   6.144   2.633   4.011
 7841SOL     OW24421   4.090   1.860   6.385
 7841SOL    HW124422   4.077   1.959   6.386
 7841SOL    HW224423   4.042   1.819   6.463
 7842SOL     OW24424   1.606   2.185   2.730
 7842SOL    HW124425   1.698   2.154   2.754
 7842SOL    HW224426   1.612   2.251   2.655
 7843SOL     OW24427   5.532   5.395   2.640
 7843SOL    HW124428   5.509   5.492   2.625
 7843SOL    HW224429   5.543   5.350   2.551
 7844SOL     OW24430   3.942   6.517   2.398
 7844SOL    HW124431   3.913   6.477   2.485
 7844SOL    HW224432   3.872   6.578   2.364
 7845SOL     OW24433   5.276   1.863   3.849
 7845SOL    HW124434   5.299   1.777   3.895
 7845SOL    HW224435   5.234   1.926   3.914
 7846SOL     OW24436   1.125   1.214   3.094
 7846SOL    HW124437   1.142   1.128   3.143
 7846SOL    HW224438   1.080   1.279   3.155
 7847SOL     OW24439   0.075   1.650   3.165
 7847SOL    HW124440   0.048   1.582   3.097
 7847SOL    HW224441   0.077   1.741   3.123
 7848SOL     OW24442   3.430   3.322   0.615
 7848SOL    HW124443   3.496   3.299   0.687
 7848SOL    HW224444   3.437   3.255   0.541
 7849SOL     OW24445   5.688   4.168   3.192
 7849SOL    HW124446   5.723   4.161   3.285
 7849SOL    HW224447   5.610   4.106   3.181
 7850SOL     OW24448   0.476   1.869   5.194
 7850SOL    HW124449   0.543   1.820   5.139
 7850SOL    HW224450   0.384   1.838   5.170
 7851SOL     OW24451   6.571   1.288   1.743
 7851SOL    HW124452   6.582   1.253   1.651
 7851SOL    HW224453   6.544   1.214   1.805
 7852SOL     OW24454   2.361   1.402   5.754
 7852SOL    HW124455   2.421   1.355   5.818
 7852SOL    HW224456   2.377   1.367   5.661
 7853SOL     OW24457   4.666   2.080   1.545
 7853SOL    HW124458   4.652   2.159   1.484
 7853SOL    HW224459   4.590   2.074   1.610
 7854SOL     OW24460   3.452   3.941   0.120
 7854SOL    HW124461   3.545   3.962   0.091
 7854SOL    HW224462   3.451   3.920   0.218
 7855SOL     OW24463   3.942   5.338   5.315
 7855SOL    HW124464   3.952   5.438   5.306
 7855SOL    HW224465   3.925   5.298   5.225
 7856SOL     OW24466   6.419   4.299   5.328
 7856SOL    HW124467   6.487   4.336   5.392
 7856SOL    HW224468   6.354   4.370   5.302
 7857SOL     OW24469   5.763   2.013   5.310
 7857SOL    HW124470   5.700   2.062   5.371
 7857SOL    HW224471   5.857   2.024   5.342
 7858SOL     OW24472   5.151   5.764   3.422
 7858SOL    HW124473   5.161   5.756   3.521
 7858SOL    HW224474   5.053   5.769   3.399
 7859SOL     OW24475   5.405   2.493   6.482
 7859SOL    HW124476   5.356   2.530   6.404
 7859SOL    HW224477   5.433   2.567   6.543
 7860SOL     OW24478   4.487   0.236   2.610
 7860SOL    HW124479   4.451   0.293   2.536
 7860SOL    HW224480   4.534   0.157   2.571
 7861SOL     OW24481   3.630   5.380   1.731
 7861SOL    HW124482   3.633   5.293   1.781
 7861SOL    HW224483   3.614   5.455   1.794
 7862SOL     OW24484   3.101   3.920   1.625
 7862SOL    HW124485   3.003   3.910   1.609
 7862SOL    HW224486   3.117   3.932   1.723
 7863SOL     OW24487   0.635   5.841   3.673
 7863SOL    HW124488   0.622   5.744   3.651
 7863SOL    HW224489   0.552   5.877   3.716
 7864SOL     OW24490   0.554   5.529   5.206
 7864SOL    HW124491   0.558   5.628   5.218
 7864SOL    HW224492   0.532   5.508   5.111
 7865SOL     OW24493   5.598   6.724   4.335
 7865SOL    HW124494   5.693   6.693   4.341
 7865SOL    HW224495   5.550   6.699   4.419
 7866SOL     OW24496   1.431   1.860   6.758
 7866SOL    HW124497   1.482   1.781   6.724
 7866SOL    HW224498   1.383   1.835   6.842
 7867SOL     OW24499   5.131   6.674   3.106
 7867SOL    HW124500   5.196   6.692   3.179
 7867SOL    HW224501   5.140   6.744   3.035
 7868SOL     OW24502   5.421   6.861   1.666
 7868SOL    HW124503   5.460   6.909   1.744
 7868SOL    HW224504   5.480   6.784   1.641
 7869SOL     OW24505   6.007   3.924   0.168
 7869SOL    HW124506   5.997   3.914   0.069
 7869SOL    HW224507   6.082   3.867   0.199
 7870SOL     OW24508   3.688   4.900   4.268
 7870SOL    HW124509   3.729   4.991   4.255
 7870SOL    HW224510   3.760   4.833   4.286
 7871SOL     OW24511   4.909   3.140   2.343
 7871SOL    HW124512   4.844   3.073   2.308
 7871SOL    HW224513   5.001   3.118   2.310
 7872SOL     OW24514   2.410   4.410   3.382
 7872SOL    HW124515   2.476   4.430   3.309
 7872SOL    HW224516   2.423   4.474   3.457
 7873SOL     OW24517   5.607   0.320   6.198
 7873SOL    HW124518   5.606   0.221   6.186
 7873SOL    HW224519   5.647   0.363   6.117
 7874SOL     OW24520   5.456   1.624   0.862
 7874SOL    HW124521   5.407   1.662   0.940
 7874SOL    HW224522   5.428   1.673   0.778
 7875SOL     OW24523   5.705   2.211   6.745
 7875SOL    HW124524   5.756   2.214   6.658
 7875SOL    HW224525   5.763   2.172   6.816
 7876SOL     OW24526   6.942   6.690   4.556
 7876SOL    HW124527   6.972   6.721   4.466
 7876SOL    HW224528   6.847   6.716   4.570
 7877SOL     OW24529   0.736   2.610   2.914
 7877SOL    HW124530   0.748   2.676   2.840
 7877SOL    HW224531   0.738   2.658   3.002
 7878SOL     OW24532   5.750   5.359   4.000
 7878SOL    HW124533   5.731   5.267   4.034
 7878SOL    HW224534   5.730   5.426   4.073
 7879SOL     OW24535   4.416   5.442   4.385
 7879SOL    HW124536   4.381   5.506   4.317
 7879SOL    HW224537   4.516   5.436   4.375
 7880SOL     OW24538   2.067   5.102   1.306
 7880SOL    HW124539   1.985   5.061   1.345
 7880SOL    HW224540   2.148   5.065   1.352
 7881SOL     OW24541   5.788   4.685   4.795
 7881SOL    HW124542   5.782   4.633   4.881
 7881SOL    HW224543   5.772   4.624   4.718
 7882SOL     OW24544   0.607   3.193   3.319
 7882SOL    HW124545   0.582   3.168   3.226
 7882SOL    HW224546   0.636   3.111   3.369
 7883SOL     OW24547   1.258   0.347   0.818
 7883SOL    HW124548   1.229   0.342   0.913
 7883SOL    HW224549   1.353   0.316   0.810
 7884SOL     OW24550   1.983   4.092   3.821
 7884SOL    HW124551   1.955   4.186   3.841
 7884SOL    HW224552   2.078   4.091   3.790
 7885SOL     OW24553   6.145   5.618   1.535
 7885SOL    HW124554   6.173   5.528   1.503
 7885SOL    HW224555   6.199   5.688   1.489
 7886SOL     OW24556   3.210   5.772   0.695
 7886SOL    HW124557   3.294   5.815   0.662
 7886SOL    HW224558   3.184   5.813   0.783
 7887SOL     OW24559   3.156   2.575   5.304
 7887SOL    HW124560   3.182   2.495   5.250
 7887SOL    HW224561   3.057   2.577   5.316
 7888SOL     OW24562   6.332   6.295   5.278
 7888SOL    HW124563   6.271   6.218   5.258
 7888SOL    HW224564   6.393   6.271   5.354
 7889SOL     OW24565   0.832   4.565   0.869
 7889SOL    HW124566   0.838   4.661   0.840
 7889SOL    HW224567   0.848   4.559   0.968
 7890SOL     OW24568   0.382   3.589   3.897
 7890SOL    HW124569   0.381   3.687   3.874
 7890SOL    HW224570   0.366   3.536   3.814
 7891SOL     OW24571   2.373   4.327   4.374
 7891SOL    HW124572   2.382   4.305   4.471
 7891SOL    HW224573   2.374   4.243   4.320
 7892SOL     OW24574   2.067   1.936   3.731
 7892SOL    HW124575   2.139   1.947   3.662
 7892SOL    HW224576   2.003   1.865   3.701
 7893SOL     OW24577   6.705   6.337   2.077
 7893SOL    HW124578   6.644   6.397   2.026
 7893SOL    HW224579   6.797   6.377   2.080
 7894SOL     OW24580   4.122   6.433   0.721
 7894SOL    HW124581   4.026   6.406   0.727
 7894SOL    HW224582   4.160   6.401   0.634
 7895SOL     OW24583   5.560   0.572   5.267
 7895SOL    HW124584   5.505   0.533   5.193
 7895SOL    HW224585   5.634   0.510   5.291
 7896SOL     OW24586   3.808   3.427   1.244
 7896SOL    HW124587   3.788   3.524   1.229
 7896SOL    HW224588   3.746   3.390   1.313
 7897SOL     OW24589   3.247   2.762   0.426
 7897SOL    HW124590   3.221   2.823   0.500
 7897SOL    HW224591   3.188   2.778   0.346
 7898SOL     OW24592   3.922   1.851   3.615
 7898SOL    HW124593   3.863   1.917   3.568
 7898SOL    HW224594   3.873   1.813   3.694
 7899SOL     OW24595   5.677   0.032   0.829
 7899SOL    HW124596   5.748   0.011   0.896
 7899SOL    HW224597   5.606   6.980   0.832
 7900SOL     OW24598   1.223   5.523   1.921
 7900SOL    HW124599   1.307   5.518   1.866
 7900SOL    HW224600   1.158   5.455   1.889
 7901SOL     OW24601   4.376   1.089   6.362
 7901SOL    HW124602   4.397   0.996   6.332
 7901SOL    HW224603   4.280   1.110   6.342
 7902SOL     OW24604   6.288   6.989   1.221
 7902SOL    HW124605   6.367   0.015   1.179
 7902SOL    HW224606   6.269   0.013   1.310
 7903SOL     OW24607   4.851   1.234   1.654
 7903SOL    HW124608   4.784   1.210   1.584
 7903SOL    HW224609   4.914   1.303   1.618
 7904SOL     OW24610   6.121   0.032   3.096
 7904SOL    HW124611   6.091   6.972   3.040
 7904SOL    HW224612   6.158   7.016   3.183
 7905SOL     OW24613   5.684   1.769   0.502
 7905SOL    HW124614   5.633   1.697   0.550
 7905SOL    HW224615   5.625   1.810   0.432
 7906SOL     OW24616   0.301   5.325   1.010
 7906SOL    HW124617   0.379   5.371   0.966
 7906SOL    HW224618   0.232   5.392   1.036
 7907SOL     OW24619   5.012   1.661   2.794
 7907SOL    HW124620   5.026   1.564   2.814
 7907SOL    HW224621   5.056   1.717   2.864
 7908SOL     OW24622   1.571   0.712   5.625
 7908SOL    HW124623   1.642   0.742   5.562
 7908SOL    HW224624   1.487   0.692   5.573
 7909SOL     OW24625   5.177   4.872   4.445
 7909SOL    HW124626   5.247   4.826   4.499
 7909SOL    HW224627   5.168   4.825   4.357
 7910SOL     OW24628   3.042   3.883   6.014
 7910SOL    HW124629   2.944   3.862   6.017
 7910SOL    HW224630   3.088   3.816   5.956
 7911SOL     OW24631   1.766   4.065   0.381
 7911SOL    HW124632   1.766   4.013   0.297
 7911SOL    HW224633   1.819   4.149   0.368
 7912SOL     OW24634   6.311   4.801   0.796
 7912SOL    HW124635   6.369   4.771   0.872
 7912SOL    HW224636   6.348   4.886   0.757
 7913SOL     OW24637   1.303   4.481   1.826
 7913SOL    HW124638   1.327   4.562   1.879
 7913SOL    HW224639   1.311   4.502   1.728
 7914SOL     OW24640   0.619   4.615   0.235
 7914SOL    HW124641   0.587   4.709   0.222
 7914SOL    HW224642   0.588   4.581   0.324
 7915SOL     OW24643   4.916   2.642   2.238
 7915SOL    HW124644   4.852   2.674   2.168
 7915SOL    HW224645   4.868   2.631   2.325
 7916SOL     OW24646   0.867   4.858   4.963
 7916SOL    HW124647   0.779   4.817   4.986
 7916SOL    HW224648   0.933   4.836   5.035
 7917SOL     OW24649   3.309   3.361   4.526
 7917SOL    HW124650   3.396   3.319   4.550
 7917SOL    HW224651   3.267   3.311   4.450
 7918SOL     OW24652   0.417   1.110   4.988
 7918SOL    HW124653   0.504   1.159   4.998
 7918SOL    HW224654   0.424   1.047   4.910
 7919SOL     OW24655   1.931   4.588   2.785
 7919SOL    HW124656   1.997   4.564   2.857
 7919SOL    HW224657   1.838   4.578   2.821
 7920SOL     OW24658   0.404   6.804   0.518
 7920SOL    HW124659   0.392   6.706   0.503
 7920SOL    HW224660   0.315   6.849   0.520
 7921SOL     OW24661   5.290   6.120   1.828
 7921SOL    HW124662   5.279   6.185   1.903
 7921SOL    HW224663   5.332   6.166   1.750
 7922SOL     OW24664   6.994   6.557   0.790
 7922SOL    HW124665   6.988   6.579   0.888
 7922SOL    HW224666   0.071   6.541   0.766
 7923SOL     OW24667   3.560   0.466   0.895
 7923SOL    HW124668   3.479   0.518   0.868
 7923SOL    HW224669   3.532   0.389   0.952
 7924SOL     OW24670   5.002   6.801   1.683
 7924SOL    HW124671   4.931   6.806   1.614
 7924SOL    HW224672   4.965   6.758   1.766
 7925SOL     OW24673   1.306   1.484   6.338
 7925SOL    HW124674   1.361   1.567   6.335
 7925SOL    HW224675   1.209   1.508   6.345
 7926SOL     OW24676   4.756   1.530   5.509
 7926SOL    HW124677   4.780   1.483   5.595
 7926SOL    HW224678   4.704   1.613   5.530
 7927SOL     OW24679   4.315   5.462   2.754
 7927SOL    HW124680   4.285   5.512   2.835
 7927SOL    HW224681   4.399   5.502   2.718
 7928SOL     OW24682   1.363   1.538   5.207
 7928SOL    HW124683   1.439   1.526   5.144
 7928SOL    HW224684   1.297   1.464   5.195
 7929SOL     OW24685   4.801   4.246   5.610
 7929SOL    HW124686   4.862   4.198   5.548
 7929SOL    HW224687   4.709   4.248   5.571
 7930SOL     OW24688   3.994   5.607   4.827
 7930SOL    HW124689   3.944   5.570   4.904
 7930SOL    HW224690   4.089   5.573   4.829
 7931SOL     OW24691   2.766   2.863   7.008
 7931SOL    HW124692   2.807   2.936   6.952
 7931SOL    HW224693   2.709   2.805   6.950
 7932SOL     OW24694   1.192   6.486   6.820
 7932SOL    HW124695   1.123   6.436   6.766
 7932SOL    HW224696   1.225   6.564   6.767
 7933SOL     OW24697   0.408   5.885   5.901
 7933SOL    HW124698   0.504   5.897   5.878
 7933SOL    HW224699   0.352   5.905   5.821
 7934SOL     OW24700   1.844   4.878   6.889
 7934SOL    HW124701   1.917   4.907   6.951
 7934SOL    HW224702   1.855   4.781   6.868
 7935SOL     OW24703   5.632   6.284   0.825
 7935SOL    HW124704   5.688   6.345   0.769
 7935SOL    HW224705   5.671   6.191   0.822
 7936SOL     OW24706   3.525   6.121   2.493
 7936SOL    HW124707   3.559   6.164   2.576
 7936SOL    HW224708   3.515   6.022   2.507
 7937SOL     OW24709   6.628   6.506   3.755
 7937SOL    HW124710   6.556   6.473   3.694
 7937SOL    HW224711   6.679   6.429   3.793
 7938SOL     OW24712   6.841   5.450   3.549
 7938SOL    HW124713   6.754   5.403   3.566
 7938SOL    HW224714   6.916   5.388   3.571
 7939SOL     OW24715   1.332   2.971   4.802
 7939SOL    HW124716   1.429   2.980   4.823
 7939SOL    HW224717   1.318   2.978   4.704
 7940SOL     OW24718   1.695   3.586   1.695
 7940SOL    HW124719   1.620   3.605   1.758
 7940SOL    HW224720   1.688   3.491   1.663
 7941SOL     OW24721   5.671   0.974   1.380
 7941SOL    HW124722   5.691   1.064   1.417
 7941SOL    HW224723   5.755   0.921   1.372
 7942SOL     OW24724   6.778   5.855   2.462
 7942SOL    HW124725   6.848   5.880   2.529
 7942SOL    HW224726   6.698   5.915   2.474
 7943SOL     OW24727   5.904   3.584   0.190
 7943SOL    HW124728   5.990   3.556   0.232
 7943SOL    HW224729   5.922   3.634   0.105
 7944SOL     OW24730   0.825   2.555   1.339
 7944SOL    HW124731   0.916   2.542   1.378
 7944SOL    HW224732   0.765   2.482   1.371
 7945SOL     OW24733   5.756   5.075   1.079
 7945SOL    HW124734   5.682   5.039   1.022
 7945SOL    HW224735   5.726   5.159   1.124
 7946SOL     OW24736   2.926   0.700   5.401
 7946SOL    HW124737   2.954   0.790   5.366
 7946SOL    HW224738   2.838   0.675   5.362
 7947SOL     OW24739   3.717   2.255   6.200
 7947SOL    HW124740   3.679   2.312   6.127
 7947SOL    HW224741   3.645   2.227   6.263
 7948SOL     OW24742   1.054   0.133   1.003
 7948SOL    HW124743   0.963   0.158   0.971
 7948SOL    HW224744   1.101   0.215   1.036
 7949SOL     OW24745   4.293   4.693   4.733
 7949SOL    HW124746   4.293   4.621   4.664
 7949SOL    HW224747   4.322   4.655   4.821
 7950SOL     OW24748   4.970   5.138   4.352
 7950SOL    HW124749   4.878   5.159   4.320
 7950SOL    HW224750   4.966   5.069   4.424
 7951SOL     OW24751   2.217   4.103   2.102
 7951SOL    HW124752   2.222   4.004   2.095
 7951SOL    HW224753   2.131   4.136   2.063
 7952SOL     OW24754   0.282   3.710   0.248
 7952SOL    HW124755   0.244   3.691   0.338
 7952SOL    HW224756   0.344   3.635   0.221
 7953SOL     OW24757   2.806   2.186   3.992
 7953SOL    HW124758   2.791   2.223   3.901
 7953SOL    HW224759   2.721   2.147   4.027
 7954SOL     OW24760   3.382   4.376   6.702
 7954SOL    HW124761   3.459   4.351   6.643
 7954SOL    HW224762   3.303   4.399   6.645
 7955SOL     OW24763   1.612   0.110   6.487
 7955SOL    HW124764   1.627   0.202   6.452
 7955SOL    HW224765   1.546   0.113   6.562
 7956SOL     OW24766   3.684   6.275   2.221
 7956SOL    HW124767   3.651   6.324   2.302
 7956SOL    HW224768   3.754   6.330   2.175
 7957SOL     OW24769   0.938   0.969   1.564
 7957SOL    HW124770   0.839   0.971   1.575
 7957SOL    HW224771   0.962   0.913   1.485
 7958SOL     OW24772   3.450   5.348   4.741
 7958SOL    HW124773   3.384   5.286   4.699
 7958SOL    HW224774   3.542   5.311   4.730
 7959SOL     OW24775   4.701   5.913   0.525
 7959SOL    HW124776   4.635   5.838   0.518
 7959SOL    HW224777   4.774   5.887   0.588
 7960SOL     OW24778   2.412   0.983   6.458
 7960SOL    HW124779   2.367   1.053   6.514
 7960SOL    HW224780   2.488   0.944   6.509
 7961SOL     OW24781   6.732   1.370   0.712
 7961SOL    HW124782   6.653   1.316   0.741
 7961SOL    HW224783   6.704   1.435   0.642
 7962SOL     OW24784   1.118   0.795   6.134
 7962SOL    HW124785   1.124   0.720   6.199
 7962SOL    HW224786   1.021   0.813   6.112
 7963SOL     OW24787   6.258   6.265   4.452
 7963SOL    HW124788   6.283   6.192   4.388
 7963SOL    HW224789   6.278   6.235   4.546
 7964SOL     OW24790   0.363   4.653   2.474
 7964SOL    HW124791   0.414   4.689   2.551
 7964SOL    HW224792   0.298   4.585   2.506
 7965SOL     OW24793   3.997   2.264   6.007
 7965SOL    HW124794   3.939   2.321   6.064
 7965SOL    HW224795   4.043   2.320   5.938
 7966SOL     OW24796   1.519   2.614   5.859
 7966SOL    HW124797   1.538   2.631   5.956
 7966SOL    HW224798   1.471   2.527   5.850
 7967SOL     OW24799   2.889   6.549   3.185
 7967SOL    HW124800   2.879   6.518   3.090
 7967SOL    HW224801   2.910   6.470   3.244
 7968SOL     OW24802   1.719   2.867   3.608
 7968SOL    HW124803   1.788   2.802   3.638
 7968SOL    HW224804   1.630   2.841   3.645
 7969SOL     OW24805   4.084   6.146   0.023
 7969SOL    HW124806   4.178   6.181   0.018
 7969SOL    HW224807   4.020   6.220   0.001
 7970SOL     OW24808   6.038   2.903   2.818
 7970SOL    HW124809   6.123   2.879   2.772
 7970SOL    HW224810   6.040   3.000   2.843
 7971SOL     OW24811   3.502   2.197   0.493
 7971SOL    HW124812   3.563   2.134   0.541
 7971SOL    HW224813   3.524   2.291   0.520
 7972SOL     OW24814   2.095   3.025   0.340
 7972SOL    HW124815   2.163   3.098   0.344
 7972SOL    HW224816   2.009   3.061   0.305
 7973SOL     OW24817   4.316   4.700   4.289
 7973SOL    HW124818   4.303   4.785   4.339
 7973SOL    HW224819   4.341   4.627   4.353
 7974SOL     OW24820   5.979   1.143   5.365
 7974SOL    HW124821   5.911   1.107   5.301
 7974SOL    HW224822   6.070   1.109   5.341
 7975SOL     OW24823   6.367   1.480   2.478
 7975SOL    HW124824   6.356   1.577   2.501
 7975SOL    HW224825   6.457   1.448   2.507
 7976SOL     OW24826   0.531   6.902   6.137
 7976SOL    HW124827   0.597   6.850   6.084
 7976SOL    HW224828   0.517   6.991   6.094
 7977SOL     OW24829   4.692   6.406   2.335
 7977SOL    HW124830   4.747   6.323   2.347
 7977SOL    HW224831   4.748   6.476   2.291
 7978SOL     OW24832   5.575   3.705   6.671
 7978SOL    HW124833   5.574   3.667   6.578
 7978SOL    HW224834   5.660   3.679   6.717
 7979SOL     OW24835   4.340   6.031   5.137
 7979SOL    HW124836   4.268   6.030   5.207
 7979SOL    HW224837   4.306   6.076   5.055
 7980SOL     OW24838   2.550   5.214   0.020
 7980SOL    HW124839   2.497   5.297   0.035
 7980SOL    HW224840   2.620   5.205   0.090
 7981SOL     OW24841   0.590   5.558   1.377
 7981SOL    HW124842   0.519   5.499   1.338
 7981SOL    HW224843   0.555   5.600   1.461
 7982SOL     OW24844   0.927   1.230   0.065
 7982SOL    HW124845   0.968   1.317   0.092
 7982SOL    HW224846   0.967   1.200   6.996
 7983SOL     OW24847   6.099   2.262   1.523
 7983SOL    HW124848   6.030   2.267   1.595
 7983SOL    HW224849   6.085   2.179   1.469
 7984SOL     OW24850   1.741   1.457   1.010
 7984SOL    HW124851   1.791   1.509   1.079
 7984SOL    HW224852   1.786   1.369   0.995
 7985SOL     OW24853   2.598   1.074   4.238
 7985SOL    HW124854   2.689   1.033   4.232
 7985SOL    HW224855   2.563   1.063   4.331
 7986SOL     OW24856   2.747   1.135   6.513
 7986SOL    HW124857   2.730   1.036   6.512
 7986SOL    HW224858   2.831   1.154   6.464
 7987SOL     OW24859   1.616   2.660   6.145
 7987SOL    HW124860   1.554   2.737   6.156
 7987SOL    HW224861   1.710   2.690   6.156
 7988SOL     OW24862   0.680   2.244   4.239
 7988SOL    HW124863   0.743   2.229   4.316
 7988SOL    HW224864   0.630   2.160   4.221
 7989SOL     OW24865   3.680   2.900   5.575
 7989SOL    HW124866   3.722   2.814   5.603
 7989SOL    HW224867   3.696   2.969   5.645
 7990SOL     OW24868   0.188   3.918   4.530
 7990SOL    HW124869   0.278   3.909   4.572
 7990SOL    HW224870   0.129   3.972   4.590
 7991SOL     OW24871   6.028   6.683   3.498
 7991SOL    HW124872   5.985   6.600   3.461
 7991SOL    HW224873   5.958   6.740   3.541
 7992SOL     OW24874   1.371   0.679   1.667
 7992SOL    HW124875   1.344   0.602   1.609
 7992SOL    HW224876   1.470   0.682   1.675
 7993SOL     OW24877   0.871   0.022   0.258
 7993SOL    HW124878   0.946   6.983   0.223
 7993SOL    HW224879   0.827   0.069   0.182
 7994SOL     OW24880   4.363   6.507   3.652
 7994SOL    HW124881   4.301   6.467   3.720
 7994SOL    HW224882   4.439   6.444   3.637
 7995SOL     OW24883   4.749   5.703   3.787
 7995SOL    HW124884   4.824   5.642   3.761
 7995SOL    HW224885   4.674   5.693   3.722
 7996SOL     OW24886   3.314   6.904   4.576
 7996SOL    HW124887   3.373   6.877   4.499
 7996SOL    HW224888   3.260   6.984   4.550
 7997SOL     OW24889   0.354   1.565   1.199
 7997SOL    HW124890   0.366   1.611   1.287
 7997SOL    HW224891   0.340   1.467   1.215
 7998SOL     OW24892   3.294   6.252   1.172
 7998SOL    HW124893   3.255   6.317   1.238
 7998SOL    HW224894   3.378   6.291   1.133
 7999SOL     OW24895   0.744   0.122   6.254
 7999SOL    HW124896   0.731   0.209   6.301
 7999SOL    HW224897   0.655   0.084   6.229
 8000SOL     OW24898   5.155   0.158   6.552
 8000SOL    HW124899   5.160   0.172   6.651
 8000SOL    HW224900   5.189   0.067   6.529
 8001SOL     OW24901   4.178   6.451   1.152
 8001SOL    HW124902   4.258   6.413   1.106
 8001SOL    HW224903   4.189   6.442   1.251
 8002SOL     OW24904   0.750   1.948   5.887
 8002SOL    HW124905   0.849   1.956   5.898
 8002SOL    HW224906   0.715   1.879   5.950
 8003SOL     OW24907   2.944   5.225   2.475
 8003SOL    HW124908   2.923   5.160   2.402
 8003SOL    HW224909   2.967   5.313   2.435
 8004SOL     OW24910   2.116   3.543   2.938
 8004SOL    HW124911   2.025   3.585   2.934
 8004SOL    HW224912   2.120   3.464   2.878
 8005SOL     OW24913   3.123   0.889   1.585
 8005SOL    HW124914   3.041   0.841   1.616
 8005SOL    HW224915   3.191   0.823   1.555
 8006SOL     OW24916   1.803   0.535   6.233
 8006SOL    HW124917   1.787   0.539   6.134
 8006SOL    HW224918   1.791   0.626   6.272
 8007SOL     OW24919   6.951   0.233   4.273
 8007SOL    HW124920   6.970   0.331   4.274
 8007SOL    HW224921   0.012   0.184   4.234
 8008SOL     OW24922   4.340   5.671   6.835
 8008SOL    HW124923   4.284   5.608   6.780
 8008SOL    HW224924   4.328   5.649   6.932
 8009SOL     OW24925   5.405   1.045   2.393
 8009SOL    HW124926   5.350   0.990   2.456
 8009SOL    HW224927   5.459   1.111   2.446
 8010SOL     OW24928   0.875   1.219   6.156
 8010SOL    HW124929   0.970   1.191   6.173
 8010SOL    HW224930   0.833   1.154   6.092
 8011SOL     OW24931   3.576   2.833   0.899
 8011SOL    HW124932   3.628   2.788   0.972
 8011SOL    HW224933   3.629   2.911   0.864
 8012SOL     OW24934   1.486   4.264   1.874
 8012SOL    HW124935   1.439   4.341   1.831
 8012SOL    HW224936   1.540   4.215   1.805
 8013SOL     OW24937   1.175   5.443   3.606
 8013SOL    HW124938   1.163   5.403   3.515
 8013SOL    HW224939   1.266   5.484   3.612
 8014SOL     OW24940   0.951   6.494   5.344
 8014SOL    HW124941   0.913   6.583   5.320
 8014SOL    HW224942   1.019   6.467   5.276
 8015SOL     OW24943   2.803   0.769   6.914
 8015SOL    HW124944   2.800   0.671   6.894
 8015SOL    HW224945   2.726   0.793   6.973
 8016SOL     OW24946   5.475   6.906   5.973
 8016SOL    HW124947   5.546   6.933   5.907
 8016SOL    HW224948   5.388   6.946   5.946
 8017SOL     OW24949   5.538   0.015   0.145
 8017SOL    HW124950   5.612   0.082   0.151
 8017SOL    HW224951   5.520   6.994   0.236
 8018SOL     OW24952   3.358   1.703   5.950
 8018SOL    HW124953   3.264   1.718   5.919
 8018SOL    HW224954   3.422   1.740   5.883
 8019SOL     OW24955   2.200   4.669   6.758
 8019SOL    HW124956   2.231   4.586   6.712
 8019SOL    HW224957   2.123   4.708   6.708
 8020SOL     OW24958   5.451   0.866   0.814
 8020SOL    HW124959   5.521   0.800   0.843
 8020SOL    HW224960   5.362   0.836   0.847
 8021SOL     OW24961   1.255   2.739   1.212
 8021SOL    HW124962   1.207   2.663   1.168
 8021SOL    HW224963   1.204   2.824   1.196
 8022SOL     OW24964   5.385   6.513   2.901
 8022SOL    HW124965   5.435   6.458   2.968
 8022SOL    HW224966   5.288   6.515   2.925
 8023SOL     OW24967   5.735   5.655   2.850
 8023SOL    HW124968   5.710   5.721   2.778
 8023SOL    HW224969   5.662   5.652   2.918
 8024SOL     OW24970   2.123   5.060   6.809
 8024SOL    HW124971   2.218   5.031   6.797
 8024SOL    HW224972   2.075   5.055   6.721
 8025SOL     OW24973   1.973   6.555   6.730
 8025SOL    HW124974   1.968   6.646   6.771
 8025SOL    HW224975   1.883   6.529   6.695
 8026SOL     OW24976   0.820   4.145   6.948
 8026SOL    HW124977   0.747   4.110   6.889
 8026SOL    HW224978   0.870   4.068   6.988
 8027SOL     OW24979   4.734   0.506   5.489
 8027SOL    HW124980   4.743   0.570   5.565
 8027SOL    HW224981   4.710   0.556   5.406
 8028SOL     OW24982   2.974   5.419   4.772
 8028SOL    HW124983   2.992   5.511   4.736
 8028SOL    HW224984   2.940   5.361   4.699
 8029SOL     OW24985   4.913   2.852   1.512
 8029SOL    HW124986   4.920   2.887   1.419
 8029SOL    HW224987   4.868   2.919   1.571
 8030SOL     OW24988   4.423   4.358   0.963
 8030SOL    HW124989   4.467   4.286   1.017
 8030SOL    HW224990   4.348   4.318   0.909
 8031SOL     OW24991   5.993   6.589   2.052
 8031SOL    HW124992   5.985   6.642   1.968
 8031SOL    HW224993   5.946   6.502   2.041
 8032SOL     OW24994   6.763   5.094   1.445
 8032SOL    HW124995   6.669   5.073   1.472
 8032SOL    HW224996   6.818   5.107   1.528
 8033SOL     OW24997   5.149   1.413   5.611
 8033SOL    HW124998   5.061   1.386   5.650
 8033SOL    HW224999   5.220   1.404   5.681
 8034SOL     OW25000   5.515   6.672   4.587
 8034SOL    HW125001   5.435   6.614   4.606
 8034SOL    HW225002   5.596   6.631   4.629
 8035SOL     OW25003   5.236   1.648   4.349
 8035SOL    HW125004   5.239   1.747   4.361
 8035SOL    HW225005   5.330   1.612   4.346
 8036SOL     OW25006   6.755   3.871   3.318
 8036SOL    HW125007   6.747   3.968   3.297
 8036SOL    HW225008   6.761   3.859   3.417
 8037SOL     OW25009   1.784   3.344   0.121
 8037SOL    HW125010   1.759   3.428   0.073
 8037SOL    HW225011   1.726   3.269   0.090
 8038SOL     OW25012   4.063   6.780   2.621
 8038SOL    HW125013   4.084   6.682   2.615
 8038SOL    HW225014   4.139   6.833   2.582
 8039SOL     OW25015   0.676   2.056   4.506
 8039SOL    HW125016   0.641   2.050   4.412
 8039SOL    HW225017   0.757   2.114   4.506
 8040SOL     OW25018   1.391   5.653   0.107
 8040SOL    HW125019   1.465   5.681   0.045
 8040SOL    HW225020   1.353   5.566   0.074
 8041SOL     OW25021   2.440   1.788   2.814
 8041SOL    HW125022   2.402   1.721   2.878
 8041SOL    HW225023   2.488   1.859   2.865
 8042SOL     OW25024   2.972   3.613   3.754
 8042SOL    HW125025   2.972   3.578   3.661
 8042SOL    HW225026   3.060   3.594   3.797
 8043SOL     OW25027   3.432   0.093   1.768
 8043SOL    HW125028   3.380   0.144   1.699
 8043SOL    HW225029   3.517   0.060   1.727
 8044SOL     OW25030   4.006   2.420   1.473
 8044SOL    HW125031   4.009   2.335   1.421
 8044SOL    HW225032   4.071   2.415   1.549
 8045SOL     OW25033   5.335   1.704   2.541
 8045SOL    HW125034   5.367   1.667   2.629
 8045SOL    HW225035   5.235   1.706   2.540
 8046SOL     OW25036   0.235   5.557   1.378
 8046SOL    HW125037   0.178   5.517   1.449
 8046SOL    HW225038   0.200   5.531   1.288
 8047SOL     OW25039   4.096   5.806   4.642
 8047SOL    HW125040   4.155   5.726   4.634
 8047SOL    HW225041   4.022   5.786   4.707
 8048SOL     OW25042   5.068   0.759   5.586
 8048SOL    HW125043   5.012   0.821   5.532
 8048SOL    HW225044   5.150   0.806   5.618
 8049SOL     OW25045   0.960   0.317   0.151
 8049SOL    HW125046   0.966   0.351   0.057
 8049SOL    HW225047   0.901   0.377   0.205
 8050SOL     OW25048   1.690   4.352   3.383
 8050SOL    HW125049   1.713   4.371   3.288
 8050SOL    HW225050   1.731   4.264   3.410
 8051SOL     OW25051   4.547   5.716   3.571
 8051SOL    HW125052   4.472   5.777   3.597
 8051SOL    HW225053   4.523   5.668   3.487
 8052SOL     OW25054   4.750   1.382   1.873
 8052SOL    HW125055   4.705   1.457   1.826
 8052SOL    HW225056   4.787   1.317   1.806
 8053SOL     OW25057   2.888   3.706   3.286
 8053SOL    HW125058   2.860   3.776   3.351
 8053SOL    HW225059   2.884   3.743   3.193
 8054SOL     OW25060   5.236   6.560   4.648
 8054SOL    HW125061   5.200   6.654   4.644
 8054SOL    HW225062   5.165   6.500   4.686
 8055SOL     OW25063   0.249   0.258   5.560
 8055SOL    HW125064   0.216   0.348   5.588
 8055SOL    HW225065   0.171   0.195   5.555
 8056SOL     OW25066   2.789   1.403   4.283
 8056SOL    HW125067   2.735   1.388   4.200
 8056SOL    HW225068   2.867   1.462   4.262
 8057SOL     OW25069   2.955   1.781   3.143
 8057SOL    HW125070   2.868   1.733   3.157
 8057SOL    HW225071   2.938   1.871   3.104
 8058SOL     OW25072   3.677   0.148   2.390
 8058SOL    HW125073   3.609   0.131   2.461
 8058SOL    HW225074   3.698   0.246   2.387
 8059SOL     OW25075   3.320   2.096   4.875
 8059SOL    HW125076   3.260   2.160   4.923
 8059SOL    HW225077   3.357   2.030   4.940
 8060SOL     OW25078   6.243   2.395   4.723
 8060SOL    HW125079   6.228   2.371   4.820
 8060SOL    HW225080   6.336   2.429   4.711
 8061SOL     OW25081   0.503   0.983   2.927
 8061SOL    HW125082   0.497   1.082   2.919
 8061SOL    HW225083   0.522   0.958   3.022
 8062SOL     OW25084   3.948   4.917   3.905
 8062SOL    HW125085   4.018   4.885   3.970
 8062SOL    HW225086   3.857   4.902   3.943
 8063SOL     OW25087   1.078   2.575   1.437
 8063SOL    HW125088   1.148   2.638   1.403
 8063SOL    HW225089   1.121   2.501   1.488
 8064SOL     OW25090   0.263   3.909   1.970
 8064SOL    HW125091   0.167   3.916   1.997
 8064SOL    HW225092   0.319   3.888   2.050
 8065SOL     OW25093   2.108   5.776   3.473
 8065SOL    HW125094   2.171   5.854   3.479
 8065SOL    HW225095   2.144   5.710   3.408
 8066SOL     OW25096   0.175   2.078   5.589
 8066SOL    HW125097   0.078   2.072   5.613
 8066SOL    HW225098   0.191   2.158   5.532
 8067SOL     OW25099   4.632   2.726   1.793
 8067SOL    HW125100   4.617   2.825   1.790
 8067SOL    HW225101   4.694   2.699   1.720
 8068SOL     OW25102   0.167   3.788   1.303
 8068SOL    HW125103   0.143   3.880   1.271
 8068SOL    HW225104   0.139   3.721   1.234
 8069SOL     OW25105   2.437   6.511   1.481
 8069SOL    HW125106   2.486   6.539   1.399
 8069SOL    HW225107   2.432   6.588   1.545
 8070SOL     OW25108   3.858   3.112   0.189
 8070SOL    HW125109   3.928   3.118   0.118
 8070SOL    HW225110   3.841   3.203   0.227
 8071SOL     OW25111   2.808   6.271   5.030
 8071SOL    HW125112   2.807   6.231   4.938
 8071SOL    HW225113   2.901   6.269   5.066
 8072SOL     OW25114   3.605   1.075   0.756
 8072SOL    HW125115   3.703   1.093   0.754
 8072SOL    HW225116   3.588   0.979   0.736
 8073SOL     OW25117   2.880   5.311   4.564
 8073SOL    HW125118   2.938   5.231   4.549
 8073SOL    HW225119   2.790   5.295   4.522
 8074SOL     OW25120   3.934   2.370   0.645
 8074SOL    HW125121   3.908   2.276   0.668
 8074SOL    HW225122   4.012   2.398   0.701
 8075SOL     OW25123   6.947   0.612   1.031
 8075SOL    HW125124   0.027   0.628   1.018
 8075SOL    HW225125   6.895   0.673   0.972
 8076SOL     OW25126   6.686   1.430   5.288
 8076SOL    HW125127   6.767   1.481   5.316
 8076SOL    HW225128   6.706   1.376   5.206
 8077SOL     OW25129   2.807   5.858   2.116
 8077SOL    HW125130   2.876   5.900   2.058
 8077SOL    HW225131   2.716   5.872   2.076
 8078SOL     OW25132   0.127   1.266   0.204
 8078SOL    HW125133   0.059   1.204   0.163
 8078SOL    HW225134   0.219   1.231   0.184
 8079SOL     OW25135   4.762   1.433   3.495
 8079SOL    HW125136   4.811   1.464   3.577
 8079SOL    HW225137   4.667   1.463   3.501
 8080SOL     OW25138   0.323   2.600   0.449
 8080SOL    HW125139   0.252   2.579   0.382
 8080SOL    HW225140   0.303   2.687   0.494
 8081SOL     OW25141   5.675   5.902   5.283
 8081SOL    HW125142   5.704   5.853   5.202
 8081SOL    HW225143   5.648   5.837   5.354
 8082SOL     OW25144   4.554   6.615   1.945
 8082SOL    HW125145   4.552   6.571   2.035
 8082SOL    HW225146   4.644   6.655   1.929
 8083SOL     OW25147   4.891   3.098   2.661
 8083SOL    HW125148   4.989   3.084   2.674
 8083SOL    HW225149   4.872   3.108   2.563
 8084SOL     OW25150   4.625   0.167   0.604
 8084SOL    HW125151   4.594   0.258   0.630
 8084SOL    HW225152   4.549   0.114   0.566
 8085SOL     OW25153   6.489   6.660   1.666
 8085SOL    HW125154   6.536   6.748   1.659
 8085SOL    HW225155   6.391   6.673   1.657
 8086SOL     OW25156   5.273   0.912   3.230
 8086SOL    HW125157   5.323   0.836   3.273
 8086SOL    HW225158   5.186   0.879   3.194
 8087SOL     OW25159   3.118   1.587   0.566
 8087SOL    HW125160   3.137   1.510   0.627
 8087SOL    HW225161   3.118   1.555   0.471
 8088SOL     OW25162   5.280   2.197   1.299
 8088SOL    HW125163   5.269   2.284   1.250
 8088SOL    HW225164   5.211   2.190   1.371
 8089SOL     OW25165   5.486   2.178   0.599
 8089SOL    HW125166   5.425   2.232   0.541
 8089SOL    HW225167   5.461   2.191   0.695
 8090SOL     OW25168   4.886   1.411   6.900
 8090SOL    HW125169   4.819   1.485   6.892
 8090SOL    HW225170   4.863   1.354   6.979
 8091SOL     OW25171   2.628   3.421   5.371
 8091SOL    HW125172   2.632   3.520   5.383
 8091SOL    HW225173   2.720   3.384   5.357
 8092SOL     OW25174   6.206   1.941   5.067
 8092SOL    HW125175   6.112   1.951   5.034
 8092SOL    HW225176   6.207   1.944   5.166
 8093SOL     OW25177   3.910   5.374   2.764
 8093SOL    HW125178   3.817   5.409   2.758
 8093SOL    HW225179   3.955   5.383   2.676
 8094SOL     OW25180   1.687   3.606   4.906
 8094SOL    HW125181   1.624   3.528   4.900
 8094SOL    HW225182   1.761   3.583   4.970
 8095SOL     OW25183   0.048   4.285   4.815
 8095SOL    HW125184   6.979   4.253   4.777
 8095SOL    HW225185   0.069   4.233   4.897
 8096SOL     OW25186   2.520   6.625   3.355
 8096SOL    HW125187   2.504   6.641   3.257
 8096SOL    HW225188   2.618   6.611   3.370
 8097SOL     OW25189   4.771   0.035   4.008
 8097SOL    HW125190   4.799   0.099   3.937
 8097SOL    HW225191   4.737   6.969   3.965
 8098SOL     OW25192   1.996   0.452   3.453
 8098SOL    HW125193   1.946   0.424   3.371
 8098SOL    HW225194   2.091   0.420   3.446
 8099SOL     OW25195   3.527   0.112   4.576
 8099SOL    HW125196   3.607   0.160   4.612
 8099SOL    HW225197   3.444   0.153   4.615
 8100SOL     OW25198   5.940   1.227   0.642
 8100SOL    HW125199   5.973   1.144   0.688
 8100SOL    HW225200   5.988   1.237   0.554
 8101SOL     OW25201   2.224   0.037   3.137
 8101SOL    HW125202   2.182   0.121   3.101
 8101SOL    HW225203   2.161   6.978   3.124
 8102SOL     OW25204   0.574   4.466   4.014
 8102SOL    HW125205   0.491   4.499   4.060
 8102SOL    HW225206   0.558   4.374   3.979
 8103SOL     OW25207   4.018   0.107   1.166
 8103SOL    HW125208   4.092   0.168   1.139
 8103SOL    HW225209   4.053   0.034   1.225
 8104SOL     OW25210   3.219   0.130   6.220
 8104SOL    HW125211   3.243   0.223   6.245
 8104SOL    HW225212   3.176   0.084   6.298
 8105SOL     OW25213   0.346   2.752   3.202
 8105SOL    HW125214   0.394   2.666   3.216
 8105SOL    HW225215   0.332   2.768   3.105
 8106SOL     OW25216   2.201   5.769   2.709
 8106SOL    HW125217   2.240   5.860   2.694
 8106SOL    HW225218   2.101   5.774   2.705
 8107SOL     OW25219   0.634   5.127   4.317
 8107SOL    HW125220   0.692   5.045   4.319
 8107SOL    HW225221   0.665   5.188   4.244
 8108SOL     OW25222   5.944   3.092   5.282
 8108SOL    HW125223   5.953   3.182   5.323
 8108SOL    HW225224   5.985   3.023   5.343
 8109SOL     OW25225   1.347   3.851   4.514
 8109SOL    HW125226   1.307   3.809   4.596
 8109SOL    HW225227   1.446   3.843   4.517
 8110SOL     OW25228   3.458   6.364   0.805
 8110SOL    HW125229   3.455   6.362   0.905
 8110SOL    HW225230   3.526   6.432   0.775
 8111SOL     OW25231   4.638   0.229   5.042
 8111SOL    HW125232   4.611   0.267   4.953
 8111SOL    HW225233   4.729   0.262   5.065
 8112SOL     OW25234   2.384   2.637   4.821
 8112SOL    HW125235   2.294   2.672   4.795
 8112SOL    HW225236   2.404   2.555   4.767
 8113SOL     OW25237   3.007   3.352   0.810
 8113SOL    HW125238   2.937   3.414   0.777
 8113SOL    HW225239   3.037   3.380   0.901
 8114SOL     OW25240   1.895   3.879   1.898
 8114SOL    HW125241   1.959   3.808   1.926
 8114SOL    HW225242   1.929   3.968   1.928
 8115SOL     OW25243   3.575   0.560   0.081
 8115SOL    HW125244   3.639   0.513   0.020
 8115SOL    HW225245   3.587   0.526   0.174
 8116SOL     OW25246   4.473   5.657   5.750
 8116SOL    HW125247   4.402   5.610   5.803
 8116SOL    HW225248   4.446   5.752   5.734
 8117SOL     OW25249   1.659   1.071   3.691
 8117SOL    HW125250   1.699   1.122   3.614
 8117SOL    HW225251   1.574   1.028   3.661
 8118SOL     OW25252   5.609   4.168   5.992
 8118SOL    HW125253   5.524   4.160   5.939
 8118SOL    HW225254   5.662   4.246   5.959
 8119SOL     OW25255   6.120   5.952   5.757
 8119SOL    HW125256   6.091   5.902   5.676
 8119SOL    HW225257   6.219   5.963   5.756
 8120SOL     OW25258   2.135   5.098   0.582
 8120SOL    HW125259   2.182   5.157   0.516
 8120SOL    HW225260   2.185   5.011   0.590
 8121SOL     OW25261   0.873   4.390   1.785
 8121SOL    HW125262   0.831   4.320   1.842
 8121SOL    HW225263   0.897   4.469   1.841
 8122SOL     OW25264   0.924   5.953   2.132
 8122SOL    HW125265   0.997   5.905   2.181
 8122SOL    HW225266   0.874   6.011   2.196
 8123SOL     OW25267   6.537   0.783   6.213
 8123SOL    HW125268   6.570   0.803   6.120
 8123SOL    HW225269   6.456   0.726   6.207
 8124SOL     OW25270   6.169   6.844   1.023
 8124SOL    HW125271   6.200   6.921   1.080
 8124SOL    HW225272   6.078   6.816   1.053
 8125SOL     OW25273   1.222   1.295   3.905
 8125SOL    HW125274   1.178   1.341   3.982
 8125SOL    HW225275   1.264   1.364   3.845
 8126SOL     OW25276   5.348   4.836   2.796
 8126SOL    HW125277   5.344   4.742   2.828
 8126SOL    HW225278   5.356   4.838   2.696
 8127SOL     OW25279   3.167   6.059   6.415
 8127SOL    HW125280   3.233   6.027   6.347
 8127SOL    HW225281   3.200   6.035   6.507
 8128SOL     OW25282   2.876   1.791   1.520
 8128SOL    HW125283   2.924   1.707   1.495
 8128SOL    HW225284   2.900   1.863   1.455
 8129SOL     OW25285   4.236   0.702   5.930
 8129SOL    HW125286   4.137   0.697   5.916
 8129SOL    HW225287   4.277   0.760   5.860
 8130SOL     OW25288   0.508   3.419   6.099
 8130SOL    HW125289   0.596   3.442   6.060
 8130SOL    HW225290   0.466   3.344   6.047
 8131SOL     OW25291   3.549   2.080   0.835
 8131SOL    HW125292   3.609   2.143   0.885
 8131SOL    HW225293   3.604   2.022   0.775
 8132SOL     OW25294   6.165   6.454   6.035
 8132SOL    HW125295   6.152   6.474   6.132
 8132SOL    HW225296   6.088   6.493   5.983
 8133SOL     OW25297   2.897   4.429   1.502
 8133SOL    HW125298   2.961   4.482   1.559
 8133SOL    HW225299   2.830   4.383   1.561
 8134SOL     OW25300   0.406   2.835   5.466
 8134SOL    HW125301   0.475   2.795   5.406
 8134SOL    HW225302   0.318   2.789   5.453
 8135SOL     OW25303   2.317   5.870   1.339
 8135SOL    HW125304   2.279   5.862   1.247
 8135SOL    HW225305   2.246   5.847   1.406
 8136SOL     OW25306   4.287   4.952   3.141
 8136SOL    HW125307   4.352   4.971   3.215
 8136SOL    HW225308   4.260   4.856   3.144
 8137SOL     OW25309   3.551   1.305   5.304
 8137SOL    HW125310   3.481   1.234   5.293
 8137SOL    HW225311   3.622   1.292   5.235
 8138SOL     OW25312   5.982   1.400   0.283
 8138SOL    HW125313   6.025   1.479   0.327
 8138SOL    HW225314   5.887   1.393   0.313
 8139SOL     OW25315   0.677   1.369   3.444
 8139SOL    HW125316   0.765   1.323   3.437
 8139SOL    HW225317   0.609   1.306   3.483
 8140SOL     OW25318   4.910   0.610   0.940
 8140SOL    HW125319   4.937   0.665   1.019
 8140SOL    HW225320   4.880   0.520   0.971
 8141SOL     OW25321   4.565   6.249   5.543
 8141SOL    HW125322   4.551   6.217   5.449
 8141SOL    HW225323   4.492   6.312   5.568
 8142SOL     OW25324   1.478   4.559   6.903
 8142SOL    HW125325   1.528   4.592   6.823
 8142SOL    HW225326   1.428   4.476   6.878
 8143SOL     OW25327   6.874   4.436   0.789
 8143SOL    HW125328   6.797   4.473   0.738
 8143SOL    HW225329   6.850   4.430   0.886
 8144SOL     OW25330   6.986   6.395   6.090
 8144SOL    HW125331   0.062   6.361   6.085
 8144SOL    HW225332   6.923   6.317   6.095
 8145SOL     OW25333   5.694   5.792   1.468
 8145SOL    HW125334   5.643   5.836   1.394
 8145SOL    HW225335   5.635   5.727   1.516
 8146SOL     OW25336   4.773   1.094   5.039
 8146SOL    HW125337   4.829   1.158   5.091
 8146SOL    HW225338   4.781   1.114   4.942
 8147SOL     OW25339   6.948   1.549   2.126
 8147SOL    HW125340   6.978   1.455   2.146
 8147SOL    HW225341   6.944   1.601   2.212
 8148SOL     OW25342   5.139   4.296   0.939
 8148SOL    HW125343   5.046   4.259   0.940
 8148SOL    HW225344   5.198   4.241   0.998
 8149SOL     OW25345   1.970   6.159   2.703
 8149SOL    HW125346   1.909   6.088   2.667
 8149SOL    HW225347   1.948   6.176   2.799
 8150SOL     OW25348   1.995   3.691   1.376
 8150SOL    HW125349   1.983   3.598   1.410
 8150SOL    HW225350   2.045   3.689   1.289
 8151SOL     OW25351   5.438   4.579   2.680
 8151SOL    HW125352   5.355   4.530   2.655
 8151SOL    HW225353   5.497   4.588   2.599
 8152SOL     OW25354   5.994   2.105   2.951
 8152SOL    HW125355   6.005   2.201   2.978
 8152SOL    HW225356   6.049   2.087   2.870
 8153SOL     OW25357   1.226   1.697   4.063
 8153SOL    HW125358   1.312   1.721   4.018
 8153SOL    HW225359   1.163   1.775   4.058
 8154SOL     OW25360   3.963   5.424   2.491
 8154SOL    HW125361   3.953   5.489   2.416
 8154SOL    HW225362   4.056   5.385   2.489
 8155SOL     OW25363   1.645   3.104   1.833
 8155SOL    HW125364   1.561   3.156   1.847
 8155SOL    HW225365   1.640   3.054   1.747
 8156SOL     OW25366   5.016   6.410   0.509
 8156SOL    HW125367   5.013   6.486   0.573
 8156SOL    HW225368   5.056   6.330   0.554
 8157SOL     OW25369   6.184   4.933   6.002
 8157SOL    HW125370   6.147   4.841   5.987
 8157SOL    HW225371   6.253   4.929   6.074
 8158SOL     OW25372   4.896   4.390   0.004
 8158SOL    HW125373   4.847   4.443   6.954
 8158SOL    HW225374   4.980   4.353   6.982
 8159SOL     OW25375   2.602   5.770   2.567
 8159SOL    HW125376   2.564   5.754   2.658
 8159SOL    HW225377   2.701   5.758   2.569
 8160SOL     OW25378   5.356   0.585   3.284
 8160SOL    HW125379   5.284   0.517   3.297
 8160SOL    HW225380   5.435   0.543   3.240
 8161SOL     OW25381   6.001   2.447   6.533
 8161SOL    HW125382   5.911   2.477   6.500
 8161SOL    HW225383   6.060   2.527   6.546
 8162SOL     OW25384   6.381   6.533   6.687
 8162SOL    HW125385   6.379   6.578   6.598
 8162SOL    HW225386   6.313   6.574   6.747
 8163SOL     OW25387   2.764   4.119   5.462
 8163SOL    HW125388   2.823   4.089   5.537
 8163SOL    HW225389   2.794   4.208   5.429
 8164SOL     OW25390   5.295   2.289   0.275
 8164SOL    HW125391   5.254   2.378   0.257
 8164SOL    HW225392   5.324   2.248   0.188
 8165SOL     OW25393   0.896   3.912   6.163
 8165SOL    HW125394   0.828   3.977   6.197
 8165SOL    HW225395   0.899   3.917   6.063
 8166SOL     OW25396   1.499   0.653   3.195
 8166SOL    HW125397   1.461   0.741   3.166
 8166SOL    HW225398   1.536   0.662   3.287
 8167SOL     OW25399   0.131   0.188   3.902
 8167SOL    HW125400   0.218   0.167   3.857
 8167SOL    HW225401   0.056   0.161   3.842
 8168SOL     OW25402   2.126   1.571   2.701
 8168SOL    HW125403   2.068   1.580   2.781
 8168SOL    HW225404   2.173   1.483   2.703
 8169SOL     OW25405   4.913   2.052   0.722
 8169SOL    HW125406   4.889   1.960   0.689
 8169SOL    HW225407   4.896   2.119   0.649
 8170SOL     OW25408   1.252   5.184   2.065
 8170SOL    HW125409   1.331   5.136   2.104
 8170SOL    HW225410   1.234   5.150   1.973
 8171SOL     OW25411   1.623   1.735   6.228
 8171SOL    HW125412   1.659   1.712   6.137
 8171SOL    HW225413   1.588   1.829   6.227
 8172SOL     OW25414   0.444   2.425   2.497
 8172SOL    HW125415   0.529   2.376   2.512
 8172SOL    HW225416   0.449   2.474   2.410
 8173SOL     OW25417   5.556   1.651   2.403
 8173SOL    HW125418   5.471   1.645   2.456
 8173SOL    HW225419   5.549   1.592   2.323
 8174SOL     OW25420   6.459   1.482   1.856
 8174SOL    HW125421   6.499   1.402   1.811
 8174SOL    HW225422   6.434   1.458   1.950
 8175SOL     OW25423   0.611   3.091   5.379
 8175SOL    HW125424   0.589   2.995   5.395
 8175SOL    HW225425   0.534   3.137   5.335
 8176SOL     OW25426   2.279   5.017   1.495
 8176SOL    HW125427   2.249   5.022   1.591
 8176SOL    HW225428   2.332   5.098   1.472
 8177SOL     OW25429   3.642   6.719   3.721
 8177SOL    HW125430   3.620   6.749   3.628
 8177SOL    HW225431   3.579   6.647   3.749
 8178SOL     OW25432   2.537   6.422   0.255
 8178SOL    HW125433   2.534   6.344   0.193
 8178SOL    HW225434   2.578   6.500   0.207
 8179SOL     OW25435   4.811   1.808   5.048
 8179SOL    HW125436   4.811   1.763   5.138
 8179SOL    HW225437   4.826   1.739   4.977
 8180SOL     OW25438   6.399   0.273   5.091
 8180SOL    HW125439   6.424   0.317   5.005
 8180SOL    HW225440   6.482   0.253   5.143
 8181SOL     OW25441   2.145   1.491   0.916
 8181SOL    HW125442   2.191   1.578   0.938
 8181SOL    HW225443   2.155   1.471   0.819
 8182SOL     OW25444   3.232   3.745   5.835
 8182SOL    HW125445   3.247   3.841   5.812
 8182SOL    HW225446   3.264   3.688   5.759
 8183SOL     OW25447   6.765   1.910   5.140
 8183SOL    HW125448   6.706   1.873   5.213
 8183SOL    HW225449   6.741   2.005   5.123
 8184SOL     OW25450   6.595   0.892   0.349
 8184SOL    HW125451   6.616   0.812   0.405
 8184SOL    HW225452   6.496   0.909   0.352
 8185SOL     OW25453   2.669   0.402   0.137
 8185SOL    HW125454   2.584   0.363   0.100
 8185SOL    HW225455   2.698   0.350   0.217
 8186SOL     OW25456   3.657   4.779   5.303
 8186SOL    HW125457   3.565   4.815   5.291
 8186SOL    HW225458   3.652   4.680   5.317
 8187SOL     OW25459   1.475   2.001   4.596
 8187SOL    HW125460   1.420   2.084   4.586
 8187SOL    HW225461   1.422   1.932   4.646
 8188SOL     OW25462   5.840   2.780   2.955
 8188SOL    HW125463   5.911   2.834   2.910
 8188SOL    HW225464   5.752   2.797   2.909
 8189SOL     OW25465   4.777   4.508   2.921
 8189SOL    HW125466   4.782   4.410   2.941
 8189SOL    HW225467   4.697   4.547   2.965
 8190SOL     OW25468   4.823   5.055   4.608
 8190SOL    HW125469   4.807   5.044   4.706
 8190SOL    HW225470   4.796   5.147   4.580
 8191SOL     OW25471   3.437   6.382   1.509
 8191SOL    HW125472   3.502   6.394   1.584
 8191SOL    HW225473   3.390   6.294   1.520
 8192SOL     OW25474   3.705   4.811   0.479
 8192SOL    HW125475   3.773   4.880   0.503
 8192SOL    HW225476   3.743   4.747   0.413
 8193SOL     OW25477   6.898   5.792   4.653
 8193SOL    HW125478   6.872   5.883   4.620
 8193SOL    HW225479   6.987   5.797   4.697
 8194SOL     OW25480   5.539   2.430   1.060
 8194SOL    HW125481   5.524   2.528   1.047
 8194SOL    HW225482   5.526   2.407   1.156
 8195SOL     OW25483   1.472   0.762   1.983
 8195SOL    HW125484   1.445   0.855   2.009
 8195SOL    HW225485   1.422   0.734   1.901
 8196SOL     OW25486   3.844   5.943   5.781
 8196SOL    HW125487   3.909   5.985   5.845
 8196SOL    HW225488   3.800   5.865   5.826
 8197SOL     OW25489   4.845   1.970   0.303
 8197SOL    HW125490   4.822   2.066   0.290
 8197SOL    HW225491   4.874   1.931   0.215
 8198SOL     OW25492   3.710   6.867   2.970
 8198SOL    HW125493   3.808   6.853   2.961
 8198SOL    HW225494   3.671   6.889   2.880
 8199SOL     OW25495   5.835   2.893   6.440
 8199SOL    HW125496   5.840   2.909   6.538
 8199SOL    HW225497   5.768   2.955   6.399
 8200SOL     OW25498   5.397   4.497   1.866
 8200SOL    HW125499   5.419   4.465   1.958
 8200SOL    HW225500   5.323   4.565   1.871
 8201SOL     OW25501   5.746   0.522   3.602
 8201SOL    HW125502   5.770   0.506   3.506
 8201SOL    HW225503   5.688   0.447   3.634
 8202SOL     OW25504   0.576   5.591   4.040
 8202SOL    HW125505   0.522   5.545   4.110
 8202SOL    HW225506   0.536   5.680   4.019
 8203SOL     OW25507   4.404   2.563   0.138
 8203SOL    HW125508   4.499   2.543   0.115
 8203SOL    HW225509   4.385   2.660   0.121
 8204SOL     OW25510   2.445   5.082   6.795
 8204SOL    HW125511   2.394   5.141   6.732
 8204SOL    HW225512   2.484   5.138   6.868
 8205SOL     OW25513   0.053   4.618   0.719
 8205SOL    HW125514   0.125   4.568   0.671
 8205SOL    HW225515   6.997   4.554   0.744
 8206SOL     OW25516   4.971   3.050   6.382
 8206SOL    HW125517   5.055   2.998   6.393
 8206SOL    HW225518   4.899   3.011   6.439
 8207SOL     OW25519   3.178   3.948   4.770
 8207SOL    HW125520   3.203   3.854   4.792
 8207SOL    HW225521   3.101   3.948   4.706
 8208SOL     OW25522   2.363   6.963   1.364
 8208SOL    HW125523   2.310   0.023   1.329
 8208SOL    HW225524   2.322   6.878   1.330
 8209SOL     OW25525   0.799   1.242   5.747
 8209SOL    HW125526   0.790   1.293   5.662
 8209SOL    HW225527   0.759   1.151   5.736
 8210SOL     OW25528   2.508   1.550   1.222
 8210SOL    HW125529   2.453   1.478   1.181
 8210SOL    HW225530   2.548   1.518   1.307
 8211SOL     OW25531   3.622   4.043   2.185
 8211SOL    HW125532   3.686   4.103   2.137
 8211SOL    HW225533   3.674   3.981   2.245
 8212SOL     OW25534   1.931   1.843   1.910
 8212SOL    HW125535   1.941   1.749   1.944
 8212SOL    HW225536   1.886   1.899   1.980
 8213SOL     OW25537   6.387   4.604   2.399
 8213SOL    HW125538   6.389   4.627   2.302
 8213SOL    HW225539   6.365   4.507   2.409
 8214SOL     OW25540   0.047   5.556   4.842
 8214SOL    HW125541   0.133   5.592   4.877
 8214SOL    HW225542   6.994   5.568   4.912
 8215SOL     OW25543   2.567   5.731   6.360
 8215SOL    HW125544   2.513   5.718   6.443
 8215SOL    HW225545   2.662   5.748   6.384
 8216SOL     OW25546   4.969   5.488   3.730
 8216SOL    HW125547   4.926   5.463   3.644
 8216SOL    HW225548   4.919   5.445   3.806
 8217SOL     OW25549   2.026   4.157   1.413
 8217SOL    HW125550   2.118   4.195   1.416
 8217SOL    HW225551   2.025   4.070   1.463
 8218SOL     OW25552   0.910   6.358   4.500
 8218SOL    HW125553   0.915   6.422   4.423
 8218SOL    HW225554   1.002   6.328   4.525
 8219SOL     OW25555   4.162   3.135   0.826
 8219SOL    HW125556   4.187   3.051   0.778
 8219SOL    HW225557   4.171   3.212   0.764
 8220SOL     OW25558   3.169   4.031   4.131
 8220SOL    HW125559   3.104   3.954   4.132
 8220SOL    HW225560   3.169   4.075   4.221
 8221SOL     OW25561   6.177   6.071   3.335
 8221SOL    HW125562   6.256   6.096   3.391
 8221SOL    HW225563   6.199   5.988   3.282
 8222SOL     OW25564   5.443   1.234   1.284
 8222SOL    HW125565   5.496   1.158   1.321
 8222SOL    HW225566   5.492   1.320   1.301
 8223SOL     OW25567   1.580   4.369   5.370
 8223SOL    HW125568   1.677   4.393   5.376
 8223SOL    HW225569   1.525   4.452   5.376
 8224SOL     OW25570   5.523   2.856   2.286
 8224SOL    HW125571   5.512   2.768   2.240
 8224SOL    HW225572   5.567   2.921   2.224
 8225SOL     OW25573   4.050   1.533   1.306
 8225SOL    HW125574   4.068   1.549   1.403
 8225SOL    HW225575   4.135   1.545   1.254
 8226SOL     OW25576   3.565   6.093   0.683
 8226SOL    HW125577   3.543   6.187   0.706
 8226SOL    HW225578   3.599   6.089   0.589
 8227SOL     OW25579   0.168   1.583   2.558
 8227SOL    HW125580   0.147   1.669   2.605
 8227SOL    HW225581   0.182   1.511   2.625
 8228SOL     OW25582   0.140   1.630   6.071
 8228SOL    HW125583   0.119   1.721   6.106
 8228SOL    HW225584   0.055   1.580   6.054
 8229SOL     OW25585   4.402   3.719   1.491
 8229SOL    HW125586   4.409   3.784   1.416
 8229SOL    HW225587   4.373   3.630   1.455
 8230SOL     OW25588   3.377   6.610   5.359
 8230SOL    HW125589   3.475   6.634   5.358
 8230SOL    HW225590   3.331   6.663   5.430
 8231SOL     OW25591   2.969   3.000   1.662
 8231SOL    HW125592   2.875   2.973   1.639
 8231SOL    HW225593   3.033   2.941   1.614
 8232SOL     OW25594   5.604   1.911   2.374
 8232SOL    HW125595   5.566   1.819   2.383
 8232SOL    HW225596   5.666   1.929   2.450
 8233SOL     OW25597   1.603   0.005   6.121
 8233SOL    HW125598   1.651   6.978   6.046
 8233SOL    HW225599   1.548   0.080   6.085
 8234SOL     OW25600   2.717   3.980   0.079
 8234SOL    HW125601   2.734   3.884   0.099
 8234SOL    HW225602   2.802   4.032   0.090
 8235SOL     OW25603   0.191   3.620   6.836
 8235SOL    HW125604   0.284   3.643   6.808
 8235SOL    HW225605   0.128   3.688   6.798
 8236SOL     OW25606   0.173   4.785   0.551
 8236SOL    HW125607   0.119   4.739   0.622
 8236SOL    HW225608   0.181   4.882   0.573
 8237SOL     OW25609   4.751   5.820   6.126
 8237SOL    HW125610   4.721   5.843   6.033
 8237SOL    HW225611   4.724   5.727   6.148
 8238SOL     OW25612   0.202   5.494   0.118
 8238SOL    HW125613   0.206   5.575   0.059
 8238SOL    HW225614   0.259   5.422   0.079
 8239SOL     OW25615   0.314   0.922   5.389
 8239SOL    HW125616   0.313   1.004   5.331
 8239SOL    HW225617   0.373   0.938   5.468
 8240SOL     OW25618   3.684   4.046   2.561
 8240SOL    HW125619   3.697   4.061   2.659
 8240SOL    HW225620   3.590   4.068   2.536
 8241SOL     OW25621   2.829   5.732   6.475
 8241SOL    HW125622   2.899   5.693   6.416
 8241SOL    HW225623   2.835   5.691   6.566
 8242SOL     OW25624   0.702   4.114   6.244
 8242SOL    HW125625   0.657   4.043   6.190
 8242SOL    HW225626   0.644   4.196   6.245
 8243SOL     OW25627   6.443   3.559   0.956
 8243SOL    HW125628   6.430   3.461   0.971
 8243SOL    HW225629   6.539   3.583   0.973
 8244SOL     OW25630   0.174   0.869   3.184
 8244SOL    HW125631   0.162   0.968   3.188
 8244SOL    HW225632   0.110   0.825   3.247
 8245SOL     OW25633   3.660   2.118   2.707
 8245SOL    HW125634   3.636   2.127   2.610
 8245SOL    HW225635   3.759   2.130   2.718
 8246SOL     OW25636   0.700   3.809   6.533
 8246SOL    HW125637   0.727   3.751   6.455
 8246SOL    HW225638   0.706   3.755   6.617
 8247SOL     OW25639   2.259   0.775   3.184
 8247SOL    HW125640   2.305   0.837   3.247
 8247SOL    HW225641   2.178   0.735   3.228
 8248SOL     OW25642   0.183   4.733   4.340
 8248SOL    HW125643   0.124   4.813   4.328
 8248SOL    HW225644   0.244   4.748   4.417
 8249SOL     OW25645   1.951   1.373   5.513
 8249SOL    HW125646   1.914   1.465   5.517
 8249SOL    HW225647   2.010   1.357   5.593
 8250SOL     OW25648   2.363   2.352   1.798
 8250SOL    HW125649   2.407   2.441   1.787
 8250SOL    HW225650   2.389   2.292   1.722
 8251SOL     OW25651   5.049   2.972   4.306
 8251SOL    HW125652   4.970   3.025   4.338
 8251SOL    HW225653   5.029   2.936   4.215
 8252SOL     OW25654   3.525   1.881   6.317
 8252SOL    HW125655   3.440   1.829   6.316
 8252SOL    HW225656   3.506   1.977   6.295
 8253SOL     OW25657   3.707   5.571   5.785
 8253SOL    HW125658   3.757   5.631   5.847
 8253SOL    HW225659   3.716   5.477   5.816
 8254SOL     OW25660   4.614   4.477   5.310
 8254SOL    HW125661   4.708   4.481   5.344
 8254SOL    HW225662   4.600   4.389   5.263
 8255SOL     OW25663   1.840   6.276   5.310
 8255SOL    HW125664   1.807   6.227   5.390
 8255SOL    HW225665   1.768   6.280   5.241
 8256SOL     OW25666   6.843   6.549   2.539
 8256SOL    HW125667   6.869   6.619   2.606
 8256SOL    HW225668   6.772   6.490   2.578
 8257SOL     OW25669   5.222   3.793   2.457
 8257SOL    HW125670   5.247   3.724   2.525
 8257SOL    HW225671   5.295   3.800   2.389
 8258SOL     OW25672   5.145   2.432   1.982
 8258SOL    HW125673   5.141   2.350   1.924
 8258SOL    HW225674   5.238   2.446   2.014
 8259SOL     OW25675   3.900   1.403   4.896
 8259SOL    HW125676   3.980   1.451   4.933
 8259SOL    HW225677   3.918   1.376   4.802
 8260SOL     OW25678   2.574   0.036   1.207
 8260SOL    HW125679   2.574   0.135   1.197
 8260SOL    HW225680   2.495   0.008   1.261
 8261SOL     OW25681   5.577   6.368   3.048
 8261SOL    HW125682   5.566   6.275   3.084
 8261SOL    HW225683   5.614   6.427   3.120
 8262SOL     OW25684   1.020   3.864   0.526
 8262SOL    HW125685   1.036   3.961   0.546
 8262SOL    HW225686   1.103   3.812   0.543
 8263SOL     OW25687   0.272   2.638   6.366
 8263SOL    HW125688   0.189   2.667   6.318
 8263SOL    HW225689   0.333   2.716   6.378
 8264SOL     OW25690   1.763   6.565   0.786
 8264SOL    HW125691   1.829   6.496   0.817
 8264SOL    HW225692   1.784   6.653   0.830
 8265SOL     OW25693   6.088   0.224   1.393
 8265SOL    HW125694   6.057   0.213   1.488
 8265SOL    HW225695   6.009   0.243   1.335
 8266SOL     OW25696   2.197   1.139   4.537
 8266SOL    HW125697   2.198   1.226   4.488
 8266SOL    HW225698   2.260   1.143   4.615
 8267SOL     OW25699   1.734   3.912   1.692
 8267SOL    HW125700   1.659   3.849   1.715
 8267SOL    HW225701   1.793   3.924   1.772
 8268SOL     OW25702   2.656   6.600   6.534
 8268SOL    HW125703   2.667   6.699   6.541
 8268SOL    HW225704   2.741   6.559   6.501
 8269SOL     OW25705   4.601   2.102   2.434
 8269SOL    HW125706   4.540   2.027   2.461
 8269SOL    HW225707   4.608   2.105   2.335
 8270SOL     OW25708   2.927   6.566   4.767
 8270SOL    HW125709   2.859   6.547   4.696
 8270SOL    HW225710   2.966   6.656   4.751
 8271SOL     OW25711   0.209   0.070   2.854
 8271SOL    HW125712   0.112   0.074   2.878
 8271SOL    HW225713   0.249   7.002   2.888
 8272SOL     OW25714   6.303   1.823   2.803
 8272SOL    HW125715   6.298   1.794   2.899
 8272SOL    HW225716   6.263   1.914   2.794
 8273SOL     OW25717   2.794   1.822   0.832
 8273SOL    HW125718   2.781   1.915   0.868
 8273SOL    HW225719   2.744   1.757   0.889
 8274SOL     OW25720   3.877   5.407   4.632
 8274SOL    HW125721   3.924   5.386   4.547
 8274SOL    HW225722   3.933   5.469   4.687
 8275SOL     OW25723   5.233   7.011   4.680
 8275SOL    HW125724   5.179   7.006   4.764
 8275SOL    HW225725   5.327   6.984   4.700
 8276SOL     OW25726   0.790   1.611   5.145
 8276SOL    HW125727   0.703   1.567   5.170
 8276SOL    HW225728   0.862   1.542   5.141
 8277SOL     OW25729   1.205   6.156   5.847
 8277SOL    HW125730   1.128   6.205   5.807
 8277SOL    HW225731   1.280   6.153   5.781
 8278SOL     OW25732   3.419   2.095   6.842
 8278SOL    HW125733   3.395   2.034   6.766
 8278SOL    HW225734   3.518   2.091   6.858
 8279SOL     OW25735   0.708   6.444   4.902
 8279SOL    HW125736   0.681   6.530   4.946
 8279SOL    HW225737   0.687   6.449   4.804
 8280SOL     OW25738   2.839   2.922   0.251
 8280SOL    HW125739   2.800   2.909   0.160
 8280SOL    HW225740   2.788   2.867   0.318
 8281SOL     OW25741   2.493   4.535   1.624
 8281SOL    HW125742   2.414   4.552   1.566
 8281SOL    HW225743   2.566   4.600   1.602
 8282SOL     OW25744   3.940   4.265   6.625
 8282SOL    HW125745   3.878   4.220   6.560
 8282SOL    HW225746   4.032   4.269   6.587
 8283SOL     OW25747   1.736   4.703   4.787
 8283SOL    HW125748   1.738   4.603   4.788
 8283SOL    HW225749   1.825   4.739   4.814
 8284SOL     OW25750   1.495   3.765   1.778
 8284SOL    HW125751   1.455   3.805   1.861
 8284SOL    HW225752   1.422   3.728   1.721
 8285SOL     OW25753   3.317   4.134   4.649
 8285SOL    HW125754   3.250   4.066   4.677
 8285SOL    HW225755   3.338   4.194   4.726
 8286SOL     OW25756   5.241   2.019   4.953
 8286SOL    HW125757   5.243   2.088   4.881
 8286SOL    HW225758   5.191   1.939   4.920
 8287SOL     OW25759   1.013   4.907   4.031
 8287SOL    HW125760   1.092   4.846   4.044
 8287SOL    HW225761   0.985   4.944   4.119
 8288SOL     OW25762   2.767   2.308   2.556
 8288SOL    HW125763   2.859   2.279   2.581
 8288SOL    HW225764   2.752   2.292   2.458
 8289SOL     OW25765   0.238   6.361   6.057
 8289SOL    HW125766   0.307   6.426   6.091
 8289SOL    HW225767   0.234   6.367   5.957
 8290SOL     OW25768   5.234   1.969   0.736
 8290SOL    HW125769   5.185   1.977   0.650
 8290SOL    HW225770   5.213   2.047   0.795
 8291SOL     OW25771   5.179   5.101   5.888
 8291SOL    HW125772   5.087   5.061   5.884
 8291SOL    HW225773   5.246   5.028   5.901
 8292SOL     OW25774   3.309   6.345   6.680
 8292SOL    HW125775   3.216   6.328   6.645
 8292SOL    HW225776   3.368   6.372   6.605
 8293SOL     OW25777   1.985   5.470   0.885
 8293SOL    HW125778   2.008   5.376   0.861
 8293SOL    HW225779   2.021   5.491   0.976
 8294SOL     OW25780   5.480   3.692   4.903
 8294SOL    HW125781   5.531   3.764   4.856
 8294SOL    HW225782   5.509   3.688   4.999
 8295SOL     OW25783   5.049   3.437   2.132
 8295SOL    HW125784   4.968   3.478   2.090
 8295SOL    HW225785   5.122   3.506   2.137
 8296SOL     OW25786   2.266   5.275   0.395
 8296SOL    HW125787   2.276   5.339   0.470
 8296SOL    HW225788   2.316   5.308   0.315
 8297SOL     OW25789   6.906   3.512   2.808
 8297SOL    HW125790   6.840   3.515   2.732
 8297SOL    HW225791   6.862   3.548   2.890
 8298SOL     OW25792   6.766   1.721   0.369
 8298SOL    HW125793   6.855   1.715   0.323
 8298SOL    HW225794   6.741   1.817   0.379
 8299SOL     OW25795   0.519   2.898   2.886
 8299SOL    HW125796   0.489   2.983   2.844
 8299SOL    HW225797   0.551   2.835   2.815
 8300SOL     OW25798   0.383   6.349   4.125
 8300SOL    HW125799   0.467   6.374   4.173
 8300SOL    HW225800   0.330   6.431   4.105
 8301SOL     OW25801   4.533   0.963   0.394
 8301SOL    HW125802   4.590   0.995   0.470
 8301SOL    HW225803   4.592   0.943   0.316
 8302SOL     OW25804   5.465   6.292   6.145
 8302SOL    HW125805   5.559   6.282   6.111
 8302SOL    HW225806   5.435   6.386   6.133
 8303SOL     OW25807   5.986   0.523   3.826
 8303SOL    HW125808   5.964   0.558   3.735
 8303SOL    HW225809   5.902   0.489   3.869
 8304SOL     OW25810   5.572   4.144   1.410
 8304SOL    HW125811   5.594   4.096   1.326
 8304SOL    HW225812   5.516   4.224   1.389
 8305SOL     OW25813   4.744   4.678   4.241
 8305SOL    HW125814   4.781   4.718   4.325
 8305SOL    HW225815   4.694   4.748   4.190
 8306SOL     OW25816   5.876   1.347   3.459
 8306SOL    HW125817   5.941   1.299   3.401
 8306SOL    HW225818   5.809   1.395   3.402
 8307SOL     OW25819   4.025   5.391   1.658
 8307SOL    HW125820   4.011   5.484   1.624
 8307SOL    HW225821   4.021   5.390   1.758
 8308SOL     OW25822   2.224   6.025   0.307
 8308SOL    HW125823   2.153   5.990   0.369
 8308SOL    HW225824   2.269   5.948   0.262
 8309SOL     OW25825   6.471   5.891   2.169
 8309SOL    HW125826   6.511   5.905   2.259
 8309SOL    HW225827   6.512   5.954   2.103
 8310SOL     OW25828   0.790   5.389   1.587
 8310SOL    HW125829   0.799   5.471   1.643
 8310SOL    HW225830   0.715   5.401   1.521
 8311SOL     OW25831   6.591   1.760   5.364
 8311SOL    HW125832   6.524   1.716   5.424
 8311SOL    HW225833   6.683   1.747   5.402
 8312SOL     OW25834   4.906   0.982   6.669
 8312SOL    HW125835   4.929   0.976   6.572
 8312SOL    HW225836   4.964   1.052   6.712
 8313SOL     OW25837   5.897   0.137   6.067
 8313SOL    HW125838   5.932   0.223   6.030
 8313SOL    HW225839   5.906   0.065   5.998
 8314SOL     OW25840   6.129   6.312   6.636
 8314SOL    HW125841   6.212   6.348   6.593
 8314SOL    HW225842   6.079   6.386   6.681
 8315SOL     OW25843   4.059   3.086   2.320
 8315SOL    HW125844   4.144   3.034   2.316
 8315SOL    HW225845   3.992   3.037   2.376
 8316SOL     OW25846   1.179   2.740   2.268
 8316SOL    HW125847   1.117   2.775   2.197
 8316SOL    HW225848   1.233   2.816   2.305
 8317SOL     OW25849   1.320   2.455   3.038
 8317SOL    HW125850   1.366   2.520   2.978
 8317SOL    HW225851   1.325   2.364   2.997
 8318SOL     OW25852   4.078   1.391   6.036
 8318SOL    HW125853   4.150   1.453   6.069
 8318SOL    HW225854   4.119   1.318   5.982
 8319SOL     OW25855   1.266   1.458   1.273
 8319SOL    HW125856   1.232   1.546   1.239
 8319SOL    HW225857   1.357   1.441   1.234
 8320SOL     OW25858   2.970   3.786   2.508
 8320SOL    HW125859   2.931   3.851   2.573
 8320SOL    HW225860   3.070   3.794   2.507
 8321SOL     OW25861   6.444   0.002   6.913
 8321SOL    HW125862   6.388   0.044   6.984
 8321SOL    HW225863   6.417   6.924   6.902
 8322SOL     OW25864   6.527   0.995   0.692
 8322SOL    HW125865   6.553   0.904   0.661
 8322SOL    HW225866   6.535   1.060   0.616
 8323SOL     OW25867   4.353   4.647   1.610
 8323SOL    HW125868   4.444   4.685   1.620
 8323SOL    HW225869   4.360   4.552   1.577
 8324SOL     OW25870   5.850   0.201   1.215
 8324SOL    HW125871   5.797   0.272   1.168
 8324SOL    HW225872   5.790   0.151   1.278
 8325SOL     OW25873   1.568   3.294   5.275
 8325SOL    HW125874   1.662   3.323   5.295
 8325SOL    HW225875   1.509   3.374   5.270
 8326SOL     OW25876   4.523   4.283   5.550
 8326SOL    HW125877   4.510   4.346   5.473
 8326SOL    HW225878   4.490   4.192   5.524
 8327SOL     OW25879   6.681   0.155   6.054
 8327SOL    HW125880   6.734   0.151   6.139
 8327SOL    HW225881   6.659   0.062   6.025
 8328SOL     OW25882   2.143   5.863   6.745
 8328SOL    HW125883   2.159   5.940   6.807
 8328SOL    HW225884   2.047   5.862   6.717
 8329SOL     OW25885   0.874   2.870   5.284
 8329SOL    HW125886   0.912   2.805   5.219
 8329SOL    HW225887   0.864   2.826   5.374
 8330SOL     OW25888   3.025   0.963   6.383
 8330SOL    HW125889   2.951   0.908   6.344
 8330SOL    HW225890   3.021   1.055   6.346
 8331SOL     OW25891   3.307   0.751   1.092
 8331SOL    HW125892   3.389   0.807   1.102
 8331SOL    HW225893   3.328   0.656   1.116
 8332SOL     OW25894   5.792   5.513   2.427
 8332SOL    HW125895   5.794   5.527   2.328
 8332SOL    HW225896   5.867   5.565   2.469
 8333SOL     OW25897   0.728   5.105   6.760
 8333SOL    HW125898   0.657   5.052   6.806
 8333SOL    HW225899   0.700   5.123   6.666
 8334SOL     OW25900   3.323   1.888   4.692
 8334SOL    HW125901   3.409   1.899   4.642
 8334SOL    HW225902   3.316   1.958   4.763
 8335SOL     OW25903   4.802   1.248   0.104
 8335SOL    HW125904   4.787   1.156   0.068
 8335SOL    HW225905   4.802   1.244   0.204
 8336SOL     OW25906   0.737   4.799   2.763
 8336SOL    HW125907   0.745   4.700   2.778
 8336SOL    HW225908   0.649   4.819   2.719
 8337SOL     OW25909   1.107   6.368   4.023
 8337SOL    HW125910   1.128   6.272   4.004
 8337SOL    HW225911   1.192   6.422   4.021
 8338SOL     OW25912   3.931   5.257   1.433
 8338SOL    HW125913   3.844   5.213   1.456
 8338SOL    HW225914   3.969   5.301   1.515
 8339SOL     OW25915   6.709   0.638   1.945
 8339SOL    HW125916   6.681   0.644   2.041
 8339SOL    HW225917   6.671   0.555   1.904
 8340SOL     OW25918   4.998   3.835   1.416
 8340SOL    HW125919   4.920   3.872   1.468
 8340SOL    HW225920   5.012   3.739   1.442
 8341SOL     OW25921   2.160   0.037   6.454
 8341SOL    HW125922   2.163   0.135   6.431
 8341SOL    HW225923   2.079   7.014   6.411
 8342SOL     OW25924   4.761   0.044   0.263
 8342SOL    HW125925   4.790   6.967   0.277
 8342SOL    HW225926   4.792   0.100   0.340
 8343SOL     OW25927   0.496   6.160   3.641
 8343SOL    HW125928   0.459   6.105   3.566
 8343SOL    HW225929   0.596   6.162   3.633
 8344SOL     OW25930   6.330   5.900   4.587
 8344SOL    HW125931   6.275   5.885   4.505
 8344SOL    HW225932   6.317   5.823   4.650
 8345SOL     OW25933   4.243   2.230   2.695
 8345SOL    HW125934   4.175   2.223   2.621
 8345SOL    HW225935   4.196   2.233   2.783
 8346SOL     OW25936   3.516   4.770   0.669
 8346SOL    HW125937   3.589   4.774   0.601
 8346SOL    HW225938   3.449   4.842   0.650
 8347SOL     OW25939   3.102   6.789   5.000
 8347SOL    HW125940   3.144   6.699   5.018
 8347SOL    HW225941   3.108   6.809   4.902
 8348SOL     OW25942   1.984   1.476   1.157
 8348SOL    HW125943   2.050   1.488   1.082
 8348SOL    HW225944   2.018   1.521   1.239
 8349SOL     OW25945   0.796   6.973   2.361
 8349SOL    HW125946   0.804   6.913   2.440
 8349SOL    HW225947   0.865   0.027   2.366
 8350SOL     OW25948   2.753   6.240   6.245
 8350SOL    HW125949   2.777   6.143   6.240
 8350SOL    HW225950   2.675   6.252   6.306
 8351SOL     OW25951   4.920   5.667   4.597
 8351SOL    HW125952   4.833   5.630   4.627
 8351SOL    HW225953   4.908   5.714   4.509
 8352SOL     OW25954   0.383   0.005   3.204
 8352SOL    HW125955   0.394   6.924   3.215
 8352SOL    HW225956   0.434   0.035   3.123
 8353SOL     OW25957   0.273   4.066   1.542
 8353SOL    HW125958   0.316   3.988   1.497
 8353SOL    HW225959   0.265   4.142   1.478
 8354SOL     OW25960   3.318   0.189   4.735
 8354SOL    HW125961   3.354   0.109   4.783
 8354SOL    HW225962   3.254   0.160   4.664
 8355SOL     OW25963   2.653   1.363   5.465
 8355SOL    HW125964   2.628   1.455   5.495
 8355SOL    HW225965   2.673   1.306   5.544
 8356SOL     OW25966   1.094   0.473   1.814
 8356SOL    HW125967   1.063   0.557   1.770
 8356SOL    HW225968   1.073   0.395   1.755
 8357SOL     OW25969   3.272   6.835   5.514
 8357SOL    HW125970   3.271   6.881   5.603
 8357SOL    HW225971   3.179   6.807   5.490
 8358SOL     OW25972   1.938   3.856   5.104
 8358SOL    HW125973   1.896   3.896   5.185
 8358SOL    HW225974   1.986   3.928   5.053
 8359SOL     OW25975   3.288   0.894   5.413
 8359SOL    HW125976   3.320   0.913   5.506
 8359SOL    HW225977   3.285   0.795   5.397
 8360SOL     OW25978   4.206   6.867   0.475
 8360SOL    HW125979   4.179   6.801   0.545
 8360SOL    HW225980   4.150   6.950   0.484
 8361SOL     OW25981   3.129   0.603   1.509
 8361SOL    HW125982   3.195   0.652   1.452
 8361SOL    HW225983   3.178   0.546   1.575
 8362SOL     OW25984   4.785   1.292   0.832
 8362SOL    HW125985   4.836   1.241   0.901
 8362SOL    HW225986   4.695   1.250   0.819
 8363SOL     OW25987   4.705   2.732   6.827
 8363SOL    HW125988   4.707   2.661   6.756
 8363SOL    HW225989   4.782   2.795   6.813
 8364SOL     OW25990   0.215   2.210   4.193
 8364SOL    HW125991   0.159   2.147   4.248
 8364SOL    HW225992   0.192   2.200   4.097
 8365SOL     OW25993   1.732   3.116   2.538
 8365SOL    HW125994   1.696   3.024   2.553
 8365SOL    HW225995   1.816   3.129   2.592
 8366SOL     OW25996   2.307   5.359   1.159
 8366SOL    HW125997   2.274   5.291   1.094
 8366SOL    HW225998   2.257   5.445   1.147
 8367SOL     OW25999   3.820   6.033   4.832
 8367SOL    HW126000   3.774   6.052   4.919
 8367SOL    HW226001   3.856   5.940   4.833
 8368SOL     OW26002   0.674   6.794   6.744
 8368SOL    HW126003   0.730   6.721   6.708
 8368SOL    HW226004   0.723   6.842   6.817
 8369SOL     OW26005   0.468   0.103   5.997
 8369SOL    HW126006   0.511   0.174   5.941
 8369SOL    HW226007   0.384   0.139   6.038
 8370SOL     OW26008   2.671   1.520   6.086
 8370SOL    HW126009   2.734   1.595   6.105
 8370SOL    HW226010   2.581   1.556   6.065
 8371SOL     OW26011   1.810   4.701   0.822
 8371SOL    HW126012   1.744   4.627   0.840
 8371SOL    HW226013   1.854   4.686   0.734
 8372SOL     OW26014   1.406   5.502   1.702
 8372SOL    HW126015   1.355   5.417   1.687
 8372SOL    HW226016   1.503   5.488   1.682
 8373SOL     OW26017   2.163   6.684   3.968
 8373SOL    HW126018   2.233   6.643   3.910
 8373SOL    HW226019   2.156   6.633   4.053
 8374SOL     OW26020   6.820   0.333   5.058
 8374SOL    HW126021   6.904   0.341   5.004
 8374SOL    HW226022   6.775   0.422   5.065
 8375SOL     OW26023   3.880   6.375   5.098
 8375SOL    HW126024   3.841   6.466   5.113
 8375SOL    HW226025   3.953   6.380   5.030
 8376SOL     OW26026   0.473   1.396   4.427
 8376SOL    HW126027   0.568   1.410   4.398
 8376SOL    HW226028   0.451   1.462   4.499
 8377SOL     OW26029   5.401   6.220   0.675
 8377SOL    HW126030   5.438   6.251   0.588
 8377SOL    HW226031   5.474   6.217   0.743
 8378SOL     OW26032   3.877   4.815   2.991
 8378SOL    HW126033   3.943   4.774   2.928
 8378SOL    HW226034   3.785   4.802   2.956
 8379SOL     OW26035   5.229   2.731   1.188
 8379SOL    HW126036   5.294   2.756   1.260
 8379SOL    HW226037   5.141   2.707   1.231
 8380SOL     OW26038   0.941   0.743   1.773
 8380SOL    HW126039   0.895   0.781   1.854
 8380SOL    HW226040   1.026   0.792   1.757
 8381SOL     OW26041   0.575   2.785   4.247
 8381SOL    HW126042   0.559   2.847   4.323
 8381SOL    HW226043   0.496   2.786   4.186
 8382SOL     OW26044   2.083   6.973   2.310
 8382SOL    HW126045   2.054   6.891   2.260
 8382SOL    HW226046   2.098   6.949   2.406
 8383SOL     OW26047   3.165   7.004   5.994
 8383SOL    HW126048   3.191   0.040   6.074
 8383SOL    HW226049   3.073   0.014   5.963
 8384SOL     OW26050   6.491   1.673   1.586
 8384SOL    HW126051   6.397   1.651   1.559
 8384SOL    HW226052   6.505   1.646   1.681
 8385SOL     OW26053   4.884   2.704   0.067
 8385SOL    HW126054   4.856   2.756   7.004
 8385SOL    HW226055   4.864   2.757   0.149
 8386SOL     OW26056   1.648   6.345   1.850
 8386SOL    HW126057   1.622   6.405   1.925
 8386SOL    HW226058   1.745   6.322   1.857
 8387SOL     OW26059   1.241   1.618   1.534
 8387SOL    HW126060   1.222   1.583   1.441
 8387SOL    HW226061   1.161   1.602   1.592
 8388SOL     OW26062   2.319   0.386   0.669
 8388SOL    HW126063   2.319   0.289   0.695
 8388SOL    HW226064   2.384   0.436   0.725
 8389SOL     OW26065   6.955   3.951   3.940
 8389SOL    HW126066   6.917   3.882   3.878
 8389SOL    HW226067   7.005   3.905   4.013
 8390SOL     OW26068   4.692   6.372   0.061
 8390SOL    HW126069   4.709   6.274   0.051
 8390SOL    HW226070   4.680   6.394   0.158
 8391SOL     OW26071   5.818   4.595   0.617
 8391SOL    HW126072   5.812   4.570   0.520
 8391SOL    HW226073   5.906   4.640   0.634
 8392SOL     OW26074   0.093   4.934   5.402
 8392SOL    HW126075   0.092   4.847   5.352
 8392SOL    HW226076   0.163   4.932   5.473
 8393SOL     OW26077   0.308   0.256   2.494
 8393SOL    HW126078   0.387   0.288   2.443
 8393SOL    HW226079   0.266   0.333   2.543
 8394SOL     OW26080   0.268   2.877   1.945
 8394SOL    HW126081   0.303   2.906   1.856
 8394SOL    HW226082   0.328   2.806   1.983
 8395SOL     OW26083   2.167   6.248   4.800
 8395SOL    HW126084   2.230   6.298   4.860
 8395SOL    HW226085   2.085   6.222   4.851
 8396SOL     OW26086   4.167   5.193   3.138
 8396SOL    HW126087   4.212   5.106   3.158
 8396SOL    HW226088   4.070   5.177   3.118
 8397SOL     OW26089   2.264   0.696   2.649
 8397SOL    HW126090   2.166   0.701   2.664
 8397SOL    HW226091   2.292   0.766   2.584
 8398SOL     OW26092   4.303   2.325   6.761
 8398SOL    HW126093   4.343   2.318   6.853
 8398SOL    HW226094   4.235   2.399   6.760
 8399SOL     OW26095   6.121   6.351   0.516
 8399SOL    HW126096   6.160   6.312   0.433
 8399SOL    HW226097   6.029   6.387   0.496
 8400SOL     OW26098   1.576   1.174   4.166
 8400SOL    HW126099   1.507   1.102   4.164
 8400SOL    HW226100   1.631   1.166   4.249
 8401SOL     OW26101   3.117   1.531   6.230
 8401SOL    HW126102   3.171   1.471   6.288
 8401SOL    HW226103   3.102   1.488   6.141
 8402SOL     OW26104   3.530   2.099   5.823
 8402SOL    HW126105   3.548   2.001   5.836
 8402SOL    HW226106   3.466   2.111   5.747
 8403SOL     OW26107   1.418   2.734   4.334
 8403SOL    HW126108   1.339   2.758   4.390
 8403SOL    HW226109   1.392   2.734   4.237
 8404SOL     OW26110   4.289   6.783   5.872
 8404SOL    HW126111   4.289   6.692   5.914
 8404SOL    HW226112   4.266   6.852   5.941
 8405SOL     OW26113   2.714   0.157   5.620
 8405SOL    HW126114   2.802   0.196   5.648
 8405SOL    HW226115   2.725   0.111   5.532
 8406SOL     OW26116   5.865   6.871   0.345
 8406SOL    HW126117   5.812   6.813   0.283
 8406SOL    HW226118   5.832   6.857   0.439
 8407SOL     OW26119   3.662   6.202   4.174
 8407SOL    HW126120   3.576   6.159   4.145
 8407SOL    HW226121   3.673   6.191   4.273
 8408SOL     OW26122   5.473   3.624   2.535
 8408SOL    HW126123   5.405   3.639   2.606
 8408SOL    HW226124   5.543   3.695   2.539
 8409SOL     OW26125   5.541   3.012   4.109
 8409SOL    HW126126   5.603   2.955   4.056
 8409SOL    HW226127   5.560   3.000   4.206
 8410SOL     OW26128   5.204   0.868   1.701
 8410SOL    HW126129   5.278   0.928   1.733
 8410SOL    HW226130   5.205   0.783   1.753
 8411SOL     OW26131   0.286   4.762   6.884
 8411SOL    HW126132   0.282   4.664   6.863
 8411SOL    HW226133   0.352   4.806   6.825
 8412SOL     OW26134   3.182   1.982   1.472
 8412SOL    HW126135   3.095   1.969   1.424
 8412SOL    HW226136   3.258   1.971   1.408
 8413SOL     OW26137   3.992   5.609   0.398
 8413SOL    HW126138   4.001   5.620   0.299
 8413SOL    HW226139   4.079   5.632   0.442
 8414SOL     OW26140   3.285   5.235   3.257
 8414SOL    HW126141   3.329   5.294   3.325
 8414SOL    HW226142   3.348   5.222   3.180
 8415SOL     OW26143   6.885   6.030   3.846
 8415SOL    HW126144   6.936   6.025   3.760
 8415SOL    HW226145   6.945   6.062   3.919
 8416SOL     OW26146   5.247   3.633   2.684
 8416SOL    HW126147   5.226   3.697   2.758
 8416SOL    HW226148   5.208   3.543   2.706
 8417SOL     OW26149   1.557   4.441   5.856
 8417SOL    HW126150   1.542   4.540   5.855
 8417SOL    HW226151   1.536   4.403   5.766
 8418SOL     OW26152   5.613   4.717   1.103
 8418SOL    HW126153   5.691   4.683   1.051
 8418SOL    HW226154   5.541   4.748   1.040
 8419SOL     OW26155   5.463   0.446   2.144
 8419SOL    HW126156   5.422   0.433   2.054
 8419SOL    HW226157   5.415   0.520   2.192
 8420SOL     OW26158   4.772   6.559   0.372
 8420SOL    HW126159   4.822   6.473   0.382
 8420SOL    HW226160   4.682   6.540   0.333
 8421SOL     OW26161   2.108   5.507   6.649
 8421SOL    HW126162   2.157   5.537   6.568
 8421SOL    HW226163   2.044   5.578   6.678
 8422SOL     OW26164   3.875   1.056   1.199
 8422SOL    HW126165   3.898   1.060   1.102
 8422SOL    HW226166   3.912   1.137   1.245
 8423SOL     OW26167   3.293   4.848   5.882
 8423SOL    HW126168   3.363   4.779   5.863
 8423SOL    HW226169   3.274   4.850   5.980
 8424SOL     OW26170   2.035   2.776   2.704
 8424SOL    HW126171   2.086   2.826   2.774
 8424SOL    HW226172   1.955   2.829   2.676
 8425SOL     OW26173   5.054   5.161   0.048
 8425SOL    HW126174   5.020   5.068   0.058
 8425SOL    HW226175   5.016   5.202   6.983
 8426SOL     OW26176   3.267   3.789   4.029
 8426SOL    HW126177   3.254   3.854   4.104
 8426SOL    HW226178   3.231   3.699   4.056
 8427SOL     OW26179   3.917   3.252   4.566
 8427SOL    HW126180   3.916   3.170   4.623
 8427SOL    HW226181   3.969   3.324   4.612
 8428SOL     OW26182   0.379   4.578   1.696
 8428SOL    HW126183   0.434   4.602   1.616
 8428SOL    HW226184   0.407   4.636   1.773
 8429SOL     OW26185   1.361   5.670   3.755
 8429SOL    HW126186   1.429   5.620   3.702
 8429SOL    HW226187   1.374   5.768   3.742
 8430SOL     OW26188   3.258   4.984   3.634
 8430SOL    HW126189   3.192   4.967   3.707
 8430SOL    HW226190   3.320   5.057   3.662
 8431SOL     OW26191   3.334   4.981   0.647
 8431SOL    HW126192   3.242   4.942   0.652
 8431SOL    HW226193   3.357   5.024   0.734
 8432SOL     OW26194   5.983   6.752   6.446
 8432SOL    HW126195   5.973   6.677   6.510
 8432SOL    HW226196   5.991   6.838   6.496
 8433SOL     OW26197   5.188   2.557   0.285
 8433SOL    HW126198   5.121   2.579   0.355
 8433SOL    HW226199   5.280   2.573   0.320
 8434SOL     OW26200   2.688   6.633   4.608
 8434SOL    HW126201   2.659   6.537   4.615
 8434SOL    HW226202   2.622   6.690   4.657
 8435SOL     OW26203   5.938   1.050   1.577
 8435SOL    HW126204   5.850   1.096   1.588
 8435SOL    HW226205   5.951   1.025   1.481
 8436SOL     OW26206   4.065   0.005   3.553
 8436SOL    HW126207   4.045   6.989   3.645
 8436SOL    HW226208   4.022   6.963   3.486
 8437SOL     OW26209   2.174   0.332   3.771
 8437SOL    HW126210   2.160   0.419   3.724
 8437SOL    HW226211   2.271   0.315   3.784
 8438SOL     OW26212   2.484   4.764   2.596
 8438SOL    HW126213   2.506   4.819   2.516
 8438SOL    HW226214   2.403   4.801   2.641
 8439SOL     OW26215   6.044   5.000   2.355
 8439SOL    HW126216   6.088   5.086   2.377
 8439SOL    HW226217   6.026   4.949   2.439
 8440SOL     OW26218   0.774   2.626   3.963
 8440SOL    HW126219   0.714   2.546   3.966
 8440SOL    HW226220   0.723   2.705   3.928
 8441SOL     OW26221   5.964   6.836   6.764
 8441SOL    HW126222   5.965   6.893   6.846
 8441SOL    HW226223   5.983   6.892   6.683
 8442SOL     OW26224   2.820   1.538   5.258
 8442SOL    HW126225   2.803   1.634   5.277
 8442SOL    HW226226   2.752   1.482   5.306
 8443SOL     OW26227   2.238   5.647   3.275
 8443SOL    HW126228   2.317   5.706   3.257
 8443SOL    HW226229   2.213   5.597   3.192
 8444SOL     OW26230   2.483   5.864   3.576
 8444SOL    HW126231   2.521   5.793   3.516
 8444SOL    HW226232   2.500   5.839   3.672
 8445SOL     OW26233   4.511   6.494   0.271
 8445SOL    HW126234   4.443   6.565   0.251
 8445SOL    HW226235   4.464   6.407   0.288
 8446SOL     OW26236   4.454   4.981   6.524
 8446SOL    HW126237   4.515   5.020   6.455
 8446SOL    HW226238   4.456   4.881   6.517
 8447SOL     OW26239   4.510   1.988   2.170
 8447SOL    HW126240   4.487   1.914   2.234
 8447SOL    HW226241   4.438   1.995   2.102
 8448SOL     OW26242   4.552   6.078   4.274
 8448SOL    HW126243   4.511   6.134   4.202
 8448SOL    HW226244   4.505   6.096   4.361
 8449SOL     OW26245   6.774   2.532   3.866
 8449SOL    HW126246   6.818   2.563   3.951
 8449SOL    HW226247   6.844   2.515   3.797
 8450SOL     OW26248   0.703   6.335   1.196
 8450SOL    HW126249   0.630   6.275   1.163
 8450SOL    HW226250   0.672   6.382   1.279
 8451SOL     OW26251   4.119   2.491   0.017
 8451SOL    HW126252   4.054   2.445   0.078
 8451SOL    HW226253   4.209   2.494   0.061
 8452SOL     OW26254   6.573   1.346   2.900
 8452SOL    HW126255   6.667   1.337   2.931
 8452SOL    HW226256   6.522   1.407   2.962
 8453SOL     OW26257   0.297   3.928   6.198
 8453SOL    HW126258   0.302   3.923   6.298
 8453SOL    HW226259   0.367   3.991   6.165
 8454SOL     OW26260   0.023   0.025   1.273
 8454SOL    HW126261   7.011   0.058   1.363
 8454SOL    HW226262   6.973   0.052   1.205
 8455SOL     OW26263   5.876   2.756   1.938
 8455SOL    HW126264   5.878   2.657   1.926
 8455SOL    HW226265   5.958   2.785   1.988
 8456SOL     OW26266   4.573   6.267   2.564
 8456SOL    HW126267   4.594   6.338   2.497
 8456SOL    HW226268   4.658   6.219   2.589
 8457SOL     OW26269   6.491   6.131   5.072
 8457SOL    HW126270   6.424   6.193   5.113
 8457SOL    HW226271   6.558   6.185   5.020
 8458SOL     OW26272   3.346   1.592   6.623
 8458SOL    HW126273   3.248   1.607   6.638
 8458SOL    HW226274   3.397   1.619   6.705
 8459SOL     OW26275   3.237   6.718   2.195
 8459SOL    HW126276   3.245   6.667   2.109
 8459SOL    HW226277   3.220   6.815   2.175
 8460SOL     OW26278   4.463   3.664   5.326
 8460SOL    HW126279   4.410   3.584   5.297
 8460SOL    HW226280   4.541   3.676   5.265
 8461SOL     OW26281   7.005   4.578   3.753
 8461SOL    HW126282   0.019   4.556   3.845
 8461SOL    HW226283   0.065   4.604   3.696
 8462SOL     OW26284   3.221   2.559   6.408
 8462SOL    HW126285   3.186   2.482   6.462
 8462SOL    HW226286   3.292   2.607   6.460
 8463SOL     OW26287   6.765   0.021   0.812
 8463SOL    HW126288   6.813   6.974   0.753
 8463SOL    HW226289   6.697   0.071   0.758
 8464SOL     OW26290   5.600   3.666   5.144
 8464SOL    HW126291   5.696   3.691   5.140
 8464SOL    HW226292   5.591   3.572   5.179
 8465SOL     OW26293   1.393   2.597   0.947
 8465SOL    HW126294   1.385   2.540   0.865
 8465SOL    HW226295   1.322   2.572   1.013
 8466SOL     OW26296   0.533   6.669   4.949
 8466SOL    HW126297   0.453   6.729   4.946
 8466SOL    HW226298   0.581   6.672   4.861
 8467SOL     OW26299   4.375   6.786   1.177
 8467SOL    HW126300   4.465   6.783   1.134
 8467SOL    HW226301   4.338   6.694   1.184
 8468SOL     OW26302   3.962   2.114   6.293
 8468SOL    HW126303   4.038   2.115   6.229
 8468SOL    HW226304   3.879   2.146   6.247
 8469SOL     OW26305   3.292   1.085   5.906
 8469SOL    HW126306   3.250   1.135   5.830
 8469SOL    HW226307   3.302   1.147   5.984
 8470SOL     OW26308   1.788   3.947   0.154
 8470SOL    HW126309   1.831   3.927   0.066
 8470SOL    HW226310   1.742   3.865   0.188
 8471SOL     OW26311   3.973   0.916   3.706
 8471SOL    HW126312   3.958   0.848   3.778
 8471SOL    HW226313   3.940   1.005   3.738
 8472SOL     OW26314   6.891   0.751   5.144
 8472SOL    HW126315   6.840   0.833   5.171
 8472SOL    HW226316   6.837   0.669   5.163
 8473SOL     OW26317   6.565   6.425   0.462
 8473SOL    HW126318   6.664   6.413   0.453
 8473SOL    HW226319   6.546   6.479   0.544
 8474SOL     OW26320   3.312   3.214   1.898
 8474SOL    HW126321   3.301   3.119   1.927
 8474SOL    HW226322   3.333   3.271   1.977
 8475SOL     OW26323   6.520   2.492   3.888
 8475SOL    HW126324   6.618   2.510   3.878
 8475SOL    HW226325   6.469   2.549   3.824
 8476SOL     OW26326   6.779   2.105   1.097
 8476SOL    HW126327   6.853   2.094   1.164
 8476SOL    HW226328   6.692   2.079   1.140
 8477SOL     OW26329   5.189   6.933   1.056
 8477SOL    HW126330   5.176   7.006   1.124
 8477SOL    HW226331   5.162   6.966   0.966
 8478SOL     OW26332   1.898   0.103   6.241
 8478SOL    HW126333   1.931   0.019   6.285
 8478SOL    HW226334   1.802   0.090   6.215
 8479SOL     OW26335   1.131   2.996   1.174
 8479SOL    HW126336   1.044   2.964   1.138
 8479SOL    HW226337   1.115   3.062   1.247
 8480SOL     OW26338   4.582   1.797   0.085
 8480SOL    HW126339   4.596   1.887   0.044
 8480SOL    HW226340   4.491   1.763   0.060
 8481SOL     OW26341   4.187   2.302   4.698
 8481SOL    HW126342   4.219   2.397   4.693
 8481SOL    HW226343   4.239   2.246   4.633
 8482SOL     OW26344   4.382   6.038   1.591
 8482SOL    HW126345   4.296   6.041   1.539
 8482SOL    HW226346   4.453   5.995   1.535
 8483SOL     OW26347   4.502   6.179   2.234
 8483SOL    HW126348   4.567   6.197   2.308
 8483SOL    HW226349   4.428   6.121   2.268
 8484SOL     OW26350   0.363   6.448   3.636
 8484SOL    HW126351   0.441   6.478   3.691
 8484SOL    HW226352   0.394   6.394   3.559
 8485SOL     OW26353   3.843   2.743   6.948
 8485SOL    HW126354   3.938   2.773   6.955
 8485SOL    HW226355   3.797   2.757   0.017
 8486SOL     OW26356   3.139   1.608   2.798
 8486SOL    HW126357   3.070   1.680   2.806
 8486SOL    HW226358   3.228   1.643   2.827
 8487SOL     OW26359   5.646   1.202   6.022
 8487SOL    HW126360   5.593   1.286   6.012
 8487SOL    HW226361   5.691   1.181   5.935
 8488SOL     OW26362   5.060   5.741   0.325
 8488SOL    HW126363   5.126   5.785   0.385
 8488SOL    HW226364   5.008   5.673   0.376
 8489SOL     OW26365   6.405   2.055   0.966
 8489SOL    HW126366   6.359   1.992   1.029
 8489SOL    HW226367   6.503   2.055   0.983
 8490SOL     OW26368   4.568   6.312   3.714
 8490SOL    HW126369   4.626   6.337   3.636
 8490SOL    HW226370   4.626   6.279   3.789
 8491SOL     OW26371   2.675   6.316   0.972
 8491SOL    HW126372   2.732   6.238   0.949
 8491SOL    HW226373   2.582   6.301   0.938
 8492SOL     OW26374   4.631   3.883   5.611
 8492SOL    HW126375   4.619   3.916   5.517
 8492SOL    HW226376   4.727   3.860   5.626
 8493SOL     OW26377   2.253   2.574   6.780
 8493SOL    HW126378   2.162   2.605   6.753
 8493SOL    HW226379   2.248   2.532   6.871
 8494SOL     OW26380   3.272   5.546   1.744
 8494SOL    HW126381   3.279   5.477   1.672
 8494SOL    HW226382   3.224   5.508   1.823
 8495SOL     OW26383   6.064   5.312   2.600
 8495SOL    HW126384   5.984   5.365   2.628
 8495SOL    HW226385   6.132   5.315   2.673
 8496SOL     OW26386   1.278   2.827   1.495
 8496SOL    HW126387   1.276   2.925   1.475
 8496SOL    HW226388   1.319   2.779   1.417
 8497SOL     OW26389   6.210   0.856   3.742
 8497SOL    HW126390   6.193   0.922   3.669
 8497SOL    HW226391   6.122   0.825   3.779
 8498SOL     OW26392   6.995   6.769   3.056
 8498SOL    HW126393   6.974   6.801   3.149
 8498SOL    HW226394   6.934   6.693   3.033
 8499SOL     OW26395   1.767   4.842   6.591
 8499SOL    HW126396   1.861   4.830   6.557
 8499SOL    HW226397   1.768   4.902   6.671
 8500SOL     OW26398   1.686   5.965   5.413
 8500SOL    HW126399   1.647   6.057   5.415
 8500SOL    HW226400   1.750   5.954   5.490
 8501SOL     OW26401   0.504   2.292   6.792
 8501SOL    HW126402   0.532   2.213   6.739
 8501SOL    HW226403   0.574   2.313   6.861
 8502SOL     OW26404   1.512   3.893   1.416
 8502SOL    HW126405   1.484   3.923   1.325
 8502SOL    HW226406   1.542   3.973   1.470
 8503SOL     OW26407   1.452   6.176   3.977
 8503SOL    HW126408   1.360   6.154   4.009
 8503SOL    HW226409   1.447   6.207   3.882
 8504SOL     OW26410   2.582   4.909   2.136
 8504SOL    HW126411   2.575   4.997   2.088
 8504SOL    HW226412   2.501   4.853   2.117
 8505SOL     OW26413   5.279   3.422   3.902
 8505SOL    HW126414   5.307   3.452   3.811
 8505SOL    HW226415   5.356   3.379   3.948
 8506SOL     OW26416   0.028   0.677   6.612
 8506SOL    HW126417   0.064   0.703   6.522
 8506SOL    HW226418   0.008   0.759   6.665
 8507SOL     OW26419   3.605   1.012   5.517
 8507SOL    HW126420   3.647   1.015   5.426
 8507SOL    HW226421   3.527   1.074   5.519
 8508SOL     OW26422   5.922   1.651   5.241
 8508SOL    HW126423   5.861   1.709   5.187
 8508SOL    HW226424   6.004   1.701   5.265
 8509SOL     OW26425   4.947   1.593   4.252
 8509SOL    HW126426   5.044   1.611   4.267
 8509SOL    HW226427   4.936   1.538   4.169
 8510SOL     OW26428   6.171   4.230   2.628
 8510SOL    HW126429   6.084   4.236   2.676
 8510SOL    HW226430   6.209   4.138   2.640
 8511SOL     OW26431   5.739   3.651   2.330
 8511SOL    HW126432   5.735   3.682   2.235
 8511SOL    HW226433   5.754   3.553   2.333
 8512SOL     OW26434   3.171   1.958   1.942
 8512SOL    HW126435   3.121   2.015   2.007
 8512SOL    HW226436   3.219   2.016   1.876
 8513SOL     OW26437   5.887   4.398   1.105
 8513SOL    HW126438   5.835   4.334   1.048
 8513SOL    HW226439   5.937   4.347   1.175
 8514SOL     OW26440   2.732   2.373   3.793
 8514SOL    HW126441   2.703   2.406   3.883
 8514SOL    HW226442   2.680   2.420   3.722
 8515SOL     OW26443   5.521   1.920   0.773
 8515SOL    HW126444   5.555   1.891   0.684
 8515SOL    HW226445   5.422   1.930   0.769
 8516SOL     OW26446   5.887   2.470   1.879
 8516SOL    HW126447   5.944   2.479   1.961
 8516SOL    HW226448   5.792   2.455   1.906
 8517SOL     OW26449   1.121   2.626   6.122
 8517SOL    HW126450   1.182   2.629   6.043
 8517SOL    HW226451   1.027   2.645   6.092
 8518SOL     OW26452   4.256   4.143   6.714
 8518SOL    HW126453   4.293   4.128   6.622
 8518SOL    HW226454   4.290   4.231   6.749
 8519SOL     OW26455   1.212   3.963   2.210
 8519SOL    HW126456   1.171   3.968   2.119
 8519SOL    HW226457   1.280   3.889   2.212
 8520SOL     OW26458   3.449   2.464   0.261
 8520SOL    HW126459   3.473   2.367   0.264
 8520SOL    HW226460   3.496   2.512   0.336
 8521SOL     OW26461   2.343   5.541   6.129
 8521SOL    HW126462   2.385   5.458   6.092
 8521SOL    HW226463   2.411   5.615   6.129
 8522SOL     OW26464   1.373   6.257   1.849
 8522SOL    HW126465   1.347   6.203   1.769
 8522SOL    HW226466   1.462   6.300   1.834
 8523SOL     OW26467   2.226   6.673   6.484
 8523SOL    HW126468   2.248   6.675   6.581
 8523SOL    HW226469   2.294   6.728   6.434
 8524SOL     OW26470   0.446   2.715   4.882
 8524SOL    HW126471   0.365   2.774   4.873
 8524SOL    HW226472   0.448   2.649   4.807
 8525SOL     OW26473   6.386   4.019   3.321
 8525SOL    HW126474   6.439   4.055   3.398
 8525SOL    HW226475   6.318   3.954   3.356
 8526SOL     OW26476   3.652   5.882   0.109
 8526SOL    HW126477   3.711   5.905   0.032
 8526SOL    HW226478   3.701   5.899   0.194
 8527SOL     OW26479   2.648   0.400   5.968
 8527SOL    HW126480   2.695   0.484   5.941
 8527SOL    HW226481   2.594   0.366   5.891
 8528SOL     OW26482   3.828   2.515   6.077
 8528SOL    HW126483   3.743   2.524   6.129
 8528SOL    HW226484   3.835   2.590   6.011
 8529SOL     OW26485   0.314   0.330   1.575
 8529SOL    HW126486   0.402   0.307   1.616
 8529SOL    HW226487   0.298   0.273   1.495
 8530SOL     OW26488   3.245   3.290   4.961
 8530SOL    HW126489   3.301   3.208   4.957
 8530SOL    HW226490   3.279   3.358   4.897
 8531SOL     OW26491   6.650   4.922   2.636
 8531SOL    HW126492   6.632   4.824   2.624
 8531SOL    HW226493   6.569   4.974   2.611
 8532SOL     OW26494   3.605   5.282   4.242
 8532SOL    HW126495   3.514   5.244   4.232
 8532SOL    HW226496   3.662   5.220   4.295
 8533SOL     OW26497   2.158   0.010   5.505
 8533SOL    HW126498   2.232   0.058   5.553
 8533SOL    HW226499   2.073   0.020   5.558
 8534SOL     OW26500   6.186   3.041   4.231
 8534SOL    HW126501   6.180   3.070   4.327
 8534SOL    HW226502   6.096   3.015   4.198
 8535SOL     OW26503   6.696   1.357   4.734
 8535SOL    HW126504   6.727   1.281   4.677
 8535SOL    HW226505   6.634   1.415   4.681
 8536SOL     OW26506   5.993   2.037   4.712
 8536SOL    HW126507   5.947   2.119   4.681
 8536SOL    HW226508   6.092   2.047   4.698
 8537SOL     OW26509   5.853   1.802   1.785
 8537SOL    HW126510   5.761   1.784   1.750
 8537SOL    HW226511   5.846   1.857   1.868
 8538SOL     OW26512   0.672   1.270   6.360
 8538SOL    HW126513   0.751   1.264   6.299
 8538SOL    HW226514   0.662   1.184   6.410
 8539SOL     OW26515   5.928   0.982   1.961
 8539SOL    HW126516   5.993   0.928   2.015
 8539SOL    HW226517   5.835   0.966   1.996
 8540SOL     OW26518   5.014   1.174   6.813
 8540SOL    HW126519   4.981   1.262   6.848
 8540SOL    HW226520   5.109   1.160   6.841
 8541SOL     OW26521   2.717   2.188   4.445
 8541SOL    HW126522   2.678   2.235   4.525
 8541SOL    HW226523   2.757   2.255   4.383
 8542SOL     OW26524   2.904   4.952   6.918
 8542SOL    HW126525   2.864   4.958   6.827
 8542SOL    HW226526   2.999   4.983   6.916
 8543SOL     OW26527   3.186   1.007   0.248
 8543SOL    HW126528   3.203   1.004   0.149
 8543SOL    HW226529   3.239   1.081   0.289
 8544SOL     OW26530   5.578   2.892   4.474
 8544SOL    HW126531   5.632   2.814   4.506
 8544SOL    HW226532   5.498   2.903   4.532
 8545SOL     OW26533   4.831   6.602   4.110
 8545SOL    HW126534   4.765   6.607   4.035
 8545SOL    HW226535   4.920   6.574   4.074
 8546SOL     OW26536   0.509   0.359   3.306
 8546SOL    HW126537   0.444   0.385   3.236
 8546SOL    HW226538   0.584   0.425   3.309
 8547SOL     OW26539   1.465   6.850   6.314
 8547SOL    HW126540   1.519   6.916   6.261
 8547SOL    HW226541   1.384   6.896   6.350
 8548SOL     OW26542   6.284   3.469   5.980
 8548SOL    HW126543   6.350   3.544   5.986
 8548SOL    HW226544   6.200   3.495   6.028
 8549SOL     OW26545   1.274   3.234   5.045
 8549SOL    HW126546   1.332   3.309   5.079
 8549SOL    HW226547   1.178   3.259   5.056
 8550SOL     OW26548   1.900   4.994   6.357
 8550SOL    HW126549   1.962   4.936   6.304
 8550SOL    HW226550   1.839   5.044   6.294
 8551SOL     OW26551   2.582   3.494   6.692
 8551SOL    HW126552   2.657   3.557   6.712
 8551SOL    HW226553   2.499   3.546   6.671
 8552SOL     OW26554   2.697   0.084   2.938
 8552SOL    HW126555   2.735   0.139   3.013
 8552SOL    HW226556   2.617   0.129   2.900
 8553SOL     OW26557   4.249   4.389   6.471
 8553SOL    HW126558   4.231   4.479   6.510
 8553SOL    HW226559   4.335   4.354   6.507
 8554SOL     OW26560   0.581   4.738   0.974
 8554SOL    HW126561   0.651   4.805   0.999
 8554SOL    HW226562   0.538   4.766   0.888
 8555SOL     OW26563   2.238   1.049   4.029
 8555SOL    HW126564   2.182   0.980   3.983
 8555SOL    HW226565   2.306   1.085   3.964
 8556SOL     OW26566   1.549   5.836   5.180
 8556SOL    HW126567   1.594   5.885   5.255
 8556SOL    HW226568   1.454   5.818   5.206
 8557SOL     OW26569   6.515   0.045   2.678
 8557SOL    HW126570   6.462   6.999   2.622
 8557SOL    HW226571   6.483   0.041   2.773
 8558SOL     OW26572   1.971   4.616   3.197
 8558SOL    HW126573   2.042   4.560   3.155
 8558SOL    HW226574   1.968   4.706   3.153
 8559SOL     OW26575   1.726   0.607   2.393
 8559SOL    HW126576   1.790   0.643   2.325
 8559SOL    HW226577   1.739   0.508   2.402
 8560SOL     OW26578   6.799   6.565   1.792
 8560SOL    HW126579   6.712   6.607   1.766
 8560SOL    HW226580   6.875   6.619   1.754
 8561SOL     OW26581   3.805   0.514   2.880
 8561SOL    HW126582   3.838   0.511   2.974
 8561SOL    HW226583   3.803   0.609   2.848
 8562SOL     OW26584   4.023   6.080   5.986
 8562SOL    HW126585   4.027   6.172   5.949
 8562SOL    HW226586   4.110   6.033   5.969
 8563SOL     OW26587   1.113   4.451   1.018
 8563SOL    HW126588   1.211   4.450   1.034
 8563SOL    HW226589   1.095   4.476   0.922
 8564SOL     OW26590   3.373   0.710   5.090
 8564SOL    HW126591   3.440   0.638   5.070
 8564SOL    HW226592   3.339   0.698   5.183
 8565SOL     OW26593   3.600   5.272   1.095
 8565SOL    HW126594   3.666   5.202   1.124
 8565SOL    HW226595   3.606   5.351   1.156
 8566SOL     OW26596   1.316   0.214   1.498
 8566SOL    HW126597   1.294   0.117   1.498
 8566SOL    HW226598   1.382   0.233   1.425
 8567SOL     OW26599   0.518   2.506   3.636
 8567SOL    HW126600   0.543   2.496   3.732
 8567SOL    HW226601   0.537   2.421   3.587
 8568SOL     OW26602   5.772   1.156   6.736
 8568SOL    HW126603   5.769   1.256   6.730
 8568SOL    HW226604   5.703   1.125   6.801
 8569SOL     OW26605   4.415   1.016   5.970
 8569SOL    HW126606   4.403   0.987   6.065
 8569SOL    HW226607   4.366   0.953   5.910
 8570SOL     OW26608   1.773   1.614   4.747
 8570SOL    HW126609   1.710   1.638   4.673
 8570SOL    HW226610   1.864   1.653   4.727
 8571SOL     OW26611   1.037   5.878   5.006
 8571SOL    HW126612   1.049   5.856   4.910
 8571SOL    HW226613   0.941   5.901   5.023
 8572SOL     OW26614   3.286   5.169   6.535
 8572SOL    HW126615   3.304   5.207   6.445
 8572SOL    HW226616   3.341   5.086   6.549
 8573SOL     OW26617   3.423   6.520   6.417
 8573SOL    HW126618   3.423   6.433   6.368
 8573SOL    HW226619   3.507   6.569   6.398
 8574SOL     OW26620   0.207   6.139   6.327
 8574SOL    HW126621   0.191   6.223   6.275
 8574SOL    HW226622   0.300   6.140   6.363
 8575SOL     OW26623   2.414   2.696   4.125
 8575SOL    HW126624   2.354   2.768   4.090
 8575SOL    HW226625   2.413   2.700   4.225
 8576SOL     OW26626   1.316   4.214   5.857
 8576SOL    HW126627   1.347   4.129   5.901
 8576SOL    HW226628   1.325   4.290   5.922
 8577SOL     OW26629   1.186   6.346   4.644
 8577SOL    HW126630   1.252   6.351   4.569
 8577SOL    HW226631   1.203   6.263   4.697
 8578SOL     OW26632   6.010   6.293   4.138
 8578SOL    HW126633   5.964   6.260   4.220
 8578SOL    HW226634   6.088   6.234   4.117
 8579SOL     OW26635   2.033   0.465   1.795
 8579SOL    HW126636   2.060   0.440   1.888
 8579SOL    HW226637   1.964   0.401   1.761
 8580SOL     OW26638   2.486   6.031   1.482
 8580SOL    HW126639   2.417   5.976   1.434
 8580SOL    HW226640   2.533   6.090   1.416
 8581SOL     OW26641   3.374   4.001   1.581
 8581SOL    HW126642   3.276   3.998   1.599
 8581SOL    HW226643   3.394   3.949   1.498
 8582SOL     OW26644   4.699   4.321   4.474
 8582SOL    HW126645   4.649   4.350   4.392
 8582SOL    HW226646   4.771   4.387   4.494
 8583SOL     OW26647   5.321   0.427   4.354
 8583SOL    HW126648   5.402   0.403   4.299
 8583SOL    HW226649   5.253   0.354   4.345
 8584SOL     OW26650   0.450   4.926   5.832
 8584SOL    HW126651   0.505   4.851   5.795
 8584SOL    HW226652   0.392   4.963   5.760
 8585SOL     OW26653   0.415   6.509   6.211
 8585SOL    HW126654   0.498   6.481   6.259
 8585SOL    HW226655   0.398   6.607   6.227
 8586SOL     OW26656   3.211   6.632   1.936
 8586SOL    HW126657   3.194   6.553   1.876
 8586SOL    HW226658   3.209   6.716   1.881
 8587SOL     OW26659   1.215   0.306   4.044
 8587SOL    HW126660   1.159   0.224   4.034
 8587SOL    HW226661   1.270   0.299   4.127
 8588SOL     OW26662   2.922   0.587   0.320
 8588SOL    HW126663   2.906   0.674   0.367
 8588SOL    HW226664   2.834   0.547   0.293
 8589SOL     OW26665   5.231   2.827   5.792
 8589SOL    HW126666   5.280   2.898   5.741
 8589SOL    HW226667   5.138   2.857   5.812
 8590SOL     OW26668   6.693   6.236   3.532
 8590SOL    HW126669   6.729   6.302   3.464
 8590SOL    HW226670   6.759   6.226   3.606
 8591SOL     OW26671   0.265   4.116   0.469
 8591SOL    HW126672   0.299   4.128   0.376
 8591SOL    HW226673   0.303   4.031   0.507
 8592SOL     OW26674   6.588   2.835   6.523
 8592SOL    HW126675   6.572   2.847   6.621
 8592SOL    HW226676   6.576   2.739   6.499
 8593SOL     OW26677   1.570   1.838   0.429
 8593SOL    HW126678   1.644   1.788   0.384
 8593SOL    HW226679   1.562   1.930   0.390
 8594SOL     OW26680   4.307   2.604   5.460
 8594SOL    HW126681   4.221   2.636   5.501
 8594SOL    HW226682   4.384   2.638   5.515
 8595SOL     OW26683   0.436   2.184   3.729
 8595SOL    HW126684   0.505   2.134   3.781
 8595SOL    HW226685   0.366   2.119   3.697
 8596SOL     OW26686   1.116   5.111   2.958
 8596SOL    HW126687   1.121   5.106   2.859
 8596SOL    HW226688   1.101   5.205   2.987
 8597SOL     OW26689   4.529   1.803   1.017
 8597SOL    HW126690   4.506   1.706   1.018
 8597SOL    HW226691   4.488   1.847   0.937
 8598SOL     OW26692   5.879   0.129   0.387
 8598SOL    HW126693   5.948   0.138   0.459
 8598SOL    HW226694   5.878   0.034   0.354
 8599SOL     OW26695   1.506   2.660   5.006
 8599SOL    HW126696   1.568   2.599   5.055
 8599SOL    HW226697   1.412   2.642   5.035
 8600SOL     OW26698   5.328   4.662   5.035
 8600SOL    HW126699   5.276   4.710   4.964
 8600SOL    HW226700   5.274   4.660   5.120
 8601SOL     OW26701   1.251   1.663   4.601
 8601SOL    HW126702   1.202   1.710   4.528
 8601SOL    HW226703   1.291   1.579   4.566
 8602SOL     OW26704   3.267   5.813   1.952
 8602SOL    HW126705   3.273   5.714   1.941
 8602SOL    HW226706   3.303   5.839   2.041
 8603SOL     OW26707   4.912   5.923   0.661
 8603SOL    HW126708   4.966   6.007   0.667
 8603SOL    HW226709   4.973   5.846   0.641
 8604SOL     OW26710   0.111   3.207   5.027
 8604SOL    HW126711   0.211   3.217   5.028
 8604SOL    HW226712   0.074   3.253   4.946
 8605SOL     OW26713   2.622   5.874   4.060
 8605SOL    HW126714   2.719   5.888   4.038
 8605SOL    HW226715   2.566   5.926   3.996
 8606SOL     OW26716   1.959   3.219   6.182
 8606SOL    HW126717   1.870   3.175   6.168
 8606SOL    HW226718   1.979   3.225   6.280
 8607SOL     OW26719   3.669   5.708   0.566
 8607SOL    HW126720   3.734   5.739   0.496
 8607SOL    HW226721   3.644   5.613   0.548
 8608SOL     OW26722   3.631   4.868   2.855
 8608SOL    HW126723   3.558   4.831   2.797
 8608SOL    HW226724   3.657   4.959   2.822
 8609SOL     OW26725   5.282   0.904   2.600
 8609SOL    HW126726   5.185   0.881   2.597
 8609SOL    HW226727   5.299   0.967   2.676
 8610SOL     OW26728   1.083   2.014   2.895
 8610SOL    HW126729   1.168   1.962   2.886
 8610SOL    HW226730   1.074   2.047   2.989
 8611SOL     OW26731   2.997   1.557   4.134
 8611SOL    HW126732   3.082   1.568   4.185
 8611SOL    HW226733   2.950   1.645   4.127
 8612SOL     OW26734   2.592   3.639   0.727
 8612SOL    HW126735   2.558   3.546   0.710
 8612SOL    HW226736   2.523   3.690   0.779
 8613SOL     OW26737   2.913   2.032   0.994
 8613SOL    HW126738   3.012   2.022   0.979
 8613SOL    HW226739   2.892   2.129   1.008
 8614SOL     OW26740   0.803   3.140   3.064
 8614SOL    HW126741   0.846   3.167   3.150
 8614SOL    HW226742   0.863   3.163   2.988
 8615SOL     OW26743   4.479   1.001   4.699
 8615SOL    HW126744   4.448   0.989   4.793
 8615SOL    HW226745   4.473   0.914   4.650
 8616SOL     OW26746   3.074   4.549   1.676
 8616SOL    HW126747   3.014   4.526   1.752
 8616SOL    HW226748   3.088   4.648   1.674
 8617SOL     OW26749   6.268   1.823   6.135
 8617SOL    HW126750   6.176   1.819   6.096
 8617SOL    HW226751   6.333   1.778   6.073
 8618SOL     OW26752   6.042   4.856   0.976
 8618SOL    HW126753   5.997   4.810   0.900
 8618SOL    HW226754   6.046   4.795   1.055
 8619SOL     OW26755   3.740   4.908   2.184
 8619SOL    HW126756   3.709   4.872   2.096
 8619SOL    HW226757   3.660   4.925   2.242
 8620SOL     OW26758   1.558   0.289   3.376
 8620SOL    HW126759   1.485   0.323   3.316
 8620SOL    HW226760   1.562   0.346   3.459
 8621SOL     OW26761   5.521   1.702   3.354
 8621SOL    HW126762   5.557   1.792   3.330
 8621SOL    HW226763   5.427   1.712   3.387
 8622SOL     OW26764   5.716   3.298   0.972
 8622SOL    HW126765   5.739   3.278   0.877
 8622SOL    HW226766   5.778   3.248   1.033
 8623SOL     OW26767   0.865   3.991   4.544
 8623SOL    HW126768   0.855   4.055   4.468
 8623SOL    HW226769   0.797   4.012   4.615
 8624SOL     OW26770   1.653   4.111   4.994
 8624SOL    HW126771   1.681   4.061   5.076
 8624SOL    HW226772   1.630   4.205   5.018
 8625SOL     OW26773   4.372   0.504   6.367
 8625SOL    HW126774   4.310   0.503   6.446
 8625SOL    HW226775   4.462   0.539   6.396
 8626SOL     OW26776   3.397   3.107   6.069
 8626SOL    HW126777   3.391   3.007   6.069
 8626SOL    HW226778   3.360   3.143   6.154
 8627SOL     OW26779   1.094   2.029   3.171
 8627SOL    HW126780   1.079   2.074   3.259
 8627SOL    HW226781   1.090   1.930   3.182
 8628SOL     OW26782   6.275   6.417   1.276
 8628SOL    HW126783   6.219   6.356   1.219
 8628SOL    HW226784   6.283   6.506   1.231
 8629SOL     OW26785   1.133   5.493   4.839
 8629SOL    HW126786   1.039   5.472   4.866
 8629SOL    HW226787   1.179   5.409   4.810
 8630SOL     OW26788   5.768   4.455   4.259
 8630SOL    HW126789   5.797   4.519   4.188
 8630SOL    HW226790   5.709   4.385   4.218
 8631SOL     OW26791   0.449   5.135   6.272
 8631SOL    HW126792   0.464   5.082   6.189
 8631SOL    HW226793   0.360   5.180   6.267
 8632SOL     OW26794   3.711   5.204   4.728
 8632SOL    HW126795   3.732   5.117   4.682
 8632SOL    HW226796   3.777   5.273   4.699
 8633SOL     OW26797   5.195   1.441   6.031
 8633SOL    HW126798   5.122   1.379   6.002
 8633SOL    HW226799   5.201   1.440   6.131
 8634SOL     OW26800   4.602   2.938   0.115
 8634SOL    HW126801   4.632   2.987   0.034
 8634SOL    HW226802   4.559   2.852   0.088
 8635SOL     OW26803   5.528   3.442   6.435
 8635SOL    HW126804   5.509   3.390   6.518
 8635SOL    HW226805   5.626   3.439   6.415
 8636SOL     OW26806   5.756   5.641   0.830
 8636SOL    HW126807   5.699   5.723   0.826
 8636SOL    HW226808   5.781   5.613   0.737
 8637SOL     OW26809   2.348   1.478   6.968
 8637SOL    HW126810   2.301   1.405   0.000
 8637SOL    HW226811   2.444   1.455   6.959
 8638SOL     OW26812   3.462   2.519   5.470
 8638SOL    HW126813   3.470   2.438   5.412
 8638SOL    HW226814   3.392   2.580   5.434
 8639SOL     OW26815   5.134   2.873   0.184
 8639SOL    HW126816   5.145   2.874   0.284
 8639SOL    HW226817   5.108   2.781   0.155
 8640SOL     OW26818   4.189   3.652   6.597
 8640SOL    HW126819   4.130   3.730   6.578
 8640SOL    HW226820   4.133   3.569   6.607
 8641SOL     OW26821   4.762   4.754   3.540
 8641SOL    HW126822   4.791   4.839   3.584
 8641SOL    HW226823   4.835   4.686   3.547
 8642SOL     OW26824   1.521   6.085   2.935
 8642SOL    HW126825   1.454   6.071   2.862
 8642SOL    HW226826   1.493   6.163   2.991
 8643SOL     OW26827   2.336   0.130   6.911
 8643SOL    HW126828   2.365   0.038   6.938
 8643SOL    HW226829   2.374   0.152   6.821
 8644SOL     OW26830   5.440   2.495   5.518
 8644SOL    HW126831   5.403   2.436   5.446
 8644SOL    HW226832   5.365   2.532   5.572
 8645SOL     OW26833   4.490   4.002   1.076
 8645SOL    HW126834   4.485   4.009   0.976
 8645SOL    HW226835   4.528   4.087   1.113
 8646SOL     OW26836   6.721   1.927   0.895
 8646SOL    HW126837   6.808   1.899   0.855
 8646SOL    HW226838   6.732   2.015   0.941
 8647SOL     OW26839   2.800   5.369   6.817
 8647SOL    HW126840   2.858   5.307   6.869
 8647SOL    HW226841   2.849   5.402   6.737
 8648SOL     OW26842   6.801   0.740   2.786
 8648SOL    HW126843   6.859   0.721   2.865
 8648SOL    HW226844   6.794   0.838   2.772
 8649SOL     OW26845   5.392   5.315   5.841
 8649SOL    HW126846   5.414   5.307   5.938
 8649SOL    HW226847   5.303   5.275   5.822
 8650SOL     OW26848   2.144   5.445   4.082
 8650SOL    HW126849   2.089   5.374   4.038
 8650SOL    HW226850   2.084   5.509   4.129
 8651SOL     OW26851   4.396   0.223   6.624
 8651SOL    HW126852   4.400   0.178   6.713
 8651SOL    HW226853   4.411   0.156   6.552
 8652SOL     OW26854   1.818   4.814   3.547
 8652SOL    HW126855   1.806   4.785   3.642
 8652SOL    HW226856   1.905   4.860   3.536
 8653SOL     OW26857   5.986   0.403   6.018
 8653SOL    HW126858   6.052   0.437   5.951
 8653SOL    HW226859   5.894   0.426   5.988
 8654SOL     OW26860   1.192   4.716   2.106
 8654SOL    HW126861   1.140   4.763   2.034
 8654SOL    HW226862   1.276   4.678   2.067
 8655SOL     OW26863   6.847   1.059   4.302
 8655SOL    HW126864   6.824   0.996   4.228
 8655SOL    HW226865   6.780   1.133   4.305
 8656SOL     OW26866   6.878   0.106   1.070
 8656SOL    HW126867   6.857   0.063   0.982
 8656SOL    HW226868   6.858   0.204   1.065
 8657SOL     OW26869   5.317   4.483   6.689
 8657SOL    HW126870   5.293   4.392   6.723
 8657SOL    HW226871   5.248   4.549   6.718
 8658SOL     OW26872   6.088   5.908   0.480
 8658SOL    HW126873   6.074   5.975   0.554
 8658SOL    HW226874   6.172   5.857   0.499
 8659SOL     OW26875   4.380   1.976   2.604
 8659SOL    HW126876   4.355   1.898   2.661
 8659SOL    HW226877   4.336   2.059   2.639
 8660SOL     OW26878   6.776   4.162   1.700
 8660SOL    HW126879   6.676   4.156   1.691
 8660SOL    HW226880   6.818   4.099   1.635
 8661SOL     OW26881   6.302   3.985   1.395
 8661SOL    HW126882   6.213   3.941   1.381
 8661SOL    HW226883   6.312   4.060   1.330
 8662SOL     OW26884   4.468   5.735   1.352
 8662SOL    HW126885   4.541   5.769   1.293
 8662SOL    HW226886   4.382   5.781   1.328
 8663SOL     OW26887   2.882   6.104   1.266
 8663SOL    HW126888   2.797   6.148   1.236
 8663SOL    HW226889   2.892   6.115   1.365
 8664SOL     OW26890   1.644   6.403   1.059
 8664SOL    HW126891   1.637   6.472   1.132
 8664SOL    HW226892   1.738   6.400   1.026
 8665SOL     OW26893   5.536   5.790   5.011
 8665SOL    HW126894   5.523   5.692   5.024
 8665SOL    HW226895   5.553   5.808   4.914
 8666SOL     OW26896   5.762   1.506   3.889
 8666SOL    HW126897   5.727   1.418   3.857
 8666SOL    HW226898   5.834   1.538   3.828
 8667SOL     OW26899   3.952   2.134   3.349
 8667SOL    HW126900   3.927   2.112   3.255
 8667SOL    HW226901   3.869   2.139   3.406
 8668SOL     OW26902   4.907   3.474   3.258
 8668SOL    HW126903   4.994   3.425   3.259
 8668SOL    HW226904   4.882   3.498   3.352
 8669SOL     OW26905   1.225   6.448   5.961
 8669SOL    HW126906   1.308   6.393   5.947
 8669SOL    HW226907   1.219   6.518   5.890
 8670SOL     OW26908   3.635   4.512   5.360
 8670SOL    HW126909   3.577   4.462   5.295
 8670SOL    HW226910   3.606   4.489   5.453
 8671SOL     OW26911   5.154   1.397   2.751
 8671SOL    HW126912   5.104   1.326   2.802
 8671SOL    HW226913   5.231   1.356   2.703
 8672SOL     OW26914   1.052   5.330   4.057
 8672SOL    HW126915   1.028   5.419   4.096
 8672SOL    HW226916   1.017   5.257   4.116
 8673SOL     OW26917   5.635   2.803   0.036
 8673SOL    HW126918   5.705   2.835   0.100
 8673SOL    HW226919   5.578   2.880   0.009
 8674SOL     OW26920   4.956   5.829   2.791
 8674SOL    HW126921   4.926   5.924   2.795
 8674SOL    HW226922   4.967   5.794   2.884
 8675SOL     OW26923   3.734   2.147   4.451
 8675SOL    HW126924   3.733   2.231   4.505
 8675SOL    HW226925   3.641   2.115   4.437
 8676SOL     OW26926   5.166   0.042   2.711
 8676SOL    HW126927   5.189   0.092   2.627
 8676SOL    HW226928   5.073   0.006   2.704
 8677SOL     OW26929   2.026   5.301   6.016
 8677SOL    HW126930   2.026   5.387   6.066
 8677SOL    HW226931   2.118   5.262   6.017
 8678SOL     OW26932   0.213   0.180   2.239
 8678SOL    HW126933   0.265   0.240   2.178
 8678SOL    HW226934   0.261   0.171   2.326
 8679SOL     OW26935   0.240   2.025   3.306
 8679SOL    HW126936   0.313   2.075   3.260
 8679SOL    HW226937   0.159   2.084   3.314
 8680SOL     OW26938   0.436   3.493   0.182
 8680SOL    HW126939   0.374   3.454   0.113
 8680SOL    HW226940   0.486   3.419   0.227
 8681SOL     OW26941   4.829   5.016   1.048
 8681SOL    HW126942   4.840   5.069   1.132
 8681SOL    HW226943   4.756   5.057   0.993
 8682SOL     OW26944   5.506   6.348   2.277
 8682SOL    HW126945   5.497   6.280   2.349
 8682SOL    HW226946   5.592   6.335   2.228
 8683SOL     OW26947   1.928   1.998   4.202
 8683SOL    HW126948   1.912   2.011   4.104
 8683SOL    HW226949   2.020   2.031   4.226
 8684SOL     OW26950   6.074   2.804   5.382
 8684SOL    HW126951   5.976   2.784   5.388
 8684SOL    HW226952   6.098   2.873   5.451
 8685SOL     OW26953   0.527   2.059   6.630
 8685SOL    HW126954   0.492   1.999   6.558
 8685SOL    HW226955   0.577   2.004   6.697
 8686SOL     OW26956   0.398   1.136   3.297
 8686SOL    HW126957   0.402   1.182   3.385
 8686SOL    HW226958   0.463   1.059   3.296
 8687SOL     OW26959   5.191   4.735   1.433
 8687SOL    HW126960   5.265   4.745   1.500
 8687SOL    HW226961   5.227   4.697   1.348
 8688SOL     OW26962   1.135   5.281   6.323
 8688SOL    HW126963   1.102   5.266   6.416
 8688SOL    HW226964   1.091   5.216   6.260
 8689SOL     OW26965   3.578   3.726   1.138
 8689SOL    HW126966   3.540   3.649   1.087
 8689SOL    HW226967   3.669   3.747   1.104
 8690SOL     OW26968   1.467   3.749   3.454
 8690SOL    HW126969   1.458   3.766   3.356
 8690SOL    HW226970   1.542   3.685   3.470
 8691SOL     OW26971   3.605   1.829   5.886
 8691SOL    HW126972   3.653   1.802   5.969
 8691SOL    HW226973   3.657   1.797   5.806
 8692SOL     OW26974   2.992   1.355   4.824
 8692SOL    HW126975   2.992   1.411   4.741
 8692SOL    HW226976   2.897   1.336   4.851
 8693SOL     OW26977   5.583   0.699   7.005
 8693SOL    HW126978   5.508   0.756   0.020
 8693SOL    HW226979   5.613   0.638   0.060
 8694SOL     OW26980   4.654   0.723   4.781
 8694SOL    HW126981   4.598   0.697   4.860
 8694SOL    HW226982   4.734   0.663   4.778
 8695SOL     OW26983   4.333   3.131   6.174
 8695SOL    HW126984   4.396   3.105   6.247
 8695SOL    HW226985   4.357   3.222   6.141
 8696SOL     OW26986   1.939   4.959   5.849
 8696SOL    HW126987   1.985   5.011   5.777
 8696SOL    HW226988   2.005   4.901   5.896
 8697SOL     OW26989   0.254   3.000   6.263
 8697SOL    HW126990   0.227   2.962   6.174
 8697SOL    HW226991   0.273   3.097   6.253
 8698SOL     OW26992   4.792   5.709   4.927
 8698SOL    HW126993   4.773   5.760   4.843
 8698SOL    HW226994   4.717   5.646   4.946
 8699SOL     OW26995   1.654   2.455   5.117
 8699SOL    HW126996   1.616   2.415   5.034
 8699SOL    HW226997   1.659   2.384   5.188
 8700SOL     OW26998   1.102   1.452   4.084
 8700SOL    HW126999   1.041   1.450   4.163
 8700SOL    HW227000   1.148   1.540   4.080
 8701SOL     OW27001   1.348   0.914   6.777
 8701SOL    HW127002   1.328   0.942   6.683
 8701SOL    HW227003   1.408   0.834   6.775
 8702SOL     OW27004   5.373   5.043   1.507
 8702SOL    HW127005   5.439   5.114   1.533
 8702SOL    HW227006   5.409   4.991   1.430
 8703SOL     OW27007   2.444   4.785   6.915
 8703SOL    HW127008   2.448   4.885   6.902
 8703SOL    HW227009   2.356   4.751   6.882
 8704SOL     OW27010   0.328   4.212   3.445
 8704SOL    HW127011   0.389   4.290   3.436
 8704SOL    HW227012   0.234   4.244   3.457
 8705SOL     OW27013   5.359   0.898   6.285
 8705SOL    HW127014   5.329   0.808   6.256
 8705SOL    HW227015   5.341   0.910   6.383
 8706SOL     OW27016   5.381   1.928   6.939
 8706SOL    HW127017   5.348   1.856   6.879
 8706SOL    HW227018   5.421   1.888   0.004
 8707SOL     OW27019   6.872   1.311   6.207
 8707SOL    HW127020   6.891   1.401   6.169
 8707SOL    HW227021   6.916   1.303   6.296
 8708SOL     OW27022   4.569   1.554   2.297
 8708SOL    HW127023   4.474   1.524   2.295
 8708SOL    HW227024   4.616   1.522   2.215
 8709SOL     OW27025   0.372   6.564   0.379
 8709SOL    HW127026   0.370   6.602   0.287
 8709SOL    HW227027   0.307   6.487   0.384
 8710SOL     OW27028   2.292   2.977   3.818
 8710SOL    HW127029   2.392   2.976   3.810
 8710SOL    HW227030   2.251   2.935   3.737
 8711SOL     OW27031   2.047   6.865   3.038
 8711SOL    HW127032   1.990   6.841   3.116
 8711SOL    HW227033   1.992   6.866   2.955
 8712SOL     OW27034   3.781   1.904   4.829
 8712SOL    HW127035   3.871   1.925   4.790
 8712SOL    HW227036   3.783   1.917   4.928
 8713SOL     OW27037   6.286   3.263   4.034
 8713SOL    HW127038   6.243   3.185   4.080
 8713SOL    HW227039   6.298   3.243   3.937
 8714SOL     OW27040   0.690   0.427   5.429
 8714SOL    HW127041   0.713   0.514   5.385
 8714SOL    HW227042   0.723   0.351   5.372
 8715SOL     OW27043   4.172   6.931   1.287
 8715SOL    HW127044   4.180   6.901   1.382
 8715SOL    HW227045   4.249   6.894   1.235
 8716SOL     OW27046   0.124   0.176   0.846
 8716SOL    HW127047   0.206   0.120   0.854
 8716SOL    HW227048   0.061   0.156   0.921
 8717SOL     OW27049   2.901   3.335   4.798
 8717SOL    HW127050   2.854   3.271   4.859
 8717SOL    HW227051   2.889   3.428   4.831
 8718SOL     OW27052   1.904   3.413   5.357
 8718SOL    HW127053   1.991   3.456   5.380
 8718SOL    HW227054   1.918   3.315   5.347
 8719SOL     OW27055   4.052   0.107   6.552
 8719SOL    HW127056   3.960   0.074   6.570
 8719SOL    HW227057   4.110   0.031   6.524
 8720SOL     OW27058   6.852   5.303   5.937
 8720SOL    HW127059   6.845   5.391   5.890
 8720SOL    HW227060   6.800   5.234   5.885
 8721SOL     OW27061   6.861   2.573   1.740
 8721SOL    HW127062   6.798   2.496   1.730
 8721SOL    HW227063   6.930   2.551   1.808
 8722SOL     OW27064   3.673   1.094   0.446
 8722SOL    HW127065   3.759   1.143   0.462
 8722SOL    HW227066   3.661   1.078   0.348
 8723SOL     OW27067   4.566   6.394   1.773
 8723SOL    HW127068   4.541   6.481   1.816
 8723SOL    HW227069   4.640   6.409   1.708
 8724SOL     OW27070   5.166   6.605   4.973
 8724SOL    HW127071   5.182   6.684   5.033
 8724SOL    HW227072   5.217   6.617   4.888
 8725SOL     OW27073   1.480   6.363   5.797
 8725SOL    HW127074   1.559   6.400   5.749
 8725SOL    HW227075   1.462   6.270   5.766
 8726SOL     OW27076   6.929   1.836   3.706
 8726SOL    HW127077   6.964   1.760   3.651
 8726SOL    HW227078   6.929   1.920   3.651
 8727SOL     OW27079   5.468   6.993   2.144
 8727SOL    HW127080   5.456   6.937   2.226
 8727SOL    HW227081   5.500   0.066   2.171
 8728SOL     OW27082   6.492   0.750   2.140
 8728SOL    HW127083   6.439   0.726   2.059
 8728SOL    HW227084   6.450   0.707   2.220
 8729SOL     OW27085   3.506   5.291   5.397
 8729SOL    HW127086   3.500   5.390   5.409
 8729SOL    HW227087   3.419   5.249   5.421
 8730SOL     OW27088   5.791   4.406   2.624
 8730SOL    HW127089   5.743   4.321   2.601
 8730SOL    HW227090   5.879   4.385   2.667
 8731SOL     OW27091   1.690   2.603   3.168
 8731SOL    HW127092   1.597   2.598   3.203
 8731SOL    HW227093   1.722   2.697   3.172
 8732SOL     OW27094   5.886   4.702   1.384
 8732SOL    HW127095   5.843   4.629   1.436
 8732SOL    HW227096   5.815   4.755   1.337
 8733SOL     OW27097   2.387   5.269   1.394
 8733SOL    HW127098   2.388   5.350   1.454
 8733SOL    HW227099   2.335   5.290   1.312
 8734SOL     OW27100   0.874   4.168   2.107
 8734SOL    HW127101   0.795   4.180   2.046
 8734SOL    HW227102   0.955   4.148   2.052
 8735SOL     OW27103   1.049   2.807   0.669
 8735SOL    HW127104   0.960   2.854   0.670
 8735SOL    HW227105   1.035   2.709   0.650
 8736SOL     OW27106   6.927   5.395   0.722
 8736SOL    HW127107   6.913   5.375   0.819
 8736SOL    HW227108   7.012   5.352   0.691
 8737SOL     OW27109   2.004   6.708   0.137
 8737SOL    HW127110   1.959   6.730   0.051
 8737SOL    HW227111   2.049   6.618   0.130
 8738SOL     OW27112   2.694   5.281   4.377
 8738SOL    HW127113   2.741   5.218   4.315
 8738SOL    HW227114   2.597   5.283   4.355
 8739SOL     OW27115   6.826   5.662   6.957
 8739SOL    HW127116   6.822   5.566   6.987
 8739SOL    HW227117   6.754   5.714   7.004
 8740SOL     OW27118   4.769   1.217   4.342
 8740SOL    HW127119   4.747   1.171   4.256
 8740SOL    HW227120   4.697   1.199   4.409
 8741SOL     OW27121   2.402   1.169   2.356
 8741SOL    HW127122   2.309   1.132   2.351
 8741SOL    HW227123   2.439   1.156   2.448
 8742SOL     OW27124   5.056   6.404   1.691
 8742SOL    HW127125   4.972   6.396   1.638
 8742SOL    HW227126   5.038   6.377   1.786
 8743SOL     OW27127   1.846   0.239   1.797
 8743SOL    HW127128   1.808   0.280   1.880
 8743SOL    HW227129   1.772   0.220   1.732
 8744SOL     OW27130   4.079   2.839   6.636
 8744SOL    HW127131   4.096   2.776   6.560
 8744SOL    HW227132   4.151   2.907   6.640
 8745SOL     OW27133   6.693   2.305   6.519
 8745SOL    HW127134   6.740   2.276   6.602
 8745SOL    HW227135   6.665   2.224   6.467
 8746SOL     OW27136   4.416   5.482   4.736
 8746SOL    HW127137   4.344   5.528   4.789
 8746SOL    HW227138   4.412   5.384   4.752
 8747SOL     OW27139   0.247   2.366   3.277
 8747SOL    HW127140   0.316   2.304   3.239
 8747SOL    HW227141   0.274   2.461   3.258
 8748SOL     OW27142   0.030   1.290   4.564
 8748SOL    HW127143   0.122   1.256   4.541
 8748SOL    HW227144   0.017   1.380   4.522
 8749SOL     OW27145   2.167   0.202   4.804
 8749SOL    HW127146   2.169   0.103   4.796
 8749SOL    HW227147   2.166   0.243   4.713
 8750SOL     OW27148   3.178   3.693   4.837
 8750SOL    HW127149   3.141   3.708   4.929
 8750SOL    HW227150   3.126   3.620   4.792
 8751SOL     OW27151   6.071   1.744   2.151
 8751SOL    HW127152   6.158   1.756   2.199
 8751SOL    HW227153   6.001   1.718   2.217
 8752SOL     OW27154   3.387   3.383   6.794
 8752SOL    HW127155   3.475   3.337   6.779
 8752SOL    HW227156   3.322   3.319   6.834
 8753SOL     OW27157   3.511   1.573   6.387
 8753SOL    HW127158   3.454   1.630   6.329
 8753SOL    HW227159   3.491   1.593   6.483
 8754SOL     OW27160   2.201   3.495   5.712
 8754SOL    HW127161   2.182   3.569   5.775
 8754SOL    HW227162   2.300   3.483   5.703
 8755SOL     OW27163   2.350   1.352   1.055
 8755SOL    HW127164   2.264   1.393   1.024
 8755SOL    HW227165   2.411   1.339   0.976
 8756SOL     OW27166   1.207   3.348   4.286
 8756SOL    HW127167   1.280   3.353   4.218
 8756SOL    HW227168   1.225   3.415   4.358
 8757SOL     OW27169   3.647   5.966   6.303
 8757SOL    HW127170   3.717   5.968   6.231
 8757SOL    HW227171   3.663   5.886   6.362
 8758SOL     OW27172   4.859   5.704   2.575
 8758SOL    HW127173   4.801   5.642   2.627
 8758SOL    HW227174   4.924   5.749   2.636
 8759SOL     OW27175   4.947   2.862   6.826
 8759SOL    HW127176   4.905   2.939   6.778
 8759SOL    HW227177   5.027   2.830   6.775
 8760SOL     OW27178   2.201   0.503   5.151
 8760SOL    HW127179   2.264   0.452   5.092
 8760SOL    HW227180   2.224   0.484   5.247
 8761SOL     OW27181   6.175   2.073   1.887
 8761SOL    HW127182   6.150   2.168   1.905
 8761SOL    HW227183   6.253   2.069   1.825
 8762SOL     OW27184   1.299   4.021   3.165
 8762SOL    HW127185   1.279   4.108   3.121
 8762SOL    HW227186   1.233   3.952   3.136
 8763SOL     OW27187   6.912   6.373   6.396
 8763SOL    HW127188   6.991   6.429   6.369
 8763SOL    HW227189   6.840   6.433   6.431
 8764SOL     OW27190   5.507   6.633   4.901
 8764SOL    HW127191   5.481   6.536   4.911
 8764SOL    HW227192   5.600   6.639   4.867
 8765SOL     OW27193   5.586   6.728   3.550
 8765SOL    HW127194   5.582   6.739   3.451
 8765SOL    HW227195   5.533   6.801   3.594
 8766SOL     OW27196   4.628   4.656   4.630
 8766SOL    HW127197   4.586   4.719   4.696
 8766SOL    HW227198   4.663   4.708   4.552
 8767SOL     OW27199   4.802   5.346   3.034
 8767SOL    HW127200   4.826   5.264   2.983
 8767SOL    HW227201   4.820   5.331   3.131
 8768SOL     OW27202   1.135   2.675   0.117
 8768SOL    HW127203   1.212   2.723   0.075
 8768SOL    HW227204   1.167   2.589   0.156
 8769SOL     OW27205   0.404   0.610   3.540
 8769SOL    HW127206   0.328   0.599   3.475
 8769SOL    HW227207   0.487   0.636   3.491
 8770SOL     OW27208   4.548   4.441   2.245
 8770SOL    HW127209   4.551   4.371   2.173
 8770SOL    HW227210   4.525   4.529   2.204
 8771SOL     OW27211   1.357   1.951   6.506
 8771SOL    HW127212   1.377   1.923   6.600
 8771SOL    HW227213   1.279   1.899   6.471
 8772SOL     OW27214   4.731   0.537   6.337
 8772SOL    HW127215   4.831   0.540   6.336
 8772SOL    HW227216   4.700   0.500   6.425
 8773SOL     OW27217   5.432   2.258   3.637
 8773SOL    HW127218   5.392   2.276   3.727
 8773SOL    HW227219   5.459   2.345   3.595
 8774SOL     OW27220   1.614   0.854   6.975
 8774SOL    HW127221   1.646   0.949   6.984
 8774SOL    HW227222   1.573   0.841   6.884
 8775SOL     OW27223   5.390   6.976   5.518
 8775SOL    HW127224   5.323   6.948   5.449
 8775SOL    HW227225   5.401   0.058   5.515
 8776SOL     OW27226   4.317   2.811   0.059
 8776SOL    HW127227   4.328   2.853   0.149
 8776SOL    HW227228   4.226   2.832   0.024
 8777SOL     OW27229   6.657   4.301   3.097
 8777SOL    HW127230   6.629   4.383   3.047
 8777SOL    HW227231   6.751   4.278   3.071
 8778SOL     OW27232   5.825   3.221   5.945
 8778SOL    HW127233   5.737   3.199   5.901
 8778SOL    HW227234   5.817   3.307   5.994
 8779SOL     OW27235   2.823   5.072   2.277
 8779SOL    HW127236   2.726   5.088   2.298
 8779SOL    HW227237   2.834   4.980   2.238
 8780SOL     OW27238   0.399   6.439   3.134
 8780SOL    HW127239   0.455   6.465   3.056
 8780SOL    HW227240   0.323   6.503   3.143
 8781SOL     OW27241   4.918   0.867   3.379
 8781SOL    HW127242   5.000   0.812   3.369
 8781SOL    HW227243   4.865   0.865   3.294
 8782SOL     OW27244   6.352   6.700   1.349
 8782SOL    HW127245   6.433   6.644   1.330
 8782SOL    HW227246   6.344   6.772   1.281
 8783SOL     OW27247   6.693   4.609   4.152
 8783SOL    HW127248   6.792   4.598   4.153
 8783SOL    HW227249   6.669   4.703   4.177
 8784SOL     OW27250   6.128   4.464   5.792
 8784SOL    HW127251   6.212   4.459   5.846
 8784SOL    HW227252   6.113   4.376   5.746
 8785SOL     OW27253   5.496   4.067   6.938
 8785SOL    HW127254   5.482   4.105   0.011
 8785SOL    HW227255   5.547   3.981   6.945
 8786SOL     OW27256   2.610   0.879   0.555
 8786SOL    HW127257   2.623   0.809   0.484
 8786SOL    HW227258   2.513   0.895   0.570
 8787SOL     OW27259   3.179   1.313   1.702
 8787SOL    HW127260   3.121   1.385   1.662
 8787SOL    HW227261   3.275   1.338   1.691
 8788SOL     OW27262   6.337   0.679   5.283
 8788SOL    HW127263   6.275   0.757   5.284
 8788SOL    HW227264   6.429   0.710   5.256
 8789SOL     OW27265   5.980   6.309   4.449
 8789SOL    HW127266   5.958   6.404   4.429
 8789SOL    HW227267   6.077   6.301   4.472
 8790SOL     OW27268   0.483   0.333   6.189
 8790SOL    HW127269   0.513   0.281   6.269
 8790SOL    HW227270   0.408   0.393   6.215
 8791SOL     OW27271   5.168   6.193   5.246
 8791SOL    HW127272   5.222   6.230   5.170
 8791SOL    HW227273   5.178   6.250   5.327
 8792SOL     OW27274   2.664   5.930   2.949
 8792SOL    HW127275   2.619   5.842   2.935
 8792SOL    HW227276   2.642   5.991   2.873
 8793SOL     OW27277   1.290   4.577   2.789
 8793SOL    HW127278   1.199   4.575   2.829
 8793SOL    HW227279   1.288   4.530   2.700
 8794SOL     OW27280   4.632   6.987   2.375
 8794SOL    HW127281   4.682   0.045   2.415
 8794SOL    HW227282   4.618   6.916   2.444
 8795SOL     OW27283   1.176   4.576   5.683
 8795SOL    HW127284   1.184   4.510   5.758
 8795SOL    HW227285   1.248   4.645   5.692
 8796SOL     OW27286   4.026   1.997   4.747
 8796SOL    HW127287   4.105   1.936   4.738
 8796SOL    HW227288   4.044   2.066   4.816
 8797SOL     OW27289   0.491   0.495   6.757
 8797SOL    HW127290   0.400   0.457   6.775
 8797SOL    HW227291   0.542   0.434   6.698
 8798SOL     OW27292   5.511   5.370   6.491
 8798SOL    HW127293   5.417   5.345   6.469
 8798SOL    HW227294   5.562   5.386   6.407
 8799SOL     OW27295   2.477   4.593   3.830
 8799SOL    HW127296   2.499   4.525   3.760
 8799SOL    HW227297   2.378   4.599   3.841
 8800SOL     OW27298   6.860   4.333   5.645
 8800SOL    HW127299   6.938   4.285   5.604
 8800SOL    HW227300   6.869   4.431   5.628
 8801SOL     OW27301   6.881   1.224   5.218
 8801SOL    HW127302   6.821   1.156   5.174
 8801SOL    HW227303   6.952   1.252   5.154
 8802SOL     OW27304   2.000   0.189   6.814
 8802SOL    HW127305   2.043   0.111   6.769
 8802SOL    HW227306   2.069   0.258   6.835
 8803SOL     OW27307   0.152   6.392   0.127
 8803SOL    HW127308   0.184   6.345   0.045
 8803SOL    HW227309   0.093   6.468   0.101
 8804SOL     OW27310   2.560   6.869   2.176
 8804SOL    HW127311   2.472   6.831   2.206
 8804SOL    HW227312   2.550   6.907   2.084
 8805SOL     OW27313   3.217   6.037   3.904
 8805SOL    HW127314   3.235   5.945   3.870
 8805SOL    HW227315   3.154   6.032   3.982
 8806SOL     OW27316   3.396   4.918   2.002
 8806SOL    HW127317   3.317   4.890   1.946
 8806SOL    HW227318   3.480   4.891   1.956
 8807SOL     OW27319   4.871   0.726   6.812
 8807SOL    HW127320   4.921   0.811   6.831
 8807SOL    HW227321   4.777   0.748   6.788
 8808SOL     OW27322   6.074   2.725   6.860
 8808SOL    HW127323   6.031   2.651   6.910
 8808SOL    HW227324   6.153   2.690   6.809
 8809SOL     OW27325   4.460   4.947   3.356
 8809SOL    HW127326   4.427   4.855   3.377
 8809SOL    HW227327   4.467   5.000   3.441
 8810SOL     OW27328   6.140   0.580   5.021
 8810SOL    HW127329   6.124   0.660   5.079
 8810SOL    HW227330   6.163   0.501   5.079
 8811SOL     OW27331   3.761   1.003   2.919
 8811SOL    HW127332   3.856   1.033   2.925
 8811SOL    HW227333   3.700   1.082   2.926
 8812SOL     OW27334   1.941   1.036   0.298
 8812SOL    HW127335   1.871   1.000   0.359
 8812SOL    HW227336   1.914   1.127   0.266
 8813SOL     OW27337   2.247   4.994   2.050
 8813SOL    HW127338   2.279   4.901   2.066
 8813SOL    HW227339   2.279   5.054   2.123
 8814SOL     OW27340   6.067   0.084   0.571
 8814SOL    HW127341   6.093   7.006   0.586
 8814SOL    HW227342   6.058   0.130   0.659
 8815SOL     OW27343   5.700   6.680   0.689
 8815SOL    HW127344   5.601   6.668   0.680
 8815SOL    HW227345   5.726   6.770   0.652
 8816SOL     OW27346   1.421   6.638   0.634
 8816SOL    HW127347   1.473   6.619   0.550
 8816SOL    HW227348   1.438   6.565   0.701
 8817SOL     OW27349   0.219   5.111   3.655
 8817SOL    HW127350   0.256   5.053   3.583
 8817SOL    HW227351   0.288   5.178   3.683
 8818SOL     OW27352   0.578   4.564   4.425
 8818SOL    HW127353   0.554   4.647   4.375
 8818SOL    HW227354   0.623   4.500   4.363
 8819SOL     OW27355   5.900   5.225   5.552
 8819SOL    HW127356   5.929   5.144   5.500
 8819SOL    HW227357   5.805   5.246   5.531
 8820SOL     OW27358   2.782   0.599   4.815
 8820SOL    HW127359   2.773   0.599   4.715
 8820SOL    HW227360   2.698   0.564   4.856
 8821SOL     OW27361   1.863   6.153   0.624
 8821SOL    HW127362   1.818   6.134   0.711
 8821SOL    HW227363   1.945   6.207   0.641
 8822SOL     OW27364   0.394   0.418   3.768
 8822SOL    HW127365   0.395   0.488   3.698
 8822SOL    HW227366   0.326   0.442   3.838
 8823SOL     OW27367   2.341   1.016   2.725
 8823SOL    HW127368   2.375   1.110   2.735
 8823SOL    HW227369   2.401   0.966   2.663
 8824SOL     OW27370   1.428   1.787   0.158
 8824SOL    HW127371   1.392   1.723   0.090
 8824SOL    HW227372   1.398   1.880   0.136
 8825SOL     OW27373   1.980   1.041   2.081
 8825SOL    HW127374   2.021   0.969   2.026
 8825SOL    HW227375   1.900   1.078   2.034
 8826SOL     OW27376   0.421   3.873   0.453
 8826SOL    HW127377   0.402   3.808   0.379
 8826SOL    HW227378   0.395   3.832   0.540
 8827SOL     OW27379   4.422   1.486   2.002
 8827SOL    HW127380   4.382   1.502   2.093
 8827SOL    HW227381   4.424   1.571   1.951
 8828SOL     OW27382   4.119   5.717   6.008
 8828SOL    HW127383   4.214   5.705   6.036
 8828SOL    HW227384   4.113   5.792   5.943
 8829SOL     OW27385   5.055   2.921   0.971
 8829SOL    HW127386   5.125   2.913   1.043
 8829SOL    HW227387   5.097   2.901   0.882
 8830SOL     OW27388   1.649   2.194   2.241
 8830SOL    HW127389   1.730   2.148   2.205
 8830SOL    HW227390   1.600   2.131   2.302
 8831SOL     OW27391   4.549   2.591   4.267
 8831SOL    HW127392   4.507   2.524   4.328
 8831SOL    HW227393   4.514   2.580   4.175
 8832SOL     OW27394   0.247   6.821   2.959
 8832SOL    HW127395   0.147   6.818   2.967
 8832SOL    HW227396   0.288   6.782   3.040
 8833SOL     OW27397   2.603   4.519   5.943
 8833SOL    HW127398   2.699   4.495   5.924
 8833SOL    HW227399   2.562   4.558   5.861
 8834SOL     OW27400   5.862   4.476   4.951
 8834SOL    HW127401   5.822   4.465   5.042
 8834SOL    HW227402   5.837   4.398   4.893
 8835SOL     OW27403   4.545   0.872   5.413
 8835SOL    HW127404   4.603   0.803   5.370
 8835SOL    HW227405   4.579   0.891   5.505
 8836SOL     OW27406   5.007   1.662   0.243
 8836SOL    HW127407   4.971   1.670   0.150
 8836SOL    HW227408   4.962   1.585   0.290
 8837SOL     OW27409   0.281   6.414   2.486
 8837SOL    HW127410   0.208   6.456   2.433
 8837SOL    HW227411   0.339   6.360   2.425
 8838SOL     OW27412   1.935   5.421   3.040
 8838SOL    HW127413   1.869   5.348   3.023
 8838SOL    HW227414   1.903   5.478   3.116
 8839SOL     OW27415   5.376   5.699   1.857
 8839SOL    HW127416   5.426   5.613   1.869
 8839SOL    HW227417   5.366   5.744   1.946
 8840SOL     OW27418   0.123   1.911   3.070
 8840SOL    HW127419   0.131   1.978   2.996
 8840SOL    HW227420   0.165   1.948   3.153
 8841SOL     OW27421   0.958   1.348   4.624
 8841SOL    HW127422   0.873   1.310   4.662
 8841SOL    HW227423   0.995   1.416   4.687
 8842SOL     OW27424   3.472   2.930   2.472
 8842SOL    HW127425   3.559   2.940   2.520
 8842SOL    HW227426   3.489   2.910   2.376
 8843SOL     OW27427   2.380   3.219   6.008
 8843SOL    HW127428   2.367   3.226   5.909
 8843SOL    HW227429   2.477   3.224   6.029
 8844SOL     OW27430   0.549   1.380   5.760
 8844SOL    HW127431   0.450   1.392   5.762
 8844SOL    HW227432   0.571   1.289   5.726
 8845SOL     OW27433   3.458   3.843   1.390
 8845SOL    HW127434   3.479   3.902   1.312
 8845SOL    HW227435   3.468   3.747   1.364
 8846SOL     OW27436   3.387   5.209   3.738
 8846SOL    HW127437   3.371   5.142   3.810
 8846SOL    HW227438   3.475   5.253   3.753
 8847SOL     OW27439   2.444   1.195   3.106
 8847SOL    HW127440   2.344   1.191   3.109
 8847SOL    HW227441   2.481   1.103   3.095
 8848SOL     OW27442   2.761   1.815   2.523
 8848SOL    HW127443   2.700   1.893   2.536
 8848SOL    HW227444   2.837   1.821   2.587
 8849SOL     OW27445   2.803   6.250   3.096
 8849SOL    HW127446   2.859   6.169   3.075
 8849SOL    HW227447   2.809   6.315   3.021
 8850SOL     OW27448   1.561   2.081   6.752
 8850SOL    HW127449   1.522   1.991   6.732
 8850SOL    HW227450   1.548   2.103   6.849
 8851SOL     OW27451   1.338   5.732   2.101
 8851SOL    HW127452   1.323   5.766   2.009
 8851SOL    HW227453   1.373   5.638   2.096
 8852SOL     OW27454   5.181   3.481   5.787
 8852SOL    HW127455   5.114   3.413   5.817
 8852SOL    HW227456   5.137   3.570   5.779
 8853SOL     OW27457   3.192   1.487   0.324
 8853SOL    HW127458   3.107   1.514   0.279
 8853SOL    HW227459   3.252   1.567   0.332
 8854SOL     OW27460   3.160   1.207   5.717
 8854SOL    HW127461   3.097   1.143   5.672
 8854SOL    HW227462   3.108   1.285   5.753
 8855SOL     OW27463   0.264   6.102   1.275
 8855SOL    HW127464   0.350   6.075   1.318
 8855SOL    HW227465   0.189   6.092   1.341
 8856SOL     OW27466   0.342   6.387   6.646
 8856SOL    HW127467   0.395   6.349   6.570
 8856SOL    HW227468   0.245   6.367   6.632
 8857SOL     OW27469   6.692   1.865   3.899
 8857SOL    HW127470   6.656   1.901   3.985
 8857SOL    HW227471   6.791   1.875   3.898
 8858SOL     OW27472   0.721   2.427   5.456
 8858SOL    HW127473   0.650   2.377   5.505
 8858SOL    HW227474   0.800   2.367   5.440
 8859SOL     OW27475   0.345   0.715   3.809
 8859SOL    HW127476   0.248   0.736   3.801
 8859SOL    HW227477   0.385   0.703   3.718
 8860SOL     OW27478   0.226   3.167   3.190
 8860SOL    HW127479   0.240   3.211   3.279
 8860SOL    HW227480   0.200   3.236   3.123
 8861SOL     OW27481   4.233   1.665   5.812
 8861SOL    HW127482   4.260   1.600   5.882
 8861SOL    HW227483   4.161   1.725   5.848
 8862SOL     OW27484   5.611   0.584   4.156
 8862SOL    HW127485   5.580   0.610   4.247
 8862SOL    HW227486   5.538   0.535   4.108
 8863SOL     OW27487   1.501   4.914   4.088
 8863SOL    HW127488   1.586   4.862   4.099
 8863SOL    HW227489   1.425   4.863   4.128
 8864SOL     OW27490   3.395   4.865   6.511
 8864SOL    HW127491   3.302   4.873   6.546
 8864SOL    HW227492   3.393   4.835   6.415
 8865SOL     OW27493   2.990   0.668   6.175
 8865SOL    HW127494   2.920   0.738   6.191
 8865SOL    HW227495   3.069   0.710   6.131
 8866SOL     OW27496   5.441   0.018   2.931
 8866SOL    HW127497   5.512   6.995   2.989
 8866SOL    HW227498   5.366   6.971   2.919
 8867SOL     OW27499   5.704   3.789   2.569
 8867SOL    HW127500   5.742   3.744   2.489
 8867SOL    HW227501   5.772   3.788   2.643
 8868SOL     OW27502   6.524   2.489   1.052
 8868SOL    HW127503   6.499   2.550   0.977
 8868SOL    HW227504   6.518   2.539   1.139
 8869SOL     OW27505   4.172   6.074   4.635
 8869SOL    HW127506   4.095   6.139   4.634
 8869SOL    HW227507   4.136   5.982   4.648
 8870SOL     OW27508   3.473   0.377   0.496
 8870SOL    HW127509   3.511   0.294   0.457
 8870SOL    HW227510   3.382   0.393   0.458
 8871SOL     OW27511   1.909   1.411   3.938
 8871SOL    HW127512   1.959   1.331   3.906
 8871SOL    HW227513   1.850   1.386   4.015
 8872SOL     OW27514   1.788   4.025   5.254
 8872SOL    HW127515   1.726   4.010   5.331
 8872SOL    HW227516   1.859   4.090   5.281
 8873SOL     OW27517   0.919   6.858   1.571
 8873SOL    HW127518   0.956   6.772   1.604
 8873SOL    HW227519   0.832   6.842   1.525
 8874SOL     OW27520   1.836   6.154   2.287
 8874SOL    HW127521   1.773   6.227   2.260
 8874SOL    HW227522   1.817   6.072   2.232
 8875SOL     OW27523   0.072   3.711   5.373
 8875SOL    HW127524   0.159   3.729   5.418
 8875SOL    HW227525   0.005   3.779   5.402
 8876SOL     OW27526   2.327   6.383   4.962
 8876SOL    HW127527   2.262   6.435   5.017
 8876SOL    HW227528   2.406   6.440   4.941
 8877SOL     OW27529   3.374   1.473   4.029
 8877SOL    HW127530   3.307   1.546   4.018
 8877SOL    HW227531   3.457   1.509   4.072
 8878SOL     OW27532   6.896   4.456   0.242
 8878SOL    HW127533   6.809   4.474   0.196
 8878SOL    HW227534   6.959   4.532   0.228
 8879SOL     OW27535   5.013   4.616   2.831
 8879SOL    HW127536   4.929   4.571   2.862
 8879SOL    HW227537   5.073   4.549   2.789
 8880SOL     OW27538   5.331   5.993   4.958
 8880SOL    HW127539   5.255   5.947   4.911
 8880SOL    HW227540   5.398   5.925   4.987
 8881SOL     OW27541   6.093   6.711   3.934
 8881SOL    HW127542   6.121   6.621   3.902
 8881SOL    HW227543   6.167   6.752   3.988
 8882SOL     OW27544   5.684   1.077   1.102
 8882SOL    HW127545   5.738   1.160   1.114
 8882SOL    HW227546   5.685   1.024   1.188
 8883SOL     OW27547   1.157   6.267   6.412
 8883SOL    HW127548   1.129   6.298   6.322
 8883SOL    HW227549   1.143   6.168   6.419
 8884SOL     OW27550   6.469   3.984   5.896
 8884SOL    HW127551   6.545   3.936   5.939
 8884SOL    HW227552   6.478   3.978   5.796
 8885SOL     OW27553   6.814   3.751   1.646
 8885SOL    HW127554   6.820   3.705   1.557
 8885SOL    HW227555   6.733   3.719   1.695
 8886SOL     OW27556   2.878   6.937   4.765
 8886SOL    HW127557   2.819   6.968   4.691
 8886SOL    HW227558   2.899   7.014   4.825
 8887SOL     OW27559   3.913   0.931   0.516
 8887SOL    HW127560   3.844   0.886   0.573
 8887SOL    HW227561   3.901   1.030   0.523
 8888SOL     OW27562   1.723   1.665   5.988
 8888SOL    HW127563   1.778   1.710   5.917
 8888SOL    HW227564   1.783   1.614   6.050
 8889SOL     OW27565   6.520   0.355   5.969
 8889SOL    HW127566   6.596   0.297   5.998
 8889SOL    HW227567   6.548   0.451   5.974
 8890SOL     OW27568   6.524   5.795   3.984
 8890SOL    HW127569   6.528   5.705   3.941
 8890SOL    HW227570   6.449   5.796   4.051
 8891SOL     OW27571   4.417   3.476   6.816
 8891SOL    HW127572   4.395   3.489   6.720
 8891SOL    HW227573   4.392   3.384   6.844
 8892SOL     OW27574   3.126   5.426   3.005
 8892SOL    HW127575   3.166   5.408   3.095
 8892SOL    HW227576   3.140   5.347   2.946
 8893SOL     OW27577   0.717   5.970   3.298
 8893SOL    HW127578   0.697   5.934   3.207
 8893SOL    HW227579   0.783   6.045   3.290
 8894SOL     OW27580   3.993   2.281   6.534
 8894SOL    HW127581   3.951   2.244   6.451
 8894SOL    HW227582   3.945   2.364   6.562
 8895SOL     OW27583   6.413   2.642   2.145
 8895SOL    HW127584   6.507   2.611   2.160
 8895SOL    HW227585   6.409   2.692   2.058
 8896SOL     OW27586   2.698   3.109   5.345
 8896SOL    HW127587   2.633   3.081   5.274
 8896SOL    HW227588   2.664   3.081   5.434
 8897SOL     OW27589   2.064   2.702   3.121
 8897SOL    HW127590   2.030   2.634   3.186
 8897SOL    HW227591   2.050   2.669   3.028
 8898SOL     OW27592   5.156   2.889   2.405
 8898SOL    HW127593   5.190   2.837   2.326
 8898SOL    HW227594   5.100   2.828   2.462
 8899SOL     OW27595   1.593   5.503   1.300
 8899SOL    HW127596   1.627   5.526   1.391
 8899SOL    HW227597   1.580   5.404   1.293
 8900SOL     OW27598   5.679   2.971   3.152
 8900SOL    HW127599   5.707   2.885   3.108
 8900SOL    HW227600   5.737   3.046   3.119
 8901SOL     OW27601   2.149   0.704   4.909
 8901SOL    HW127602   2.248   0.711   4.897
 8901SOL    HW227603   2.104   0.779   4.861
 8902SOL     OW27604   2.196   6.956   1.002
 8902SOL    HW127605   2.220   0.024   1.047
 8902SOL    HW227606   2.166   6.974   0.909
 8903SOL     OW27607   0.467   1.738   4.931
 8903SOL    HW127608   0.507   1.829   4.925
 8903SOL    HW227609   0.531   1.671   4.893
 8904SOL     OW27610   6.417   0.083   4.133
 8904SOL    HW127611   6.340   0.132   4.094
 8904SOL    HW227612   6.394   7.004   4.141
 8905SOL     OW27613   1.569   3.899   3.860
 8905SOL    HW127614   1.621   3.883   3.776
 8905SOL    HW227615   1.607   3.844   3.934
 8906SOL     OW27616   0.447   6.040   6.509
 8906SOL    HW127617   0.384   6.009   6.581
 8906SOL    HW227618   0.540   6.045   6.546
 8907SOL     OW27619   2.569   2.246   4.909
 8907SOL    HW127620   2.544   2.323   4.968
 8907SOL    HW227621   2.657   2.209   4.938
 8908SOL     OW27622   1.227   4.868   6.900
 8908SOL    HW127623   1.278   4.926   6.837
 8908SOL    HW227624   1.231   4.773   6.870
 8909SOL     OW27625   2.563   0.740   6.137
 8909SOL    HW127626   2.588   0.658   6.085
 8909SOL    HW227627   2.497   0.716   6.208
 8910SOL     OW27628   0.011   2.450   5.775
 8910SOL    HW127629   6.969   2.418   5.702
 8910SOL    HW227630   6.980   2.514   5.834
 8911SOL     OW27631   4.105   2.190   4.946
 8911SOL    HW127632   4.108   2.228   4.853
 8911SOL    HW227633   4.099   2.265   5.012
 8912SOL     OW27634   3.523   3.858   6.814
 8912SOL    HW127635   3.439   3.912   6.811
 8912SOL    HW227636   3.503   3.766   6.848
 8913SOL     OW27637   4.901   5.032   5.871
 8913SOL    HW127638   4.939   4.996   5.785
 8913SOL    HW227639   4.806   5.059   5.856
 8914SOL     OW27640   4.564   0.312   4.783
 8914SOL    HW127641   4.592   0.387   4.723
 8914SOL    HW227642   4.465   0.314   4.794
 8915SOL     OW27643   0.706   3.092   4.094
 8915SOL    HW127644   0.774   3.035   4.141
 8915SOL    HW227645   0.658   3.148   4.162
 8916SOL     OW27646   6.672   3.059   0.757
 8916SOL    HW127647   6.664   2.989   0.828
 8916SOL    HW227648   6.767   3.068   0.729
 8917SOL     OW27649   6.492   3.305   0.204
 8917SOL    HW127650   6.408   3.251   0.199
 8917SOL    HW227651   6.569   3.244   0.224
 8918SOL     OW27652   6.527   3.932   1.096
 8918SOL    HW127653   6.505   4.026   1.121
 8918SOL    HW227654   6.597   3.932   1.024
 8919SOL     OW27655   3.787   3.825   0.936
 8919SOL    HW127656   3.797   3.725   0.936
 8919SOL    HW227657   3.690   3.849   0.937
 8920SOL     OW27658   0.231   0.767   6.868
 8920SOL    HW127659   0.226   0.682   6.921
 8920SOL    HW227660   0.149   0.777   6.812
 8921SOL     OW27661   2.422   2.329   2.439
 8921SOL    HW127662   2.474   2.278   2.370
 8921SOL    HW227663   2.481   2.400   2.478
 8922SOL     OW27664   4.292   4.568   1.111
 8922SOL    HW127665   4.238   4.539   1.190
 8922SOL    HW227666   4.342   4.489   1.074
 8923SOL     OW27667   1.940   2.305   6.235
 8923SOL    HW127668   1.882   2.327   6.156
 8923SOL    HW227669   2.033   2.337   6.219
 8924SOL     OW27670   3.235   5.218   5.370
 8924SOL    HW127671   3.135   5.225   5.363
 8924SOL    HW227672   3.262   5.122   5.359
 8925SOL     OW27673   0.750   2.043   3.014
 8925SOL    HW127674   0.836   2.090   3.033
 8925SOL    HW227675   0.753   2.003   2.923
 8926SOL     OW27676   6.310   3.078   5.732
 8926SOL    HW127677   6.245   3.003   5.743
 8926SOL    HW227678   6.363   3.089   5.816
 8927SOL     OW27679   7.005   1.357   4.846
 8927SOL    HW127680   7.001   1.356   4.746
 8927SOL    HW227681   6.958   1.437   4.881
 8928SOL     OW27682   0.474   0.120   6.409
 8928SOL    HW127683   0.508   0.030   6.437
 8928SOL    HW227684   0.376   0.125   6.428
 8929SOL     OW27685   5.981   2.199   4.191
 8929SOL    HW127686   6.029   2.119   4.154
 8929SOL    HW227687   5.896   2.170   4.235
 8930SOL     OW27688   1.635   3.488   3.969
 8930SOL    HW127689   1.669   3.524   3.882
 8930SOL    HW227690   1.640   3.388   3.968
 8931SOL     OW27691   2.096   3.140   0.670
 8931SOL    HW127692   2.063   3.181   0.585
 8931SOL    HW227693   2.023   3.141   0.738
 8932SOL     OW27694   6.346   1.486   1.074
 8932SOL    HW127695   6.436   1.480   1.117
 8932SOL    HW227696   6.356   1.522   0.981
 8933SOL     OW27697   2.221   3.016   6.125
 8933SOL    HW127698   2.153   3.076   6.166
 8933SOL    HW227699   2.293   3.071   6.082
 8934SOL     OW27700   3.611   4.980   4.550
 8934SOL    HW127701   3.645   4.944   4.463
 8934SOL    HW227702   3.515   5.006   4.540
 8935SOL     OW27703   6.760   4.173   0.687
 8935SOL    HW127704   6.687   4.219   0.738
 8935SOL    HW227705   6.786   4.228   0.608
 8936SOL     OW27706   1.421   3.135   3.048
 8936SOL    HW127707   1.407   3.113   3.145
 8936SOL    HW227708   1.385   3.060   2.992
 8937SOL     OW27709   6.619   6.871   4.306
 8937SOL    HW127710   6.622   6.906   4.399
 8937SOL    HW227711   6.599   6.946   4.243
 8938SOL     OW27712   0.348   0.579   0.768
 8938SOL    HW127713   0.298   0.506   0.720
 8938SOL    HW227714   0.402   0.630   0.702
 8939SOL     OW27715   6.143   4.504   4.347
 8939SOL    HW127716   6.235   4.532   4.373
 8939SOL    HW227717   6.086   4.585   4.333
 8940SOL     OW27718   6.366   1.421   2.100
 8940SOL    HW127719   6.355   1.322   2.105
 8940SOL    HW227720   6.355   1.460   2.192
 8941SOL     OW27721   5.632   2.490   4.932
 8941SOL    HW127722   5.569   2.560   4.899
 8941SOL    HW227723   5.720   2.499   4.884
 8942SOL     OW27724   6.542   5.229   5.992
 8942SOL    HW127725   6.560   5.161   6.063
 8942SOL    HW227726   6.494   5.307   6.033
 8943SOL     OW27727   3.795   5.238   0.827
 8943SOL    HW127728   3.773   5.218   0.732
 8943SOL    HW227729   3.715   5.219   0.884
 8944SOL     OW27730   5.281   5.547   4.947
 8944SOL    HW127731   5.193   5.582   4.978
 8944SOL    HW227732   5.353   5.575   5.010
 8945SOL     OW27733   1.048   0.997   3.672
 8945SOL    HW127734   1.104   1.079   3.670
 8945SOL    HW227735   1.097   0.923   3.625
 8946SOL     OW27736   2.472   1.547   4.151
 8946SOL    HW127737   2.494   1.451   4.170
 8946SOL    HW227738   2.548   1.590   4.103
 8947SOL     OW27739   2.467   3.506   5.655
 8947SOL    HW127740   2.443   3.512   5.558
 8947SOL    HW227741   2.523   3.425   5.671
 8948SOL     OW27742   6.197   6.070   4.180
 8948SOL    HW127743   6.277   6.106   4.132
 8948SOL    HW227744   6.195   5.970   4.172
 8949SOL     OW27745   3.960   6.060   0.804
 8949SOL    HW127746   3.918   6.020   0.885
 8949SOL    HW227747   3.930   6.155   0.794
 8950SOL     OW27748   4.562   4.683   6.503
 8950SOL    HW127749   4.570   4.601   6.447
 8950SOL    HW227750   4.652   4.727   6.512
 8951SOL     OW27751   2.091   0.887   4.499
 8951SOL    HW127752   2.117   0.859   4.406
 8951SOL    HW227753   2.132   0.976   4.520
 8952SOL     OW27754   0.427   5.463   2.667
 8952SOL    HW127755   0.480   5.546   2.681
 8952SOL    HW227756   0.429   5.437   2.570
 8953SOL     OW27757   1.110   4.108   0.594
 8953SOL    HW127758   1.120   4.119   0.692
 8953SOL    HW227759   1.111   4.198   0.550
 8954SOL     OW27760   6.689   6.605   4.382
 8954SOL    HW127761   6.679   6.694   4.339
 8954SOL    HW227762   6.614   6.590   4.446
 8955SOL     OW27763   6.886   5.871   2.826
 8955SOL    HW127764   6.911   5.814   2.747
 8955SOL    HW227765   6.788   5.864   2.843
 8956SOL     OW27766   1.682   1.533   6.411
 8956SOL    HW127767   1.678   1.611   6.349
 8956SOL    HW227768   1.748   1.467   6.377
 8957SOL     OW27769   1.881   4.682   1.395
 8957SOL    HW127770   1.849   4.763   1.347
 8957SOL    HW227771   1.966   4.650   1.354
 8958SOL     OW27772   0.161   2.086   4.668
 8958SOL    HW127773   0.198   2.158   4.609
 8958SOL    HW227774   0.232   2.020   4.689
 8959SOL     OW27775   1.396   4.361   2.124
 8959SOL    HW127776   1.405   4.313   2.037
 8959SOL    HW227777   1.443   4.309   2.196
 8960SOL     OW27778   4.152   5.491   3.352
 8960SOL    HW127779   4.159   5.400   3.392
 8960SOL    HW227780   4.057   5.521   3.356
 8961SOL     OW27781   2.966   0.765   3.512
 8961SOL    HW127782   3.053   0.812   3.497
 8961SOL    HW227783   2.906   0.822   3.568
 8962SOL     OW27784   6.545   6.082   2.778
 8962SOL    HW127785   6.632   6.112   2.741
 8962SOL    HW227786   6.532   5.984   2.759
 8963SOL     OW27787   4.350   0.135   4.937
 8963SOL    HW127788   4.341   0.069   4.862
 8963SOL    HW227789   4.339   0.089   5.024
 8964SOL     OW27790   5.161   3.202   3.064
 8964SOL    HW127791   5.079   3.250   3.034
 8964SOL    HW227792   5.144   3.104   3.065
 8965SOL     OW27793   2.344   5.556   0.900
 8965SOL    HW127794   2.291   5.641   0.906
 8965SOL    HW227795   2.405   5.561   0.820
 8966SOL     OW27796   6.549   4.365   0.349
 8966SOL    HW127797   6.564   4.331   0.256
 8966SOL    HW227798   6.628   4.341   0.405
 8967SOL     OW27799   3.954   0.625   1.664
 8967SOL    HW127800   3.995   0.562   1.598
 8967SOL    HW227801   4.013   0.706   1.674
 8968SOL     OW27802   4.402   5.610   3.329
 8968SOL    HW127803   4.305   5.597   3.348
 8968SOL    HW227804   4.431   5.544   3.259
 8969SOL     OW27805   6.474   0.430   4.480
 8969SOL    HW127806   6.481   0.421   4.381
 8969SOL    HW227807   6.485   0.340   4.523
 8970SOL     OW27808   2.571   3.253   6.901
 8970SOL    HW127809   2.502   3.238   6.972
 8970SOL    HW227810   2.532   3.309   6.828
 8971SOL     OW27811   5.889   4.972   1.626
 8971SOL    HW127812   5.922   5.066   1.617
 8971SOL    HW227813   5.919   4.934   1.713
 8972SOL     OW27814   5.008   3.429   6.768
 8972SOL    HW127815   5.084   3.455   6.708
 8972SOL    HW227816   5.042   3.372   6.843
 8973SOL     OW27817   0.442   3.678   3.614
 8973SOL    HW127818   0.422   3.759   3.558
 8973SOL    HW227819   0.357   3.627   3.630
 8974SOL     OW27820   1.456   4.244   4.712
 8974SOL    HW127821   1.415   4.183   4.781
 8974SOL    HW227822   1.523   4.193   4.658
 8975SOL     OW27823   1.464   6.237   6.517
 8975SOL    HW127824   1.369   6.205   6.510
 8975SOL    HW227825   1.467   6.336   6.507
 8976SOL     OW27826   0.743   5.419   6.936
 8976SOL    HW127827   0.739   5.503   6.990
 8976SOL    HW227828   0.662   5.363   6.957
 8977SOL     OW27829   6.940   2.959   6.721
 8977SOL    HW127830   6.989   2.960   6.634
 8977SOL    HW227831   6.978   3.030   6.781
 8978SOL     OW27832   5.313   6.551   4.089
 8978SOL    HW127833   5.329   6.462   4.131
 8978SOL    HW227834   5.389   6.574   4.028
 8979SOL     OW27835   1.299   4.050   4.827
 8979SOL    HW127836   1.229   4.073   4.760
 8979SOL    HW227837   1.259   4.048   4.919
 8980SOL     OW27838   4.184   3.153   5.261
 8980SOL    HW127839   4.120   3.087   5.303
 8980SOL    HW227840   4.133   3.213   5.200
 8981SOL     OW27841   4.529   1.166   5.389
 8981SOL    HW127842   4.479   1.193   5.471
 8981SOL    HW227843   4.513   1.069   5.370
 8982SOL     OW27844   1.608   2.092   1.903
 8982SOL    HW127845   1.566   2.177   1.933
 8982SOL    HW227846   1.648   2.045   1.981
 8983SOL     OW27847   1.008   5.877   0.095
 8983SOL    HW127848   0.975   5.786   0.119
 8983SOL    HW227849   1.108   5.878   0.094
 8984SOL     OW27850   6.523   0.219   3.749
 8984SOL    HW127851   6.468   0.147   3.707
 8984SOL    HW227852   6.552   0.190   3.840
 8985SOL     OW27853   2.461   1.620   0.613
 8985SOL    HW127854   2.470   1.697   0.677
 8985SOL    HW227855   2.536   1.623   0.547
 8986SOL     OW27856   4.153   5.200   1.900
 8986SOL    HW127857   4.248   5.220   1.924
 8986SOL    HW227858   4.096   5.279   1.924
 8987SOL     OW27859   5.054   6.923   0.483
 8987SOL    HW127860   5.061   6.922   0.383
 8987SOL    HW227861   4.994   6.998   0.512
 8988SOL     OW27862   1.408   3.850   0.078
 8988SOL    HW127863   1.449   3.768   0.118
 8988SOL    HW227864   1.372   3.908   0.150
 8989SOL     OW27865   5.059   4.439   2.140
 8989SOL    HW127866   5.148   4.402   2.115
 8989SOL    HW227867   5.008   4.371   2.193
 8990SOL     OW27868   2.206   5.675   2.080
 8990SOL    HW127869   2.295   5.639   2.108
 8990SOL    HW227870   2.217   5.730   1.997
 8991SOL     OW27871   1.836   2.069   6.777
 8991SOL    HW127872   1.824   1.976   6.812
 8991SOL    HW227873   1.746   2.109   6.759
 8992SOL     OW27874   6.451   2.283   6.764
 8992SOL    HW127875   6.468   2.188   6.737
 8992SOL    HW227876   6.532   2.319   6.810
 8993SOL     OW27877   4.467   2.489   2.388
 8993SOL    HW127878   4.528   2.568   2.379
 8993SOL    HW227879   4.478   2.449   2.479
 8994SOL     OW27880   0.668   5.020   4.816
 8994SOL    HW127881   0.730   4.942   4.821
 8994SOL    HW227882   0.713   5.101   4.853
 8995SOL     OW27883   1.080   2.646   6.600
 8995SOL    HW127884   1.170   2.601   6.605
 8995SOL    HW227885   1.009   2.582   6.628
 8996SOL     OW27886   6.622   5.273   1.806
 8996SOL    HW127887   6.692   5.212   1.769
 8996SOL    HW227888   6.570   5.314   1.730
 8997SOL     OW27889   4.188   1.624   6.631
 8997SOL    HW127890   4.099   1.653   6.668
 8997SOL    HW227891   4.175   1.547   6.569
 8998SOL     OW27892   6.367   3.561   5.028
 8998SOL    HW127893   6.371   3.540   4.931
 8998SOL    HW227894   6.276   3.596   5.051
 8999SOL     OW27895   5.137   6.871   7.016
 8999SOL    HW127896   5.050   6.910   6.985
 8999SOL    HW227897   5.208   6.889   6.947
 9000SOL     OW27898   2.558   4.614   0.565
 9000SOL    HW127899   2.583   4.691   0.506
 9000SOL    HW227900   2.529   4.649   0.654
 9001SOL     OW27901   0.796   5.679   2.459
 9001SOL    HW127902   0.785   5.698   2.556
 9001SOL    HW227903   0.717   5.713   2.409
 9002SOL     OW27904   6.626   5.267   5.117
 9002SOL    HW127905   6.716   5.305   5.095
 9002SOL    HW227906   6.602   5.199   5.048
 9003SOL     OW27907   5.490   2.648   1.305
 9003SOL    HW127908   5.580   2.689   1.288
 9003SOL    HW227909   5.499   2.572   1.370
 9004SOL     OW27910   5.166   6.638   1.060
 9004SOL    HW127911   5.190   6.735   1.055
 9004SOL    HW227912   5.102   6.624   1.136
 9005SOL     OW27913   4.892   2.490   4.893
 9005SOL    HW127914   4.919   2.527   4.804
 9005SOL    HW227915   4.958   2.420   4.921
 9006SOL     OW27916   2.780   6.530   0.831
 9006SOL    HW127917   2.760   6.482   0.916
 9006SOL    HW227918   2.790   6.463   0.757
 9007SOL     OW27919   4.524   0.514   4.094
 9007SOL    HW127920   4.491   0.531   4.001
 9007SOL    HW227921   4.589   0.438   4.092
 9008SOL     OW27922   0.401   5.980   3.151
 9008SOL    HW127923   0.313   5.934   3.139
 9008SOL    HW227924   0.473   5.911   3.157
 9009SOL     OW27925   2.541   1.205   0.512
 9009SOL    HW127926   2.487   1.288   0.527
 9009SOL    HW227927   2.482   1.124   0.523
 9010SOL     OW27928   0.865   0.247   4.240
 9010SOL    HW127929   0.871   0.299   4.325
 9010SOL    HW227930   0.867   0.149   4.260
 9011SOL     OW27931   4.511   2.477   1.839
 9011SOL    HW127932   4.529   2.576   1.841
 9011SOL    HW227933   4.504   2.443   1.933
 9012SOL     OW27934   3.359   4.635   1.269
 9012SOL    HW127935   3.273   4.686   1.274
 9012SOL    HW227936   3.409   4.645   1.355
 9013SOL     OW27937   0.183   6.137   4.628
 9013SOL    HW127938   0.156   6.201   4.700
 9013SOL    HW227939   0.164   6.043   4.658
 9014SOL     OW27940   0.741   1.408   6.818
 9014SOL    HW127941   0.698   1.318   6.821
 9014SOL    HW227942   0.831   1.400   6.774
 9015SOL     OW27943   5.897   1.814   1.343
 9015SOL    HW127944   5.901   1.778   1.437
 9015SOL    HW227945   5.936   1.747   1.280
 9016SOL     OW27946   0.722   6.004   6.385
 9016SOL    HW127947   0.755   6.048   6.468
 9016SOL    HW227948   0.665   6.068   6.333
 9017SOL     OW27949   4.295   2.017   2.012
 9017SOL    HW127950   4.280   2.107   2.054
 9017SOL    HW227951   4.268   2.020   1.916
 9018SOL     OW27952   4.365   1.378   6.295
 9018SOL    HW127953   4.358   1.397   6.197
 9018SOL    HW227954   4.401   1.286   6.308
 9019SOL     OW27955   0.795   0.621   1.605
 9019SOL    HW127956   0.738   0.702   1.604
 9019SOL    HW227957   0.861   0.627   1.680
 9020SOL     OW27958   1.258   3.443   1.518
 9020SOL    HW127959   1.351   3.476   1.502
 9020SOL    HW227960   1.253   3.345   1.499
 9021SOL     OW27961   6.811   0.434   3.921
 9021SOL    HW127962   6.718   0.468   3.912
 9021SOL    HW227963   6.830   0.367   3.849
 9022SOL     OW27964   2.687   1.909   0.474
 9022SOL    HW127965   2.629   1.938   0.550
 9022SOL    HW227966   2.778   1.886   0.509
 9023SOL     OW27967   3.449   3.654   2.097
 9023SOL    HW127968   3.525   3.590   2.108
 9023SOL    HW227969   3.368   3.619   2.145
 9024SOL     OW27970   0.365   5.142   4.254
 9024SOL    HW127971   0.297   5.106   4.317
 9024SOL    HW227972   0.454   5.100   4.272
 9025SOL     OW27973   0.590   5.203   0.083
 9025SOL    HW127974   0.520   5.145   0.040
 9025SOL    HW227975   0.561   5.228   0.175
 9026SOL     OW27976   4.028   3.350   1.388
 9026SOL    HW127977   3.952   3.343   1.323
 9026SOL    HW227978   4.001   3.409   1.465
 9027SOL     OW27979   1.100   1.772   4.386
 9027SOL    HW127980   1.189   1.774   4.339
 9027SOL    HW227981   1.084   1.860   4.430
 9028SOL     OW27982   2.556   4.009   5.671
 9028SOL    HW127983   2.576   3.975   5.579
 9028SOL    HW227984   2.539   4.107   5.668
 9029SOL     OW27985   2.953   5.641   4.654
 9029SOL    HW127986   2.875   5.700   4.675
 9029SOL    HW227987   2.946   5.609   4.559
 9030SOL     OW27988   1.944   2.298   3.700
 9030SOL    HW127989   1.884   2.220   3.681
 9030SOL    HW227990   1.911   2.346   3.782
 9031SOL     OW27991   4.391   6.177   4.466
 9031SOL    HW127992   4.449   6.256   4.446
 9031SOL    HW227993   4.309   6.206   4.515
 9032SOL     OW27994   3.483   3.498   0.989
 9032SOL    HW127995   3.448   3.406   1.006
 9032SOL    HW227996   3.423   3.546   0.926
 9033SOL     OW27997   1.677   5.196   3.738
 9033SOL    HW127998   1.761   5.185   3.791
 9033SOL    HW227999   1.629   5.279   3.767
 9034SOL     OW28000   3.002   0.169   5.363
 9034SOL    HW128001   2.938   0.098   5.331
 9034SOL    HW228002   3.020   0.156   5.461
 9035SOL     OW28003   1.602   4.291   6.099
 9035SOL    HW128004   1.618   4.332   6.009
 9035SOL    HW228005   1.613   4.192   6.094
 9036SOL     OW28006   2.288   0.742   5.339
 9036SOL    HW128007   2.307   0.792   5.255
 9036SOL    HW228008   2.193   0.756   5.366
 9037SOL     OW28009   1.489   3.988   5.698
 9037SOL    HW128010   1.397   3.950   5.708
 9037SOL    HW228011   1.548   3.952   5.770
 9038SOL     OW28012   4.885   6.221   6.202
 9038SOL    HW128013   4.922   6.308   6.169
 9038SOL    HW228014   4.787   6.218   6.184
 9039SOL     OW28015   2.735   4.874   4.626
 9039SOL    HW128016   2.660   4.930   4.592
 9039SOL    HW228017   2.726   4.781   4.590
 9040SOL     OW28018   2.996   2.218   2.684
 9040SOL    HW128019   2.946   2.233   2.769
 9040SOL    HW228020   3.086   2.180   2.704
 9041SOL     OW28021   1.954   2.157   1.967
 9041SOL    HW128022   2.005   2.167   1.882
 9041SOL    HW228023   1.912   2.244   1.991
 9042SOL     OW28024   2.734   0.073   3.721
 9042SOL    HW128025   2.824   0.072   3.679
 9042SOL    HW228026   2.738   0.123   3.807
 9043SOL     OW28027   2.430   1.725   6.875
 9043SOL    HW128028   2.359   1.757   6.812
 9043SOL    HW228029   2.413   1.629   6.898
 9044SOL     OW28030   5.869   1.390   2.093
 9044SOL    HW128031   5.945   1.346   2.141
 9044SOL    HW228032   5.895   1.483   2.067
 9045SOL     OW28033   2.817   0.979   2.496
 9045SOL    HW128034   2.899   0.950   2.544
 9045SOL    HW228035   2.737   0.932   2.534
 9046SOL     OW28036   3.604   4.197   4.424
 9046SOL    HW128037   3.601   4.199   4.324
 9046SOL    HW228038   3.515   4.225   4.460
 9047SOL     OW28039   1.526   3.257   6.040
 9047SOL    HW128040   1.503   3.345   6.082
 9047SOL    HW228041   1.542   3.270   5.942
 9048SOL     OW28042   5.913   1.768   5.754
 9048SOL    HW128043   5.913   1.675   5.717
 9048SOL    HW228044   5.829   1.815   5.727
 9049SOL     OW28045   3.550   0.292   6.633
 9049SOL    HW128046   3.598   0.276   6.547
 9049SOL    HW228047   3.539   0.391   6.647
 9050SOL     OW28048   6.983   3.680   6.656
 9050SOL    HW128049   6.947   3.740   6.726
 9050SOL    HW228050   6.912   3.615   6.628
 9051SOL     OW28051   4.606   6.765   1.054
 9051SOL    HW128052   4.618   6.710   0.971
 9051SOL    HW228053   4.612   6.862   1.032
 9052SOL     OW28054   1.641   2.219   3.756
 9052SOL    HW128055   1.649   2.168   3.670
 9052SOL    HW228056   1.667   2.160   3.832
 9053SOL     OW28057   1.614   1.868   3.214
 9053SOL    HW128058   1.685   1.836   3.276
 9053SOL    HW228059   1.576   1.953   3.249
 9054SOL     OW28060   1.724   6.864   1.808
 9054SOL    HW128061   1.686   6.957   1.810
 9054SOL    HW228062   1.701   6.821   1.721
 9055SOL     OW28063   6.070   2.996   3.822
 9055SOL    HW128064   6.045   2.938   3.745
 9055SOL    HW228065   6.158   3.040   3.803
 9056SOL     OW28066   0.401   1.286   1.812
 9056SOL    HW128067   0.469   1.269   1.883
 9056SOL    HW228068   0.316   1.239   1.835
 9057SOL     OW28069   5.402   4.840   5.487
 9057SOL    HW128070   5.437   4.932   5.503
 9057SOL    HW228071   5.361   4.805   5.571
 9058SOL     OW28072   2.393   1.740   3.224
 9058SOL    HW128073   2.391   1.694   3.312
 9058SOL    HW228074   2.317   1.805   3.218
 9059SOL     OW28075   1.140   1.783   5.169
 9059SOL    HW128076   1.185   1.717   5.229
 9059SOL    HW228077   1.170   1.875   5.191
 9060SOL     OW28078   6.265   2.977   2.299
 9060SOL    HW128079   6.334   3.016   2.237
 9060SOL    HW228080   6.293   2.884   2.325
 9061SOL     OW28081   2.901   5.614   2.170
 9061SOL    HW128082   2.916   5.575   2.080
 9061SOL    HW228083   2.874   5.710   2.162
 9062SOL     OW28084   1.987   5.919   1.807
 9062SOL    HW128085   2.052   5.994   1.810
 9062SOL    HW228086   1.957   5.905   1.713
 9063SOL     OW28087   2.402   0.125   2.419
 9063SOL    HW128088   2.402   0.036   2.466
 9063SOL    HW228089   2.372   0.196   2.483
 9064SOL     OW28090   6.294   2.362   5.947
 9064SOL    HW128091   6.359   2.383   6.019
 9064SOL    HW228092   6.232   2.290   5.979
 9065SOL     OW28093   3.207   6.382   6.193
 9065SOL    HW128094   3.266   6.453   6.156
 9065SOL    HW228095   3.115   6.391   6.155
 9066SOL     OW28096   5.882   6.182   0.198
 9066SOL    HW128097   5.792   6.171   0.155
 9066SOL    HW228098   5.907   6.097   0.245
 9067SOL     OW28099   6.002   0.428   4.822
 9067SOL    HW128100   6.054   0.343   4.818
 9067SOL    HW228101   6.052   0.496   4.876
 9068SOL     OW28102   2.885   6.605   5.608
 9068SOL    HW128103   2.911   6.682   5.667
 9068SOL    HW228104   2.891   6.520   5.659
 9069SOL     OW28105   2.525   2.479   2.069
 9069SOL    HW128106   2.451   2.524   2.120
 9069SOL    HW228107   2.613   2.513   2.102
 9070SOL     OW28108   1.614   3.554   5.600
 9070SOL    HW128109   1.528   3.504   5.604
 9070SOL    HW228110   1.645   3.575   5.692
 9071SOL     OW28111   5.679   0.657   0.801
 9071SOL    HW128112   5.731   0.683   0.719
 9071SOL    HW228113   5.593   0.615   0.774
 9072SOL     OW28114   6.815   1.065   2.138
 9072SOL    HW128115   6.870   0.986   2.111
 9072SOL    HW228116   6.741   1.036   2.199
 9073SOL     OW28117   3.178   6.878   0.824
 9073SOL    HW128118   3.212   6.786   0.805
 9073SOL    HW228119   3.105   6.873   0.893
 9074SOL     OW28120   2.122   1.893   1.734
 9074SOL    HW128121   2.082   1.946   1.659
 9074SOL    HW228122   2.050   1.866   1.798
 9075SOL     OW28123   1.112   1.563   2.800
 9075SOL    HW128124   1.195   1.578   2.747
 9075SOL    HW228125   1.088   1.466   2.797
 9076SOL     OW28126   5.436   1.851   5.089
 9076SOL    HW128127   5.374   1.910   5.038
 9076SOL    HW228128   5.411   1.853   5.186
 9077SOL     OW28129   5.598   6.756   6.670
 9077SOL    HW128130   5.614   6.822   6.744
 9077SOL    HW228131   5.566   6.805   6.589
 9078SOL     OW28132   4.302   3.687   6.338
 9078SOL    HW128133   4.341   3.676   6.430
 9078SOL    HW228134   4.224   3.625   6.328
 9079SOL     OW28135   2.983   6.857   3.919
 9079SOL    HW128136   3.006   6.790   3.990
 9079SOL    HW228137   2.891   6.839   3.885
 9080SOL     OW28138   5.143   2.612   0.021
 9080SOL    HW128139   5.050   2.647   0.021
 9080SOL    HW228140   5.163   2.571   0.110
 9081SOL     OW28141   4.059   5.785   2.916
 9081SOL    HW128142   4.145   5.836   2.921
 9081SOL    HW228143   4.055   5.718   2.990
 9082SOL     OW28144   2.602   6.660   5.666
 9082SOL    HW128145   2.659   6.595   5.714
 9082SOL    HW228146   2.655   6.705   5.594
 9083SOL     OW28147   2.915   5.244   6.118
 9083SOL    HW128148   2.827   5.292   6.114
 9083SOL    HW228149   2.986   5.302   6.076
 9084SOL     OW28150   3.354   3.646   5.613
 9084SOL    HW128151   3.367   3.735   5.569
 9084SOL    HW228152   3.388   3.573   5.554
 9085SOL     OW28153   2.350   4.599   1.334
 9085SOL    HW128154   2.359   4.502   1.355
 9085SOL    HW228155   2.429   4.628   1.279
 9086SOL     OW28156   1.228   4.703   0.495
 9086SOL    HW128157   1.155   4.646   0.458
 9086SOL    HW228158   1.267   4.759   0.422
 9087SOL     OW28159   4.776   2.744   2.054
 9087SOL    HW128160   4.764   2.843   2.047
 9087SOL    HW228161   4.739   2.700   1.971
 9088SOL     OW28162   5.460   5.985   0.372
 9088SOL    HW128163   5.521   6.055   0.410
 9088SOL    HW228164   5.367   6.023   0.366
 9089SOL     OW28165   5.015   6.049   5.982
 9089SOL    HW128166   4.958   6.073   6.060
 9089SOL    HW228167   4.964   5.988   5.921
 9090SOL     OW28168   0.372   0.476   3.101
 9090SOL    HW128169   0.418   0.476   3.012
 9090SOL    HW228170   0.328   0.564   3.116
 9091SOL     OW28171   3.107   4.865   0.744
 9091SOL    HW128172   3.011   4.892   0.751
 9091SOL    HW228173   3.113   4.773   0.705
 9092SOL     OW28174   0.796   1.256   1.023
 9092SOL    HW128175   0.775   1.350   0.995
 9092SOL    HW228176   0.885   1.230   0.985
 9093SOL     OW28177   1.128   6.737   6.281
 9093SOL    HW128178   1.192   6.666   6.252
 9093SOL    HW228179   1.179   6.812   6.324
 9094SOL     OW28180   6.323   5.306   2.769
 9094SOL    HW128181   6.366   5.217   2.755
 9094SOL    HW228182   6.257   5.300   2.845
 9095SOL     OW28183   5.071   4.226   5.722
 9095SOL    HW128184   5.088   4.251   5.817
 9095SOL    HW228185   4.983   4.263   5.693
 9096SOL     OW28186   5.664   4.005   2.120
 9096SOL    HW128187   5.739   3.994   2.185
 9096SOL    HW228188   5.697   4.052   2.038
 9097SOL     OW28189   1.323   2.012   0.935
 9097SOL    HW128190   1.348   1.916   0.920
 9097SOL    HW228191   1.367   2.045   1.019
 9098SOL     OW28192   3.807   1.455   5.657
 9098SOL    HW128193   3.707   1.447   5.662
 9098SOL    HW228194   3.849   1.396   5.725
 9099SOL     OW28195   3.194   2.321   5.697
 9099SOL    HW128196   3.132   2.244   5.716
 9099SOL    HW228197   3.146   2.407   5.714
 9100SOL     OW28198   0.110   3.721   4.057
 9100SOL    HW128199   0.120   3.775   4.141
 9100SOL    HW228200   0.066   3.634   4.078
 9101SOL     OW28201   2.003   2.261   2.946
 9101SOL    HW128202   2.072   2.242   2.876
 9101SOL    HW228203   1.942   2.333   2.914
 9102SOL     OW28204   2.626   0.233   1.838
 9102SOL    HW128205   2.674   0.246   1.751
 9102SOL    HW228206   2.558   0.306   1.850
 9103SOL     OW28207   6.212   2.891   6.660
 9103SOL    HW128208   6.166   2.849   6.581
 9103SOL    HW228209   6.147   2.950   6.708
 9104SOL     OW28210   0.492   6.396   2.675
 9104SOL    HW128211   0.561   6.382   2.604
 9104SOL    HW228212   0.403   6.365   2.640
 9105SOL     OW28213   1.130   1.764   6.518
 9105SOL    HW128214   1.097   1.705   6.445
 9105SOL    HW228215   1.095   1.729   6.606
 9106SOL     OW28216   0.262   2.839   1.137
 9106SOL    HW128217   0.347   2.852   1.189
 9106SOL    HW228218   0.186   2.823   1.200
 9107SOL     OW28219   3.596   0.686   6.475
 9107SOL    HW128220   3.563   0.612   6.533
 9107SOL    HW228221   3.696   0.680   6.466
 9108SOL     OW28222   5.209   4.497   5.562
 9108SOL    HW128223   5.221   4.554   5.481
 9108SOL    HW228224   5.277   4.423   5.561
 9109SOL     OW28225   6.535   2.973   3.845
 9109SOL    HW128226   6.534   3.026   3.760
 9109SOL    HW228227   6.628   2.939   3.861
 9110SOL     OW28228   1.679   4.905   4.335
 9110SOL    HW128229   1.651   4.860   4.419
 9110SOL    HW228230   1.779   4.904   4.328
 9111SOL     OW28231   5.361   1.763   0.564
 9111SOL    HW128232   5.339   1.848   0.610
 9111SOL    HW228233   5.304   1.753   0.482
 9112SOL     OW28234   1.054   5.479   2.519
 9112SOL    HW128235   1.040   5.578   2.507
 9112SOL    HW228236   1.112   5.463   2.598
 9113SOL     OW28237   4.627   2.394   3.569
 9113SOL    HW128238   4.719   2.355   3.571
 9113SOL    HW228239   4.633   2.494   3.562
 9114SOL     OW28240   1.109   4.845   2.850
 9114SOL    HW128241   1.207   4.863   2.845
 9114SOL    HW228242   1.092   4.764   2.905
 9115SOL     OW28243   6.703   5.773   4.345
 9115SOL    HW128244   6.764   5.832   4.292
 9115SOL    HW228245   6.698   5.807   4.439
 9116SOL     OW28246   6.939   0.296   2.519
 9116SOL    HW128247   6.897   0.258   2.601
 9116SOL    HW228248   6.959   0.222   2.455
 9117SOL     OW28249   4.653   2.526   0.044
 9117SOL    HW128250   4.651   2.430   0.018
 9117SOL    HW228251   4.743   2.564   0.023
 9118SOL     OW28252   6.935   3.056   0.674
 9118SOL    HW128253   6.971   3.144   0.703
 9118SOL    HW228254   6.991   3.021   0.598
 9119SOL     OW28255   4.044   0.826   2.697
 9119SOL    HW128256   4.049   0.891   2.772
 9119SOL    HW228257   4.072   0.871   2.612
 9120SOL     OW28258   6.374   1.243   5.848
 9120SOL    HW128259   6.466   1.210   5.827
 9120SOL    HW228260   6.371   1.280   5.940
 9121SOL     OW28261   3.931   0.205   5.525
 9121SOL    HW128262   4.020   0.250   5.520
 9121SOL    HW228263   3.944   0.107   5.538
 9122SOL     OW28264   2.570   4.575   2.233
 9122SOL    HW128265   2.539   4.582   2.138
 9122SOL    HW228266   2.640   4.644   2.250
 9123SOL     OW28267   2.174   0.863   4.227
 9123SOL    HW128268   2.123   0.804   4.165
 9123SOL    HW228269   2.219   0.935   4.174
 9124SOL     OW28270   4.727   5.220   0.402
 9124SOL    HW128271   4.742   5.177   0.491
 9124SOL    HW228272   4.809   5.211   0.346
 9125SOL     OW28273   4.099   4.047   0.642
 9125SOL    HW128274   4.104   3.998   0.555
 9125SOL    HW228275   4.052   4.134   0.629
 9126SOL     OW28276   5.824   3.121   1.156
 9126SOL    HW128277   5.745   3.066   1.185
 9126SOL    HW228278   5.907   3.067   1.166
 9127SOL     OW28279   6.403   1.353   6.103
 9127SOL    HW128280   6.469   1.403   6.159
 9127SOL    HW228281   6.366   1.277   6.156
 9128SOL     OW28282   5.639   2.185   5.480
 9128SOL    HW128283   5.545   2.190   5.446
 9128SOL    HW228284   5.652   2.253   5.552
 9129SOL     OW28285   0.248   2.868   6.988
 9129SOL    HW128286   0.273   2.833   0.060
 9129SOL    HW228287   0.206   2.795   6.934
 9130SOL     OW28288   1.090   3.391   6.132
 9130SOL    HW128289   1.011   3.453   6.127
 9130SOL    HW228290   1.152   3.410   6.056
 9131SOL     OW28291   5.278   2.448   5.861
 9131SOL    HW128292   5.205   2.430   5.927
 9131SOL    HW228293   5.239   2.451   5.768
 9132SOL     OW28294   0.390   5.836   4.040
 9132SOL    HW128295   0.363   5.925   4.077
 9132SOL    HW228296   0.406   5.844   3.942
 9133SOL     OW28297   3.804   6.419   1.269
 9133SOL    HW128298   3.872   6.430   1.342
 9133SOL    HW228299   3.749   6.338   1.286
 9134SOL     OW28300   3.747   5.542   1.528
 9134SOL    HW128301   3.827   5.598   1.552
 9134SOL    HW228302   3.746   5.459   1.584
 9135SOL     OW28303   0.374   0.791   1.660
 9135SOL    HW128304   0.314   0.731   1.608
 9135SOL    HW228305   0.328   0.879   1.675
 9136SOL     OW28306   4.726   5.811   0.001
 9136SOL    HW128307   4.810   5.760   0.022
 9136SOL    HW228308   4.647   5.751   0.012
 9137SOL     OW28309   4.383   0.972   6.909
 9137SOL    HW128310   4.458   0.996   6.848
 9137SOL    HW228311   4.348   1.054   6.953
 9138SOL     OW28312   0.201   5.256   6.740
 9138SOL    HW128313   0.121   5.312   6.719
 9138SOL    HW228314   0.247   5.232   6.654
 9139SOL     OW28315   1.846   2.049   2.809
 9139SOL    HW128316   1.942   2.072   2.825
 9139SOL    HW228317   1.818   1.977   2.873
 9140SOL     OW28318   7.014   3.811   2.811
 9140SOL    HW128319   7.013   3.910   2.796
 9140SOL    HW228320   6.928   3.772   2.777
 9141SOL     OW28321   5.643   6.569   1.295
 9141SOL    HW128322   5.601   6.606   1.378
 9141SOL    HW228323   5.677   6.477   1.313
 9142SOL     OW28324   0.938   3.857   1.840
 9142SOL    HW128325   0.890   3.923   1.782
 9142SOL    HW228326   0.975   3.784   1.783
 9143SOL     OW28327   6.264   2.394   0.168
 9143SOL    HW128328   6.355   2.369   0.200
 9143SOL    HW228329   6.256   2.374   0.071
 9144SOL     OW28330   2.428   5.303   4.305
 9144SOL    HW128331   2.423   5.370   4.231
 9144SOL    HW228332   2.377   5.336   4.384
 9145SOL     OW28333   0.527   5.781   6.859
 9145SOL    HW128334   0.466   5.860   6.854
 9145SOL    HW228335   0.486   5.704   6.809
 9146SOL     OW28336   5.048   2.987   3.847
 9146SOL    HW128337   5.119   3.015   3.912
 9146SOL    HW228338   5.031   3.060   3.782
 9147SOL     OW28339   5.875   6.616   5.325
 9147SOL    HW128340   5.802   6.564   5.282
 9147SOL    HW228341   5.962   6.568   5.314
 9148SOL     OW28342   5.210   5.904   2.489
 9148SOL    HW128343   5.220   5.825   2.548
 9148SOL    HW228344   5.274   5.898   2.412
 9149SOL     OW28345   5.217   3.216   2.208
 9149SOL    HW128346   5.161   3.297   2.195
 9149SOL    HW228347   5.228   3.168   2.121
 9150SOL     OW28348   3.154   5.030   1.334
 9150SOL    HW128349   3.167   5.128   1.351
 9150SOL    HW228350   3.121   5.016   1.241
 9151SOL     OW28351   1.829   4.356   3.700
 9151SOL    HW128352   1.827   4.446   3.743
 9151SOL    HW228353   1.745   4.306   3.721
 9152SOL     OW28354   2.058   3.991   4.333
 9152SOL    HW128355   1.972   4.042   4.329
 9152SOL    HW228356   2.129   4.043   4.287
 9153SOL     OW28357   0.452   2.762   0.197
 9153SOL    HW128358   0.490   2.725   0.282
 9153SOL    HW228359   0.507   2.731   0.120
 9154SOL     OW28360   5.681   4.423   5.175
 9154SOL    HW128361   5.589   4.410   5.211
 9154SOL    HW228362   5.747   4.419   5.250
 9155SOL     OW28363   1.857   4.245   2.887
 9155SOL    HW128364   1.772   4.238   2.939
 9155SOL    HW228365   1.935   4.241   2.950
 9156SOL     OW28366   6.950   2.107   0.309
 9156SOL    HW128367   0.023   2.097   0.268
 9156SOL    HW228368   6.960   2.149   0.399
 9157SOL     OW28369   2.557   4.261   0.277
 9157SOL    HW128370   2.517   4.200   0.209
 9157SOL    HW228371   2.486   4.292   0.340
 9158SOL     OW28372   6.698   3.939   4.841
 9158SOL    HW128373   6.750   3.998   4.903
 9158SOL    HW228374   6.755   3.915   4.763
 9159SOL     OW28375   2.015   0.724   3.282
 9159SOL    HW128376   1.981   0.815   3.258
 9159SOL    HW228377   1.971   0.656   3.224
 9160SOL     OW28378   0.638   6.250   6.182
 9160SOL    HW128379   0.624   6.298   6.269
 9160SOL    HW228380   0.550   6.227   6.141
 9161SOL     OW28381   5.656   5.022   3.193
 9161SOL    HW128382   5.619   5.104   3.235
 9161SOL    HW228383   5.750   5.007   3.225
 9162SOL     OW28384   4.127   0.318   2.906
 9162SOL    HW128385   4.115   0.400   2.851
 9162SOL    HW228386   4.123   0.237   2.847
 9163SOL     OW28387   0.163   3.433   4.008
 9163SOL    HW128388   0.118   3.388   3.930
 9163SOL    HW228389   0.223   3.506   3.974
 9164SOL     OW28390   2.368   0.785   6.816
 9164SOL    HW128391   2.340   0.789   6.912
 9164SOL    HW228392   2.333   0.865   6.768
 9165SOL     OW28393   5.025   1.785   5.793
 9165SOL    HW128394   5.042   1.803   5.890
 9165SOL    HW228395   5.014   1.872   5.744
 9166SOL     OW28396   4.106   5.150   0.648
 9166SOL    HW128397   4.194   5.158   0.694
 9166SOL    HW228398   4.069   5.058   0.660
 9167SOL     OW28399   2.079   1.760   5.725
 9167SOL    HW128400   2.024   1.838   5.695
 9167SOL    HW228401   2.093   1.766   5.824
 9168SOL     OW28402   0.087   6.342   6.660
 9168SOL    HW128403   0.047   6.311   6.573
 9168SOL    HW228404   0.076   6.270   6.728
 9169SOL     OW28405   0.411   6.641   6.549
 9169SOL    HW128406   0.361   6.631   6.462
 9169SOL    HW228407   0.397   6.558   6.604
 9170SOL     OW28408   1.995   0.248   5.981
 9170SOL    HW128409   1.922   0.315   5.966
 9170SOL    HW228410   1.961   0.174   6.039
 9171SOL     OW28411   3.701   5.958   0.915
 9171SOL    HW128412   3.665   6.030   0.856
 9171SOL    HW228413   3.736   5.883   0.858
 9172SOL     OW28414   4.630   0.794   3.820
 9172SOL    HW128415   4.728   0.801   3.838
 9172SOL    HW228416   4.607   0.848   3.739
 9173SOL     OW28417   6.252   3.808   5.348
 9173SOL    HW128418   6.172   3.824   5.291
 9173SOL    HW228419   6.329   3.860   5.313
 9174SOL     OW28420   0.409   5.729   0.794
 9174SOL    HW128421   0.365   5.732   0.704
 9174SOL    HW228422   0.490   5.671   0.790
 9175SOL     OW28423   1.222   7.012   6.390
 9175SOL    HW128424   1.253   0.084   6.358
 9175SOL    HW228425   1.224   7.009   6.490
 9176SOL     OW28426   3.146   0.676   2.420
 9176SOL    HW128427   3.053   0.664   2.385
 9176SOL    HW228428   3.169   0.773   2.422
 9177SOL     OW28429   1.075   2.933   4.100
 9177SOL    HW128430   1.010   2.919   4.175
 9177SOL    HW228431   1.139   3.005   4.124
 9178SOL     OW28432   2.123   5.448   6.926
 9178SOL    HW128433   2.105   5.462   6.829
 9178SOL    HW228434   2.037   5.453   6.977
 9179SOL     OW28435   1.423   5.423   4.787
 9179SOL    HW128436   1.503   5.481   4.802
 9179SOL    HW228437   1.363   5.430   4.867
 9180SOL     OW28438   6.003   2.609   3.386
 9180SOL    HW128439   6.093   2.619   3.428
 9180SOL    HW228440   5.987   2.513   3.365
 9181SOL     OW28441   5.128   2.323   3.863
 9181SOL    HW128442   5.031   2.349   3.856
 9181SOL    HW228443   5.183   2.386   3.808
 9182SOL     OW28444   3.315   6.986   2.875
 9182SOL    HW128445   3.230   0.010   2.908
 9182SOL    HW228446   3.307   6.887   2.881
 9183SOL     OW28447   4.768   4.832   6.709
 9183SOL    HW128448   4.788   4.923   6.674
 9183SOL    HW228449   4.744   4.838   6.806
 9184SOL     OW28450   3.995   2.300   1.062
 9184SOL    HW128451   3.991   2.274   1.159
 9184SOL    HW228452   4.075   2.257   1.020
 9185SOL     OW28453   6.833   6.938   4.812
 9185SOL    HW128454   6.779   7.012   4.854
 9185SOL    HW228455   6.898   6.977   4.747
 9186SOL     OW28456   5.151   0.583   5.070
 9186SOL    HW128457   5.113   0.665   5.112
 9186SOL    HW228458   5.093   0.556   4.993
 9187SOL     OW28459   4.196   2.009   7.009
 9187SOL    HW128460   4.102   1.993   6.979
 9187SOL    HW228461   4.260   1.973   6.941
 9188SOL     OW28462   2.047   0.903   1.463
 9188SOL    HW128463   2.119   0.972   1.469
 9188SOL    HW228464   1.959   0.949   1.451
 9189SOL     OW28465   3.407   6.321   2.355
 9189SOL    HW128466   3.353   6.377   2.417
 9189SOL    HW228467   3.418   6.229   2.394
 9190SOL     OW28468   0.794   3.388   5.248
 9190SOL    HW128469   0.721   3.442   5.290
 9190SOL    HW228470   0.804   3.302   5.299
 9191SOL     OW28471   5.491   1.145   6.510
 9191SOL    HW128472   5.437   1.063   6.528
 9191SOL    HW228473   5.577   1.119   6.466
 9192SOL     OW28474   6.566   2.555   6.476
 9192SOL    HW128475   6.494   2.551   6.407
 9192SOL    HW228476   6.599   2.462   6.495
 9193SOL     OW28477   4.130   3.703   4.561
 9193SOL    HW128478   4.131   3.793   4.519
 9193SOL    HW228479   4.124   3.712   4.661
 9194SOL     OW28480   2.948   6.617   2.102
 9194SOL    HW128481   3.004   6.565   2.038
 9194SOL    HW228482   2.933   6.710   2.066
 9195SOL     OW28483   1.858   3.293   3.000
 9195SOL    HW128484   1.845   3.329   3.092
 9195SOL    HW228485   1.769   3.285   2.955
 9196SOL     OW28486   5.556   6.754   3.268
 9196SOL    HW128487   5.653   6.742   3.244
 9196SOL    HW228488   5.512   6.812   3.199
 9197SOL     OW28489   2.833   5.266   1.023
 9197SOL    HW128490   2.748   5.280   0.972
 9197SOL    HW228491   2.867   5.354   1.057
 9198SOL     OW28492   6.327   4.373   6.641
 9198SOL    HW128493   6.321   4.403   6.736
 9198SOL    HW228494   6.418   4.396   6.605
 9199SOL     OW28495   0.715   3.140   6.167
 9199SOL    HW128496   0.770   3.077   6.222
 9199SOL    HW228497   0.643   3.180   6.223
 9200SOL     OW28498   2.055   6.083   5.720
 9200SOL    HW128499   2.067   6.161   5.659
 9200SOL    HW228500   2.144   6.042   5.741
 9201SOL     OW28501   0.895   2.866   1.041
 9201SOL    HW128502   0.834   2.838   1.115
 9201SOL    HW228503   0.924   2.786   0.989
 9202SOL     OW28504   0.753   6.080   3.706
 9202SOL    HW128505   0.726   5.988   3.679
 9202SOL    HW228506   0.843   6.101   3.669
 9203SOL     OW28507   5.775   2.802   5.800
 9203SOL    HW128508   5.729   2.831   5.716
 9203SOL    HW228509   5.731   2.845   5.879
 9204SOL     OW28510   4.941   3.486   4.114
 9204SOL    HW128511   4.904   3.487   4.207
 9204SOL    HW228512   4.995   3.403   4.100
 9205SOL     OW28513   4.671   5.767   2.864
 9205SOL    HW128514   4.632   5.696   2.923
 9205SOL    HW228515   4.766   5.745   2.842
 9206SOL     OW28516   3.342   6.570   3.672
 9206SOL    HW128517   3.360   6.527   3.760
 9206SOL    HW228518   3.317   6.499   3.605
 9207SOL     OW28519   3.691   5.329   0.089
 9207SOL    HW128520   3.687   5.242   0.039
 9207SOL    HW228521   3.779   5.337   0.136
 9208SOL     OW28522   5.410   3.894   2.043
 9208SOL    HW128523   5.495   3.923   2.086
 9208SOL    HW228524   5.332   3.935   2.091
 9209SOL     OW28525   4.376   0.176   1.342
 9209SOL    HW128526   4.423   0.092   1.313
 9209SOL    HW228527   4.442   0.240   1.380
 9210SOL     OW28528   0.631   0.387   1.546
 9210SOL    HW128529   0.572   0.443   1.487
 9210SOL    HW228530   0.715   0.437   1.567
 9211SOL     OW28531   5.741   3.126   6.880
 9211SOL    HW128532   5.654   3.175   6.881
 9211SOL    HW228533   5.782   3.130   6.971
 9212SOL     OW28534   5.249   4.056   4.729
 9212SOL    HW128535   5.250   3.980   4.794
 9212SOL    HW228536   5.212   4.024   4.641
 9213SOL     OW28537   4.676   6.086   4.522
 9213SOL    HW128538   4.750   6.148   4.548
 9213SOL    HW228539   4.679   6.070   4.424
 9214SOL     OW28540   6.768   2.929   5.000
 9214SOL    HW128541   6.851   2.927   5.056
 9214SOL    HW228542   6.787   2.888   4.911
 9215SOL     OW28543   1.487   4.907   2.551
 9215SOL    HW128544   1.468   4.840   2.479
 9215SOL    HW228545   1.540   4.982   2.512
 9216SOL     OW28546   2.424   6.560   4.038
 9216SOL    HW128547   2.509   6.563   4.090
 9216SOL    HW228548   2.402   6.465   4.015
 9217SOL     OW28549   5.866   2.433   0.468
 9217SOL    HW128550   5.932   2.370   0.427
 9217SOL    HW228551   5.830   2.393   0.552
 9218SOL     OW28552   4.076   0.352   0.134
 9218SOL    HW128553   4.082   0.397   0.223
 9218SOL    HW228554   4.028   0.412   0.070
 9219SOL     OW28555   4.058   3.508   5.838
 9219SOL    HW128556   3.973   3.520   5.889
 9219SOL    HW228557   4.136   3.520   5.901
 9220SOL     OW28558   1.745   6.418   2.205
 9220SOL    HW128559   1.691   6.470   2.271
 9220SOL    HW228560   1.718   6.443   2.112
 9221SOL     OW28561   2.736   0.078   4.079
 9221SOL    HW128562   2.825   0.123   4.070
 9221SOL    HW228563   2.739   0.013   4.155
 9222SOL     OW28564   2.318   5.382   4.541
 9222SOL    HW128565   2.352   5.302   4.592
 9222SOL    HW228566   2.324   5.463   4.600
 9223SOL     OW28567   1.027   2.685   3.997
 9223SOL    HW128568   0.927   2.676   4.007
 9223SOL    HW228569   1.055   2.776   4.028
 9224SOL     OW28570   1.330   4.512   3.314
 9224SOL    HW128571   1.398   4.517   3.240
 9224SOL    HW228572   1.265   4.588   3.304
 9225SOL     OW28573   3.557   5.744   5.636
 9225SOL    HW128574   3.550   5.722   5.538
 9225SOL    HW228575   3.618   5.679   5.681
 9226SOL     OW28576   0.540   0.139   1.230
 9226SOL    HW128577   0.551   0.136   1.131
 9226SOL    HW228578   0.630   0.136   1.273
 9227SOL     OW28579   1.807   6.129   1.298
 9227SOL    HW128580   1.841   6.119   1.392
 9227SOL    HW228581   1.707   6.124   1.299
 9228SOL     OW28582   2.223   2.164   0.206
 9228SOL    HW128583   2.137   2.215   0.213
 9228SOL    HW228584   2.206   2.075   0.163
 9229SOL     OW28585   1.367   4.780   5.715
 9229SOL    HW128586   1.411   4.866   5.689
 9229SOL    HW228587   1.381   4.764   5.813
 9230SOL     OW28588   4.923   3.259   2.881
 9230SOL    HW128589   4.907   3.213   2.794
 9230SOL    HW228590   4.879   3.208   2.955
 9231SOL     OW28591   1.243   2.801   5.628
 9231SOL    HW128592   1.178   2.726   5.642
 9231SOL    HW228593   1.318   2.770   5.570
 9232SOL     OW28594   2.975   5.227   0.667
 9232SOL    HW128595   2.963   5.142   0.616
 9232SOL    HW228596   2.885   5.269   0.682
 9233SOL     OW28597   0.218   6.612   0.685
 9233SOL    HW128598   0.316   6.600   0.703
 9233SOL    HW228599   0.205   6.635   0.588
 9234SOL     OW28600   2.408   5.839   0.921
 9234SOL    HW128601   2.465   5.898   0.978
 9234SOL    HW228602   2.466   5.773   0.873
 9235SOL     OW28603   2.084   3.138   2.955
 9235SOL    HW128604   2.140   3.152   3.036
 9235SOL    HW228605   2.016   3.211   2.948
 9236SOL     OW28606   2.262   3.861   0.004
 9236SOL    HW128607   2.255   3.874   6.923
 9236SOL    HW228608   2.316   3.936   0.043
 9237SOL     OW28609   0.571   5.627   3.335
 9237SOL    HW128610   0.568   5.632   3.235
 9237SOL    HW228611   0.660   5.658   3.367
 9238SOL     OW28612   2.840   2.376   6.008
 9238SOL    HW128613   2.939   2.382   6.023
 9238SOL    HW228614   2.795   2.453   6.053
 9239SOL     OW28615   0.089   4.170   6.793
 9239SOL    HW128616   0.020   4.202   6.858
 9239SOL    HW228617   0.107   4.073   6.808
 9240SOL     OW28618   5.169   2.825   1.939
 9240SOL    HW128619   5.112   2.793   1.863
 9240SOL    HW228620   5.154   2.923   1.952
 9241SOL     OW28621   0.158   5.535   1.102
 9241SOL    HW128622   0.188   5.582   1.020
 9241SOL    HW228623   0.066   5.498   1.088
 9242SOL     OW28624   1.628   3.816   2.037
 9242SOL    HW128625   1.620   3.731   1.986
 9242SOL    HW228626   1.710   3.866   2.007
 9243SOL     OW28627   6.803   0.752   1.519
 9243SOL    HW128628   6.750   0.813   1.461
 9243SOL    HW228629   6.742   0.684   1.561
 9244SOL     OW28630   2.576   5.708   6.097
 9244SOL    HW128631   2.573   5.726   6.195
 9244SOL    HW228632   2.661   5.660   6.075
 9245SOL     OW28633   0.798   4.896   3.493
 9245SOL    HW128634   0.730   4.932   3.429
 9245SOL    HW228635   0.861   4.970   3.520
 9246SOL     OW28636   5.743   0.230   3.109
 9246SOL    HW128637   5.822   0.246   3.049
 9246SOL    HW228638   5.680   0.307   3.102
 9247SOL     OW28639   2.592   6.128   2.756
 9247SOL    HW128640   2.692   6.126   2.755
 9247SOL    HW228641   2.558   6.127   2.662
 9248SOL     OW28642   2.997   2.049   4.543
 9248SOL    HW128643   3.052   1.966   4.552
 9248SOL    HW228644   2.975   2.084   4.634
 9249SOL     OW28645   4.496   4.937   1.288
 9249SOL    HW128646   4.413   4.901   1.332
 9249SOL    HW228647   4.566   4.952   1.357
 9250SOL     OW28648   6.268   2.909   4.510
 9250SOL    HW128649   6.313   2.921   4.599
 9250SOL    HW228650   6.326   2.855   4.450
 9251SOL     OW28651   3.912   1.394   2.512
 9251SOL    HW128652   3.944   1.353   2.427
 9251SOL    HW228653   3.836   1.456   2.493
 9252SOL     OW28654   4.996   0.472   4.848
 9252SOL    HW128655   5.025   0.388   4.803
 9252SOL    HW228656   4.994   0.547   4.782
 9253SOL     OW28657   5.225   4.663   5.354
 9253SOL    HW128658   5.275   4.750   5.357
 9253SOL    HW228659   5.138   4.676   5.308
 9254SOL     OW28660   4.536   4.723   3.057
 9254SOL    HW128661   4.481   4.646   3.028
 9254SOL    HW228662   4.567   4.709   3.152
 9255SOL     OW28663   4.808   4.010   0.210
 9255SOL    HW128664   4.776   4.104   0.223
 9255SOL    HW228665   4.765   3.971   0.128
 9256SOL     OW28666   2.568   0.879   2.567
 9256SOL    HW128667   2.539   0.870   2.472
 9256SOL    HW228668   2.609   0.793   2.598
 9257SOL     OW28669   6.055   4.988   3.535
 9257SOL    HW128670   6.062   4.902   3.484
 9257SOL    HW228671   6.146   5.025   3.551
 9258SOL     OW28672   4.076   3.024   1.722
 9258SOL    HW128673   4.040   3.111   1.756
 9258SOL    HW228674   4.007   2.979   1.665
 9259SOL     OW28675   1.293   1.721   0.811
 9259SOL    HW128676   1.385   1.739   0.776
 9259SOL    HW228677   1.294   1.639   0.868
 9260SOL     OW28678   6.321   1.919   5.843
 9260SOL    HW128679   6.234   1.881   5.814
 9260SOL    HW228680   6.365   1.966   5.767
 9261SOL     OW28681   3.854   1.914   6.996
 9261SOL    HW128682   3.774   1.883   0.030
 9261SOL    HW228683   3.828   1.987   6.934
 9262SOL     OW28684   0.550   5.815   5.230
 9262SOL    HW128685   0.594   5.815   5.320
 9262SOL    HW228686   0.457   5.848   5.239
 9263SOL     OW28687   3.110   6.406   2.829
 9263SOL    HW128688   3.122   6.308   2.810
 9263SOL    HW228689   3.111   6.421   2.928
 9264SOL     OW28690   4.649   4.603   0.195
 9264SOL    HW128691   4.595   4.555   0.264
 9264SOL    HW228692   4.624   4.700   0.195
 9265SOL     OW28693   3.174   2.475   0.155
 9265SOL    HW128694   3.216   2.530   0.082
 9265SOL    HW228695   3.228   2.483   0.238
 9266SOL     OW28696   1.611   6.093   0.767
 9266SOL    HW128697   1.591   6.070   0.863
 9266SOL    HW228698   1.528   6.083   0.712
 9267SOL     OW28699   6.991   1.917   4.597
 9267SOL    HW128700   6.898   1.936   4.631
 9267SOL    HW228701   0.032   1.994   4.620
 9268SOL     OW28702   1.754   0.130   2.528
 9268SOL    HW128703   1.742   0.056   2.593
 9268SOL    HW228704   1.717   0.104   2.440
 9269SOL     OW28705   3.950   0.932   6.085
 9269SOL    HW128706   3.920   1.020   6.046
 9269SOL    HW228707   3.919   0.926   6.180
 9270SOL     OW28708   4.429   6.673   5.632
 9270SOL    HW128709   4.340   6.698   5.670
 9270SOL    HW228710   4.499   6.682   5.703
 9271SOL     OW28711   6.122   6.934   0.201
 9271SOL    HW128712   6.032   6.940   0.244
 9271SOL    HW228713   6.168   6.851   0.232
 9272SOL     OW28714   0.981   5.158   5.874
 9272SOL    HW128715   0.942   5.090   5.812
 9272SOL    HW228716   1.003   5.241   5.823
 9273SOL     OW28717   6.321   6.461   3.195
 9273SOL    HW128718   6.267   6.454   3.279
 9273SOL    HW228719   6.334   6.370   3.156
 9274SOL     OW28720   0.254   1.507   7.006
 9274SOL    HW128721   0.257   1.449   0.070
 9274SOL    HW228722   0.280   1.452   6.926
 9275SOL     OW28723   6.719   0.887   0.082
 9275SOL    HW128724   6.678   0.866   0.171
 9275SOL    HW228725   6.725   0.803   0.028
 9276SOL     OW28726   1.431   4.649   0.652
 9276SOL    HW128727   1.409   4.574   0.714
 9276SOL    HW228728   1.360   4.658   0.583
 9277SOL     OW28729   4.755   4.405   1.740
 9277SOL    HW128730   4.766   4.401   1.840
 9277SOL    HW228731   4.698   4.329   1.710
 9278SOL     OW28732   1.695   0.350   5.317
 9278SOL    HW128733   1.701   0.253   5.295
 9278SOL    HW228734   1.637   0.396   5.251
 9279SOL     OW28735   2.756   0.252   1.606
 9279SOL    HW128736   2.789   0.342   1.634
 9279SOL    HW228737   2.699   0.262   1.525
 9280SOL     OW28738   2.724   1.448   2.782
 9280SOL    HW128739   2.714   1.536   2.830
 9280SOL    HW228740   2.669   1.449   2.699
 9281SOL     OW28741   3.302   4.276   6.946
 9281SOL    HW128742   3.297   4.179   6.923
 9281SOL    HW228743   3.346   4.326   6.872
 9282SOL     OW28744   5.112   1.239   3.817
 9282SOL    HW128745   5.197   1.200   3.850
 9282SOL    HW228746   5.053   1.262   3.895
 9283SOL     OW28747   5.060   0.574   4.223
 9283SOL    HW128748   5.158   0.587   4.236
 9283SOL    HW228749   5.029   0.494   4.274
 9284SOL     OW28750   2.900   2.585   5.365
 9284SOL    HW128751   2.880   2.541   5.452
 9284SOL    HW228752   2.824   2.570   5.302
 9285SOL     OW28753   5.045   3.613   1.604
 9285SOL    HW128754   5.107   3.582   1.676
 9285SOL    HW228755   5.000   3.533   1.563
 9286SOL     OW28756   5.579   5.864   0.843
 9286SOL    HW128757   5.649   5.933   0.826
 9286SOL    HW228758   5.531   5.885   0.927
 9287SOL     OW28759   3.746   5.158   6.689
 9287SOL    HW128760   3.753   5.158   6.589
 9287SOL    HW228761   3.706   5.071   6.719
 9288SOL     OW28762   4.693   1.935   2.827
 9288SOL    HW128763   4.730   2.015   2.778
 9288SOL    HW228764   4.694   1.856   2.766
 9289SOL     OW28765   4.925   6.972   1.355
 9289SOL    HW128766   5.012   0.002   1.367
 9289SOL    HW228767   4.892   6.986   1.261
 9290SOL     OW28768   5.443   0.904   3.808
 9290SOL    HW128769   5.525   0.851   3.784
 9290SOL    HW228770   5.366   0.874   3.751
 9291SOL     OW28771   1.079   4.924   5.371
 9291SOL    HW128772   1.161   4.940   5.316
 9291SOL    HW228773   1.098   4.948   5.466
 9292SOL     OW28774   2.743   2.343   6.729
 9292SOL    HW128775   2.724   2.256   6.683
 9292SOL    HW228776   2.737   2.330   6.828
 9293SOL     OW28777   6.194   3.870   6.805
 9293SOL    HW128778   6.244   3.956   6.791
 9293SOL    HW228779   6.259   3.794   6.804
 9294SOL     OW28780   5.565   0.939   6.135
 9294SOL    HW128781   5.547   1.037   6.127
 9294SOL    HW228782   5.493   0.897   6.190
 9295SOL     OW28783   5.404   0.229   5.316
 9295SOL    HW128784   5.460   0.247   5.397
 9295SOL    HW228785   5.458   0.182   5.247
 9296SOL     OW28786   1.979   5.299   0.202
 9296SOL    HW128787   1.907   5.368   0.192
 9296SOL    HW228788   2.068   5.345   0.212
 9297SOL     OW28789   0.933   0.070   2.649
 9297SOL    HW128790   0.863   0.000   2.665
 9297SOL    HW228791   0.938   0.130   2.729
 9298SOL     OW28792   0.926   6.589   6.127
 9298SOL    HW128793   0.976   6.504   6.138
 9298SOL    HW228794   0.978   6.664   6.167
 9299SOL     OW28795   1.095   2.193   4.113
 9299SOL    HW128796   1.160   2.234   4.177
 9299SOL    HW228797   1.077   2.098   4.140
 9300SOL     OW28798   0.325   4.510   5.687
 9300SOL    HW128799   0.255   4.580   5.702
 9300SOL    HW228800   0.416   4.553   5.690
 9301SOL     OW28801   5.576   5.301   4.580
 9301SOL    HW128802   5.491   5.339   4.544
 9301SOL    HW228803   5.565   5.202   4.593
 9302SOL     OW28804   2.087   3.246   4.074
 9302SOL    HW128805   2.029   3.313   4.120
 9302SOL    HW228806   2.123   3.181   4.141
 9303SOL     OW28807   3.085   3.723   0.731
 9303SOL    HW128808   3.033   3.782   0.792
 9303SOL    HW228809   3.031   3.703   0.649
 9304SOL     OW28810   4.357   4.794   0.565
 9304SOL    HW128811   4.456   4.781   0.560
 9304SOL    HW228812   4.331   4.822   0.658
 9305SOL     OW28813   3.793   0.782   0.709
 9305SOL    HW128814   3.795   0.789   0.809
 9305SOL    HW228815   3.739   0.702   0.682
 9306SOL     OW28816   1.387   3.400   5.534
 9306SOL    HW128817   1.333   3.321   5.505
 9306SOL    HW228818   1.363   3.479   5.477
 9307SOL     OW28819   1.428   3.877   1.140
 9307SOL    HW128820   1.505   3.891   1.077
 9307SOL    HW228821   1.414   3.779   1.154
 9308SOL     OW28822   1.378   3.407   1.823
 9308SOL    HW128823   1.338   3.440   1.738
 9308SOL    HW228824   1.344   3.315   1.843
 9309SOL     OW28825   2.721   5.280   5.459
 9309SOL    HW128826   2.684   5.373   5.450
 9309SOL    HW228827   2.776   5.275   5.542
 9310SOL     OW28828   5.490   5.867   5.756
 9310SOL    HW128829   5.459   5.843   5.848
 9310SOL    HW228830   5.584   5.901   5.760
 9311SOL     OW28831   5.254   4.574   1.213
 9311SOL    HW128832   5.335   4.528   1.250
 9311SOL    HW228833   5.274   4.607   1.121
 9312SOL     OW28834   1.969   2.731   1.098
 9312SOL    HW128835   1.957   2.768   1.190
 9312SOL    HW228836   1.881   2.697   1.065
 9313SOL     OW28837   0.238   0.590   1.501
 9313SOL    HW128838   0.263   0.501   1.540
 9313SOL    HW228839   0.145   0.585   1.463
 9314SOL     OW28840   6.795   3.483   6.633
 9314SOL    HW128841   6.844   3.417   6.576
 9314SOL    HW228842   6.735   3.434   6.696
 9315SOL     OW28843   6.760   6.696   5.774
 9315SOL    HW128844   6.836   6.713   5.836
 9315SOL    HW228845   6.788   6.719   5.680
 9316SOL     OW28846   6.364   6.046   5.565
 9316SOL    HW128847   6.369   6.140   5.599
 9316SOL    HW228848   6.439   6.029   5.501
 9317SOL     OW28849   4.229   5.582   4.563
 9317SOL    HW128850   4.321   5.564   4.597
 9317SOL    HW228851   4.231   5.591   4.464
 9318SOL     OW28852   6.343   0.424   6.782
 9318SOL    HW128853   6.363   0.488   6.856
 9318SOL    HW228854   6.415   0.355   6.777
 9319SOL     OW28855   2.388   2.870   1.181
 9319SOL    HW128856   2.460   2.932   1.212
 9319SOL    HW228857   2.397   2.782   1.228
 9320SOL     OW28858   4.040   0.508   5.425
 9320SOL    HW128859   3.985   0.548   5.352
 9320SOL    HW228860   3.985   0.502   5.509
 9321SOL     OW28861   0.936   0.896   4.723
 9321SOL    HW128862   1.003   0.829   4.752
 9321SOL    HW228863   0.918   0.960   4.798
 9322SOL     OW28864   0.228   4.442   6.869
 9322SOL    HW128865   0.239   4.347   6.898
 9322SOL    HW228866   0.157   4.485   6.925
 9323SOL     OW28867   1.114   0.986   4.549
 9323SOL    HW128868   1.173   1.043   4.606
 9323SOL    HW228869   1.022   0.980   4.590
 9324SOL     OW28870   1.686   4.080   2.586
 9324SOL    HW128871   1.617   4.037   2.528
 9324SOL    HW228872   1.663   4.176   2.601
 9325SOL     OW28873   7.011   0.205   0.193
 9325SOL    HW128874   6.994   0.123   0.138
 9325SOL    HW228875   6.964   0.195   0.281
 9326SOL     OW28876   2.655   5.124   0.430
 9326SOL    HW128877   2.668   5.141   0.333
 9326SOL    HW228878   2.595   5.195   0.468
 9327SOL     OW28879   4.304   6.608   2.461
 9327SOL    HW128880   4.270   6.701   2.475
 9327SOL    HW228881   4.267   6.572   2.375
 9328SOL     OW28882   2.017   0.880   4.746
 9328SOL    HW128883   2.040   0.867   4.650
 9328SOL    HW228884   1.918   0.875   4.758
 9329SOL     OW28885   6.341   4.427   0.829
 9329SOL    HW128886   6.424   4.391   0.872
 9329SOL    HW228887   6.367   4.496   0.761
 9330SOL     OW28888   6.598   6.947   5.824
 9330SOL    HW128889   6.567   6.942   5.729
 9330SOL    HW228890   6.694   6.918   5.830
 9331SOL     OW28891   2.264   1.232   6.092
 9331SOL    HW128892   2.212   1.147   6.078
 9331SOL    HW228893   2.204   1.310   6.076
 9332SOL     OW28894   3.607   5.458   0.631
 9332SOL    HW128895   3.553   5.444   0.713
 9332SOL    HW228896   3.619   5.371   0.583
 9333SOL     OW28897   4.102   5.520   6.663
 9333SOL    HW128898   4.063   5.438   6.622
 9333SOL    HW228899   4.040   5.554   6.734
 9334SOL     OW28900   4.646   6.189   4.952
 9334SOL    HW128901   4.718   6.127   4.981
 9334SOL    HW228902   4.637   6.187   4.852
 9335SOL     OW28903   1.844   1.404   6.912
 9335SOL    HW128904   1.920   1.451   6.957
 9335SOL    HW228905   1.757   1.446   6.942
 9336SOL     OW28906   4.685   6.829   4.212
 9336SOL    HW128907   4.742   6.911   4.219
 9336SOL    HW228908   4.744   6.749   4.202
 9337SOL     OW28909   4.829   1.210   5.471
 9337SOL    HW128910   4.790   1.223   5.380
 9337SOL    HW228911   4.771   1.256   5.539
 9338SOL     OW28912   5.875   7.013   1.032
 9338SOL    HW128913   5.894   0.074   1.091
 9338SOL    HW228914   5.833   6.940   1.085
 9339SOL     OW28915   6.288   6.030   0.214
 9339SOL    HW128916   6.274   6.020   0.115
 9339SOL    HW228917   6.265   6.123   0.242
 9340SOL     OW28918   3.793   4.842   3.246
 9340SOL    HW128919   3.821   4.891   3.164
 9340SOL    HW228920   3.833   4.750   3.245
 9341SOL     OW28921   5.754   4.547   0.898
 9341SOL    HW128922   5.780   4.553   0.801
 9341SOL    HW228923   5.822   4.491   0.947
 9342SOL     OW28924   2.264   7.014   4.644
 9342SOL    HW128925   2.192   7.017   4.575
 9342SOL    HW228926   2.284   6.919   4.666
 9343SOL     OW28927   4.831   3.923   2.158
 9343SOL    HW128928   4.810   3.937   2.255
 9343SOL    HW228929   4.808   4.007   2.108
 9344SOL     OW28930   5.087   6.076   1.081
 9344SOL    HW128931   5.099   5.981   1.052
 9344SOL    HW228932   5.171   6.127   1.063
 9345SOL     OW28933   6.272   4.859   1.821
 9345SOL    HW128934   6.210   4.878   1.745
 9345SOL    HW228935   6.281   4.760   1.833
 9346SOL     OW28936   4.220   0.306   1.708
 9346SOL    HW128937   4.187   0.392   1.669
 9346SOL    HW228938   4.226   0.237   1.636
 9347SOL     OW28939   3.075   5.979   0.554
 9347SOL    HW128940   3.107   5.884   0.545
 9347SOL    HW228941   3.131   6.027   0.621
 9348SOL     OW28942   2.838   5.637   2.633
 9348SOL    HW128943   2.788   5.555   2.604
 9348SOL    HW228944   2.878   5.621   2.724
 9349SOL     OW28945   6.611   5.444   2.222
 9349SOL    HW128946   6.607   5.487   2.132
 9349SOL    HW228947   6.637   5.512   2.291
 9350SOL     OW28948   6.642   1.528   4.268
 9350SOL    HW128949   6.587   1.595   4.317
 9350SOL    HW228950   6.709   1.576   4.211
 9351SOL     OW28951   3.561   0.093   6.278
 9351SOL    HW128952   3.479   0.077   6.333
 9351SOL    HW228953   3.534   0.121   6.186
 9352SOL     OW28954   3.461   2.161   6.293
 9352SOL    HW128955   3.400   2.193   6.221
 9352SOL    HW228956   3.413   2.159   6.381
 9353SOL     OW28957   0.996   4.760   1.240
 9353SOL    HW128958   1.015   4.815   1.322
 9353SOL    HW228959   1.061   4.785   1.168
 9354SOL     OW28960   0.036   2.135   6.386
 9354SOL    HW128961   6.976   2.107   6.329
 9354SOL    HW228962   0.096   2.056   6.401
 9355SOL     OW28963   6.994   1.643   4.629
 9355SOL    HW128964   0.048   1.627   4.696
 9355SOL    HW228965   6.988   1.741   4.609
 9356SOL     OW28966   5.048   5.803   2.071
 9356SOL    HW128967   5.014   5.758   2.153
 9356SOL    HW228968   5.035   5.744   1.991
 9357SOL     OW28969   3.209   3.167   6.281
 9357SOL    HW128970   3.163   3.092   6.330
 9357SOL    HW228971   3.203   3.251   6.335
 9358SOL     OW28972   6.103   3.038   2.510
 9358SOL    HW128973   6.084   3.135   2.518
 9358SOL    HW228974   6.155   3.021   2.426
 9359SOL     OW28975   1.226   3.604   5.717
 9359SOL    HW128976   1.278   3.551   5.650
 9359SOL    HW228977   1.135   3.624   5.681
 9360SOL     OW28978   1.691   5.945   6.503
 9360SOL    HW128979   1.648   5.969   6.416
 9360SOL    HW228980   1.786   5.920   6.487
 9361SOL     OW28981   1.125   6.375   2.972
 9361SOL    HW128982   1.208   6.330   2.939
 9361SOL    HW228983   1.148   6.438   3.046
 9362SOL     OW28984   1.770   2.784   2.562
 9362SOL    HW128985   1.815   2.845   2.496
 9362SOL    HW228986   1.811   2.693   2.557
 9363SOL     OW28987   3.666   6.410   1.798
 9363SOL    HW128988   3.727   6.421   1.876
 9363SOL    HW228989   3.584   6.467   1.812
 9364SOL     OW28990   3.772   3.052   5.814
 9364SOL    HW128991   3.805   3.121   5.750
 9364SOL    HW228992   3.729   3.097   5.893
 9365SOL     OW28993   2.298   2.120   5.008
 9365SOL    HW128994   2.220   2.178   5.033
 9365SOL    HW228995   2.366   2.175   4.960
 9366SOL     OW28996   3.471   6.977   0.141
 9366SOL    HW128997   3.493   0.035   0.079
 9366SOL    HW228998   3.373   6.958   0.136
 9367SOL     OW28999   6.810   6.162   2.737
 9367SOL    HW129000   6.893   6.194   2.691
 9367SOL    HW229001   6.830   6.077   2.785
 9368SOL     OW29002   2.329   1.277   3.832
 9368SOL    HW129003   2.302   1.348   3.896
 9368SOL    HW229004   2.428   1.278   3.820
 9369SOL     OW29005   6.627   6.746   4.750
 9369SOL    HW129006   6.696   6.814   4.771
 9369SOL    HW229007   6.620   6.681   4.826
 9370SOL     OW29008   4.826   0.543   2.207
 9370SOL    HW129009   4.727   0.543   2.219
 9370SOL    HW229010   4.858   0.450   2.192
 9371SOL     OW29011   1.561   4.847   0.846
 9371SOL    HW129012   1.484   4.815   0.791
 9371SOL    HW229013   1.631   4.776   0.851
 9372SOL     OW29014   5.688   6.126   2.584
 9372SOL    HW129015   5.762   6.154   2.644
 9372SOL    HW229016   5.617   6.197   2.583
 9373SOL     OW29017   4.717   1.773   1.920
 9373SOL    HW129018   4.691   1.714   1.844
 9373SOL    HW229019   4.677   1.737   2.005
 9374SOL     OW29020   0.805   3.470   0.603
 9374SOL    HW129021   0.836   3.378   0.630
 9374SOL    HW229022   0.863   3.503   0.528
 9375SOL     OW29023   0.026   1.435   2.991
 9375SOL    HW129024   0.093   1.383   2.937
 9375SOL    HW229025   6.967   1.376   3.015
 9376SOL     OW29026   3.080   4.714   1.198
 9376SOL    HW129027   3.099   4.792   1.140
 9376SOL    HW229028   3.115   4.631   1.155
 9377SOL     OW29029   1.927   5.628   4.034
 9377SOL    HW129030   1.973   5.709   3.999
 9377SOL    HW229031   1.874   5.586   3.960
 9378SOL     OW29032   1.641   1.352   5.227
 9378SOL    HW129033   1.647   1.342   5.326
 9378SOL    HW229034   1.564   1.297   5.194
 9379SOL     OW29035   3.502   5.596   5.376
 9379SOL    HW129036   3.514   5.670   5.310
 9379SOL    HW229037   3.405   5.584   5.395
 9380SOL     OW29038   5.626   5.036   4.958
 9380SOL    HW129039   5.711   5.015   4.909
 9380SOL    HW229040   5.559   5.074   4.895
 9381SOL     OW29041   3.843   2.722   5.884
 9381SOL    HW129042   3.847   2.685   5.791
 9381SOL    HW229043   3.833   2.822   5.880
 9382SOL     OW29044   3.595   0.580   3.714
 9382SOL    HW129045   3.641   0.579   3.625
 9382SOL    HW229046   3.598   0.488   3.754
 9383SOL     OW29047   1.373   5.866   4.679
 9383SOL    HW129048   1.293   5.819   4.717
 9383SOL    HW229049   1.410   5.814   4.602
 9384SOL     OW29050   3.819   6.932   2.316
 9384SOL    HW129051   3.778   0.004   2.300
 9384SOL    HW229052   3.769   6.884   2.387
 9385SOL     OW29053   4.237   0.434   3.407
 9385SOL    HW129054   4.162   0.388   3.455
 9385SOL    HW229055   4.309   0.368   3.388
 9386SOL     OW29056   2.026   6.213   5.018
 9386SOL    HW129057   2.053   6.253   5.106
 9386SOL    HW229058   1.935   6.172   5.027
 9387SOL     OW29059   2.711   1.794   6.836
 9387SOL    HW129060   2.615   1.775   6.858
 9387SOL    HW229061   2.757   1.829   6.918
 9388SOL     OW29062   2.718   5.397   2.582
 9388SOL    HW129063   2.770   5.312   2.596
 9388SOL    HW229064   2.653   5.384   2.507
 9389SOL     OW29065   1.538   0.061   3.674
 9389SOL    HW129066   1.582   0.066   3.584
 9389SOL    HW229067   1.587   7.012   3.731
 9390SOL     OW29068   4.647   4.720   5.022
 9390SOL    HW129069   4.724   4.776   5.053
 9390SOL    HW229070   4.613   4.755   4.935
 9391SOL     OW29071   2.407   1.513   4.624
 9391SOL    HW129072   2.474   1.439   4.618
 9391SOL    HW229073   2.339   1.503   4.551
 9392SOL     OW29074   6.286   6.713   5.577
 9392SOL    HW129075   6.297   6.794   5.518
 9392SOL    HW229076   6.189   6.703   5.601
 9393SOL     OW29077   3.660   6.743   6.522
 9393SOL    HW129078   3.743   6.744   6.579
 9393SOL    HW229079   3.685   6.768   6.429
 9394SOL     OW29080   0.368   1.430   2.406
 9394SOL    HW129081   0.451   1.486   2.399
 9394SOL    HW229082   0.294   1.485   2.444
 9395SOL     OW29083   3.084   1.758   1.081
 9395SOL    HW129084   3.174   1.728   1.112
 9395SOL    HW229085   3.090   1.852   1.047
 9396SOL     OW29086   1.988   4.871   3.792
 9396SOL    HW129087   1.993   4.965   3.826
 9396SOL    HW229088   1.904   4.828   3.824
 9397SOL     OW29089   4.449   0.279   6.203
 9397SOL    HW129090   4.422   0.325   6.288
 9397SOL    HW229091   4.533   0.227   6.219
 9398SOL     OW29092   6.660   0.579   5.101
 9398SOL    HW129093   6.589   0.525   5.055
 9398SOL    HW229094   6.630   0.674   5.108
 9399SOL     OW29095   0.454   1.830   5.479
 9399SOL    HW129096   0.466   1.861   5.385
 9399SOL    HW229097   0.356   1.825   5.499
 9400SOL     OW29098   4.012   0.912   1.825
 9400SOL    HW129099   4.085   0.862   1.872
 9400SOL    HW229100   4.018   1.009   1.847
 9401SOL     OW29101   6.263   0.506   3.313
 9401SOL    HW129102   6.334   0.435   3.308
 9401SOL    HW229103   6.189   0.483   3.250
 9402SOL     OW29104   1.535   5.211   3.322
 9402SOL    HW129105   1.492   5.121   3.325
 9402SOL    HW229106   1.631   5.203   3.348
 9403SOL     OW29107   6.134   1.582   3.275
 9403SOL    HW129108   6.041   1.606   3.303
 9403SOL    HW229109   6.132   1.501   3.217
 9404SOL     OW29110   1.312   3.735   6.879
 9404SOL    HW129111   1.354   3.769   6.962
 9404SOL    HW229112   1.230   3.790   6.858
 9405SOL     OW29113   1.827   5.157   3.000
 9405SOL    HW129114   1.817   5.103   2.916
 9405SOL    HW229115   1.778   5.111   3.074
 9406SOL     OW29116   6.413   3.307   6.159
 9406SOL    HW129117   6.464   3.343   6.237
 9406SOL    HW229118   6.371   3.383   6.110
 9407SOL     OW29119   2.562   5.163   2.992
 9407SOL    HW129120   2.481   5.132   3.042
 9407SOL    HW229121   2.637   5.099   3.009
 9408SOL     OW29122   5.729   2.130   6.298
 9408SOL    HW129123   5.804   2.142   6.233
 9408SOL    HW229124   5.668   2.210   6.293
 9409SOL     OW29125   6.326   5.639   0.047
 9409SOL    HW129126   6.234   5.612   0.076
 9409SOL    HW229127   6.373   5.684   0.123
 9410SOL     OW29128   2.772   0.513   1.678
 9410SOL    HW129129   2.803   0.607   1.689
 9410SOL    HW229130   2.676   0.512   1.651
 9411SOL     OW29131   3.025   3.043   2.225
 9411SOL    HW129132   3.018   3.080   2.132
 9411SOL    HW229133   3.048   2.946   2.221
 9412SOL     OW29134   6.885   2.474   2.651
 9412SOL    HW129135   6.981   2.446   2.657
 9412SOL    HW229136   6.832   2.402   2.606
 9413SOL     OW29137   3.193   6.060   3.440
 9413SOL    HW129138   3.132   6.044   3.517
 9413SOL    HW229139   3.258   6.133   3.464
 9414SOL     OW29140   2.823   0.595   3.379
 9414SOL    HW129141   2.730   0.631   3.374
 9414SOL    HW229142   2.883   0.662   3.421
 9415SOL     OW29143   2.802   6.984   1.628
 9415SOL    HW129144   2.779   0.060   1.600
 9415SOL    HW229145   2.900   6.969   1.616
 9416SOL     OW29146   0.367   2.427   0.695
 9416SOL    HW129147   0.318   2.486   0.630
 9416SOL    HW229148   0.376   2.475   0.783
 9417SOL     OW29149   4.409   0.673   6.903
 9417SOL    HW129150   4.323   0.643   6.861
 9417SOL    HW229151   4.414   0.773   6.903
 9418SOL     OW29152   3.902   6.774   1.267
 9418SOL    HW129153   3.990   6.810   1.298
 9418SOL    HW229154   3.906   6.756   1.169
 9419SOL     OW29155   3.110   5.129   5.739
 9419SOL    HW129156   3.072   5.067   5.671
 9419SOL    HW229157   3.140   5.077   5.819
 9420SOL     OW29158   6.933   3.713   5.933
 9420SOL    HW129159   6.952   3.628   5.885
 9420SOL    HW229160   6.956   3.703   6.030
 9421SOL     OW29161   2.157   6.590   4.218
 9421SOL    HW129162   2.153   6.493   4.244
 9421SOL    HW229163   2.220   6.638   4.279
 9422SOL     OW29164   3.259   5.603   3.236
 9422SOL    HW129165   3.297   5.616   3.145
 9422SOL    HW229166   3.285   5.679   3.295
 9423SOL     OW29167   3.236   0.086   3.509
 9423SOL    HW129168   3.241   0.008   3.571
 9423SOL    HW229169   3.197   0.057   3.421
 9424SOL     OW29170   5.287   0.980   4.423
 9424SOL    HW129171   5.213   0.958   4.360
 9424SOL    HW229172   5.336   1.061   4.389
 9425SOL     OW29173   6.467   3.022   0.247
 9425SOL    HW129174   6.433   2.956   0.181
 9425SOL    HW229175   6.468   2.980   0.338
 9426SOL     OW29176   3.397   1.430   5.972
 9426SOL    HW129177   3.362   1.522   5.956
 9426SOL    HW229178   3.427   1.390   5.886
 9427SOL     OW29179   2.502   4.637   3.515
 9427SOL    HW129180   2.427   4.687   3.473
 9427SOL    HW229181   2.499   4.648   3.615
 9428SOL     OW29182   6.619   0.943   0.957
 9428SOL    HW129183   6.617   1.023   1.018
 9428SOL    HW229184   6.577   0.967   0.869
 9429SOL     OW29185   2.038   3.736   2.462
 9429SOL    HW129186   1.985   3.772   2.386
 9429SOL    HW229187   2.070   3.644   2.440
 9430SOL     OW29188   0.631   3.900   3.334
 9430SOL    HW129189   0.702   3.960   3.373
 9430SOL    HW229190   0.619   3.921   3.237
 9431SOL     OW29191   6.127   3.511   1.245
 9431SOL    HW129192   6.134   3.609   1.228
 9431SOL    HW229193   6.121   3.463   1.157
 9432SOL     OW29194   4.922   0.365   3.322
 9432SOL    HW129195   4.941   0.380   3.419
 9432SOL    HW229196   4.985   0.421   3.267
 9433SOL     OW29197   2.750   6.073   2.298
 9433SOL    HW129198   2.690   6.062   2.377
 9433SOL    HW229199   2.718   6.015   2.223
 9434SOL     OW29200   5.231   5.050   2.900
 9434SOL    HW129201   5.282   5.116   2.955
 9434SOL    HW229202   5.295   4.983   2.862
 9435SOL     OW29203   0.055   2.736   4.746
 9435SOL    HW129204   0.048   2.644   4.785
 9435SOL    HW229205   0.107   2.732   4.660
 9436SOL     OW29206   1.772   2.893   0.958
 9436SOL    HW129207   1.780   2.793   0.957
 9436SOL    HW229208   1.675   2.918   0.966
 9437SOL     OW29209   1.285   5.801   2.831
 9437SOL    HW129210   1.253   5.896   2.834
 9437SOL    HW229211   1.351   5.790   2.756
 9438SOL     OW29212   0.059   0.168   1.663
 9438SOL    HW129213   7.017   0.207   1.593
 9438SOL    HW229214   0.147   0.215   1.661
 9439SOL     OW29215   1.063   3.654   1.106
 9439SOL    HW129216   1.021   3.724   1.048
 9439SOL    HW229217   1.054   3.680   1.202
 9440SOL     OW29218   4.258   4.755   3.532
 9440SOL    HW129219   4.256   4.686   3.459
 9440SOL    HW229220   4.165   4.773   3.562
 9441SOL     OW29221   0.125   3.226   5.321
 9441SOL    HW129222   0.138   3.242   5.223
 9441SOL    HW229223   0.096   3.310   5.365
 9442SOL     OW29224   4.783   2.897   0.927
 9442SOL    HW129225   4.881   2.901   0.945
 9442SOL    HW229226   4.742   2.987   0.940
 9443SOL     OW29227   2.038   5.233   0.799
 9443SOL    HW129228   2.059   5.178   0.718
 9443SOL    HW229229   2.034   5.173   0.879
 9444SOL     OW29230   1.463   3.575   0.149
 9444SOL    HW129231   1.423   3.497   0.100
 9444SOL    HW229232   1.557   3.589   0.117
 9445SOL     OW29233   5.958   3.400   3.561
 9445SOL    HW129234   5.945   3.333   3.633
 9445SOL    HW229235   6.030   3.464   3.587
 9446SOL     OW29236   6.375   5.602   3.756
 9446SOL    HW129237   6.411   5.538   3.823
 9446SOL    HW229238   6.323   5.552   3.686
 9447SOL     OW29239   6.082   3.992   3.526
 9447SOL    HW129240   6.072   4.067   3.460
 9447SOL    HW229241   6.128   3.915   3.482
 9448SOL     OW29242   0.690   0.095   6.849
 9448SOL    HW129243   0.675   7.014   6.860
 9448SOL    HW229244   0.670   0.141   6.936
 9449SOL     OW29245   6.266   6.292   0.737
 9449SOL    HW129246   6.363   6.306   0.720
 9449SOL    HW229247   6.213   6.322   0.658
 9450SOL     OW29248   2.207   5.562   4.760
 9450SOL    HW129249   2.183   5.562   4.857
 9450SOL    HW229250   2.152   5.494   4.712
 9451SOL     OW29251   4.048   6.999   5.808
 9451SOL    HW129252   4.104   6.920   5.781
 9451SOL    HW229253   4.092   0.065   5.777
 9452SOL     OW29254   1.786   4.009   0.656
 9452SOL    HW129255   1.729   3.933   0.687
 9452SOL    HW229256   1.787   4.012   0.556
 9453SOL     OW29257   1.989   5.065   3.361
 9453SOL    HW129258   2.056   5.000   3.398
 9453SOL    HW229259   2.036   5.144   3.323
 9454SOL     OW29260   3.705   3.062   6.457
 9454SOL    HW129261   3.643   2.990   6.492
 9454SOL    HW229262   3.785   3.019   6.416
 9455SOL     OW29263   2.955   1.916   3.449
 9455SOL    HW129264   2.892   1.947   3.378
 9455SOL    HW229265   2.964   1.817   3.446
 9456SOL     OW29266   0.435   3.281   0.960
 9456SOL    HW129267   0.383   3.207   1.003
 9456SOL    HW229268   0.482   3.334   1.030
 9457SOL     OW29269   2.120   3.550   5.438
 9457SOL    HW129270   2.135   3.496   5.521
 9457SOL    HW229271   2.187   3.624   5.434
 9458SOL     OW29272   1.219   3.362   0.160
 9458SOL    HW129273   1.253   3.289   0.219
 9458SOL    HW229274   1.134   3.333   0.116
 9459SOL     OW29275   5.142   4.413   3.864
 9459SOL    HW129276   5.208   4.365   3.807
 9459SOL    HW229277   5.084   4.347   3.912
 9460SOL     OW29278   0.987   3.453   4.131
 9460SOL    HW129279   0.916   3.415   4.191
 9460SOL    HW229280   1.077   3.439   4.173
 9461SOL     OW29281   0.524   1.932   1.664
 9461SOL    HW129282   0.572   1.904   1.581
 9461SOL    HW229283   0.432   1.894   1.665
 9462SOL     OW29284   2.200   3.991   3.269
 9462SOL    HW129285   2.112   4.016   3.228
 9462SOL    HW229286   2.267   3.975   3.197
 9463SOL     OW29287   6.356   0.618   1.924
 9463SOL    HW129288   6.328   0.682   1.852
 9463SOL    HW229289   6.299   0.536   1.919
 9464SOL     OW29290   5.997   0.486   0.423
 9464SOL    HW129291   6.039   0.568   0.463
 9464SOL    HW229292   6.000   0.493   0.323
 9465SOL     OW29293   1.570   4.554   2.644
 9465SOL    HW129294   1.582   4.622   2.572
 9465SOL    HW229295   1.473   4.528   2.650
 9466SOL     OW29296   3.787   4.560   5.832
 9466SOL    HW129297   3.805   4.500   5.754
 9466SOL    HW229298   3.839   4.528   5.912
 9467SOL     OW29299   1.775   2.355   2.044
 9467SOL    HW129300   1.819   2.420   2.106
 9467SOL    HW229301   1.715   2.294   2.096
 9468SOL     OW29302   5.328   3.383   6.000
 9468SOL    HW129303   5.350   3.288   5.977
 9468SOL    HW229304   5.267   3.421   5.931
 9469SOL     OW29305   6.526   6.150   1.773
 9469SOL    HW129306   6.552   6.245   1.756
 9469SOL    HW229307   6.502   6.106   1.686
 9470SOL     OW29308   5.005   2.985   5.812
 9470SOL    HW129309   4.945   3.028   5.880
 9470SOL    HW229310   4.989   3.026   5.723
 9471SOL     OW29311   6.893   1.571   4.998
 9471SOL    HW129312   6.813   1.520   5.030
 9471SOL    HW229313   6.954   1.588   5.075
 9472SOL     OW29314   6.446   3.202   5.539
 9472SOL    HW129315   6.476   3.160   5.453
 9472SOL    HW229316   6.403   3.132   5.597
 9473SOL     OW29317   2.273   5.273   6.702
 9473SOL    HW129318   2.239   5.355   6.655
 9473SOL    HW229319   2.202   5.238   6.763
 9474SOL     OW29320   0.553   2.668   6.949
 9474SOL    HW129321   0.608   2.723   6.886
 9474SOL    HW229322   0.471   2.636   6.902
 9475SOL     OW29323   3.490   3.607   6.898
 9475SOL    HW129324   3.440   3.533   6.855
 9475SOL    HW229325   3.570   3.571   6.945
 9476SOL     OW29326   3.707   4.202   4.703
 9476SOL    HW129327   3.776   4.266   4.668
 9476SOL    HW229328   3.640   4.183   4.630
 9477SOL     OW29329   0.576   3.097   1.702
 9477SOL    HW129330   0.478   3.110   1.692
 9477SOL    HW229331   0.612   3.162   1.769
 9478SOL     OW29332   4.594   3.175   0.317
 9478SOL    HW129333   4.654   3.101   0.347
 9478SOL    HW229334   4.622   3.260   0.361
 9479SOL     OW29335   3.777   6.031   6.581
 9479SOL    HW129336   3.714   5.962   6.546
 9479SOL    HW229337   3.743   6.064   6.670
 9480SOL     OW29338   5.108   3.758   0.727
 9480SOL    HW129339   5.045   3.683   0.704
 9480SOL    HW229340   5.116   3.819   0.648
 9481SOL     OW29341   4.759   2.913   2.295
 9481SOL    HW129342   4.814   2.838   2.259
 9481SOL    HW229343   4.694   2.945   2.225
 9482SOL     OW29344   0.264   1.462   3.408
 9482SOL    HW129345   0.181   1.421   3.371
 9482SOL    HW229346   0.277   1.553   3.370
 9483SOL     OW29347   1.854   1.696   1.670
 9483SOL    HW129348   1.863   1.746   1.757
 9483SOL    HW229349   1.770   1.724   1.625
 9484SOL     OW29350   4.254   0.820   3.878
 9484SOL    HW129351   4.244   0.906   3.827
 9484SOL    HW229352   4.275   0.746   3.814
 9485SOL     OW29353   0.155   0.847   0.556
 9485SOL    HW129354   0.238   0.813   0.601
 9485SOL    HW229355   0.180   0.915   0.487
 9486SOL     OW29356   3.770   6.482   0.556
 9486SOL    HW129357   3.672   6.483   0.532
 9486SOL    HW229358   3.802   6.577   0.562
 9487SOL     OW29359   3.640   3.689   3.692
 9487SOL    HW129360   3.668   3.701   3.787
 9487SOL    HW229361   3.718   3.659   3.637
 9488SOL     OW29362   2.312   6.763   1.166
 9488SOL    HW129363   2.276   6.670   1.163
 9488SOL    HW229364   2.250   6.824   1.116
 9489SOL     OW29365   4.301   4.320   1.723
 9489SOL    HW129366   4.262   4.401   1.766
 9489SOL    HW229367   4.395   4.307   1.754
 9490SOL     OW29368   6.609   5.042   2.045
 9490SOL    HW129369   6.659   5.129   2.050
 9490SOL    HW229370   6.665   4.975   1.995
 9491SOL     OW29371   5.803   4.892   4.103
 9491SOL    HW129372   5.803   4.822   4.174
 9491SOL    HW229373   5.812   4.982   4.145
 9492SOL     OW29374   3.508   2.934   3.118
 9492SOL    HW129375   3.514   2.894   3.209
 9492SOL    HW229376   3.562   3.018   3.114
 9493SOL     OW29377   3.018   5.560   3.668
 9493SOL    HW129378   3.042   5.516   3.581
 9493SOL    HW229379   2.977   5.492   3.729
 9494SOL     OW29380   4.899   3.435   1.838
 9494SOL    HW129381   4.908   3.354   1.896
 9494SOL    HW229382   4.815   3.429   1.784
 9495SOL     OW29383   6.331   1.945   3.413
 9495SOL    HW129384   6.317   1.941   3.512
 9495SOL    HW229385   6.388   1.869   3.384
 9496SOL     OW29386   6.525   4.023   1.536
 9496SOL    HW129387   6.565   3.940   1.573
 9496SOL    HW229388   6.442   4.000   1.484
 9497SOL     OW29389   5.855   6.045   6.252
 9497SOL    HW129390   5.917   6.102   6.197
 9497SOL    HW229391   5.850   5.953   6.212
 9498SOL     OW29392   4.394   6.831   4.159
 9498SOL    HW129393   4.344   6.765   4.104
 9498SOL    HW229394   4.486   6.797   4.178
 9499SOL     OW29395   2.262   5.515   6.410
 9499SOL    HW129396   2.272   5.461   6.326
 9499SOL    HW229397   2.349   5.560   6.430
 9500SOL     OW29398   5.009   0.103   0.870
 9500SOL    HW129399   4.957   0.032   0.823
 9500SOL    HW229400   4.953   0.142   0.944
 9501SOL     OW29401   3.226   0.827   4.622
 9501SOL    HW129402   3.320   0.857   4.608
 9501SOL    HW229403   3.204   0.828   4.719
 9502SOL     OW29404   5.144   2.473   5.262
 9502SOL    HW129405   5.113   2.379   5.246
 9502SOL    HW229406   5.230   2.489   5.213
 9503SOL     OW29407   0.462   1.609   1.451
 9503SOL    HW129408   0.518   1.528   1.436
 9503SOL    HW229409   0.414   1.601   1.538
 9504SOL     OW29410   0.673   2.520   0.528
 9504SOL    HW129411   0.581   2.485   0.512
 9504SOL    HW229412   0.740   2.460   0.485
 9505SOL     OW29413   4.953   4.481   3.336
 9505SOL    HW129414   4.953   4.523   3.427
 9505SOL    HW229415   5.046   4.453   3.312
 9506SOL     OW29416   0.747   2.143   6.347
 9506SOL    HW129417   0.653   2.136   6.382
 9506SOL    HW229418   0.811   2.119   6.419
 9507SOL     OW29419   0.801   2.147   3.381
 9507SOL    HW129420   0.805   2.049   3.396
 9507SOL    HW229421   0.887   2.189   3.411
 9508SOL     OW29422   6.269   2.666   0.514
 9508SOL    HW129423   6.262   2.576   0.558
 9508SOL    HW229424   6.286   2.654   0.416
 9509SOL     OW29425   0.806   1.357   3.695
 9509SOL    HW129426   0.867   1.318   3.625
 9509SOL    HW229427   0.855   1.428   3.746
 9510SOL     OW29428   1.198   3.370   3.053
 9510SOL    HW129429   1.211   3.379   3.151
 9510SOL    HW229430   1.278   3.326   3.012
 9511SOL     OW29431   1.174   0.642   0.743
 9511SOL    HW129432   1.236   0.566   0.763
 9511SOL    HW229433   1.087   0.607   0.711
 9512SOL     OW29434   5.942   1.676   1.576
 9512SOL    HW129435   5.914   1.582   1.596
 9512SOL    HW229436   5.918   1.735   1.653
 9513SOL     OW29437   2.269   4.134   6.697
 9513SOL    HW129438   2.339   4.183   6.749
 9513SOL    HW229439   2.296   4.129   6.601
 9514SOL     OW29440   2.395   4.893   6.139
 9514SOL    HW129441   2.353   4.833   6.071
 9514SOL    HW229442   2.474   4.848   6.181
 9515SOL     OW29443   2.035   5.779   0.886
 9515SOL    HW129444   1.958   5.842   0.892
 9515SOL    HW229445   2.005   5.692   0.846
 9516SOL     OW29446   5.500   4.461   4.929
 9516SOL    HW129447   5.418   4.499   4.972
 9516SOL    HW229448   5.539   4.390   4.988
 9517SOL     OW29449   1.147   5.209   1.071
 9517SOL    HW129450   1.156   5.192   1.169
 9517SOL    HW229451   1.237   5.234   1.033
 9518SOL     OW29452   2.242   2.236   6.932
 9518SOL    HW129453   2.254   2.334   6.952
 9518SOL    HW229454   2.254   2.184   7.016
 9519SOL     OW29455   4.102   3.340   4.761
 9519SOL    HW129456   4.154   3.402   4.820
 9519SOL    HW229457   4.140   3.248   4.767
 9520SOL     OW29458   1.423   1.529   3.452
 9520SOL    HW129459   1.362   1.606   3.432
 9520SOL    HW229460   1.510   1.564   3.487
 9521SOL     OW29461   5.133   5.250   1.239
 9521SOL    HW129462   5.151   5.323   1.305
 9521SOL    HW229463   5.050   5.201   1.265
 9522SOL     OW29464   3.643   5.189   1.463
 9522SOL    HW129465   3.587   5.144   1.394
 9522SOL    HW229466   3.585   5.221   1.538
 9523SOL     OW29467   2.643   4.570   5.232
 9523SOL    HW129468   2.741   4.577   5.212
 9523SOL    HW229469   2.595   4.649   5.192
 9524SOL     OW29470   3.721   3.027   0.662
 9524SOL    HW129471   3.692   3.045   0.567
 9524SOL    HW229472   3.644   3.044   0.724
 9525SOL     OW29473   2.393   2.323   5.579
 9525SOL    HW129474   2.302   2.304   5.542
 9525SOL    HW229475   2.462   2.296   5.512
 9526SOL     OW29476   6.812   5.090   1.745
 9526SOL    HW129477   6.844   4.995   1.754
 9526SOL    HW229478   6.865   5.149   1.806
 9527SOL     OW29479   0.205   0.673   4.241
 9527SOL    HW129480   0.217   0.659   4.339
 9527SOL    HW229481   0.114   0.643   4.214
 9528SOL     OW29482   6.983   1.491   0.265
 9528SOL    HW129483   0.034   1.562   0.278
 9528SOL    HW229484   0.010   1.406   0.236
 9529SOL     OW29485   6.299   3.299   6.605
 9529SOL    HW129486   6.239   3.379   6.598
 9529SOL    HW229487   6.293   3.246   6.520
 9530SOL     OW29488   1.641   3.952   2.820
 9530SOL    HW129489   1.673   3.991   2.733
 9530SOL    HW229490   1.629   4.025   2.887
 9531SOL     OW29491   4.332   5.014   2.867
 9531SOL    HW129492   4.315   4.980   2.960
 9531SOL    HW229493   4.257   5.074   2.839
 9532SOL     OW29494   6.606   6.914   1.398
 9532SOL    HW129495   6.674   6.894   1.327
 9532SOL    HW229496   6.515   6.891   1.363
 9533SOL     OW29497   0.047   5.865   5.578
 9533SOL    HW129498   0.099   5.873   5.493
 9533SOL    HW229499   0.097   5.908   5.653
 9534SOL     OW29500   0.346   4.077   4.847
 9534SOL    HW129501   0.252   4.062   4.876
 9534SOL    HW229502   0.359   4.172   4.821
 9535SOL     OW29503   2.114   1.262   6.336
 9535SOL    HW129504   2.180   1.234   6.266
 9535SOL    HW229505   2.038   1.309   6.292
 9536SOL     OW29506   2.925   3.947   5.626
 9536SOL    HW129507   3.019   3.973   5.600
 9536SOL    HW229508   2.916   3.848   5.621
 9537SOL     OW29509   2.796   6.707   3.394
 9537SOL    HW129510   2.764   6.798   3.366
 9537SOL    HW229511   2.819   6.653   3.313
 9538SOL     OW29512   5.598   2.055   3.600
 9538SOL    HW129513   5.548   2.139   3.620
 9538SOL    HW229514   5.622   2.008   3.685
 9539SOL     OW29515   3.090   3.700   5.082
 9539SOL    HW129516   3.029   3.756   5.137
 9539SOL    HW229517   3.178   3.690   5.129
 9540SOL     OW29518   5.962   4.105   4.420
 9540SOL    HW129519   5.871   4.069   4.399
 9540SOL    HW229520   5.976   4.191   4.370
 9541SOL     OW29521   4.210   0.746   5.491
 9541SOL    HW129522   4.146   0.670   5.476
 9541SOL    HW229523   4.289   0.714   5.542
 9542SOL     OW29524   5.227   4.500   4.534
 9542SOL    HW129525   5.313   4.504   4.585
 9542SOL    HW229526   5.150   4.510   4.597
 9543SOL     OW29527   3.740   0.639   5.623
 9543SOL    HW129528   3.815   0.576   5.640
 9543SOL    HW229529   3.764   0.729   5.659
 9544SOL     OW29530   6.674   2.111   3.492
 9544SOL    HW129531   6.653   2.076   3.401
 9544SOL    HW229532   6.608   2.074   3.558
 9545SOL     OW29533   5.704   5.582   4.166
 9545SOL    HW129534   5.693   5.646   4.090
 9545SOL    HW229535   5.619   5.578   4.219
 9546SOL     OW29536   3.758   2.179   5.404
 9546SOL    HW129537   3.735   2.266   5.359
 9546SOL    HW229538   3.769   2.194   5.502
 9547SOL     OW29539   2.049   6.311   4.555
 9547SOL    HW129540   2.103   6.276   4.632
 9547SOL    HW229541   1.958   6.334   4.587
 9548SOL     OW29542   6.355   5.286   6.391
 9548SOL    HW129543   6.392   5.321   6.306
 9548SOL    HW229544   6.276   5.227   6.371
 9549SOL     OW29545   2.630   2.776   1.362
 9549SOL    HW129546   2.691   2.701   1.339
 9549SOL    HW229547   2.655   2.857   1.310
 9550SOL     OW29548   0.989   1.614   0.109
 9550SOL    HW129549   1.044   1.551   0.055
 9550SOL    HW229550   0.978   1.578   0.202
 9551SOL     OW29551   5.596   1.157   4.696
 9551SOL    HW129552   5.536   1.144   4.774
 9551SOL    HW229553   5.608   1.070   4.648
 9552SOL     OW29554   1.364   6.827   3.465
 9552SOL    HW129555   1.368   6.861   3.559
 9552SOL    HW229556   1.271   6.838   3.429
 9553SOL     OW29557   6.341   3.956   6.545
 9553SOL    HW129558   6.350   3.862   6.580
 9553SOL    HW229559   6.328   4.019   6.622
 9554SOL     OW29560   1.708   0.000   1.026
 9554SOL    HW129561   1.742   0.080   0.977
 9554SOL    HW229562   1.608   7.018   1.022
 9555SOL     OW29563   1.219   0.892   2.876
 9555SOL    HW129564   1.212   0.830   2.954
 9555SOL    HW229565   1.307   0.938   2.878
 9556SOL     OW29566   1.555   2.665   2.031
 9556SOL    HW129567   1.583   2.646   2.125
 9556SOL    HW229568   1.583   2.758   2.006
 9557SOL     OW29569   0.570   0.257   2.656
 9557SOL    HW129570   0.615   0.337   2.695
 9557SOL    HW229571   0.505   0.220   2.723
 9558SOL     OW29572   6.152   6.645   4.609
 9558SOL    HW129573   6.189   6.575   4.669
 9558SOL    HW229574   6.169   6.619   4.513
 9559SOL     OW29575   0.361   4.305   1.122
 9559SOL    HW129576   0.436   4.371   1.126
 9559SOL    HW229577   0.397   4.213   1.140
 9560SOL     OW29578   1.394   2.005   3.415
 9560SOL    HW129579   1.399   2.104   3.402
 9560SOL    HW229580   1.347   1.985   3.501
 9561SOL     OW29581   1.783   6.799   0.319
 9561SOL    HW129582   1.846   6.750   0.258
 9561SOL    HW229583   1.815   6.893   0.331
 9562SOL     OW29584   3.227   0.208   5.788
 9562SOL    HW129585   3.246   0.241   5.880
 9562SOL    HW229586   3.249   0.110   5.783
 9563SOL     OW29587   6.116   0.077   0.852
 9563SOL    HW129588   6.178   0.000   0.840
 9563SOL    HW229589   6.043   0.051   0.915
 9564SOL     OW29590   2.935   0.089   6.909
 9564SOL    HW129591   2.929   0.027   6.986
 9564SOL    HW229592   2.856   0.077   6.849
 9565SOL     OW29593   4.108   6.690   4.514
 9565SOL    HW129594   4.026   6.672   4.459
 9565SOL    HW229595   4.082   6.694   4.610
 9566SOL     OW29596   1.625   5.250   0.147
 9566SOL    HW129597   1.667   5.336   0.118
 9566SOL    HW229598   1.527   5.265   0.164
 9567SOL     OW29599   5.588   4.566   6.747
 9567SOL    HW129600   5.608   4.569   6.649
 9567SOL    HW229601   5.509   4.508   6.764
 9568SOL     OW29602   4.850   2.366   6.385
 9568SOL    HW129603   4.818   2.272   6.398
 9568SOL    HW229604   4.787   2.415   6.324
 9569SOL     OW29605   0.562   1.485   3.204
 9569SOL    HW129606   0.541   1.473   3.301
 9569SOL    HW229607   0.661   1.479   3.191
 9570SOL     OW29608   0.897   3.270   2.263
 9570SOL    HW129609   0.977   3.325   2.239
 9570SOL    HW229610   0.856   3.232   2.180
 9571SOL     OW29611   3.060   3.904   6.959
 9571SOL    HW129612   2.981   3.850   6.928
 9571SOL    HW229613   3.032   3.964   0.017
 9572SOL     OW29614   1.859   5.508   1.955
 9572SOL    HW129615   1.901   5.472   1.871
 9572SOL    HW229616   1.817   5.597   1.935
 9573SOL     OW29617   1.013   1.130   6.556
 9573SOL    HW129618   0.918   1.106   6.573
 9573SOL    HW229619   1.067   1.046   6.547
 9574SOL     OW29620   4.049   3.374   4.207
 9574SOL    HW129621   4.014   3.281   4.213
 9574SOL    HW229622   4.086   3.402   4.296
 9575SOL     OW29623   6.490   1.166   1.501
 9575SOL    HW129624   6.426   1.201   1.432
 9575SOL    HW229625   6.440   1.109   1.566
 9576SOL     OW29626   2.343   0.372   2.079
 9576SOL    HW129627   2.320   0.418   2.165
 9576SOL    HW229628   2.327   0.274   2.088
 9577SOL     OW29629   1.312   0.476   4.871
 9577SOL    HW129630   1.357   0.529   4.799
 9577SOL    HW229631   1.364   0.394   4.891
 9578SOL     OW29632   0.740   3.707   3.474
 9578SOL    HW129633   0.769   3.748   3.561
 9578SOL    HW229634   0.673   3.767   3.430
 9579SOL     OW29635   1.766   5.078   2.732
 9579SOL    HW129636   1.794   5.157   2.678
 9579SOL    HW229637   1.751   4.999   2.672
 9580SOL     OW29638   3.869   3.157   0.901
 9580SOL    HW129639   3.918   3.072   0.920
 9580SOL    HW229640   3.885   3.184   0.806
 9581SOL     OW29641   0.690   5.222   6.506
 9581SOL    HW129642   0.618   5.289   6.522
 9581SOL    HW229643   0.732   5.237   6.416
 9582SOL     OW29644   4.805   5.016   5.123
 9582SOL    HW129645   4.852   5.085   5.178
 9582SOL    HW229646   4.763   4.948   5.183
 9583SOL     OW29647   3.976   4.664   1.317
 9583SOL    HW129648   4.025   4.579   1.296
 9583SOL    HW229649   3.878   4.645   1.323
 9584SOL     OW29650   6.506   6.507   6.967
 9584SOL    HW129651   6.515   6.421   6.918
 9584SOL    HW229652   6.455   6.492   0.034
 9585SOL     OW29653   5.965   6.941   4.269
 9585SOL    HW129654   6.007   6.962   4.181
 9585SOL    HW229655   5.898   7.012   4.292
 9586SOL     OW29656   5.687   4.145   2.505
 9586SOL    HW129657   5.680   4.051   2.538
 9586SOL    HW229658   5.756   4.150   2.433
 9587SOL     OW29659   6.976   1.277   2.215
 9587SOL    HW129660   6.905   1.208   2.203
 9587SOL    HW229661   0.006   1.262   2.302
 9588SOL     OW29662   0.674   1.725   2.557
 9588SOL    HW129663   0.631   1.672   2.630
 9588SOL    HW229664   0.774   1.721   2.567
 9589SOL     OW29665   2.343   5.342   5.682
 9589SOL    HW129666   2.263   5.401   5.672
 9589SOL    HW229667   2.318   5.248   5.658
 9590SOL     OW29668   0.394   3.866   2.235
 9590SOL    HW129669   0.434   3.783   2.275
 9590SOL    HW229670   0.415   3.944   2.293
 9591SOL     OW29671   2.947   6.075   6.782
 9591SOL    HW129672   2.922   6.112   6.872
 9591SOL    HW229673   2.943   6.148   6.714
 9592SOL     OW29674   3.697   4.109   1.303
 9592SOL    HW129675   3.770   4.105   1.235
 9592SOL    HW229676   3.608   4.116   1.256
 9593SOL     OW29677   6.477   6.950   4.606
 9593SOL    HW129678   6.516   6.865   4.641
 9593SOL    HW229679   6.386   6.932   4.569
 9594SOL     OW29680   1.356   6.370   2.816
 9594SOL    HW129681   1.436   6.427   2.832
 9594SOL    HW229682   1.300   6.410   2.743
 9595SOL     OW29683   2.066   4.395   5.156
 9595SOL    HW129684   2.074   4.438   5.066
 9595SOL    HW229685   2.136   4.431   5.217
 9596SOL     OW29686   0.029   6.106   0.485
 9596SOL    HW129687   0.020   6.046   0.564
 9596SOL    HW229688   7.008   6.061   0.405
 9597SOL     OW29689   0.455   4.906   0.751
 9597SOL    HW129690   0.365   4.947   0.738
 9597SOL    HW229691   0.526   4.967   0.715
 9598SOL     OW29692   1.004   3.802   4.987
 9598SOL    HW129693   1.083   3.863   4.998
 9598SOL    HW229694   1.002   3.766   4.894
 9599SOL     OW29695   3.597   0.508   5.439
 9599SOL    HW129696   3.646   0.531   5.354
 9599SOL    HW229697   3.644   0.550   5.517
 9600SOL     OW29698   2.726   0.241   0.368
 9600SOL    HW129699   2.778   0.171   0.319
 9600SOL    HW229700   2.660   0.198   0.429
 9601SOL     OW29701   6.624   3.875   0.459
 9601SOL    HW129702   6.540   3.929   0.452
 9601SOL    HW229703   6.601   3.778   0.450
 9602SOL     OW29704   6.754   4.741   6.641
 9602SOL    HW129705   6.822   4.669   6.629
 9602SOL    HW229706   6.751   4.768   6.738
 9603SOL     OW29707   3.368   1.103   5.274
 9603SOL    HW129708   3.344   1.028   5.336
 9603SOL    HW229709   3.364   1.069   5.179
 9604SOL     OW29710   4.719   0.494   0.500
 9604SOL    HW129711   4.811   0.522   0.471
 9604SOL    HW229712   4.680   0.432   0.433
 9605SOL     OW29713   0.942   4.957   4.538
 9605SOL    HW129714   1.042   4.960   4.546
 9605SOL    HW229715   0.909   4.867   4.567
 9606SOL     OW29716   1.438   6.115   5.684
 9606SOL    HW129717   1.489   6.147   5.604
 9606SOL    HW229718   1.487   6.039   5.726
 9607SOL     OW29719   1.773   2.363   1.757
 9607SOL    HW129720   1.760   2.354   1.855
 9607SOL    HW229721   1.812   2.279   1.720
 9608SOL     OW29722   6.603   6.810   1.915
 9608SOL    HW129723   6.664   6.831   1.991
 9608SOL    HW229724   6.647   6.834   1.829
 9609SOL     OW29725   2.373   3.545   6.466
 9609SOL    HW129726   2.442   3.485   6.425
 9609SOL    HW229727   2.291   3.545   6.407
 9610SOL     OW29728   1.730   4.764   4.088
 9610SOL    HW129729   1.810   4.801   4.134
 9610SOL    HW229730   1.701   4.681   4.134
 9611SOL     OW29731   0.343   0.299   6.924
 9611SOL    HW129732   0.383   0.278   7.013
 9611SOL    HW229733   0.313   0.214   6.880
 9612SOL     OW29734   6.875   3.372   1.795
 9612SOL    HW129735   6.929   3.418   1.865
 9612SOL    HW229736   6.783   3.354   1.830
 9613SOL     OW29737   3.958   6.720   3.101
 9613SOL    HW129738   3.880   6.656   3.098
 9613SOL    HW229739   3.975   6.755   3.009
 9614SOL     OW29740   3.985   2.866   0.936
 9614SOL    HW129741   3.978   2.789   0.872
 9614SOL    HW229742   4.077   2.904   0.932
 9615SOL     OW29743   0.905   6.844   1.943
 9615SOL    HW129744   0.836   6.805   1.881
 9615SOL    HW229745   0.893   6.805   2.034
 9616SOL     OW29746   4.690   3.403   0.909
 9616SOL    HW129747   4.624   3.402   0.833
 9616SOL    HW229748   4.670   3.481   0.969
 9617SOL     OW29749   1.019   3.817   4.372
 9617SOL    HW129750   1.106   3.855   4.340
 9617SOL    HW229751   0.974   3.882   4.433
 9618SOL     OW29752   4.211   0.187   6.107
 9618SOL    HW129753   4.306   0.209   6.131
 9618SOL    HW229754   4.160   0.272   6.094
 9619SOL     OW29755   1.153   0.213   0.322
 9619SOL    HW129756   1.087   0.256   0.260
 9619SOL    HW229757   1.155   0.114   0.305
 9620SOL     OW29758   5.761   1.423   6.799
 9620SOL    HW129759   5.675   1.467   6.774
 9620SOL    HW229760   5.817   1.487   6.852
 9621SOL     OW29761   1.395   1.379   3.234
 9621SOL    HW129762   1.352   1.458   3.190
 9621SOL    HW229763   1.422   1.404   3.327
 9622SOL     OW29764   5.573   1.077   6.902
 9622SOL    HW129765   5.575   1.116   6.993
 9622SOL    HW229766   5.517   0.994   6.902
 9623SOL     OW29767   3.732   5.161   5.440
 9623SOL    HW129768   3.640   5.198   5.426
 9623SOL    HW229769   3.797   5.207   5.380
 9624SOL     OW29770   6.097   4.171   3.756
 9624SOL    HW129771   6.070   4.154   3.851
 9624SOL    HW229772   6.058   4.099   3.698
 9625SOL     OW29773   5.288   4.954   6.869
 9625SOL    HW129774   5.223   4.903   6.925
 9625SOL    HW229775   5.270   5.052   6.877
 9626SOL     OW29776   2.379   6.126   6.058
 9626SOL    HW129777   2.371   6.193   5.984
 9626SOL    HW229778   2.354   6.170   6.144
 9627SOL     OW29779   6.860   4.421   4.516
 9627SOL    HW129780   6.835   4.384   4.427
 9627SOL    HW229781   6.814   4.509   4.529
 9628SOL     OW29782   6.144   4.361   0.450
 9628SOL    HW129783   6.200   4.417   0.388
 9628SOL    HW229784   6.049   4.363   0.420
 9629SOL     OW29785   6.650   6.368   2.632
 9629SOL    HW129786   6.572   6.342   2.575
 9629SOL    HW229787   6.702   6.286   2.656
 9630SOL     OW29788   6.782   6.107   5.103
 9630SOL    HW129789   6.726   6.044   5.050
 9630SOL    HW229790   6.725   6.157   5.168
 9631SOL     OW29791   5.252   1.348   0.247
 9631SOL    HW129792   5.301   1.313   0.326
 9631SOL    HW229793   5.194   1.276   0.208
 9632SOL     OW29794   2.361   5.509   1.505
 9632SOL    HW129795   2.300   5.588   1.507
 9632SOL    HW229796   2.453   5.537   1.533
 9633SOL     OW29797   3.669   4.257   0.372
 9633SOL    HW129798   3.661   4.263   0.471
 9633SOL    HW229799   3.578   4.251   0.331
 9634SOL     OW29800   6.903   6.480   3.960
 9634SOL    HW129801   6.873   6.414   4.030
 9634SOL    HW229802   6.906   6.571   4.000
 9635SOL     OW29803   2.249   4.474   5.392
 9635SOL    HW129804   2.232   4.476   5.490
 9635SOL    HW229805   2.275   4.381   5.364
 9636SOL     OW29806   4.686   1.879   6.398
 9636SOL    HW129807   4.608   1.941   6.395
 9636SOL    HW229808   4.770   1.933   6.409
 9637SOL     OW29809   3.559   2.222   0.167
 9637SOL    HW129810   3.626   2.193   0.236
 9637SOL    HW229811   3.596   2.203   0.076
 9638SOL     OW29812   0.205   3.060   5.790
 9638SOL    HW129813   0.264   2.979   5.797
 9638SOL    HW229814   0.146   3.050   5.709
 9639SOL     OW29815   4.257   2.013   2.346
 9639SOL    HW129816   4.294   1.995   2.437
 9639SOL    HW229817   4.238   2.110   2.335
 9640SOL     OW29818   3.335   0.709   2.883
 9640SOL    HW129819   3.403   0.662   2.939
 9640SOL    HW229820   3.330   0.666   2.793
 9641SOL     OW29821   5.423   5.520   1.415
 9641SOL    HW129822   5.407   5.591   1.483
 9641SOL    HW229823   5.425   5.431   1.461
 9642SOL     OW29824   1.830   5.524   4.335
 9642SOL    HW129825   1.734   5.497   4.331
 9642SOL    HW229826   1.853   5.575   4.252
 9643SOL     OW29827   5.520   4.339   3.517
 9643SOL    HW129828   5.615   4.367   3.531
 9643SOL    HW229829   5.487   4.376   3.430
 9644SOL     OW29830   0.764   5.408   5.339
 9644SOL    HW129831   0.689   5.458   5.295
 9644SOL    HW229832   0.801   5.341   5.275
 9645SOL     OW29833   2.949   4.800   4.428
 9645SOL    HW129834   2.924   4.716   4.476
 9645SOL    HW229835   2.871   4.833   4.376
 9646SOL     OW29836   2.347   4.745   2.050
 9646SOL    HW129837   2.290   4.667   2.075
 9646SOL    HW229838   2.423   4.714   1.992
 9647SOL     OW29839   0.231   6.142   2.715
 9647SOL    HW129840   0.294   6.121   2.640
 9647SOL    HW229841   0.281   6.187   2.789
 9648SOL     OW29842   3.885   2.270   6.923
 9648SOL    HW129843   3.960   2.271   6.857
 9648SOL    HW229844   3.922   2.273   7.016
 9649SOL     OW29845   1.880   4.609   6.784
 9649SOL    HW129846   1.835   4.613   6.695
 9649SOL    HW229847   1.958   4.547   6.780
 9650SOL     OW29848   4.632   4.683   3.308
 9650SOL    HW129849   4.695   4.721   3.376
 9650SOL    HW229850   4.616   4.586   3.328
 9651SOL     OW29851   5.103   1.492   0.945
 9651SOL    HW129852   5.197   1.459   0.958
 9651SOL    HW229853   5.106   1.583   0.902
 9652SOL     OW29854   1.202   4.842   1.664
 9652SOL    HW129855   1.297   4.872   1.663
 9652SOL    HW229856   1.142   4.921   1.651
 9653SOL     OW29857   4.945   5.365   5.028
 9653SOL    HW129858   5.012   5.302   5.067
 9653SOL    HW229859   4.987   5.453   5.011
 9654SOL     OW29860   3.450   3.302   2.848
 9654SOL    HW129861   3.539   3.257   2.859
 9654SOL    HW229862   3.378   3.240   2.880
 9655SOL     OW29863   0.357   1.690   0.358
 9655SOL    HW129864   0.365   1.600   0.402
 9655SOL    HW229865   0.439   1.744   0.378
 9656SOL     OW29866   4.203   2.121   0.897
 9656SOL    HW129867   4.294   2.130   0.937
 9656SOL    HW229868   4.203   2.047   0.829
 9657SOL     OW29869   5.776   3.229   2.985
 9657SOL    HW129870   5.770   3.327   3.006
 9657SOL    HW229871   5.691   3.200   2.941
 9658SOL     OW29872   5.369   2.029   2.544
 9658SOL    HW129873   5.448   2.037   2.483
 9658SOL    HW229874   5.348   1.933   2.559
 9659SOL     OW29875   0.244   3.424   0.613
 9659SOL    HW129876   0.336   3.426   0.576
 9659SOL    HW229877   0.204   3.334   0.599
 9660SOL     OW29878   0.736   6.927   2.748
 9660SOL    HW129879   0.643   6.941   2.713
 9660SOL    HW229880   0.771   6.840   2.714
 9661SOL     OW29881   3.755   5.993   1.177
 9661SOL    HW129882   3.739   5.986   1.078
 9661SOL    HW229883   3.831   5.933   1.203
 9662SOL     OW29884   3.898   3.225   5.623
 9662SOL    HW129885   3.906   3.162   5.545
 9662SOL    HW229886   3.976   3.288   5.622
 9663SOL     OW29887   6.394   6.432   2.207
 9663SOL    HW129888   6.430   6.463   2.118
 9663SOL    HW229889   6.318   6.491   2.234
 9664SOL     OW29890   5.851   5.719   4.759
 9664SOL    HW129891   5.837   5.677   4.670
 9664SOL    HW229892   5.938   5.688   4.798
 9665SOL     OW29893   6.014   5.827   6.507
 9665SOL    HW129894   6.006   5.927   6.501
 9665SOL    HW229895   6.106   5.803   6.538
 9666SOL     OW29896   6.573   3.774   2.150
 9666SOL    HW129897   6.662   3.799   2.113
 9666SOL    HW229898   6.585   3.721   2.234
 9667SOL     OW29899   4.374   3.070   6.453
 9667SOL    HW129900   4.314   3.142   6.420
 9667SOL    HW229901   4.337   3.031   6.538
 9668SOL     OW29902   6.887   0.644   6.179
 9668SOL    HW129903   6.889   0.581   6.100
 9668SOL    HW229904   6.856   0.594   6.260
 9669SOL     OW29905   2.039   6.747   2.158
 9669SOL    HW129906   2.045   6.647   2.163
 9669SOL    HW229907   2.001   6.773   2.069
 9670SOL     OW29908   6.762   5.050   5.885
 9670SOL    HW129909   6.671   5.026   5.851
 9670SOL    HW229910   6.822   4.970   5.880
 9671SOL     OW29911   6.896   4.250   6.999
 9671SOL    HW129912   6.847   4.335   7.017
 9671SOL    HW229913   6.926   4.210   0.069
 9672SOL     OW29914   1.653   5.676   3.584
 9672SOL    HW129915   1.697   5.724   3.508
 9672SOL    HW229916   1.591   5.606   3.548
 9673SOL     OW29917   4.722   3.648   1.073
 9673SOL    HW129918   4.740   3.736   1.117
 9673SOL    HW229919   4.634   3.651   1.026
 9674SOL     OW29920   3.268   6.673   3.383
 9674SOL    HW129921   3.215   6.589   3.399
 9674SOL    HW229922   3.258   6.733   3.462
 9675SOL     OW29923   5.350   2.777   6.957
 9675SOL    HW129924   5.410   2.712   6.912
 9675SOL    HW229925   5.273   2.729   6.999
 9676SOL     OW29926   1.978   3.350   5.870
 9676SOL    HW129927   1.980   3.253   5.894
 9676SOL    HW229928   2.065   3.375   5.828
 9677SOL     OW29929   6.994   5.534   4.574
 9677SOL    HW129930   6.943   5.618   4.588
 9677SOL    HW229931   0.034   5.515   4.653
 9678SOL     OW29932   2.995   3.882   3.553
 9678SOL    HW129933   2.929   3.809   3.572
 9678SOL    HW229934   3.076   3.869   3.609
 9679SOL     OW29935   3.439   1.052   3.075
 9679SOL    HW129936   3.487   0.965   3.084
 9679SOL    HW229937   3.406   1.062   2.981
 9680SOL     OW29938   4.494   1.027   3.372
 9680SOL    HW129939   4.544   1.111   3.354
 9680SOL    HW229940   4.447   0.997   3.289
 9681SOL     OW29941   2.931   1.855   0.582
 9681SOL    HW129942   2.995   1.779   0.571
 9681SOL    HW229943   2.919   1.875   0.679
 9682SOL     OW29944   4.794   4.199   3.952
 9682SOL    HW129945   4.765   4.295   3.941
 9682SOL    HW229946   4.869   4.194   4.018
 9683SOL     OW29947   3.128   6.237   1.594
 9683SOL    HW129948   3.028   6.228   1.587
 9683SOL    HW229949   3.169   6.147   1.601
 9684SOL     OW29950   0.575   3.023   6.596
 9684SOL    HW129951   0.567   3.123   6.596
 9684SOL    HW229952   0.670   2.997   6.615
 9685SOL     OW29953   3.753   4.428   1.175
 9685SOL    HW129954   3.668   4.402   1.128
 9685SOL    HW229955   3.733   4.500   1.240
 9686SOL     OW29956   0.197   2.496   0.051
 9686SOL    HW129957   0.241   2.529   6.986
 9686SOL    HW229958   0.174   2.399   0.041
 9687SOL     OW29959   1.549   0.916   4.078
 9687SOL    HW129960   1.554   0.880   3.985
 9687SOL    HW229961   1.512   0.845   4.139
 9688SOL     OW29962   1.044   3.122   1.911
 9688SOL    HW129963   1.073   3.052   1.845
 9688SOL    HW229964   1.088   3.104   1.999
 9689SOL     OW29965   0.865   4.433   5.996
 9689SOL    HW129966   0.778   4.386   5.982
 9689SOL    HW229967   0.915   4.390   6.072
 9690SOL     OW29968   6.084   4.938   6.941
 9690SOL    HW129969   6.009   4.905   6.884
 9690SOL    HW229970   6.049   5.005   7.006
 9691SOL     OW29971   3.253   5.346   1.553
 9691SOL    HW129972   3.229   5.333   1.457
 9691SOL    HW229973   3.302   5.266   1.587
 9692SOL     OW29974   3.861   6.066   2.322
 9692SOL    HW129975   3.786   6.126   2.295
 9692SOL    HW229976   3.886   6.007   2.245
 9693SOL     OW29977   5.337   4.331   2.193
 9693SOL    HW129978   5.278   4.249   2.190
 9693SOL    HW229979   5.409   4.317   2.260
 9694SOL     OW29980   2.737   1.161   0.891
 9694SOL    HW129981   2.797   1.178   0.812
 9694SOL    HW229982   2.791   1.163   0.975
 9695SOL     OW29983   6.377   3.311   3.245
 9695SOL    HW129984   6.321   3.285   3.166
 9695SOL    HW229985   6.463   3.260   3.243
 9696SOL     OW29986   5.243   3.107   1.224
 9696SOL    HW129987   5.259   3.206   1.233
 9696SOL    HW229988   5.331   3.061   1.211
 9697SOL     OW29989   0.513   4.664   6.694
 9697SOL    HW129990   0.450   4.710   6.631
 9697SOL    HW229991   0.541   4.576   6.655
 9698SOL     OW29992   4.601   1.524   5.843
 9698SOL    HW129993   4.560   1.615   5.838
 9698SOL    HW229994   4.615   1.499   5.938
 9699SOL     OW29995   6.456   5.478   6.871
 9699SOL    HW129996   6.404   5.509   6.951
 9699SOL    HW229997   6.408   5.504   6.787
 9700SOL     OW29998   5.041   5.642   5.024
 9700SOL    HW129999   5.046   5.655   5.123
 9700SOL    HW230000   4.956   5.682   4.989
 9701SOL     OW30001   4.481   4.825   5.726
 9701SOL    HW130002   4.529   4.755   5.672
 9701SOL    HW230003   4.545   4.869   5.788
 9702SOL     OW30004   4.598   0.475   6.584
 9702SOL    HW130005   4.677   0.444   6.637
 9702SOL    HW230006   4.536   0.398   6.569
 9703SOL     OW30007   4.879   3.583   3.810
 9703SOL    HW130008   4.975   3.605   3.797
 9703SOL    HW230009   4.863   3.561   3.907
 9704SOL     OW30010   3.499   0.292   1.939
 9704SOL    HW130011   3.598   0.285   1.956
 9704SOL    HW230012   3.470   0.213   1.886
 9705SOL     OW30013   5.435   4.224   5.764
 9705SOL    HW130014   5.345   4.189   5.736
 9705SOL    HW230015   5.505   4.191   5.701
 9706SOL     OW30016   1.783   3.586   0.647
 9706SOL    HW130017   1.826   3.666   0.605
 9706SOL    HW230018   1.702   3.615   0.698
 9707SOL     OW30019   6.150   4.827   2.182
 9707SOL    HW130020   6.107   4.906   2.227
 9707SOL    HW230021   6.248   4.844   2.172
 9708SOL     OW30022   1.586   1.915   4.366
 9708SOL    HW130023   1.537   1.944   4.448
 9708SOL    HW230024   1.682   1.895   4.391
 9709SOL     OW30025   5.089   6.230   3.150
 9709SOL    HW130026   5.156   6.242   3.223
 9709SOL    HW230027   5.089   6.310   3.091
 9710SOL     OW30028   0.175   1.666   0.997
 9710SOL    HW130029   0.094   1.715   1.028
 9710SOL    HW230030   0.236   1.650   1.075
 9711SOL     OW30031   3.070   5.661   6.355
 9711SOL    HW130032   3.114   5.689   6.440
 9711SOL    HW230033   3.080   5.563   6.342
 9712SOL     OW30034   5.527   4.003   6.635
 9712SOL    HW130035   5.572   3.916   6.657
 9712SOL    HW230036   5.431   3.999   6.662
 9713SOL     OW30037   1.433   4.853   3.066
 9713SOL    HW130038   1.345   4.886   3.100
 9713SOL    HW230039   1.432   4.851   2.966
 9714SOL     OW30040   4.347   6.218   6.149
 9714SOL    HW130041   4.273   6.285   6.141
 9714SOL    HW230042   4.341   6.152   6.074
 9715SOL     OW30043   5.656   4.246   6.443
 9715SOL    HW130044   5.635   4.169   6.504
 9715SOL    HW230045   5.687   4.211   6.355
 9716SOL     OW30046   3.786   4.715   6.929
 9716SOL    HW130047   3.739   4.627   6.920
 9716SOL    HW230048   3.721   4.789   6.907
 9717SOL     OW30049   5.826   5.829   6.084
 9717SOL    HW130050   5.925   5.817   6.075
 9717SOL    HW230051   5.781   5.740   6.073
 9718SOL     OW30052   4.591   3.281   0.029
 9718SOL    HW130053   4.603   3.376   0.058
 9718SOL    HW230054   4.605   3.221   0.108
 9719SOL     OW30055   6.395   1.044   5.519
 9719SOL    HW130056   6.440   1.126   5.554
 9719SOL    HW230057   6.392   0.974   5.590
 9720SOL     OW30058   0.170   5.062   2.124
 9720SOL    HW130059   0.235   4.990   2.149
 9720SOL    HW230060   0.134   5.104   2.207
 9721SOL     OW30061   0.174   2.025   0.227
 9721SOL    HW130062   0.159   1.927   0.231
 9721SOL    HW230063   0.253   2.050   0.284
 9722SOL     OW30064   4.809   0.715   4.164
 9722SOL    HW130065   4.882   0.649   4.149
 9722SOL    HW230066   4.722   0.675   4.135
 9723SOL     OW30067   2.969   6.798   2.785
 9723SOL    HW130068   2.895   6.853   2.747
 9723SOL    HW230069   2.972   6.809   2.884
 9724SOL     OW30070   1.477   4.261   0.338
 9724SOL    HW130071   1.526   4.227   0.258
 9724SOL    HW230072   1.379   4.254   0.323
 9725SOL     OW30073   4.623   4.869   6.254
 9725SOL    HW130074   4.708   4.825   6.283
 9725SOL    HW230075   4.617   4.960   6.295
 9726SOL     OW30076   5.332   1.374   4.055
 9726SOL    HW130077   5.312   1.369   4.153
 9726SOL    HW230078   5.347   1.281   4.019
 9727SOL     OW30079   1.269   2.824   6.727
 9727SOL    HW130080   1.358   2.779   6.722
 9727SOL    HW230081   1.200   2.769   6.681
 9728SOL     OW30082   0.979   0.493   5.549
 9728SOL    HW130083   0.923   0.429   5.602
 9728SOL    HW230084   1.022   0.444   5.472
 9729SOL     OW30085   0.945   4.245   3.173
 9729SOL    HW130086   0.933   4.230   3.271
 9729SOL    HW230087   0.963   4.157   3.128
 9730SOL     OW30088   1.246   3.792   3.647
 9730SOL    HW130089   1.337   3.783   3.607
 9730SOL    HW230090   1.247   3.862   3.718
 9731SOL     OW30091   4.876   4.502   0.825
 9731SOL    HW130092   4.852   4.406   0.834
 9731SOL    HW230093   4.803   4.559   0.862
 9732SOL     OW30094   6.717   5.402   2.754
 9732SOL    HW130095   6.642   5.455   2.714
 9732SOL    HW230096   6.790   5.391   2.687
 9733SOL     OW30097   5.725   5.110   0.376
 9733SOL    HW130098   5.652   5.109   0.308
 9733SOL    HW230099   5.811   5.084   0.333
 9734SOL     OW30100   6.534   1.798   1.321
 9734SOL    HW130101   6.629   1.773   1.304
 9734SOL    HW230102   6.500   1.746   1.400
 9735SOL     OW30103   2.034   3.521   3.856
 9735SOL    HW130104   2.058   3.427   3.880
 9735SOL    HW230105   1.945   3.522   3.812
 9736SOL     OW30106   6.254   1.887   6.590
 9736SOL    HW130107   6.332   1.906   6.651
 9736SOL    HW230108   6.273   1.806   6.536
 9737SOL     OW30109   5.233   3.451   3.622
 9737SOL    HW130110   5.331   3.467   3.619
 9737SOL    HW230111   5.203   3.405   3.538
 9738SOL     OW30112   1.890   0.750   0.646
 9738SOL    HW130113   1.847   0.766   0.734
 9738SOL    HW230114   1.985   0.720   0.660
 9739SOL     OW30115   5.779   5.419   1.570
 9739SOL    HW130116   5.772   5.461   1.480
 9739SOL    HW230117   5.848   5.468   1.624
 9740SOL     OW30118   6.967   1.594   3.532
 9740SOL    HW130119   6.875   1.594   3.493
 9740SOL    HW230120   0.008   1.654   3.477
 9741SOL     OW30121   4.036   1.235   2.693
 9741SOL    HW130122   3.976   1.300   2.647
 9741SOL    HW230123   4.027   1.245   2.792
 9742SOL     OW30124   4.098   1.070   0.717
 9742SOL    HW130125   4.156   1.060   0.798
 9742SOL    HW230126   4.140   1.024   0.639
 9743SOL     OW30127   0.208   3.031   4.535
 9743SOL    HW130128   0.234   3.064   4.626
 9743SOL    HW230129   0.170   3.107   4.482
 9744SOL     OW30130   1.690   6.781   2.468
 9744SOL    HW130131   1.710   6.685   2.445
 9744SOL    HW230132   1.716   6.840   2.392
 9745SOL     OW30133   5.184   2.909   6.434
 9745SOL    HW130134   5.273   2.911   6.389
 9745SOL    HW230135   5.194   2.875   6.527
 9746SOL     OW30136   6.590   0.013   5.403
 9746SOL    HW130137   6.500   6.990   5.418
 9746SOL    HW230138   6.580   0.095   5.347
 9747SOL     OW30139   2.635   1.013   1.614
 9747SOL    HW130140   2.603   1.072   1.688
 9747SOL    HW230141   2.734   0.998   1.625
 9748SOL     OW30142   7.015   0.761   3.391
 9748SOL    HW130143   6.918   0.739   3.396
 9748SOL    HW230144   0.023   0.815   3.470
 9749SOL     OW30145   2.437   0.040   4.327
 9749SOL    HW130146   2.524   0.066   4.369
 9749SOL    HW230147   2.433   6.958   4.318
 9750SOL     OW30148   5.499   4.186   2.865
 9750SOL    HW130149   5.500   4.286   2.861
 9750SOL    HW230150   5.586   4.153   2.902
 9751SOL     OW30151   1.519   0.945   0.592
 9751SOL    HW130152   1.481   0.988   0.674
 9751SOL    HW230153   1.457   0.957   0.515
 9752SOL     OW30154   4.559   2.045   5.150
 9752SOL    HW130155   4.638   2.075   5.095
 9752SOL    HW230156   4.476   2.085   5.112
 9753SOL     OW30157   6.430   5.745   6.326
 9753SOL    HW130158   6.427   5.841   6.356
 9753SOL    HW230159   6.436   5.742   6.226
 9754SOL     OW30160   1.871   1.255   0.146
 9754SOL    HW130161   1.773   1.268   0.130
 9754SOL    HW230162   1.914   1.222   0.063
 9755SOL     OW30163   3.198   3.739   4.415
 9755SOL    HW130164   3.199   3.678   4.336
 9755SOL    HW230165   3.119   3.717   4.473
 9756SOL     OW30166   6.192   3.507   0.326
 9756SOL    HW130167   6.271   3.503   0.388
 9756SOL    HW230168   6.168   3.602   0.309
 9757SOL     OW30169   5.555   3.771   3.854
 9757SOL    HW130170   5.512   3.781   3.944
 9757SOL    HW230171   5.527   3.684   3.814
 9758SOL     OW30172   2.461   6.885   6.968
 9758SOL    HW130173   2.455   6.787   6.982
 9758SOL    HW230174   2.529   6.924   0.012
 9759SOL     OW30175   1.380   0.308   0.472
 9759SOL    HW130176   1.292   0.279   0.435
 9759SOL    HW230177   1.423   0.374   0.410
 9760SOL     OW30178   4.795   2.862   5.148
 9760SOL    HW130179   4.717   2.876   5.209
 9760SOL    HW230180   4.846   2.781   5.177
 9761SOL     OW30181   6.824   1.567   2.498
 9761SOL    HW130182   6.748   1.515   2.459
 9761SOL    HW230183   6.788   1.645   2.550
 9762SOL     OW30184   3.396   1.250   4.177
 9762SOL    HW130185   3.380   1.346   4.153
 9762SOL    HW230186   3.488   1.241   4.217
 9763SOL     OW30187   5.150   1.568   2.111
 9763SOL    HW130188   5.068   1.616   2.079
 9763SOL    HW230189   5.124   1.485   2.159
 9764SOL     OW30190   0.315   2.941   3.437
 9764SOL    HW130191   0.284   2.962   3.345
 9764SOL    HW230192   0.370   3.018   3.472
 9765SOL     OW30193   6.910   0.079   3.497
 9765SOL    HW130194   6.959   0.006   3.449
 9765SOL    HW230195   6.846   0.123   3.434
 9766SOL     OW30196   3.235   6.989   2.136
 9766SOL    HW130197   3.327   7.011   2.169
 9766SOL    HW230198   3.172   0.044   2.163
 9767SOL     OW30199   4.578   0.525   4.579
 9767SOL    HW130200   4.551   0.609   4.626
 9767SOL    HW230201   4.498   0.485   4.534
 9768SOL     OW30202   6.295   1.235   2.388
 9768SOL    HW130203   6.228   1.193   2.449
 9768SOL    HW230204   6.319   1.326   2.423
 9769SOL     OW30205   4.037   1.179   3.286
 9769SOL    HW130206   3.972   1.126   3.339
 9769SOL    HW230207   4.042   1.142   3.193
 9770SOL     OW30208   5.038   0.743   6.337
 9770SOL    HW130209   5.044   0.743   6.237
 9770SOL    HW230210   5.002   0.831   6.368
 9771SOL     OW30211   2.592   6.099   0.336
 9771SOL    HW130212   2.524   6.054   0.278
 9771SOL    HW230213   2.573   6.197   0.340
 9772SOL     OW30214   2.051   6.143   2.126
 9772SOL    HW130215   1.990   6.153   2.205
 9772SOL    HW230216   2.093   6.052   2.129
 9773SOL     OW30217   5.170   5.662   3.674
 9773SOL    HW130218   5.143   5.739   3.731
 9773SOL    HW230219   5.099   5.591   3.678
 9774SOL     OW30220   0.223   4.663   2.068
 9774SOL    HW130221   0.259   4.707   2.150
 9774SOL    HW230222   0.252   4.715   1.987
 9775SOL     OW30223   2.729   0.263   3.143
 9775SOL    HW130224   2.645   0.209   3.146
 9775SOL    HW230225   2.724   0.336   3.211
 9776SOL     OW30226   1.802   4.176   4.760
 9776SOL    HW130227   1.868   4.117   4.713
 9776SOL    HW230228   1.769   4.130   4.842
 9777SOL     OW30229   6.691   6.053   0.279
 9777SOL    HW130230   6.728   6.140   0.246
 9777SOL    HW230231   6.650   6.066   0.369
 9778SOL     OW30232   0.099   1.151   4.000
 9778SOL    HW130233   0.036   1.190   4.067
 9778SOL    HW230234   0.170   1.099   4.047
 9779SOL     OW30235   1.292   1.388   4.494
 9779SOL    HW130236   1.195   1.386   4.469
 9779SOL    HW230237   1.343   1.437   4.424
 9780SOL     OW30238   2.571   2.111   1.368
 9780SOL    HW130239   2.657   2.161   1.361
 9780SOL    HW230240   2.586   2.015   1.345
 9781SOL     OW30241   2.021   3.729   4.073
 9781SOL    HW130242   2.097   3.793   4.088
 9781SOL    HW230243   2.044   3.666   3.999
 9782SOL     OW30244   6.898   1.349   1.107
 9782SOL    HW130245   6.937   1.405   1.035
 9782SOL    HW230246   6.944   1.260   1.109
 9783SOL     OW30247   4.309   2.197   3.195
 9783SOL    HW130248   4.406   2.223   3.198
 9783SOL    HW230249   4.266   2.220   3.282
 9784SOL     OW30250   3.898   1.634   4.475
 9784SOL    HW130251   3.865   1.719   4.514
 9784SOL    HW230252   3.975   1.600   4.529
 9785SOL     OW30253   0.851   2.932   6.296
 9785SOL    HW130254   0.946   2.910   6.319
 9785SOL    HW230255   0.793   2.853   6.314
 9786SOL     OW30256   2.238   4.557   0.232
 9786SOL    HW130257   2.195   4.553   0.142
 9786SOL    HW230258   2.172   4.592   0.299
 9787SOL     OW30259   4.552   4.094   1.628
 9787SOL    HW130260   4.466   4.088   1.577
 9787SOL    HW230261   4.535   4.129   1.719
 9788SOL     OW30262   0.464   1.117   3.850
 9788SOL    HW130263   0.454   1.018   3.861
 9788SOL    HW230264   0.548   1.148   3.893
 9789SOL     OW30265   0.927   5.602   0.801
 9789SOL    HW130266   0.980   5.637   0.878
 9789SOL    HW230267   0.961   5.641   0.716
 9790SOL     OW30268   6.335   4.490   6.902
 9790SOL    HW130269   6.285   4.575   6.892
 9790SOL    HW230270   6.296   4.437   6.978
 9791SOL     OW30271   1.163   1.673   2.385
 9791SOL    HW130272   1.242   1.614   2.398
 9791SOL    HW230273   1.153   1.696   2.288
 9792SOL     OW30274   4.337   4.887   0.829
 9792SOL    HW130275   4.405   4.899   0.901
 9792SOL    HW230276   4.258   4.946   0.847
 9793SOL     OW30277   4.486   6.540   2.838
 9793SOL    HW130278   4.566   6.564   2.894
 9793SOL    HW230279   4.431   6.472   2.886
 9794SOL     OW30280   0.067   4.692   1.028
 9794SOL    HW130281   0.146   4.738   1.068
 9794SOL    HW230282   0.083   4.594   1.026
 9795SOL     OW30283   2.241   1.724   4.525
 9795SOL    HW130284   2.274   1.741   4.433
 9795SOL    HW230285   2.312   1.678   4.579
 9796SOL     OW30286   3.739   2.461   1.485
 9796SOL    HW130287   3.839   2.458   1.486
 9796SOL    HW230288   3.707   2.506   1.568
 9797SOL     OW30289   2.424   5.685   6.592
 9797SOL    HW130290   2.385   5.740   6.665
 9797SOL    HW230291   2.454   5.597   6.629
 9798SOL     OW30292   3.068   0.705   2.137
 9798SOL    HW130293   2.993   0.755   2.093
 9798SOL    HW230294   3.123   0.769   2.191
 9799SOL     OW30295   3.592   2.866   4.447
 9799SOL    HW130296   3.512   2.832   4.497
 9799SOL    HW230297   3.642   2.931   4.504
 9800SOL     OW30298   3.964   6.232   4.716
 9800SOL    HW130299   4.009   6.292   4.782
 9800SOL    HW230300   3.916   6.159   4.765
 9801SOL     OW30301   4.739   4.064   6.525
 9801SOL    HW130302   4.692   3.984   6.489
 9801SOL    HW230303   4.672   4.136   6.544
 9802SOL     OW30304   0.106   3.607   1.110
 9802SOL    HW130305   0.066   3.522   1.144
 9802SOL    HW230306   0.164   3.587   1.031
 9803SOL     OW30307   0.890   2.008   6.869
 9803SOL    HW130308   0.848   2.099   6.867
 9803SOL    HW230309   0.987   2.017   6.846
 9804SOL     OW30310   1.653   6.964   2.690
 9804SOL    HW130311   1.569   6.992   2.737
 9804SOL    HW230312   1.640   6.872   2.652
 9805SOL     OW30313   1.543   6.903   4.706
 9805SOL    HW130314   1.519   6.806   4.699
 9805SOL    HW230315   1.470   6.952   4.754
 9806SOL     OW30316   1.295   1.002   0.460
 9806SOL    HW130317   1.316   1.098   0.479
 9806SOL    HW230318   1.204   0.981   0.496
 9807SOL     OW30319   2.698   4.375   0.564
 9807SOL    HW130320   2.739   4.344   0.478
 9807SOL    HW230321   2.620   4.435   0.544
 9808SOL     OW30322   4.223   0.010   5.148
 9808SOL    HW130323   4.182   6.951   5.100
 9808SOL    HW230324   4.271   6.995   5.229
 9809SOL     OW30325   0.692   2.725   6.703
 9809SOL    HW130326   0.635   2.712   6.621
 9809SOL    HW230327   0.750   2.645   6.716
 9810SOL     OW30328   2.150   2.893   3.600
 9810SOL    HW130329   2.096   2.809   3.606
 9810SOL    HW230330   2.100   2.960   3.545
 9811SOL     OW30331   5.393   4.711   3.563
 9811SOL    HW130332   5.379   4.710   3.464
 9811SOL    HW230333   5.487   4.738   3.583
 9812SOL     OW30334   3.565   2.314   5.975
 9812SOL    HW130335   3.571   2.384   5.904
 9812SOL    HW230336   3.588   2.225   5.935
 9813SOL     OW30337   5.675   1.164   0.671
 9813SOL    HW130338   5.751   1.196   0.615
 9813SOL    HW230339   5.626   1.243   0.709
 9814SOL     OW30340   0.028   0.364   6.983
 9814SOL    HW130341   7.005   0.455   6.991
 9814SOL    HW230342   0.012   0.313   0.049
 9815SOL     OW30343   5.828   4.277   3.436
 9815SOL    HW130344   5.818   4.322   3.525
 9815SOL    HW230345   5.925   4.275   3.410
 9816SOL     OW30346   6.901   1.147   5.997
 9816SOL    HW130347   6.979   1.178   5.942
 9816SOL    HW230348   6.887   1.210   6.073
 9817SOL     OW30349   3.014   6.579   2.617
 9817SOL    HW130350   2.994   6.661   2.670
 9817SOL    HW230351   3.058   6.511   2.676
 9818SOL     OW30352   1.445   1.290   4.946
 9818SOL    HW130353   1.454   1.220   5.016
 9818SOL    HW230354   1.535   1.328   4.924
 9819SOL     OW30355   4.706   2.840   3.782
 9819SOL    HW130356   4.652   2.761   3.811
 9819SOL    HW230357   4.770   2.865   3.855
 9820SOL     OW30358   4.087   3.543   6.275
 9820SOL    HW130359   4.117   3.542   6.179
 9820SOL    HW230360   4.012   3.479   6.287
 9821SOL     OW30361   5.404   0.826   0.193
 9821SOL    HW130362   5.323   0.769   0.205
 9821SOL    HW230363   5.385   0.898   0.126
 9822SOL     OW30364   2.911   6.052   3.585
 9822SOL    HW130365   2.854   6.117   3.635
 9822SOL    HW230366   2.921   6.082   3.490
 9823SOL     OW30367   2.422   0.518   0.359
 9823SOL    HW130368   2.346   0.583   0.363
 9823SOL    HW230369   2.454   0.499   0.452
 9824SOL     OW30370   1.976   5.199   4.116
 9824SOL    HW130371   2.024   5.239   4.194
 9824SOL    HW230372   1.881   5.183   4.140
 9825SOL     OW30373   5.296   6.038   4.301
 9825SOL    HW130374   5.286   5.949   4.257
 9825SOL    HW230375   5.262   6.033   4.395
 9826SOL     OW30376   3.917   5.682   5.588
 9826SOL    HW130377   3.991   5.680   5.655
 9826SOL    HW230378   3.849   5.613   5.612
 9827SOL     OW30379   1.575   4.260   3.740
 9827SOL    HW130380   1.525   4.343   3.712
 9827SOL    HW230381   1.523   4.179   3.711
 9828SOL     OW30382   2.775   2.205   5.447
 9828SOL    HW130383   2.873   2.215   5.426
 9828SOL    HW230384   2.749   2.109   5.439
 9829SOL     OW30385   4.623   5.112   6.331
 9829SOL    HW130386   4.699   5.176   6.327
 9829SOL    HW230387   4.551   5.141   6.268
 9830SOL     OW30388   5.212   1.297   1.725
 9830SOL    HW130389   5.170   1.219   1.769
 9830SOL    HW230390   5.145   1.345   1.669
 9831SOL     OW30391   1.061   4.819   2.347
 9831SOL    HW130392   0.961   4.824   2.337
 9831SOL    HW230393   1.102   4.795   2.259
 9832SOL     OW30394   4.781   5.264   2.735
 9832SOL    HW130395   4.863   5.213   2.710
 9832SOL    HW230396   4.714   5.201   2.774
 9833SOL     OW30397   3.220   3.175   4.360
 9833SOL    HW130398   3.235   3.228   4.277
 9833SOL    HW230399   3.288   3.101   4.365
 9834SOL     OW30400   2.330   4.231   5.296
 9834SOL    HW130401   2.383   4.219   5.380
 9834SOL    HW230402   2.327   4.144   5.246
 9835SOL     OW30403   3.651   3.754   4.528
 9835SOL    HW130404   3.682   3.660   4.515
 9835SOL    HW230405   3.719   3.817   4.490
 9836SOL     OW30406   6.857   4.356   3.701
 9836SOL    HW130407   6.909   4.272   3.717
 9836SOL    HW230408   6.916   4.435   3.716
 9837SOL     OW30409   3.881   0.783   2.351
 9837SOL    HW130410   3.936   0.699   2.352
 9837SOL    HW230411   3.936   0.859   2.318
 9838SOL     OW30412   1.652   6.411   0.545
 9838SOL    HW130413   1.616   6.471   0.616
 9838SOL    HW230414   1.653   6.317   0.579
 9839SOL     OW30415   5.828   6.356   3.671
 9839SOL    HW130416   5.758   6.416   3.708
 9839SOL    HW230417   5.877   6.312   3.746
 9840SOL     OW30418   5.980   1.560   1.040
 9840SOL    HW130419   5.967   1.555   0.941
 9840SOL    HW230420   6.033   1.641   1.063
 9841SOL     OW30421   1.583   3.937   5.432
 9841SOL    HW130422   1.627   3.853   5.401
 9841SOL    HW230423   1.551   3.924   5.526
 9842SOL     OW30424   3.606   2.907   1.402
 9842SOL    HW130425   3.602   2.942   1.495
 9842SOL    HW230426   3.515   2.909   1.361
 9843SOL     OW30427   6.976   0.507   2.177
 9843SOL    HW130428   6.920   0.429   2.204
 9843SOL    HW230429   0.007   0.485   2.092
 9844SOL     OW30430   6.441   1.155   3.349
 9844SOL    HW130431   6.452   1.254   3.356
 9844SOL    HW230432   6.410   1.131   3.257
 9845SOL     OW30433   1.946   2.700   3.636
 9845SOL    HW130434   1.938   2.659   3.727
 9845SOL    HW230435   1.965   2.629   3.569
 9846SOL     OW30436   3.472   2.231   1.273
 9846SOL    HW130437   3.551   2.170   1.272
 9846SOL    HW230438   3.500   2.321   1.307
 9847SOL     OW30439   3.834   2.959   2.967
 9847SOL    HW130440   3.761   2.892   2.949
 9847SOL    HW230441   3.849   2.965   3.066
 9848SOL     OW30442   3.663   4.149   5.115
 9848SOL    HW130443   3.744   4.114   5.068
 9848SOL    HW230444   3.581   4.123   5.063
 9849SOL     OW30445   0.933   0.189   6.068
 9849SOL    HW130446   0.925   0.129   5.989
 9849SOL    HW230447   0.873   0.156   6.141
 9850SOL     OW30448   6.209   0.243   4.059
 9850SOL    HW130449   6.210   0.222   3.961
 9850SOL    HW230450   6.244   0.336   4.073
 9851SOL     OW30451   0.521   0.048   4.173
 9851SOL    HW130452   0.463   0.003   4.241
 9851SOL    HW230453   0.610   0.003   4.170
 9852SOL     OW30454   3.216   1.663   4.298
 9852SOL    HW130455   3.243   1.729   4.228
 9852SOL    HW230456   3.298   1.614   4.331
 9853SOL     OW30457   5.327   3.095   4.966
 9853SOL    HW130458   5.259   3.037   4.921
 9853SOL    HW230459   5.379   3.145   4.896
 9854SOL     OW30460   6.719   6.154   4.338
 9854SOL    HW130461   6.679   6.154   4.247
 9854SOL    HW230462   6.648   6.177   4.405
 9855SOL     OW30463   1.793   3.346   1.922
 9855SOL    HW130464   1.891   3.339   1.940
 9855SOL    HW230465   1.754   3.254   1.912
 9856SOL     OW30466   4.700   4.253   4.754
 9856SOL    HW130467   4.713   4.265   4.655
 9856SOL    HW230468   4.634   4.320   4.787
 9857SOL     OW30469   4.758   2.628   2.749
 9857SOL    HW130470   4.818   2.708   2.756
 9857SOL    HW230471   4.707   2.617   2.834
 9858SOL     OW30472   6.554   6.718   1.140
 9858SOL    HW130473   6.542   6.783   1.064
 9858SOL    HW230474   6.621   6.649   1.114
 9859SOL     OW30475   6.252   5.913   2.558
 9859SOL    HW130476   6.229   5.816   2.566
 9859SOL    HW230477   6.172   5.964   2.529
 9860SOL     OW30478   2.098   2.383   4.220
 9860SOL    HW130479   2.016   2.347   4.175
 9860SOL    HW230480   2.071   2.443   4.296
 9861SOL     OW30481   2.960   0.466   2.603
 9861SOL    HW130482   3.002   0.379   2.629
 9861SOL    HW230483   3.015   0.541   2.639
 9862SOL     OW30484   2.607   3.303   0.259
 9862SOL    HW130485   2.589   3.211   0.225
 9862SOL    HW230486   2.676   3.348   0.203
 9863SOL     OW30487   3.439   6.283   1.874
 9863SOL    HW130488   3.401   6.222   1.944
 9863SOL    HW230489   3.526   6.246   1.841
 9864SOL     OW30490   3.188   0.214   3.787
 9864SOL    HW130491   3.202   0.151   3.711
 9864SOL    HW230492   3.270   0.216   3.845
 9865SOL     OW30493   1.069   6.791   4.608
 9865SOL    HW130494   1.083   6.713   4.669
 9865SOL    HW230495   1.157   6.821   4.571
 9866SOL     OW30496   5.411   4.940   5.922
 9866SOL    HW130497   5.486   4.893   5.876
 9866SOL    HW230498   5.364   4.877   5.984
 9867SOL     OW30499   0.090   1.791   1.268
 9867SOL    HW130500   0.171   1.850   1.259
 9867SOL    HW230501   0.118   1.700   1.299
 9868SOL     OW30502   0.437   3.465   4.476
 9868SOL    HW130503   0.450   3.464   4.575
 9868SOL    HW230504   0.485   3.387   4.435
 9869SOL     OW30505   0.378   2.463   1.471
 9869SOL    HW130506   0.454   2.510   1.518
 9869SOL    HW230507   0.296   2.470   1.528
 9870SOL     OW30508   4.565   5.148   3.093
 9870SOL    HW130509   4.565   5.118   2.997
 9870SOL    HW230510   4.611   5.080   3.149
 9871SOL     OW30511   6.576   4.536   5.771
 9871SOL    HW130512   6.494   4.578   5.731
 9871SOL    HW230513   6.634   4.606   5.812
 9872SOL     OW30514   3.263   5.884   5.005
 9872SOL    HW130515   3.199   5.842   5.069
 9872SOL    HW230516   3.302   5.813   4.946
 9873SOL     OW30517   2.556   2.223   0.449
 9873SOL    HW130518   2.520   2.160   0.518
 9873SOL    HW230519   2.654   2.236   0.463
 9874SOL     OW30520   6.036   2.976   5.623
 9874SOL    HW130521   6.030   2.937   5.715
 9874SOL    HW230522   6.005   3.071   5.626
 9875SOL     OW30523   6.220   5.791   2.143
 9875SOL    HW130524   6.238   5.738   2.061
 9875SOL    HW230525   6.303   5.836   2.174
 9876SOL     OW30526   5.458   6.879   4.183
 9876SOL    HW130527   5.524   6.839   4.247
 9876SOL    HW230528   5.476   6.842   4.091
 9877SOL     OW30529   6.290   4.973   3.992
 9877SOL    HW130530   6.300   5.031   4.073
 9877SOL    HW230531   6.380   4.952   3.955
 9878SOL     OW30532   3.025   3.276   6.096
 9878SOL    HW130533   3.000   3.357   6.149
 9878SOL    HW230534   3.077   3.213   6.153
 9879SOL     OW30535   5.220   5.287   5.476
 9879SOL    HW130536   5.281   5.295   5.397
 9879SOL    HW230537   5.188   5.377   5.503
 9880SOL     OW30538   3.303   1.143   0.853
 9880SOL    HW130539   3.383   1.133   0.795
 9880SOL    HW230540   3.252   1.056   0.855
 9881SOL     OW30541   0.128   1.315   5.094
 9881SOL    HW130542   0.092   1.307   5.001
 9881SOL    HW230543   0.135   1.412   5.118
 9882SOL     OW30544   2.364   3.837   5.684
 9882SOL    HW130545   2.433   3.908   5.671
 9882SOL    HW230546   2.367   3.772   5.607
 9883SOL     OW30547   1.206   6.414   1.069
 9883SOL    HW130548   1.228   6.512   1.074
 9883SOL    HW230549   1.221   6.381   0.976
 9884SOL     OW30550   4.614   1.503   0.924
 9884SOL    HW130551   4.574   1.529   0.836
 9884SOL    HW230552   4.676   1.426   0.912
 9885SOL     OW30553   0.088   3.346   4.535
 9885SOL    HW130554   0.067   3.367   4.631
 9885SOL    HW230555   0.153   3.413   4.500
 9886SOL     OW30556   1.049   5.454   1.167
 9886SOL    HW130557   1.138   5.496   1.185
 9886SOL    HW230558   1.062   5.374   1.109
 9887SOL     OW30559   4.318   6.909   6.931
 9887SOL    HW130560   4.282   6.998   6.903
 9887SOL    HW230561   4.298   6.893   0.010
 9888SOL     OW30562   5.287   5.092   3.247
 9888SOL    HW130563   5.311   5.151   3.170
 9888SOL    HW230564   5.332   5.126   3.330
 9889SOL     OW30565   6.561   4.285   1.545
 9889SOL    HW130566   6.515   4.327   1.467
 9889SOL    HW230567   6.536   4.188   1.550
 9890SOL     OW30568   0.700   2.294   1.444
 9890SOL    HW130569   0.769   2.222   1.449
 9890SOL    HW230570   0.612   2.255   1.419
 9891SOL     OW30571   6.395   3.399   1.324
 9891SOL    HW130572   6.308   3.444   1.309
 9891SOL    HW230573   6.441   3.385   1.236
 9892SOL     OW30574   1.530   5.549   3.112
 9892SOL    HW130575   1.490   5.640   3.095
 9892SOL    HW230576   1.466   5.479   3.081
 9893SOL     OW30577   6.603   0.379   1.869
 9893SOL    HW130578   6.593   0.279   1.866
 9893SOL    HW230579   6.513   0.421   1.858
 9894SOL     OW30580   2.855   2.059   6.086
 9894SOL    HW130581   2.807   2.145   6.103
 9894SOL    HW230582   2.812   1.986   6.140
 9895SOL     OW30583   5.305   3.098   5.940
 9895SOL    HW130584   5.286   3.065   5.848
 9895SOL    HW230585   5.223   3.090   5.997
 9896SOL     OW30586   5.265   1.637   0.330
 9896SOL    HW130587   5.176   1.660   0.291
 9896SOL    HW230588   5.289   1.543   0.307
 9897SOL     OW30589   5.118   6.684   2.736
 9897SOL    HW130590   5.030   6.722   2.706
 9897SOL    HW230591   5.149   6.616   2.670
 9898SOL     OW30592   0.614   4.810   5.431
 9898SOL    HW130593   0.574   4.762   5.509
 9898SOL    HW230594   0.576   4.902   5.426
 9899SOL     OW30595   0.213   5.250   2.722
 9899SOL    HW130596   0.275   5.310   2.672
 9899SOL    HW230597   0.157   5.305   2.784
 9900SOL     OW30598   2.067   3.389   2.722
 9900SOL    HW130599   2.137   3.364   2.655
 9900SOL    HW230600   1.977   3.383   2.679
 9901SOL     OW30601   2.643   0.903   0.083
 9901SOL    HW130602   2.626   0.813   0.123
 9901SOL    HW230603   2.686   0.962   0.151
 9902SOL     OW30604   4.325   3.829   1.228
 9902SOL    HW130605   4.376   3.899   1.178
 9902SOL    HW230606   4.262   3.783   1.164
 9903SOL     OW30607   5.441   0.991   1.522
 9903SOL    HW130608   5.527   0.979   1.472
 9903SOL    HW230609   5.459   1.037   1.609
 9904SOL     OW30610   0.355   3.634   6.170
 9904SOL    HW130611   0.385   3.543   6.141
 9904SOL    HW230612   0.255   3.639   6.167
 9905SOL     OW30613   1.601   0.387   6.435
 9905SOL    HW130614   1.522   0.430   6.479
 9905SOL    HW230615   1.676   0.381   6.501
 9906SOL     OW30616   2.109   4.074   0.301
 9906SOL    HW130617   2.057   3.993   0.273
 9906SOL    HW230618   2.131   4.130   0.221
 9907SOL     OW30619   1.407   1.261   2.550
 9907SOL    HW130620   1.397   1.242   2.648
 9907SOL    HW230621   1.500   1.238   2.521
 9908SOL     OW30622   1.263   3.379   5.891
 9908SOL    HW130623   1.346   3.328   5.869
 9908SOL    HW230624   1.262   3.466   5.841
 9909SOL     OW30625   4.086   0.974   2.926
 9909SOL    HW130626   4.044   1.064   2.937
 9909SOL    HW230627   4.107   0.935   3.016
 9910SOL     OW30628   1.294   5.293   1.370
 9910SOL    HW130629   1.337   5.203   1.381
 9910SOL    HW230630   1.364   5.363   1.358
 9911SOL     OW30631   4.142   5.767   2.135
 9911SOL    HW130632   4.056   5.799   2.095
 9911SOL    HW230633   4.180   5.839   2.193
 9912SOL     OW30634   4.586   1.175   2.065
 9912SOL    HW130635   4.642   1.231   2.004
 9912SOL    HW230636   4.543   1.101   2.013
 9913SOL     OW30637   6.144   3.122   1.488
 9913SOL    HW130638   6.240   3.115   1.514
 9913SOL    HW230639   6.138   3.156   1.394
 9914SOL     OW30640   0.072   6.727   5.108
 9914SOL    HW130641   0.170   6.708   5.119
 9914SOL    HW230642   0.058   6.826   5.105
 9915SOL     OW30643   5.472   2.623   4.016
 9915SOL    HW130644   5.522   2.660   3.938
 9915SOL    HW230645   5.524   2.641   4.100
 9916SOL     OW30646   1.796   2.198   3.326
 9916SOL    HW130647   1.740   2.191   3.244
 9916SOL    HW230648   1.769   2.279   3.378
 9917SOL     OW30649   3.599   3.454   4.711
 9917SOL    HW130650   3.551   3.536   4.742
 9917SOL    HW230651   3.698   3.469   4.719
 9918SOL     OW30652   1.115   2.558   1.808
 9918SOL    HW130653   1.035   2.617   1.809
 9918SOL    HW230654   1.106   2.490   1.736
 9919SOL     OW30655   2.546   5.910   1.978
 9919SOL    HW130656   2.528   6.007   1.993
 9919SOL    HW230657   2.461   5.858   1.989
 9920SOL     OW30658   4.206   0.124   2.701
 9920SOL    HW130659   4.129   0.148   2.641
 9920SOL    HW230660   4.290   0.164   2.664
 9921SOL     OW30661   4.627   0.047   4.645
 9921SOL    HW130662   4.703   7.018   4.689
 9921SOL    HW230663   4.615   0.137   4.686
 9922SOL     OW30664   4.975   4.556   1.222
 9922SOL    HW130665   5.074   4.539   1.215
 9922SOL    HW230666   4.926   4.471   1.203
 9923SOL     OW30667   6.309   3.168   0.391
 9923SOL    HW130668   6.217   3.131   0.398
 9923SOL    HW230669   6.358   3.122   0.318
 9924SOL     OW30670   4.510   1.605   3.537
 9924SOL    HW130671   4.550   1.601   3.445
 9924SOL    HW230672   4.417   1.641   3.532
 9925SOL     OW30673   1.399   4.853   3.686
 9925SOL    HW130674   1.428   4.764   3.721
 9925SOL    HW230675   1.431   4.925   3.748
 9926SOL     OW30676   3.648   2.745   0.639
 9926SOL    HW130677   3.615   2.754   0.732
 9926SOL    HW230678   3.730   2.801   0.627
 9927SOL     OW30679   0.907   1.610   1.273
 9927SOL    HW130680   0.877   1.553   1.349
 9927SOL    HW230681   1.006   1.626   1.281
 9928SOL     OW30682   5.114   3.779   2.948
 9928SOL    HW130683   5.057   3.826   2.881
 9928SOL    HW230684   5.056   3.734   3.016
 9929SOL     OW30685   2.998   3.879   4.603
 9929SOL    HW130686   2.941   3.913   4.528
 9929SOL    HW230687   2.988   3.780   4.610
 9930SOL     OW30688   1.110   0.386   6.001
 9930SOL    HW130689   1.137   0.434   6.085
 9930SOL    HW230690   1.034   0.324   6.022
 9931SOL     OW30691   6.778   5.596   3.779
 9931SOL    HW130692   6.823   5.545   3.706
 9931SOL    HW230693   6.685   5.620   3.751
 9932SOL     OW30694   2.448   1.729   6.113
 9932SOL    HW130695   2.408   1.820   6.106
 9932SOL    HW230696   2.376   1.663   6.135
 9933SOL     OW30697   1.815   1.041   4.044
 9933SOL    HW130698   1.878   0.965   4.061
 9933SOL    HW230699   1.722   1.005   4.035
 9934SOL     OW30700   6.284   1.866   6.965
 9934SOL    HW130701   6.285   1.796   6.893
 9934SOL    HW230702   6.210   1.931   6.947
 9935SOL     OW30703   3.453   0.813   0.805
 9935SOL    HW130704   3.476   0.836   0.711
 9935SOL    HW230705   3.368   0.760   0.807
 9936SOL     OW30706   6.385   5.140   0.742
 9936SOL    HW130707   6.290   5.124   0.768
 9936SOL    HW230708   6.405   5.090   0.658
 9937SOL     OW30709   1.289   1.403   2.345
 9937SOL    HW130710   1.255   1.323   2.295
 9937SOL    HW230711   1.366   1.376   2.403
 9938SOL     OW30712   5.694   6.210   4.469
 9938SOL    HW130713   5.651   6.248   4.387
 9938SOL    HW230714   5.789   6.186   4.448
 9939SOL     OW30715   2.671   2.787   0.407
 9939SOL    HW130716   2.574   2.796   0.430
 9939SOL    HW230717   2.719   2.744   0.483
 9940SOL     OW30718   1.255   0.399   2.584
 9940SOL    HW130719   1.171   0.387   2.531
 9940SOL    HW230720   1.241   0.472   2.652
 9941SOL     OW30721   2.572   5.514   5.498
 9941SOL    HW130722   2.570   5.491   5.595
 9941SOL    HW230723   2.488   5.562   5.473
 9942SOL     OW30724   4.506   5.860   2.295
 9942SOL    HW130725   4.572   5.900   2.231
 9942SOL    HW230726   4.413   5.875   2.261
 9943SOL     OW30727   1.175   4.170   6.710
 9943SOL    HW130728   1.224   4.238   6.765
 9943SOL    HW230729   1.077   4.192   6.710
 9944SOL     OW30730   0.573   4.840   6.133
 9944SOL    HW130731   0.597   4.929   6.094
 9944SOL    HW230732   0.634   4.770   6.096
 9945SOL     OW30733   5.347   4.474   6.406
 9945SOL    HW130734   5.332   4.493   6.503
 9945SOL    HW230735   5.331   4.557   6.352
 9946SOL     OW30736   6.388   0.232   3.149
 9946SOL    HW130737   6.319   0.219   3.221
 9946SOL    HW230738   6.382   0.157   3.084
 9947SOL     OW30739   3.117   1.793   4.518
 9947SOL    HW130740   3.148   1.745   4.437
 9947SOL    HW230741   3.195   1.813   4.578
 9948SOL     OW30742   6.877   5.352   5.066
 9948SOL    HW130743   6.934   5.271   5.054
 9948SOL    HW230744   6.924   5.417   5.126
 9949SOL     OW30745   0.335   4.965   3.466
 9949SOL    HW130746   0.358   4.988   3.371
 9949SOL    HW230747   0.308   4.869   3.472
 9950SOL     OW30748   0.151   5.904   6.928
 9950SOL    HW130749   0.079   5.954   6.880
 9950SOL    HW230750   0.164   5.815   6.886
 9951SOL     OW30751   1.594   2.220   3.147
 9951SOL    HW130752   1.539   2.139   3.125
 9951SOL    HW230753   1.537   2.286   3.197
 9952SOL     OW30754   1.650   3.825   0.809
 9952SOL    HW130755   1.593   3.904   0.830
 9952SOL    HW230756   1.664   3.770   0.891
 9953SOL     OW30757   5.771   2.635   3.890
 9953SOL    HW130758   5.803   2.562   3.949
 9953SOL    HW230759   5.803   2.619   3.796
 9954SOL     OW30760   0.931   0.278   4.544
 9954SOL    HW130761   0.932   0.179   4.556
 9954SOL    HW230762   1.018   0.317   4.572
 9955SOL     OW30763   3.604   3.236   6.749
 9955SOL    HW130764   3.583   3.139   6.735
 9955SOL    HW230765   3.692   3.257   6.706
 9956SOL     OW30766   0.641   4.009   3.052
 9956SOL    HW130767   0.741   4.017   3.055
 9956SOL    HW230768   0.615   3.935   2.990
 9957SOL     OW30769   5.935   0.637   2.688
 9957SOL    HW130770   5.976   0.563   2.741
 9957SOL    HW230771   5.916   0.715   2.749
 9958SOL     OW30772   2.567   6.285   6.431
 9958SOL    HW130773   2.475   6.270   6.395
 9958SOL    HW230774   2.604   6.199   6.464
 9959SOL     OW30775   4.124   3.682   3.308
 9959SOL    HW130776   4.140   3.624   3.229
 9959SOL    HW230777   4.182   3.763   3.302
 9960SOL     OW30778   0.674   6.466   2.255
 9960SOL    HW130779   0.741   6.539   2.270
 9960SOL    HW230780   0.701   6.411   2.176
 9961SOL     OW30781   1.672   4.978   3.193
 9961SOL    HW130782   1.622   4.930   3.120
 9961SOL    HW230783   1.631   4.955   3.282
 9962SOL     OW30784   4.058   0.588   2.332
 9962SOL    HW130785   4.033   0.494   2.307
 9962SOL    HW230786   4.106   0.588   2.419
 9963SOL     OW30787   2.598   2.698   5.701
 9963SOL    HW130788   2.498   2.709   5.698
 9963SOL    HW230789   2.623   2.612   5.656
 9964SOL     OW30790   4.261   5.093   6.021
 9964SOL    HW130791   4.231   5.045   6.103
 9964SOL    HW230792   4.181   5.135   5.977
 9965SOL     OW30793   3.410   4.964   5.417
 9965SOL    HW130794   3.434   5.006   5.329
 9965SOL    HW230795   3.481   4.986   5.484
 9966SOL     OW30796   2.342   5.326   1.986
 9966SOL    HW130797   2.384   5.408   1.948
 9966SOL    HW230798   2.314   5.345   2.081
 9967SOL     OW30799   4.833   5.401   2.093
 9967SOL    HW130800   4.754   5.443   2.138
 9967SOL    HW230801   4.848   5.446   2.005
 9968SOL     OW30802   3.153   5.713   6.607
 9968SOL    HW130803   3.080   5.754   6.662
 9968SOL    HW230804   3.229   5.688   6.667
 9969SOL     OW30805   0.959   2.981   3.818
 9969SOL    HW130806   0.988   2.963   3.912
 9969SOL    HW230807   0.881   3.042   3.818
 9970SOL     OW30808   6.794   4.323   2.331
 9970SOL    HW130809   6.791   4.354   2.236
 9970SOL    HW230810   6.821   4.399   2.390
 9971SOL     OW30811   2.365   4.450   0.460
 9971SOL    HW130812   2.427   4.524   0.484
 9971SOL    HW230813   2.325   4.468   0.370
 9972SOL     OW30814   3.677   4.262   0.646
 9972SOL    HW130815   3.715   4.171   0.633
 9972SOL    HW230816   3.590   4.255   0.696
 9973SOL     OW30817   4.259   1.552   4.959
 9973SOL    HW130818   4.318   1.493   4.904
 9973SOL    HW230819   4.262   1.521   5.054
 9974SOL     OW30820   6.503   3.771   3.223
 9974SOL    HW130821   6.455   3.858   3.232
 9974SOL    HW230822   6.590   3.775   3.273
 9975SOL     OW30823   7.006   4.562   6.930
 9975SOL    HW130824   0.001   4.614   7.015
 9975SOL    HW230825   6.938   4.490   6.945
 9976SOL     OW30826   6.474   5.043   5.585
 9976SOL    HW130827   6.402   4.994   5.633
 9976SOL    HW230828   6.443   5.065   5.492
 9977SOL     OW30829   6.623   4.782   5.905
 9977SOL    HW130830   6.542   4.839   5.898
 9977SOL    HW230831   6.629   4.744   5.998
 9978SOL     OW30832   6.202   1.211   4.295
 9978SOL    HW130833   6.175   1.307   4.295
 9978SOL    HW230834   6.168   1.167   4.379
 9979SOL     OW30835   6.879   4.750   6.293
 9979SOL    HW130836   6.970   4.729   6.257
 9979SOL    HW230837   6.847   4.672   6.347
 9980SOL     OW30838   1.485   0.681   6.741
 9980SOL    HW130839   1.490   0.583   6.761
 9980SOL    HW230840   1.540   0.701   6.660
 9981SOL     OW30841   2.262   2.155   0.896
 9981SOL    HW130842   2.275   2.058   0.876
 9981SOL    HW230843   2.332   2.186   0.960
 9982SOL     OW30844   1.089   1.765   3.189
 9982SOL    HW130845   1.007   1.733   3.237
 9982SOL    HW230846   1.133   1.688   3.144
 9983SOL     OW30847   1.158   1.267   1.423
 9983SOL    HW130848   1.110   1.189   1.384
 9983SOL    HW230849   1.192   1.326   1.350
 9984SOL     OW30850   0.527   0.389   0.854
 9984SOL    HW130851   0.468   0.468   0.838
 9984SOL    HW230852   0.545   0.343   0.767
 9985SOL     OW30853   3.462   0.256   1.039
 9985SOL    HW130854   3.397   0.182   1.024
 9985SOL    HW230855   3.533   0.226   1.102
 9986SOL     OW30856   4.905   4.147   6.336
 9986SOL    HW130857   4.860   4.096   6.409
 9986SOL    HW230858   4.939   4.084   6.267
 9987SOL     OW30859   5.721   2.115   2.211
 9987SOL    HW130860   5.663   2.042   2.246
 9987SOL    HW230861   5.777   2.152   2.286
 9988SOL     OW30862   0.021   5.197   4.668
 9988SOL    HW130863   0.094   5.238   4.723
 9988SOL    HW230864   6.952   5.203   4.718
 9989SOL     OW30865   5.432   3.243   3.043
 9989SOL    HW130866   5.336   3.213   3.044
 9989SOL    HW230867   5.465   3.247   2.949
 9990SOL     OW30868   2.394   6.919   2.968
 9990SOL    HW130869   2.343   6.962   3.042
 9990SOL    HW230870   2.452   6.847   3.005
 9991SOL     OW30871   1.134   3.063   5.276
 9991SOL    HW130872   1.051   3.076   5.331
 9991SOL    HW230873   1.110   3.015   5.191
 9992SOL     OW30874   4.309   3.330   0.269
 9992SOL    HW130875   4.408   3.317   0.282
 9992SOL    HW230876   4.294   3.398   0.197
 9993SOL     OW30877   4.082   6.281   2.586
 9993SOL    HW130878   4.040   6.194   2.563
 9993SOL    HW230879   4.012   6.353   2.587
 9994SOL     OW30880   6.596   4.357   4.051
 9994SOL    HW130881   6.679   4.306   4.074
 9994SOL    HW230882   6.611   4.454   4.068
 9995SOL     OW30883   3.527   0.242   3.187
 9995SOL    HW130884   3.462   0.316   3.205
 9995SOL    HW230885   3.533   0.227   3.088
 9996SOL     OW30886   2.898   2.776   0.980
 9996SOL    HW130887   2.808   2.775   0.936
 9996SOL    HW230888   2.958   2.711   0.933
 9997SOL     OW30889   4.740   1.487   1.203
 9997SOL    HW130890   4.697   1.510   1.116
 9997SOL    HW230891   4.729   1.564   1.267
 9998SOL     OW30892   5.655   3.430   2.642
 9998SOL    HW130893   5.723   3.432   2.568
 9998SOL    HW230894   5.568   3.463   2.608
 9999SOL     OW30895   6.395   5.136   4.931
 9999SOL    HW130896   6.330   5.154   5.005
 9999SOL    HW230897   6.447   5.053   4.952
10000SOL     OW30898   6.092   1.568   6.732
10000SOL    HW130899   6.066   1.589   6.638
10000SOL    HW230900   6.191   1.555   6.737
10001SOL     OW30901   5.231   0.457   1.729
10001SOL    HW130902   5.220   0.404   1.645
10001SOL    HW230903   5.144   0.502   1.751
10002SOL     OW30904   1.462   1.104   1.424
10002SOL    HW130905   1.479   1.196   1.388
10002SOL    HW230906   1.540   1.074   1.478
10003SOL     OW30907   3.877   2.116   3.087
10003SOL    HW130908   3.780   2.099   3.099
10003SOL    HW230909   3.922   2.032   3.055
10004SOL     OW30910   5.713   2.866   4.809
10004SOL    HW130911   5.708   2.957   4.768
10004SOL    HW230912   5.620   2.833   4.826
10005SOL     OW30913   4.400   5.379   3.138
10005SOL    HW130914   4.312   5.336   3.158
10005SOL    HW230915   4.472   5.310   3.136
10006SOL     OW30916   5.147   0.990   4.669
10006SOL    HW130917   5.151   0.891   4.655
10006SOL    HW230918   5.140   1.036   4.580
10007SOL     OW30919   1.085   4.442   4.989
10007SOL    HW130920   1.152   4.424   4.917
10007SOL    HW230921   1.045   4.533   4.976
10008SOL     OW30922   4.225   1.144   3.489
10008SOL    HW130923   4.306   1.137   3.431
10008SOL    HW230924   4.143   1.142   3.433
10009SOL     OW30925   1.547   3.546   2.257
10009SOL    HW130926   1.568   3.530   2.160
10009SOL    HW230927   1.471   3.610   2.264
10010SOL     OW30928   2.142   6.522   0.354
10010SOL    HW130929   2.042   6.527   0.358
10010SOL    HW230930   2.171   6.427   0.369
10011SOL     OW30931   0.850   3.189   5.928
10011SOL    HW130932   0.903   3.108   5.904
10011SOL    HW230933   0.813   3.178   6.020
10012SOL     OW30934   4.929   6.926   2.675
10012SOL    HW130935   4.882   6.841   2.699
10012SOL    HW230936   4.863   6.994   2.646
10013SOL     OW30937   2.136   1.945   4.859
10013SOL    HW130938   2.176   1.952   4.768
10013SOL    HW230939   2.200   1.983   4.926
10014SOL     OW30940   0.011   1.454   1.307
10014SOL    HW130941   6.969   1.410   1.240
10014SOL    HW230942   0.105   1.421   1.294
10015SOL     OW30943   3.334   4.570   0.792
10015SOL    HW130944   3.411   4.628   0.767
10015SOL    HW230945   3.249   4.609   0.756
10016SOL     OW30946   1.846   6.805   5.057
10016SOL    HW130947   1.793   6.725   5.029
10016SOL    HW230948   1.904   6.781   5.135
10017SOL     OW30949   2.102   1.817   2.564
10017SOL    HW130950   2.089   1.722   2.591
10017SOL    HW230951   2.197   1.843   2.578
10018SOL     OW30952   5.981   5.298   6.138
10018SOL    HW130953   6.059   5.270   6.082
10018SOL    HW230954   6.014   5.341   6.222
10019SOL     OW30955   0.547   2.271   3.469
10019SOL    HW130956   0.618   2.244   3.404
10019SOL    HW230957   0.538   2.200   3.538
10020SOL     OW30958   0.471   1.324   0.854
10020SOL    HW130959   0.394   1.376   0.818
10020SOL    HW230960   0.437   1.249   0.911
10021SOL     OW30961   0.963   2.824   2.128
10021SOL    HW130962   0.930   2.781   2.044
10021SOL    HW230963   0.890   2.880   2.167
10022SOL     OW30964   3.562   6.943   0.931
10022SOL    HW130965   3.566   6.857   0.981
10022SOL    HW230966   3.652   6.987   0.931
10023SOL     OW30967   1.999   5.663   5.656
10023SOL    HW130968   2.095   5.678   5.681
10023SOL    HW230969   1.943   5.667   5.738
10024SOL     OW30970   2.158   6.575   1.775
10024SOL    HW130971   2.090   6.639   1.812
10024SOL    HW230972   2.241   6.626   1.753
10025SOL     OW30973   1.350   2.048   1.224
10025SOL    HW130974   1.364   2.057   1.322
10025SOL    HW230975   1.252   2.038   1.205
10026SOL     OW30976   4.325   6.140   3.428
10026SOL    HW130977   4.253   6.160   3.494
10026SOL    HW230978   4.304   6.184   3.340
10027SOL     OW30979   1.053   5.029   4.858
10027SOL    HW130980   0.990   4.959   4.890
10027SOL    HW230981   1.082   5.009   4.765
10028SOL     OW30982   1.429   1.960   1.746
10028SOL    HW130983   1.420   1.861   1.744
10028SOL    HW230984   1.491   1.987   1.819
10029SOL     OW30985   2.788   1.488   3.874
10029SOL    HW130986   2.803   1.548   3.952
10029SOL    HW230987   2.859   1.418   3.871
10030SOL     OW30988   2.538   6.757   4.375
10030SOL    HW130989   2.557   6.663   4.404
10030SOL    HW230990   2.474   6.756   4.299
10031SOL     OW30991   5.995   4.436   3.842
10031SOL    HW130992   6.035   4.513   3.792
10031SOL    HW230993   6.036   4.351   3.809
10032SOL     OW30994   3.689   0.635   5.197
10032SOL    HW130995   3.614   0.677   5.248
10032SOL    HW230996   3.734   0.704   5.140
10033SOL     OW30997   4.733   2.283   4.040
10033SOL    HW130998   4.759   2.362   3.985
10033SOL    HW230999   4.766   2.200   3.996
10034SOL     OW31000   3.612   6.893   4.120
10034SOL    HW131001   3.681   6.964   4.135
10034SOL    HW231002   3.559   6.914   4.038
10035SOL     OW31003   0.230   4.393   2.121
10035SOL    HW131004   0.235   4.487   2.156
10035SOL    HW231005   0.236   4.394   2.021
10036SOL     OW31006   5.851   1.291   1.156
10036SOL    HW131007   5.839   1.321   1.251
10036SOL    HW231008   5.866   1.371   1.098
10037SOL     OW31009   6.344   1.678   0.840
10037SOL    HW131010   6.348   1.770   0.803
10037SOL    HW231011   6.280   1.623   0.786
10038SOL     OW31012   3.964   1.386   6.907
10038SOL    HW131013   3.867   1.363   6.901
10038SOL    HW231014   3.977   1.482   6.882
10039SOL     OW31015   3.408   0.395   4.237
10039SOL    HW131016   3.342   0.458   4.196
10039SOL    HW231017   3.411   0.409   4.336
10040SOL     OW31018   4.374   5.694   6.076
10040SOL    HW131019   4.329   5.709   6.164
10040SOL    HW231020   4.470   5.670   6.091
10041SOL     OW31021   4.338   5.875   6.565
10041SOL    HW131022   4.275   5.928   6.622
10041SOL    HW231023   4.432   5.892   6.595
10042SOL     OW31024   0.846   1.674   4.450
10042SOL    HW131025   0.929   1.692   4.397
10042SOL    HW231026   0.841   1.740   4.525
10043SOL     OW31027   6.318   1.771   4.857
10043SOL    HW131028   6.274   1.808   4.939
10043SOL    HW231029   6.409   1.737   4.880
10044SOL     OW31030   3.404   1.144   4.811
10044SOL    HW131031   3.379   1.232   4.769
10044SOL    HW231032   3.503   1.132   4.805
10045SOL     OW31033   4.567   6.823   3.891
10045SOL    HW131034   4.470   6.814   3.912
10045SOL    HW231035   4.614   6.739   3.917
10046SOL     OW31036   2.441   3.896   1.334
10046SOL    HW131037   2.441   3.982   1.385
10046SOL    HW231038   2.520   3.842   1.360
10047SOL     OW31039   6.710   3.887   5.386
10047SOL    HW131040   6.728   3.795   5.352
10047SOL    HW231041   6.632   3.926   5.337
10048SOL     OW31042   6.513   0.744   2.743
10048SOL    HW131043   6.607   0.712   2.738
10048SOL    HW231044   6.474   0.718   2.832
10049SOL     OW31045   0.817   0.802   6.638
10049SOL    HW131046   0.724   0.771   6.656
10049SOL    HW231047   0.856   0.839   6.723
10050SOL     OW31048   5.456   3.661   5.395
10050SOL    HW131049   5.406   3.745   5.417
10050SOL    HW231050   5.448   3.642   5.298
10051SOL     OW31051   5.640   3.120   5.747
10051SOL    HW131052   5.583   3.162   5.677
10051SOL    HW231053   5.584   3.058   5.802
10052SOL     OW31054   1.807   1.863   3.017
10052SOL    HW131055   1.880   1.895   3.077
10052SOL    HW231056   1.722   1.858   3.069
10053SOL     OW31057   4.030   5.609   3.109
10053SOL    HW131058   3.996   5.525   3.066
10053SOL    HW231059   4.097   5.585   3.180
10054SOL     OW31060   5.748   5.780   6.394
10054SOL    HW131061   5.727   5.748   6.487
10054SOL    HW231062   5.831   5.837   6.397
10055SOL     OW31063   5.562   1.576   5.056
10055SOL    HW131064   5.489   1.518   5.090
10055SOL    HW231065   5.530   1.671   5.054
10056SOL     OW31066   5.341   4.200   3.173
10056SOL    HW131067   5.394   4.115   3.169
10056SOL    HW231068   5.400   4.278   3.154
10057SOL     OW31069   4.172   2.367   5.556
10057SOL    HW131070   4.162   2.279   5.603
10057SOL    HW231071   4.119   2.436   5.605
10058SOL     OW31072   0.035   3.535   5.152
10058SOL    HW131073   0.004   3.592   5.228
10058SOL    HW231074   6.975   3.484   5.115
10059SOL     OW31075   6.859   0.587   0.654
10059SOL    HW131076   6.844   0.652   0.729
10059SOL    HW231077   6.809   0.503   0.672
10060SOL     OW31078   1.953   2.770   1.964
10060SOL    HW131079   1.880   2.836   1.984
10060SOL    HW231080   1.940   2.734   1.871
10061SOL     OW31081   4.494   0.860   4.035
10061SOL    HW131082   4.410   0.857   3.980
10061SOL    HW231083   4.571   0.826   3.982
10062SOL     OW31084   6.336   0.458   4.141
10062SOL    HW131085   6.289   0.507   4.215
10062SOL    HW231086   6.312   0.499   4.053
10063SOL     OW31087   2.531   1.004   3.963
10063SOL    HW131088   2.536   1.049   4.053
10063SOL    HW231089   2.596   1.047   3.901
10064SOL     OW31090   4.885   0.017   7.007
10064SOL    HW131091   4.878   0.007   0.088
10064SOL    HW231092   4.798   0.050   6.970
10065SOL     OW31093   3.595   0.359   2.744
10065SOL    HW131094   3.534   0.302   2.799
10065SOL    HW231095   3.657   0.409   2.804
10066SOL     OW31096   0.301   2.744   4.160
10066SOL    HW131097   0.231   2.808   4.190
10066SOL    HW231098   0.291   2.727   4.062
10067SOL     OW31099   0.449   4.169   5.140
10067SOL    HW131100   0.485   4.086   5.098
10067SOL    HW231101   0.462   4.247   5.079
10068SOL     OW31102   0.241   3.495   3.652
10068SOL    HW131103   0.264   3.408   3.696
10068SOL    HW231104   0.141   3.501   3.642
10069SOL     OW31105   2.979   5.492   2.390
10069SOL    HW131106   2.943   5.569   2.443
10069SOL    HW231107   2.984   5.518   2.294
10070SOL     OW31108   0.113   6.102   5.223
10070SOL    HW131109   0.044   6.160   5.267
10070SOL    HW231110   0.197   6.155   5.210
10071SOL     OW31111   6.674   5.920   4.924
10071SOL    HW131112   6.709   5.833   4.891
10071SOL    HW231113   6.577   5.928   4.901
10072SOL     OW31114   6.447   6.411   4.304
10072SOL    HW131115   6.362   6.389   4.351
10072SOL    HW231116   6.521   6.420   4.371
10073SOL     OW31117   6.046   5.035   4.354
10073SOL    HW131118   6.105   5.104   4.395
10073SOL    HW231119   5.953   5.070   4.347
10074SOL     OW31120   1.806   0.219   5.063
10074SOL    HW131121   1.897   0.209   5.101
10074SOL    HW231122   1.771   0.130   5.034
10075SOL     OW31123   1.384   2.485   2.435
10075SOL    HW131124   1.355   2.561   2.494
10075SOL    HW231125   1.372   2.511   2.339
10076SOL     OW31126   6.199   6.384   3.471
10076SOL    HW131127   6.101   6.379   3.488
10076SOL    HW231128   6.242   6.300   3.503
10077SOL     OW31129   4.290   2.998   6.723
10077SOL    HW131130   4.313   3.078   6.779
10077SOL    HW231131   4.329   2.916   6.764
10078SOL     OW31132   0.360   5.762   3.494
10078SOL    HW131133   0.417   5.733   3.417
10078SOL    HW231134   0.393   5.850   3.529
10079SOL     OW31135   5.677   2.965   3.704
10079SOL    HW131136   5.768   2.975   3.665
10079SOL    HW231137   5.625   3.050   3.690
10080SOL     OW31138   4.194   0.278   5.478
10080SOL    HW131139   4.163   0.368   5.445
10080SOL    HW231140   4.290   0.266   5.455
10081SOL     OW31141   6.983   0.807   0.167
10081SOL    HW131142   6.941   0.773   0.251
10081SOL    HW231143   6.913   0.817   0.096
10082SOL     OW31144   6.985   5.356   1.742
10082SOL    HW131145   0.041   5.423   1.751
10082SOL    HW231146   6.987   5.294   1.820
10083SOL     OW31147   4.033   0.300   3.515
10083SOL    HW131148   4.051   0.212   3.559
10083SOL    HW231149   4.016   0.369   3.585
10084SOL     OW31150   2.132   0.609   6.369
10084SOL    HW131151   2.208   0.656   6.325
10084SOL    HW231152   2.105   0.530   6.314
10085SOL     OW31153   2.824   6.053   0.651
10085SOL    HW131154   2.741   6.025   0.603
10085SOL    HW231155   2.905   6.025   0.599
10086SOL     OW31156   5.282   6.313   2.020
10086SOL    HW131157   5.203   6.374   2.023
10086SOL    HW231158   5.353   6.346   2.083
10087SOL     OW31159   6.565   6.092   4.100
10087SOL    HW131160   6.548   6.000   4.066
10087SOL    HW231161   6.485   6.149   4.082
10088SOL     OW31162   6.611   0.198   2.138
10088SOL    HW131163   6.651   0.289   2.125
10088SOL    HW231164   6.676   0.140   2.187
10089SOL     OW31165   2.753   1.997   3.261
10089SOL    HW131166   2.659   1.978   3.289
10089SOL    HW231167   2.757   2.003   3.161
10090SOL     OW31168   0.568   4.984   1.866
10090SOL    HW131169   0.610   5.065   1.823
10090SOL    HW231170   0.521   5.012   1.950
10091SOL     OW31171   6.937   5.064   6.488
10091SOL    HW131172   6.902   5.046   6.396
10091SOL    HW231173   6.976   5.156   6.491
10092SOL     OW31174   2.638   2.994   5.580
10092SOL    HW131175   2.608   2.906   5.617
10092SOL    HW231176   2.736   3.005   5.596
10093SOL     OW31177   4.554   3.146   5.718
10093SOL    HW131178   4.609   3.194   5.787
10093SOL    HW231179   4.615   3.090   5.661
10094SOL     OW31180   3.067   5.641   1.165
10094SOL    HW131181   3.107   5.699   1.235
10094SOL    HW231182   3.035   5.556   1.207
10095SOL     OW31183   5.869   1.803   4.171
10095SOL    HW131184   5.862   1.775   4.266
10095SOL    HW231185   5.782   1.788   4.125
10096SOL     OW31186   3.881   5.579   3.404
10096SOL    HW131187   3.901   5.643   3.478
10096SOL    HW231188   3.854   5.629   3.322
10097SOL     OW31189   1.375   2.085   0.013
10097SOL    HW131190   1.462   2.048   0.047
10097SOL    HW231191   1.319   2.114   0.090
10098SOL     OW31192   3.294   0.614   5.374
10098SOL    HW131193   3.206   0.571   5.353
10098SOL    HW231194   3.332   0.574   5.457
10099SOL     OW31195   0.995   5.011   1.587
10099SOL    HW131196   0.980   5.081   1.518
10099SOL    HW231197   0.937   4.932   1.567
10100SOL     OW31198   4.909   5.920   5.756
10100SOL    HW131199   4.929   5.823   5.765
10100SOL    HW231200   4.812   5.933   5.737
10101SOL     OW31201   6.199   2.926   1.811
10101SOL    HW131202   6.170   2.948   1.717
10101SOL    HW231203   6.230   3.009   1.857
10102SOL     OW31204   0.080   0.950   2.139
10102SOL    HW131205   0.160   0.960   2.198
10102SOL    HW231206   0.012   0.892   2.184
10103SOL     OW31207   2.978   0.224   5.658
10103SOL    HW131208   2.951   0.318   5.638
10103SOL    HW231209   3.059   0.225   5.717
10104SOL     OW31210   0.982   2.075   4.857
10104SOL    HW131211   0.994   2.119   4.946
10104SOL    HW231212   1.026   1.985   4.858
10105SOL     OW31213   1.662   0.713   6.548
10105SOL    HW131214   1.651   0.709   6.449
10105SOL    HW231215   1.753   0.749   6.569
10106SOL     OW31216   3.950   6.655   0.996
10106SOL    HW131217   4.029   6.606   1.034
10106SOL    HW231218   3.874   6.591   0.983
10107SOL     OW31219   5.066   1.571   5.230
10107SOL    HW131220   5.079   1.473   5.247
10107SOL    HW231221   4.969   1.594   5.238
10108SOL     OW31222   6.771   1.102   0.346
10108SOL    HW131223   6.823   1.114   0.261
10108SOL    HW231224   6.733   1.009   0.347
10109SOL     OW31225   6.645   1.151   0.014
10109SOL    HW131226   6.664   1.059   0.047
10109SOL    HW231227   6.566   1.188   0.063
10110SOL     OW31228   5.129   5.010   4.167
10110SOL    HW131229   5.091   4.933   4.116
10110SOL    HW231230   5.067   5.035   4.241
10111SOL     OW31231   5.876   3.468   4.141
10111SOL    HW131232   5.943   3.455   4.214
10111SOL    HW231233   5.921   3.457   4.053
10112SOL     OW31234   6.037   3.851   3.750
10112SOL    HW131235   5.949   3.805   3.739
10112SOL    HW231236   6.058   3.905   3.668
10113SOL     OW31237   3.898   6.979   0.131
10113SOL    HW131238   3.813   6.963   0.181
10113SOL    HW231239   3.942   6.891   0.113
10114SOL     OW31240   4.061   2.210   2.469
10114SOL    HW131241   4.116   2.242   2.391
10114SOL    HW231242   3.968   2.192   2.439
10115SOL     OW31243   4.192   1.400   5.441
10115SOL    HW131244   4.097   1.391   5.410
10115SOL    HW231245   4.229   1.487   5.408
10116SOL     OW31246   1.393   0.545   0.304
10116SOL    HW131247   1.481   0.547   0.258
10116SOL    HW231248   1.406   0.561   0.402
10117SOL     OW31249   6.742   6.227   6.248
10117SOL    HW131250   6.819   6.280   6.283
10117SOL    HW231251   6.761   6.129   6.259
10118SOL     OW31252   2.044   4.529   3.465
10118SOL    HW131253   1.988   4.463   3.515
10118SOL    HW231254   1.998   4.555   3.380
10119SOL     OW31255   6.727   5.204   4.685
10119SOL    HW131256   6.741   5.257   4.601
10119SOL    HW231257   6.685   5.263   4.754
10120SOL     OW31258   2.134   3.324   4.392
10120SOL    HW131259   2.140   3.393   4.464
10120SOL    HW231260   2.068   3.353   4.323
10121SOL     OW31261   5.645   4.522   6.477
10121SOL    HW131262   5.648   4.422   6.474
10121SOL    HW231263   5.638   4.559   6.384
10122SOL     OW31264   5.467   2.813   3.183
10122SOL    HW131265   5.521   2.897   3.182
10122SOL    HW231266   5.442   2.791   3.277
10123SOL     OW31267   5.648   5.785   0.300
10123SOL    HW131268   5.649   5.706   0.361
10123SOL    HW231269   5.595   5.859   0.341
10124SOL     OW31270   1.566   5.010   0.528
10124SOL    HW131271   1.577   5.073   0.604
10124SOL    HW231272   1.599   5.053   0.444
10125SOL     OW31273   2.241   1.771   1.028
10125SOL    HW131274   2.160   1.828   1.030
10125SOL    HW231275   2.268   1.747   1.122
10126SOL     OW31276   0.141   6.933   0.535
10126SOL    HW131277   0.085   7.007   0.499
10126SOL    HW231278   0.108   6.906   0.625
10127SOL     OW31279   2.274   4.039   0.505
10127SOL    HW131280   2.343   4.001   0.443
10127SOL    HW231281   2.194   4.067   0.453
10128SOL     OW31282   3.323   0.848   6.346
10128SOL    HW131283   3.261   0.839   6.268
10128SOL    HW231284   3.302   0.779   6.414
10129SOL     OW31285   6.490   1.561   3.089
10129SOL    HW131286   6.492   1.540   3.187
10129SOL    HW231287   6.418   1.628   3.071
10130SOL     OW31288   1.465   3.622   1.425
10130SOL    HW131289   1.479   3.718   1.448
10130SOL    HW231290   1.423   3.615   1.334
10131SOL     OW31291   1.970   0.031   4.076
10131SOL    HW131292   1.890   6.992   4.095
10131SOL    HW231293   2.047   7.016   4.130
10132SOL     OW31294   2.460   0.175   3.264
10132SOL    HW131295   2.398   0.108   3.224
10132SOL    HW231296   2.487   0.145   3.356
10133SOL     OW31297   4.990   6.200   0.841
10133SOL    HW131298   4.920   6.269   0.858
10133SOL    HW231299   5.034   6.174   0.927
10134SOL     OW31300   6.476   0.974   2.519
10134SOL    HW131301   6.456   0.905   2.588
10134SOL    HW231302   6.505   1.059   2.564
10135SOL     OW31303   4.856   2.897   4.003
10135SOL    HW131304   4.931   2.918   3.940
10135SOL    HW231305   4.828   2.982   4.049
10136SOL     OW31306   5.088   1.883   2.298
10136SOL    HW131307   5.068   1.834   2.383
10136SOL    HW231308   5.039   1.970   2.298
10137SOL     OW31309   0.439   3.904   4.608
10137SOL    HW131310   0.445   3.963   4.689
10137SOL    HW231311   0.510   3.833   4.614
10138SOL     OW31312   5.176   3.917   0.512
10138SOL    HW131313   5.240   3.917   0.436
10138SOL    HW231314   5.082   3.920   0.477
10139SOL     OW31315   3.150   3.163   3.686
10139SOL    HW131316   3.209   3.243   3.673
10139SOL    HW231317   3.057   3.186   3.656
10140SOL     OW31318   0.086   6.042   0.121
10140SOL    HW131319   0.112   5.979   0.048
10140SOL    HW231320   0.057   6.129   0.082
10141SOL     OW31321   4.357   0.855   5.212
10141SOL    HW131322   4.410   0.857   5.297
10141SOL    HW231323   4.260   0.846   5.234
10142SOL     OW31324   5.981   6.558   5.860
10142SOL    HW131325   5.940   6.558   5.769
10142SOL    HW231326   5.936   6.626   5.918
10143SOL     OW31327   5.795   1.979   0.858
10143SOL    HW131328   5.700   1.951   0.842
10143SOL    HW231329   5.807   2.001   0.955
10144SOL     OW31330   4.049   6.981   6.101
10144SOL    HW131331   4.034   6.993   6.003
10144SOL    HW231332   4.119   0.029   6.132
10145SOL     OW31333   3.302   5.751   2.688
10145SOL    HW131334   3.331   5.665   2.646
10145SOL    HW231335   3.289   5.737   2.787
10146SOL     OW31336   5.478   4.517   4.672
10146SOL    HW131337   5.500   4.507   4.769
10146SOL    HW231338   5.563   4.522   4.619
10147SOL     OW31339   4.983   3.953   6.173
10147SOL    HW131340   5.067   3.950   6.226
10147SOL    HW231341   4.957   3.860   6.146
10148SOL     OW31342   5.617   4.818   6.825
10148SOL    HW131343   5.611   4.719   6.807
10148SOL    HW231344   5.603   4.834   6.923
10149SOL     OW31345   5.597   3.696   1.312
10149SOL    HW131346   5.653   3.620   1.279
10149SOL    HW231347   5.504   3.662   1.331
10150SOL     OW31348   4.213   2.853   1.549
10150SOL    HW131349   4.187   2.900   1.464
10150SOL    HW231350   4.189   2.910   1.627
10151SOL     OW31351   1.020   6.765   6.870
10151SOL    HW131352   0.988   6.674   6.895
10151SOL    HW231353   0.970   6.797   6.790
10152SOL     OW31354   0.175   6.247   3.700
10152SOL    HW131355   0.237   6.214   3.771
10152SOL    HW231356   0.205   6.337   3.669
10153SOL     OW31357   4.420   6.083   3.685
10153SOL    HW131358   4.467   6.168   3.707
10153SOL    HW231359   4.399   6.081   3.587
10154SOL     OW31360   3.869   6.499   4.754
10154SOL    HW131361   3.881   6.410   4.709
10154SOL    HW231362   3.786   6.499   4.808
10155SOL     OW31363   4.898   2.060   6.379
10155SOL    HW131364   4.959   2.034   6.305
10155SOL    HW231365   4.952   2.078   6.462
10156SOL     OW31366   5.820   0.574   1.920
10156SOL    HW131367   5.849   0.650   1.977
10156SOL    HW231368   5.782   0.502   1.978
10157SOL     OW31369   0.255   2.184   0.700
10157SOL    HW131370   0.281   2.280   0.695
10157SOL    HW231371   0.326   2.133   0.750
10158SOL     OW31372   6.308   6.133   1.014
10158SOL    HW131373   6.304   6.068   1.090
10158SOL    HW231374   6.335   6.085   0.930
10159SOL     OW31375   3.622   2.560   1.719
10159SOL    HW131376   3.663   2.498   1.786
10159SOL    HW231377   3.527   2.533   1.702
10160SOL     OW31378   1.342   3.052   3.311
10160SOL    HW131379   1.320   3.098   3.397
10160SOL    HW231380   1.389   2.966   3.330
10161SOL     OW31381   3.318   4.384   0.202
10161SOL    HW131382   3.298   4.339   0.115
10161SOL    HW231383   3.233   4.397   0.253
10162SOL     OW31384   3.198   5.351   0.541
10162SOL    HW131385   3.277   5.353   0.602
10162SOL    HW231386   3.114   5.338   0.594
10163SOL     OW31387   0.247   3.971   0.129
10163SOL    HW131388   0.272   3.877   0.154
10163SOL    HW231389   0.314   4.035   0.166
10164SOL     OW31390   6.141   3.670   5.067
10164SOL    HW131391   6.157   3.766   5.045
10164SOL    HW231392   6.066   3.664   5.133
10165SOL     OW31393   6.632   1.973   3.262
10165SOL    HW131394   6.555   2.009   3.210
10165SOL    HW231395   6.707   1.952   3.200
10166SOL     OW31396   2.607   1.703   1.586
10166SOL    HW131397   2.690   1.749   1.555
10166SOL    HW231398   2.527   1.748   1.548
10167SOL     OW31399   0.539   5.309   0.423
10167SOL    HW131400   0.613   5.355   0.373
10167SOL    HW231401   0.555   5.319   0.521
10168SOL     OW31402   6.828   2.066   5.988
10168SOL    HW131403   6.920   2.103   6.000
10168SOL    HW231404   6.765   2.141   5.966
10169SOL     OW31405   0.507   4.195   3.913
10169SOL    HW131406   0.429   4.157   3.963
10169SOL    HW231407   0.561   4.120   3.874
10170SOL     OW31408   6.581   4.624   6.491
10170SOL    HW131409   6.643   4.662   6.560
10170SOL    HW231410   6.616   4.536   6.460
10171SOL     OW31411   0.705   3.007   5.086
10171SOL    HW131412   0.767   2.981   5.161
10171SOL    HW231413   0.705   2.936   5.016
10172SOL     OW31414   1.122   6.026   4.318
10172SOL    HW131415   1.132   6.032   4.417
10172SOL    HW231416   1.026   6.036   4.293
10173SOL     OW31417   1.948   2.719   0.564
10173SOL    HW131418   1.956   2.767   0.652
10173SOL    HW231419   1.855   2.683   0.554
10174SOL     OW31420   5.149   4.822   3.606
10174SOL    HW131421   5.244   4.789   3.607
10174SOL    HW231422   5.131   4.871   3.521
10175SOL     OW31423   4.953   2.437   3.470
10175SOL    HW131424   5.048   2.445   3.441
10175SOL    HW231425   4.895   2.487   3.405
10176SOL     OW31426   0.036   3.087   5.573
10176SOL    HW131427   6.998   3.159   5.615
10176SOL    HW231428   0.089   3.125   5.498
10177SOL     OW31429   1.840   1.085   0.694
10177SOL    HW131430   1.814   0.992   0.671
10177SOL    HW231431   1.921   1.111   0.642
10178SOL     OW31432   0.766   0.725   0.067
10178SOL    HW131433   0.808   0.645   0.110
10178SOL    HW231434   0.668   0.709   0.056
10179SOL     OW31435   0.296   2.997   6.688
10179SOL    HW131436   0.392   2.996   6.659
10179SOL    HW231437   0.287   2.944   6.772
10180SOL     OW31438   4.501   0.616   0.128
10180SOL    HW131439   4.461   0.626   0.037
10180SOL    HW231440   4.597   0.589   0.120
10181SOL     OW31441   0.361   2.558   1.197
10181SOL    HW131442   0.362   2.656   1.181
10181SOL    HW231443   0.361   2.539   1.295
10182SOL     OW31444   5.101   0.692   0.173
10182SOL    HW131445   5.129   0.603   0.208
10182SOL    HW231446   5.046   0.740   0.242
10183SOL     OW31447   5.934   2.524   5.615
10183SOL    HW131448   5.910   2.602   5.558
10183SOL    HW231449   5.905   2.541   5.709
10184SOL     OW31450   4.448   2.120   6.420
10184SOL    HW131451   4.380   2.190   6.440
10184SOL    HW231452   4.467   2.119   6.321
10185SOL     OW31453   6.253   6.319   1.993
10185SOL    HW131454   6.177   6.263   2.027
10185SOL    HW231455   6.296   6.366   2.070
10186SOL     OW31456   5.347   4.297   4.354
10186SOL    HW131457   5.311   4.344   4.435
10186SOL    HW231458   5.336   4.354   4.274
10187SOL     OW31459   0.910   4.252   6.705
10187SOL    HW131460   0.919   4.218   6.798
10187SOL    HW231461   0.911   4.175   6.641
10188SOL     OW31462   3.422   5.208   6.904
10188SOL    HW131463   3.443   5.234   6.998
10188SOL    HW231464   3.386   5.115   6.902
10189SOL     OW31465   0.575   0.946   6.289
10189SOL    HW131466   0.510   0.879   6.253
10189SOL    HW231467   0.626   0.987   6.213
10190SOL     OW31468   3.960   2.692   1.396
10190SOL    HW131469   3.925   2.754   1.465
10190SOL    HW231470   3.950   2.597   1.427
10191SOL     OW31471   4.758   5.114   6.574
10191SOL    HW131472   4.678   5.099   6.515
10191SOL    HW231473   4.732   5.097   6.669
10192SOL     OW31474   3.782   0.932   4.989
10192SOL    HW131475   3.789   0.860   4.920
10192SOL    HW231476   3.873   0.960   5.018
10193SOL     OW31477   3.129   3.557   2.762
10193SOL    HW131478   3.058   3.541   2.831
10193SOL    HW231479   3.153   3.655   2.762
10194SOL     OW31480   4.809   0.477   4.463
10194SOL    HW131481   4.877   0.531   4.512
10194SOL    HW231482   4.730   0.461   4.523
10195SOL     OW31483   6.493   6.909   0.543
10195SOL    HW131484   6.580   6.949   0.513
10195SOL    HW231485   6.455   6.965   0.617
10196SOL     OW31486   4.222   1.882   4.132
10196SOL    HW131487   4.173   1.885   4.219
10196SOL    HW231488   4.292   1.954   4.132
10197SOL     OW31489   5.077   2.349   4.246
10197SOL    HW131490   5.120   2.325   4.159
10197SOL    HW231491   5.010   2.279   4.271
10198SOL     OW31492   3.734   7.015   1.831
10198SOL    HW131493   3.823   7.011   1.876
10198SOL    HW231494   3.671   6.951   1.876
10199SOL     OW31495   0.818   1.968   0.276
10199SOL    HW131496   0.879   1.958   0.197
10199SOL    HW231497   0.809   2.065   0.299
10200SOL     OW31498   4.884   3.179   5.571
10200SOL    HW131499   4.882   3.196   5.473
10200SOL    HW231500   4.858   3.261   5.621
10201SOL     OW31501   0.926   6.381   0.565
10201SOL    HW131502   0.836   6.419   0.587
10201SOL    HW231503   0.927   6.283   0.585
10202SOL     OW31504   2.071   4.586   0.012
10202SOL    HW131505   2.019   4.659   0.056
10202SOL    HW231506   2.102   4.616   6.940
10203SOL     OW31507   0.054   2.655   1.904
10203SOL    HW131508   0.006   2.735   1.867
10203SOL    HW231509   0.146   2.681   1.932
10204SOL     OW31510   3.910   5.948   6.925
10204SOL    HW131511   3.965   6.018   6.972
10204SOL    HW231512   3.833   5.992   6.879
10205SOL     OW31513   3.195   1.300   2.414
10205SOL    HW131514   3.221   1.392   2.444
10205SOL    HW231515   3.099   1.284   2.435
10206SOL     OW31516   6.637   6.654   6.734
10206SOL    HW131517   6.687   6.652   6.821
10206SOL    HW231518   6.551   6.605   6.744
10207SOL     OW31519   1.951   1.737   6.672
10207SOL    HW131520   1.982   1.788   6.592
10207SOL    HW231521   1.980   1.641   6.663
10208SOL     OW31522   6.577   4.887   3.463
10208SOL    HW131523   6.639   4.810   3.479
10208SOL    HW231524   6.484   4.853   3.449
10209SOL     OW31525   0.111   6.904   6.378
10209SOL    HW131526   0.027   6.953   6.357
10209SOL    HW231527   0.155   6.944   6.458
10210SOL     OW31528   5.320   6.225   1.039
10210SOL    HW131529   5.315   6.325   1.034
10210SOL    HW231530   5.416   6.196   1.033
10211SOL     OW31531   4.090   6.351   4.925
10211SOL    HW131532   4.110   6.449   4.926
10211SOL    HW231533   4.176   6.300   4.924
10212SOL     OW31534   6.701   6.881   5.152
10212SOL    HW131535   6.692   6.949   5.080
10212SOL    HW231536   6.651   6.911   5.234
10213SOL     OW31537   5.458   3.123   2.371
10213SOL    HW131538   5.466   3.031   2.333
10213SOL    HW231539   5.376   3.167   2.334
10214SOL     OW31540   0.904   1.494   1.951
10214SOL    HW131541   0.866   1.514   2.041
10214SOL    HW231542   0.843   1.531   1.880
10215SOL     OW31543   2.904   3.228   3.604
10215SOL    HW131544   2.909   3.289   3.525
10215SOL    HW231545   2.811   3.226   3.639
10216SOL     OW31546   0.852   0.409   1.228
10216SOL    HW131547   0.914   0.449   1.161
10216SOL    HW231548   0.767   0.461   1.229
10217SOL     OW31549   2.026   2.465   3.258
10217SOL    HW131550   1.979   2.380   3.234
10217SOL    HW231551   2.031   2.473   3.357
10218SOL     OW31552   1.638   1.040   1.654
10218SOL    HW131553   1.546   1.054   1.690
10218SOL    HW231554   1.701   1.105   1.697
10219SOL     OW31555   0.119   3.115   2.597
10219SOL    HW131556   0.128   3.212   2.576
10219SOL    HW231557   0.031   3.082   2.564
10220SOL     OW31558   4.009   1.482   0.970
10220SOL    HW131559   3.998   1.419   1.047
10220SOL    HW231560   4.100   1.470   0.930
10221SOL     OW31561   1.861   3.789   4.760
10221SOL    HW131562   1.954   3.776   4.795
10221SOL    HW231563   1.796   3.749   4.824
10222SOL     OW31564   2.632   3.302   5.671
10222SOL    HW131565   2.689   3.316   5.590
10222SOL    HW231566   2.689   3.268   5.746
10223SOL     OW31567   1.981   6.101   6.743
10223SOL    HW131568   2.014   6.081   6.650
10223SOL    HW231569   1.883   6.119   6.740
10224SOL     OW31570   0.131   1.947   5.045
10224SOL    HW131571   0.206   2.013   5.037
10224SOL    HW231572   0.052   1.980   4.993
10225SOL     OW31573   2.064   6.340   5.921
10225SOL    HW131574   2.086   6.366   6.015
10225SOL    HW231575   2.146   6.346   5.865
10226SOL     OW31576   2.460   0.650   6.608
10226SOL    HW131577   2.430   0.704   6.687
10226SOL    HW231578   2.430   0.555   6.618
10227SOL     OW31579   5.064   4.362   0.611
10227SOL    HW131580   5.044   4.365   0.709
10227SOL    HW231581   5.156   4.327   0.596
10228SOL     OW31582   0.976   6.480   1.907
10228SOL    HW131583   1.054   6.502   1.966
10228SOL    HW231584   0.969   6.547   1.834
10229SOL     OW31585   1.498   1.721   4.030
10229SOL    HW131586   1.520   1.634   3.987
10229SOL    HW231587   1.581   1.765   4.062
10230SOL     OW31588   6.473   6.617   2.733
10230SOL    HW131589   6.501   6.616   2.637
10230SOL    HW231590   6.482   6.525   2.771
10231SOL     OW31591   6.526   5.398   5.507
10231SOL    HW131592   6.565   5.402   5.599
10231SOL    HW231593   6.520   5.303   5.477
10232SOL     OW31594   2.537   1.075   4.504
10232SOL    HW131595   2.466   1.009   4.529
10232SOL    HW231596   2.609   1.075   4.573
10233SOL     OW31597   4.747   3.471   5.363
10233SOL    HW131598   4.817   3.519   5.416
10233SOL    HW231599   4.733   3.517   5.275
10234SOL     OW31600   5.748   0.151   6.956
10234SOL    HW131601   5.728   0.189   0.029
10234SOL    HW231602   5.827   0.090   6.963
10235SOL     OW31603   3.507   2.767   0.364
10235SOL    HW131604   3.410   2.757   0.386
10235SOL    HW231605   3.557   2.794   0.447
10236SOL     OW31606   2.196   1.114   1.645
10236SOL    HW131607   2.287   1.125   1.604
10236SOL    HW231608   2.132   1.177   1.601
10237SOL     OW31609   6.824   4.334   0.472
10237SOL    HW131610   6.846   4.396   0.397
10237SOL    HW231611   6.901   4.272   0.488
10238SOL     OW31612   3.341   4.000   2.624
10238SOL    HW131613   3.391   4.057   2.559
10238SOL    HW231614   3.269   3.949   2.576
10239SOL     OW31615   2.224   4.530   5.671
10239SOL    HW131616   2.288   4.472   5.721
10239SOL    HW231617   2.199   4.609   5.728
10240SOL     OW31618   1.656   4.705   2.412
10240SOL    HW131619   1.717   4.661   2.346
10240SOL    HW231620   1.565   4.714   2.372
10241SOL     OW31621   6.386   0.293   2.664
10241SOL    HW131622   6.396   0.339   2.752
10241SOL    HW231623   6.428   0.203   2.668
10242SOL     OW31624   6.820   1.710   1.315
10242SOL    HW131625   6.912   1.734   1.282
10242SOL    HW231626   6.821   1.616   1.350
10243SOL     OW31627   1.474   4.888   1.612
10243SOL    HW131628   1.490   4.921   1.705
10243SOL    HW231629   1.558   4.847   1.577
10244SOL     OW31630   1.477   4.229   0.842
10244SOL    HW131631   1.569   4.256   0.814
10244SOL    HW231632   1.466   4.247   0.939
10245SOL     OW31633   2.883   4.993   0.532
10245SOL    HW131634   2.811   5.050   0.492
10245SOL    HW231635   2.841   4.927   0.594
10246SOL     OW31636   3.295   3.927   3.104
10246SOL    HW131637   3.318   3.844   3.156
10246SOL    HW231638   3.321   4.008   3.157
10247SOL     OW31639   6.637   4.790   5.479
10247SOL    HW131640   6.590   4.731   5.414
10247SOL    HW231641   6.574   4.860   5.513
10248SOL     OW31642   2.063   0.251   2.309
10248SOL    HW131643   2.133   0.307   2.353
10248SOL    HW231644   2.090   0.155   2.311
10249SOL     OW31645   3.258   0.202   6.621
10249SOL    HW131646   3.345   0.252   6.623
10249SOL    HW231647   3.246   0.155   6.709
10250SOL     OW31648   6.413   3.108   1.558
10250SOL    HW131649   6.497   3.062   1.528
10250SOL    HW231650   6.433   3.204   1.579
10251SOL     OW31651   3.144   1.162   4.931
10251SOL    HW131652   3.102   1.249   4.904
10251SOL    HW231653   3.242   1.167   4.915
10252SOL     OW31654   4.271   4.652   6.920
10252SOL    HW131655   4.297   4.746   6.938
10252SOL    HW231656   4.204   4.650   6.845
10253SOL     OW31657   2.548   5.698   0.740
10253SOL    HW131658   2.542   5.698   0.640
10253SOL    HW231659   2.643   5.690   0.768
10254SOL     OW31660   4.739   0.748   4.423
10254SOL    HW131661   4.766   0.752   4.327
10254SOL    HW231662   4.713   0.655   4.447
10255SOL     OW31663   1.730   6.423   1.346
10255SOL    HW131664   1.701   6.337   1.388
10255SOL    HW231665   1.692   6.500   1.397
10256SOL     OW31666   6.356   1.017   1.744
10256SOL    HW131667   6.428   1.010   1.814
10256SOL    HW231668   6.277   1.066   1.782
10257SOL     OW31669   2.160   5.156   4.726
10257SOL    HW131670   2.144   5.060   4.705
10257SOL    HW231671   2.257   5.177   4.717
10258SOL     OW31672   2.924   1.256   3.921
10258SOL    HW131673   2.852   1.203   3.876
10258SOL    HW231674   3.006   1.256   3.864
10259SOL     OW31675   0.734   4.505   2.792
10259SOL    HW131676   0.795   4.437   2.833
10259SOL    HW231677   0.664   4.459   2.738
10260SOL     OW31678   0.533   1.448   3.728
10260SOL    HW131679   0.503   1.429   3.821
10260SOL    HW231680   0.629   1.420   3.717
10261SOL     OW31681   0.041   6.073   3.258
10261SOL    HW131682   6.989   6.040   3.195
10261SOL    HW231683   0.097   5.997   3.290
10262SOL     OW31684   1.619   6.661   4.942
10262SOL    HW131685   1.524   6.667   4.972
10262SOL    HW231686   1.622   6.632   4.846
10263SOL     OW31687   5.309   0.621   6.207
10263SOL    HW131688   5.246   0.648   6.134
10263SOL    HW231689   5.261   0.565   6.274
10264SOL     OW31690   5.598   1.697   5.978
10264SOL    HW131691   5.502   1.712   6.004
10264SOL    HW231692   5.601   1.647   5.891
10265SOL     OW31693   2.275   2.369   3.040
10265SOL    HW131694   2.176   2.363   3.055
10265SOL    HW231695   2.293   2.384   2.943
10266SOL     OW31696   3.241   2.945   4.072
10266SOL    HW131697   3.277   2.924   4.163
10266SOL    HW231698   3.151   2.903   4.061
10267SOL     OW31699   6.873   1.751   6.635
10267SOL    HW131700   6.901   1.847   6.644
10267SOL    HW231701   6.942   1.692   6.675
10268SOL     OW31702   5.629   5.292   2.399
10268SOL    HW131703   5.635   5.193   2.397
10268SOL    HW231704   5.716   5.331   2.429
10269SOL     OW31705   0.503   3.212   0.014
10269SOL    HW131706   0.476   3.150   0.088
10269SOL    HW231707   0.427   3.273   7.010
10270SOL     OW31708   2.981   4.842   3.242
10270SOL    HW131709   2.899   4.802   3.283
10270SOL    HW231710   2.981   4.941   3.259
10271SOL     OW31711   3.709   2.491   6.913
10271SOL    HW131712   3.774   2.417   6.900
10271SOL    HW231713   3.759   2.578   6.916
10272SOL     OW31714   0.577   0.868   4.477
10272SOL    HW131715   0.477   0.867   4.485
10272SOL    HW231716   0.610   0.962   4.482
10273SOL     OW31717   3.175   5.831   2.430
10273SOL    HW131718   3.209   5.836   2.524
10273SOL    HW231719   3.118   5.911   2.411
10274SOL     OW31720   6.781   5.501   4.163
10274SOL    HW131721   6.816   5.411   4.190
10274SOL    HW231722   6.700   5.522   4.218
10275SOL     OW31723   1.207   0.191   1.918
10275SOL    HW131724   1.240   0.185   2.012
10275SOL    HW231725   1.165   0.281   1.903
10276SOL     OW31726   6.236   4.917   5.633
10276SOL    HW131727   6.200   4.861   5.558
10276SOL    HW231728   6.179   4.998   5.644
10277SOL     OW31729   2.232   5.584   3.882
10277SOL    HW131730   2.204   5.543   3.969
10277SOL    HW231731   2.302   5.526   3.839
10278SOL     OW31732   6.946   0.862   4.498
10278SOL    HW131733   6.942   0.763   4.499
10278SOL    HW231734   6.915   0.896   4.409
10279SOL     OW31735   3.077   5.103   4.222
10279SOL    HW131736   3.097   5.193   4.261
10279SOL    HW231737   2.978   5.087   4.223
10280SOL     OW31738   0.352   3.751   0.934
10280SOL    HW131739   0.332   3.657   0.909
10280SOL    HW231740   0.425   3.753   1.002
10281SOL     OW31741   5.902   1.103   2.328
10281SOL    HW131742   5.977   1.091   2.263
10281SOL    HW231743   5.839   1.026   2.319
10282SOL     OW31744   5.815   4.585   4.018
10282SOL    HW131745   5.824   4.685   4.010
10282SOL    HW231746   5.876   4.542   3.952
10283SOL     OW31747   1.216   4.039   1.140
10283SOL    HW131748   1.306   3.998   1.129
10283SOL    HW231749   1.194   4.046   1.237
10284SOL     OW31750   5.154   2.885   5.478
10284SOL    HW131751   5.100   2.807   5.508
10284SOL    HW231752   5.133   2.905   5.382
10285SOL     OW31753   5.479   0.746   2.073
10285SOL    HW131754   5.478   0.675   2.001
10285SOL    HW231755   5.462   0.703   2.162
10286SOL     OW31756   2.795   1.989   3.743
10286SOL    HW131757   2.848   2.057   3.693
10286SOL    HW231758   2.851   1.953   3.818
10287SOL     OW31759   2.560   6.638   1.235
10287SOL    HW131760   2.489   6.674   1.175
10287SOL    HW231761   2.635   6.703   1.242
10288SOL     OW31762   4.525   5.834   3.196
10288SOL    HW131763   4.539   5.928   3.227
10288SOL    HW231764   4.497   5.778   3.273
10289SOL     OW31765   2.428   6.639   1.908
10289SOL    HW131766   2.483   6.635   1.825
10289SOL    HW231767   2.484   6.614   1.987
10290SOL     OW31768   2.935   3.315   2.330
10290SOL    HW131769   2.885   3.233   2.354
10290SOL    HW231770   2.930   3.381   2.406
10291SOL     OW31771   3.259   1.844   3.431
10291SOL    HW131772   3.274   1.872   3.336
10291SOL    HW231773   3.203   1.761   3.433
10292SOL     OW31774   1.366   0.007   4.875
10292SOL    HW131775   1.332   0.016   4.969
10292SOL    HW231776   1.294   0.033   4.811
10293SOL     OW31777   1.683   4.654   3.349
10293SOL    HW131778   1.713   4.569   3.393
10293SOL    HW231779   1.736   4.731   3.387
10294SOL     OW31780   5.530   3.430   2.357
10294SOL    HW131781   5.498   3.346   2.399
10294SOL    HW231782   5.507   3.508   2.414
10295SOL     OW31783   5.377   3.916   6.087
10295SOL    HW131784   5.306   3.939   6.153
10295SOL    HW231785   5.466   3.947   6.122
10296SOL     OW31786   4.829   2.880   0.258
10296SOL    HW131787   4.759   2.921   0.200
10296SOL    HW231788   4.785   2.836   0.337
10297SOL     OW31789   2.143   6.971   6.705
10297SOL    HW131790   2.189   6.892   6.747
10297SOL    HW231791   2.157   6.968   6.606
10298SOL     OW31792   3.485   4.895   1.695
10298SOL    HW131793   3.523   4.832   1.763
10298SOL    HW231794   3.523   4.874   1.605
10299SOL     OW31795   4.963   5.108   2.887
10299SOL    HW131796   4.926   5.017   2.908
10299SOL    HW231797   5.062   5.103   2.875
10300SOL     OW31798   0.904   3.956   3.005
10300SOL    HW131799   0.949   3.866   2.999
10300SOL    HW231800   0.955   4.022   2.950
10301SOL     OW31801   5.731   2.147   4.326
10301SOL    HW131802   5.710   2.092   4.407
10301SOL    HW231803   5.690   2.104   4.246
10302SOL     OW31804   1.455   6.547   3.719
10302SOL    HW131805   1.535   6.540   3.778
10302SOL    HW231806   1.479   6.599   3.637
10303SOL     OW31807   1.755   5.938   2.962
10303SOL    HW131808   1.664   5.974   2.983
10303SOL    HW231809   1.813   5.945   3.043
10304SOL     OW31810   4.901   0.350   1.890
10304SOL    HW131811   4.950   0.438   1.892
10304SOL    HW231812   4.804   0.366   1.905
10305SOL     OW31813   0.734   4.406   6.972
10305SOL    HW131814   0.801   4.333   6.982
10305SOL    HW231815   0.653   4.371   6.924
10306SOL     OW31816   4.465   6.150   6.473
10306SOL    HW131817   4.512   6.159   6.560
10306SOL    HW231818   4.489   6.063   6.430
10307SOL     OW31819   2.401   1.912   5.207
10307SOL    HW131820   2.377   1.977   5.134
10307SOL    HW231821   2.334   1.920   5.281
10308SOL     OW31822   2.394   4.536   4.164
10308SOL    HW131823   2.391   4.460   4.229
10308SOL    HW231824   2.393   4.499   4.071
10309SOL     OW31825   5.647   1.409   4.737
10309SOL    HW131826   5.676   1.442   4.827
10309SOL    HW231827   5.643   1.309   4.737
10310SOL     OW31828   3.690   3.067   1.676
10310SOL    HW131829   3.692   3.147   1.736
10310SOL    HW231830   3.671   2.986   1.730
10311SOL     OW31831   1.170   6.377   0.277
10311SOL    HW131832   1.200   6.431   0.355
10311SOL    HW231833   1.210   6.415   0.193
10312SOL     OW31834   2.822   6.703   1.586
10312SOL    HW131835   2.766   6.654   1.653
10312SOL    HW231836   2.878   6.772   1.632
10313SOL     OW31837   4.821   0.177   1.038
10313SOL    HW131838   4.845   0.184   1.135
10313SOL    HW231839   4.727   0.146   1.028
10314SOL     OW31840   6.367   6.931   2.500
10314SOL    HW131841   6.271   6.905   2.507
10314SOL    HW231842   6.380   6.991   2.420
10315SOL     OW31843   6.375   6.167   4.691
10315SOL    HW131844   6.367   6.082   4.639
10315SOL    HW231845   6.412   6.148   4.782
10316SOL     OW31846   6.434   2.692   5.113
10316SOL    HW131847   6.395   2.667   5.201
10316SOL    HW231848   6.363   2.689   5.043
10317SOL     OW31849   3.242   5.626   5.911
10317SOL    HW131850   3.155   5.651   5.954
10317SOL    HW231851   3.269   5.697   5.846
10318SOL     OW31852   5.876   5.120   6.651
10318SOL    HW131853   5.878   5.032   6.699
10318SOL    HW231854   5.970   5.151   6.637
10319SOL     OW31855   1.415   2.198   5.361
10319SOL    HW131856   1.381   2.107   5.383
10319SOL    HW231857   1.514   2.194   5.346
10320SOL     OW31858   1.219   0.589   2.748
10320SOL    HW131859   1.293   0.635   2.798
10320SOL    HW231860   1.132   0.605   2.795
10321SOL     OW31861   4.683   0.799   2.838
10321SOL    HW131862   4.596   0.777   2.794
10321SOL    HW231863   4.693   0.745   2.921
10322SOL     OW31864   6.793   5.719   6.652
10322SOL    HW131865   6.719   5.668   6.608
10322SOL    HW231866   6.769   5.737   6.747
10323SOL     OW31867   6.517   3.447   6.487
10323SOL    HW131868   6.596   3.465   6.546
10323SOL    HW231869   6.475   3.360   6.514
10324SOL     OW31870   3.249   2.928   2.884
10324SOL    HW131871   3.193   3.009   2.905
10324SOL    HW231872   3.253   2.869   2.964
10325SOL     OW31873   0.304   3.783   3.231
10325SOL    HW131874   0.349   3.822   3.311
10325SOL    HW231875   0.210   3.816   3.226
10326SOL     OW31876   3.710   3.782   0.415
10326SOL    HW131877   3.629   3.788   0.356
10326SOL    HW231878   3.778   3.849   0.384
10327SOL     OW31879   2.649   2.234   1.950
10327SOL    HW131880   2.739   2.252   1.989
10327SOL    HW231881   2.586   2.307   1.976
10328SOL     OW31882   6.477   2.735   1.411
10328SOL    HW131883   6.443   2.807   1.350
10328SOL    HW231884   6.401   2.700   1.466
10329SOL     OW31885   3.749   0.501   3.156
10329SOL    HW131886   3.749   0.578   3.221
10329SOL    HW231887   3.789   0.421   3.200
10330SOL     OW31888   3.878   5.887   2.089
10330SOL    HW131889   3.788   5.842   2.089
10330SOL    HW231890   3.872   5.975   2.043
10331SOL     OW31891   6.984   0.493   4.242
10331SOL    HW131892   6.966   0.519   4.337
10331SOL    HW231893   6.902   0.510   4.186
10332SOL     OW31894   6.112   1.602   0.724
10332SOL    HW131895   6.145   1.553   0.643
10332SOL    HW231896   6.105   1.700   0.703
10333SOL     OW31897   6.607   4.605   4.519
10333SOL    HW131898   6.602   4.646   4.610
10333SOL    HW231899   6.682   4.647   4.467
10334SOL     OW31900   2.659   6.539   4.190
10334SOL    HW131901   2.732   6.471   4.183
10334SOL    HW231902   2.695   6.630   4.168
10335SOL     OW31903   2.766   4.883   6.679
10335SOL    HW131904   2.790   4.786   6.684
10335SOL    HW231905   2.667   4.893   6.673
10336SOL     OW31906   6.059   0.454   3.162
10336SOL    HW131907   6.034   0.373   3.109
10336SOL    HW231908   5.982   0.481   3.219
10337SOL     OW31909   6.774   6.219   5.509
10337SOL    HW131910   6.767   6.126   5.545
10337SOL    HW231911   6.764   6.284   5.584
10338SOL     OW31912   2.264   6.308   1.394
10338SOL    HW131913   2.285   6.404   1.415
10338SOL    HW231914   2.347   6.253   1.405
10339SOL     OW31915   2.545   5.395   0.547
10339SOL    HW131916   2.501   5.481   0.520
10339SOL    HW231917   2.627   5.414   0.599
10340SOL     OW31918   0.791   5.919   0.882
10340SOL    HW131919   0.772   6.017   0.873
10340SOL    HW231920   0.708   5.872   0.912
10341SOL     OW31921   2.115   3.221   1.998
10341SOL    HW131922   2.158   3.308   1.976
10341SOL    HW231923   2.114   3.163   1.917
10342SOL     OW31924   1.148   6.414   5.170
10342SOL    HW131925   1.141   6.319   5.200
10342SOL    HW231926   1.236   6.428   5.125
10343SOL     OW31927   1.747   4.264   0.737
10343SOL    HW131928   1.757   4.166   0.722
10343SOL    HW231929   1.699   4.305   0.660
10344SOL     OW31930   4.376   3.567   1.732
10344SOL    HW131931   4.386   3.472   1.702
10344SOL    HW231932   4.406   3.628   1.659
10345SOL     OW31933   1.610   1.092   6.423
10345SOL    HW131934   1.650   1.068   6.334
10345SOL    HW231935   1.548   1.170   6.411
10346SOL     OW31936   6.220   0.704   0.985
10346SOL    HW131937   6.205   0.689   1.083
10346SOL    HW231938   6.148   0.659   0.933
10347SOL     OW31939   5.451   2.717   2.538
10347SOL    HW131940   5.434   2.619   2.525
10347SOL    HW231941   5.472   2.759   2.450
10348SOL     OW31942   6.316   1.471   0.287
10348SOL    HW131943   6.239   1.435   0.340
10348SOL    HW231944   6.305   1.569   0.275
10349SOL     OW31945   6.626   1.835   0.652
10349SOL    HW131946   6.703   1.856   0.592
10349SOL    HW231947   6.650   1.857   0.746
10350SOL     OW31948   2.238   6.045   5.393
10350SOL    HW131949   2.250   6.061   5.491
10350SOL    HW231950   2.268   6.126   5.343
10351SOL     OW31951   5.135   4.892   6.260
10351SOL    HW131952   5.208   4.959   6.274
10351SOL    HW231953   5.130   4.832   6.340
10352SOL     OW31954   5.372   2.197   0.006
10352SOL    HW131955   5.396   2.112   6.977
10352SOL    HW231956   5.455   2.242   0.040
10353SOL     OW31957   5.908   2.275   4.939
10353SOL    HW131958   5.985   2.219   4.969
10353SOL    HW231959   5.916   2.292   4.841
10354SOL     OW31960   6.772   2.307   1.732
10354SOL    HW131961   6.853   2.251   1.750
10354SOL    HW231962   6.757   2.314   1.633
10355SOL     OW31963   1.870   0.492   1.216
10355SOL    HW131964   1.817   0.573   1.243
10355SOL    HW231965   1.889   0.496   1.118
10356SOL     OW31966   0.096   4.166   5.384
10356SOL    HW131967   0.041   4.086   5.407
10356SOL    HW231968   0.188   4.155   5.423
10357SOL     OW31969   3.548   2.762   6.394
10357SOL    HW131970   3.497   2.702   6.456
10357SOL    HW231971   3.497   2.847   6.381
10358SOL     OW31972   6.812   3.344   3.926
10358SOL    HW131973   6.741   3.347   3.855
10358SOL    HW231974   6.902   3.343   3.882
10359SOL     OW31975   5.422   1.591   2.136
10359SOL    HW131976   5.463   1.676   2.103
10359SOL    HW231977   5.323   1.593   2.119
10360SOL     OW31978   4.594   5.716   1.609
10360SOL    HW131979   4.546   5.729   1.522
10360SOL    HW231980   4.544   5.650   1.664
10361SOL     OW31981   2.948   1.130   3.060
10361SOL    HW131982   3.040   1.117   3.096
10361SOL    HW231983   2.882   1.087   3.121
10362SOL     OW31984   0.116   5.402   2.922
10362SOL    HW131985   0.077   5.388   3.013
10362SOL    HW231986   0.202   5.451   2.930
10363SOL     OW31987   4.993   2.449   1.105
10363SOL    HW131988   5.039   2.437   1.017
10363SOL    HW231989   4.932   2.529   1.100
10364SOL     OW31990   3.568   3.895   1.746
10364SOL    HW131991   3.613   3.965   1.801
10364SOL    HW231992   3.502   3.937   1.685
10365SOL     OW31993   4.908   3.932   5.662
10365SOL    HW131994   4.890   4.002   5.731
10365SOL    HW231995   4.922   3.976   5.573
10366SOL     OW31996   3.512   6.638   4.127
10366SOL    HW131997   3.545   6.731   4.141
10366SOL    HW231998   3.433   6.622   4.185
10367SOL     OW31999   0.273   2.317   2.037
10367SOL    HW132000   0.176   2.331   2.059
10367SOL    HW232001   0.282   2.241   1.973
10368SOL     OW32002   2.416   1.283   2.720
10368SOL    HW132003   2.435   1.362   2.661
10368SOL    HW232004   2.418   1.311   2.816
10369SOL     OW32005   2.783   6.871   5.490
10369SOL    HW132006   2.816   6.845   5.399
10369SOL    HW232007   2.858   6.864   5.556
10370SOL     OW32008   6.264   1.017   5.244
10370SOL    HW132009   6.331   0.998   5.316
10370SOL    HW232010   6.286   1.104   5.200
10371SOL     OW32011   1.883   6.165   4.330
10371SOL    HW132012   1.884   6.067   4.313
10371SOL    HW232013   1.959   6.190   4.390
10372SOL     OW32014   2.203   1.407   6.711
10372SOL    HW132015   2.105   1.423   6.702
10372SOL    HW232016   2.234   1.436   6.802
10373SOL     OW32017   1.694   6.347   5.063
10373SOL    HW132018   1.644   6.382   4.984
10373SOL    HW232019   1.713   6.249   5.049
10374SOL     OW32020   2.812   0.989   3.864
10374SOL    HW132021   2.766   0.957   3.947
10374SOL    HW232022   2.910   0.974   3.872
10375SOL     OW32023   2.175   2.291   6.025
10375SOL    HW132024   2.246   2.274   6.092
10375SOL    HW232025   2.149   2.205   5.982
10376SOL     OW32026   0.972   5.594   3.724
10376SOL    HW132027   1.060   5.549   3.708
10376SOL    HW232028   0.918   5.538   3.789
10377SOL     OW32029   0.082   0.660   2.798
10377SOL    HW132030   0.051   0.570   2.825
10377SOL    HW232031   0.158   0.689   2.857
10378SOL     OW32032   6.057   5.776   5.988
10378SOL    HW132033   6.130   5.843   5.969
10378SOL    HW232034   6.011   5.754   5.902
10379SOL     OW32035   2.889   6.214   3.934
10379SOL    HW132036   2.957   6.222   3.861
10379SOL    HW232037   2.894   6.123   3.974
10380SOL     OW32038   0.707   2.816   4.896
10380SOL    HW132039   0.614   2.787   4.874
10380SOL    HW232040   0.773   2.749   4.861
10381SOL     OW32041   4.239   4.235   0.820
10381SOL    HW132042   4.244   4.161   0.753
10381SOL    HW232043   4.148   4.237   0.861
10382SOL     OW32044   1.726   5.285   1.727
10382SOL    HW132045   1.721   5.225   1.647
10382SOL    HW232046   1.697   5.377   1.702
10383SOL     OW32047   1.132   4.037   1.401
10383SOL    HW132048   1.047   4.088   1.399
10383SOL    HW232049   1.201   4.089   1.452
10384SOL     OW32050   6.777   0.376   1.060
10384SOL    HW132051   6.694   0.407   1.107
10384SOL    HW232052   6.850   0.443   1.073
10385SOL     OW32053   4.376   6.067   5.924
10385SOL    HW132054   4.382   6.071   5.825
10385SOL    HW232055   4.422   5.985   5.957
10386SOL     OW32056   6.834   1.774   5.522
10386SOL    HW132057   6.834   1.821   5.610
10386SOL    HW232058   6.905   1.814   5.463
10387SOL     OW32059   4.092   1.689   2.503
10387SOL    HW132060   4.053   1.632   2.430
10387SOL    HW232061   4.191   1.678   2.504
10388SOL     OW32062   1.768   5.751   1.873
10388SOL    HW132063   1.692   5.782   1.816
10388SOL    HW232064   1.844   5.817   1.867
10389SOL     OW32065   5.993   5.724   1.175
10389SOL    HW132066   6.026   5.736   1.268
10389SOL    HW232067   6.026   5.800   1.118
10390SOL     OW32068   1.804   3.060   1.196
10390SOL    HW132069   1.789   2.975   1.146
10390SOL    HW232070   1.860   3.122   1.141
10391SOL     OW32071   6.981   6.450   3.527
10391SOL    HW132072   6.962   6.374   3.589
10391SOL    HW232073   6.997   6.415   3.435
10392SOL     OW32074   6.354   4.635   5.657
10392SOL    HW132075   6.309   4.724   5.662
10392SOL    HW232076   6.287   4.563   5.675
10393SOL     OW32077   2.087   2.481   3.513
10393SOL    HW132078   2.166   2.536   3.538
10393SOL    HW232079   2.076   2.405   3.578
10394SOL     OW32080   2.097   5.804   5.285
10394SOL    HW132081   2.105   5.903   5.302
10394SOL    HW232082   2.168   5.755   5.334
10395SOL     OW32083   0.211   0.512   2.325
10395SOL    HW132084   0.120   0.513   2.284
10395SOL    HW232085   0.237   0.418   2.348
10396SOL     OW32086   3.760   1.119   3.460
10396SOL    HW132087   3.714   1.114   3.548
10396SOL    HW232088   3.701   1.166   3.394
10397SOL     OW32089   2.579   1.341   4.469
10397SOL    HW132090   2.551   1.245   4.467
10397SOL    HW232091   2.659   1.353   4.410
10398SOL     OW32092   4.963   2.639   0.479
10398SOL    HW132093   4.880   2.691   0.458
10398SOL    HW232094   4.947   2.580   0.558
10399SOL     OW32095   4.783   2.529   4.495
10399SOL    HW132096   4.731   2.468   4.436
10399SOL    HW232097   4.725   2.558   4.571
10400SOL     OW32098   4.044   5.614   0.128
10400SOL    HW132099   3.984   5.624   0.048
10400SOL    HW232100   4.126   5.563   0.103
10401SOL     OW32101   0.034   0.048   2.068
10401SOL    HW132102   0.095   0.101   2.127
10401SOL    HW232103   0.084   6.987   2.031
10402SOL     OW32104   6.920   1.559   5.316
10402SOL    HW132105   6.921   1.657   5.296
10402SOL    HW232106   7.013   1.523   5.312
10403SOL     OW32107   4.297   1.899   2.890
10403SOL    HW132108   4.252   1.860   2.970
10403SOL    HW232109   4.389   1.929   2.914
10404SOL     OW32110   6.336   6.226   4.024
10404SOL    HW132111   6.320   6.235   3.925
10404SOL    HW232112   6.354   6.316   4.063
10405SOL     OW32113   0.909   5.734   4.616
10405SOL    HW132114   0.875   5.657   4.562
10405SOL    HW232115   0.891   5.820   4.567
10406SOL     OW32116   2.324   2.938   5.390
10406SOL    HW132117   2.401   2.991   5.354
10406SOL    HW232118   2.240   2.965   5.342
10407SOL     OW32119   2.407   0.366   0.016
10407SOL    HW132120   2.383   0.271   7.014
10407SOL    HW232121   2.345   0.427   6.984
10408SOL     OW32122   3.988   6.975   1.924
10408SOL    HW132123   4.076   6.942   1.958
10408SOL    HW232124   4.000   7.015   1.833
10409SOL     OW32125   0.119   4.307   0.796
10409SOL    HW132126   0.031   4.343   0.766
10409SOL    HW232127   0.167   4.267   0.718
10410SOL     OW32128   5.715   2.972   1.864
10410SOL    HW132129   5.754   2.890   1.907
10410SOL    HW232130   5.645   2.946   1.798
10411SOL     OW32131   3.380   6.112   4.128
10411SOL    HW132132   3.360   6.071   4.039
10411SOL    HW232133   3.324   6.068   4.198
10412SOL     OW32134   0.022   0.919   6.733
10412SOL    HW132135   0.052   0.995   6.791
10412SOL    HW232136   6.958   0.947   6.682
10413SOL     OW32137   6.537   2.442   1.950
10413SOL    HW132138   6.582   2.353   1.936
10413SOL    HW232139   6.472   2.458   1.876
10414SOL     OW32140   3.466   5.135   5.800
10414SOL    HW132141   3.472   5.049   5.748
10414SOL    HW232142   3.400   5.195   5.756
10415SOL     OW32143   1.667   4.473   4.197
10415SOL    HW132144   1.611   4.412   4.141
10415SOL    HW232145   1.614   4.506   4.275
10416SOL     OW32146   5.795   6.617   5.593
10416SOL    HW132147   5.711   6.579   5.630
10416SOL    HW232148   5.803   6.593   5.496
10417SOL     OW32149   4.323   5.184   4.768
10417SOL    HW132150   4.267   5.109   4.730
10417SOL    HW232151   4.307   5.191   4.866
10418SOL     OW32152   7.018   3.952   6.138
10418SOL    HW132153   0.074   3.918   6.196
10418SOL    HW232154   6.933   3.956   6.191
10419SOL     OW32155   3.656   6.831   6.243
10419SOL    HW132156   3.577   6.793   6.193
10419SOL    HW232157   3.633   6.921   6.278
10420SOL     OW32158   0.284   4.293   4.313
10420SOL    HW132159   0.221   4.358   4.354
10420SOL    HW232160   0.333   4.244   4.385
10421SOL     OW32161   1.685   3.697   4.139
10421SOL    HW132162   1.710   3.629   4.070
10421SOL    HW232163   1.768   3.735   4.180
10422SOL     OW32164   6.492   3.154   5.947
10422SOL    HW132165   6.458   3.204   6.028
10422SOL    HW232166   6.506   3.219   5.872
10423SOL     OW32167   5.404   5.093   5.610
10423SOL    HW132168   5.355   5.049   5.686
10423SOL    HW232169   5.349   5.167   5.573
10424SOL     OW32170   3.985   3.021   0.582
10424SOL    HW132171   4.007   2.925   0.562
10424SOL    HW232172   3.886   3.029   0.595
10425SOL     OW32173   0.698   6.282   2.487
10425SOL    HW132174   0.683   6.344   2.410
10425SOL    HW232175   0.709   6.188   2.453
10426SOL     OW32176   5.350   4.813   6.628
10426SOL    HW132177   5.330   4.873   6.706
10426SOL    HW232178   5.421   4.748   6.653
10427SOL     OW32179   5.048   0.898   7.000
10427SOL    HW132180   5.039   0.840   0.063
10427SOL    HW232181   5.100   0.848   6.930
10428SOL     OW32182   3.079   0.975   3.903
10428SOL    HW132183   3.127   0.888   3.901
10428SOL    HW232184   3.145   1.050   3.895
10429SOL     OW32185   0.069   4.262   2.633
10429SOL    HW132186   0.025   4.202   2.699
10429SOL    HW232187   0.120   4.208   2.567
10430SOL     OW32188   3.769   6.644   5.104
10430SOL    HW132189   3.816   6.731   5.116
10430SOL    HW232190   3.678   6.659   5.067
10431SOL     OW32191   2.293   6.345   3.918
10431SOL    HW132192   2.213   6.326   3.975
10431SOL    HW232193   2.263   6.388   3.833
10432SOL     OW32194   6.476   0.643   4.828
10432SOL    HW132195   6.395   0.699   4.809
10432SOL    HW232196   6.540   0.650   4.751
10433SOL     OW32197   0.805   6.683   2.601
10433SOL    HW132198   0.783   6.645   2.691
10433SOL    HW232199   0.731   6.663   2.537
10434SOL     OW32200   3.193   6.388   3.099
10434SOL    HW132201   3.183   6.293   3.129
10434SOL    HW232202   3.289   6.408   3.081
10435SOL     OW32203   1.720   2.250   5.319
10435SOL    HW132204   1.776   2.256   5.401
10435SOL    HW232205   1.769   2.201   5.247
10436SOL     OW32206   6.239   4.477   5.209
10436SOL    HW132207   6.201   4.397   5.162
10436SOL    HW232208   6.177   4.554   5.199
10437SOL     OW32209   5.828   4.464   5.690
10437SOL    HW132210   5.921   4.429   5.698
10437SOL    HW232211   5.777   4.440   5.773
10438SOL     OW32212   0.609   5.660   6.020
10438SOL    HW132213   0.624   5.591   6.091
10438SOL    HW232214   0.576   5.615   5.937
10439SOL     OW32215   4.824   1.153   4.775
10439SOL    HW132216   4.806   1.085   4.704
10439SOL    HW232217   4.760   1.229   4.765
10440SOL     OW32218   0.645   6.904   0.405
10440SOL    HW132219   0.680   6.990   0.443
10440SOL    HW232220   0.579   6.865   0.469
10441SOL     OW32221   3.568   1.696   1.113
10441SOL    HW132222   3.562   1.726   1.018
10441SOL    HW232223   3.586   1.597   1.115
10442SOL     OW32224   4.245   6.536   5.207
10442SOL    HW132225   4.199   6.455   5.243
10442SOL    HW232226   4.314   6.567   5.273
10443SOL     OW32227   5.069   2.479   3.139
10443SOL    HW132228   5.135   2.447   3.071
10443SOL    HW232229   4.980   2.437   3.121
10444SOL     OW32230   3.816   5.286   3.379
10444SOL    HW132231   3.844   5.377   3.409
10444SOL    HW232232   3.897   5.233   3.353
10445SOL     OW32233   0.617   4.997   3.310
10445SOL    HW132234   0.555   4.991   3.231
10445SOL    HW232235   0.656   5.089   3.314
10446SOL     OW32236   2.164   2.915   6.579
10446SOL    HW132237   2.108   2.992   6.548
10446SOL    HW232238   2.223   2.946   6.653
10447SOL     OW32239   0.742   1.216   3.081
10447SOL    HW132240   0.652   1.232   3.041
10447SOL    HW232241   0.804   1.289   3.053
10448SOL     OW32242   4.394   0.410   2.440
10448SOL    HW132243   4.305   0.434   2.479
10448SOL    HW232244   4.426   0.484   2.381
10449SOL     OW32245   1.637   5.601   6.064
10449SOL    HW132246   1.617   5.516   6.111
10449SOL    HW232247   1.621   5.678   6.125
10450SOL     OW32248   0.382   1.158   0.075
10450SOL    HW132249   0.415   1.078   0.025
10450SOL    HW232250   0.457   1.197   0.129
10451SOL     OW32251   1.930   6.237   2.970
10451SOL    HW132252   2.000   6.297   3.008
10451SOL    HW232253   1.909   6.165   3.036
10452SOL     OW32254   6.068   3.194   2.835
10452SOL    HW132255   6.090   3.242   2.750
10452SOL    HW232256   6.003   3.248   2.888
10453SOL     OW32257   5.735   0.009   1.367
10453SOL    HW132258   5.743   7.016   1.466
10453SOL    HW232259   5.770   6.945   1.321
10454SOL     OW32260   5.002   3.045   0.015
10454SOL    HW132261   5.007   2.993   6.948
10454SOL    HW232262   5.033   2.989   0.091
10455SOL     OW32263   7.008   6.059   3.569
10455SOL    HW132264   0.002   6.020   3.477
10455SOL    HW232265   0.066   6.121   3.588
10456SOL     OW32266   1.305   5.533   0.709
10456SOL    HW132267   1.251   5.557   0.628
10456SOL    HW232268   1.312   5.613   0.769
10457SOL     OW32269   3.691   3.019   0.374
10457SOL    HW132270   3.596   3.015   0.341
10457SOL    HW232271   3.750   3.053   0.301
10458SOL     OW32272   6.297   0.322   5.795
10458SOL    HW132273   6.374   0.322   5.859
10458SOL    HW232274   6.251   0.410   5.799
10459SOL     OW32275   4.570   5.980   0.779
10459SOL    HW132276   4.652   6.038   0.784
10459SOL    HW232277   4.566   5.936   0.690
10460SOL     OW32278   1.144   4.286   1.777
10460SOL    HW132279   1.058   4.337   1.776
10460SOL    HW232280   1.218   4.345   1.807
10461SOL     OW32281   5.864   5.180   5.196
10461SOL    HW132282   5.879   5.107   5.129
10461SOL    HW232283   5.934   5.175   5.267
10462SOL     OW32284   5.012   2.142   3.232
10462SOL    HW132285   4.916   2.143   3.260
10462SOL    HW232286   5.071   2.153   3.312
10463SOL     OW32287   4.180   2.467   5.907
10463SOL    HW132288   4.156   2.558   5.873
10463SOL    HW232289   4.279   2.459   5.914
10464SOL     OW32290   6.668   6.879   1.659
10464SOL    HW132291   6.755   6.919   1.689
10464SOL    HW232292   6.661   6.887   1.559
10465SOL     OW32293   6.313   5.644   1.057
10465SOL    HW132294   6.375   5.599   0.993
10465SOL    HW232295   6.355   5.728   1.092
10466SOL     OW32296   4.270   4.928   5.592
10466SOL    HW132297   4.345   4.879   5.636
10466SOL    HW232298   4.197   4.863   5.569
10467SOL     OW32299   2.619   2.124   0.186
10467SOL    HW132300   2.606   2.026   0.175
10467SOL    HW232301   2.570   2.155   0.267
10468SOL     OW32302   3.617   5.343   3.200
10468SOL    HW132303   3.703   5.325   3.246
10468SOL    HW232304   3.557   5.263   3.208
10469SOL     OW32305   3.917   4.439   5.651
10469SOL    HW132306   3.976   4.366   5.686
10469SOL    HW232307   3.888   4.416   5.558
10470SOL     OW32308   1.911   2.466   3.931
10470SOL    HW132309   1.902   2.405   4.010
10470SOL    HW232310   1.960   2.549   3.958
10471SOL     OW32311   3.131   0.950   0.752
10471SOL    HW132312   3.050   0.949   0.693
10471SOL    HW232313   3.196   0.881   0.719
10472SOL     OW32314   3.466   5.874   0.594
10472SOL    HW132315   3.498   5.954   0.645
10472SOL    HW232316   3.543   5.812   0.576
10473SOL     OW32317   6.517   0.219   6.732
10473SOL    HW132318   6.496   0.127   6.764
10473SOL    HW232319   6.611   0.222   6.699
10474SOL     OW32320   4.021   1.286   4.404
10474SOL    HW132321   3.976   1.363   4.360
10474SOL    HW232322   4.038   1.215   4.335
10475SOL     OW32323   4.627   6.612   1.451
10475SOL    HW132324   4.687   6.692   1.445
10475SOL    HW232325   4.531   6.642   1.450
10476SOL     OW32326   0.088   6.883   0.162
10476SOL    HW132327   0.169   6.931   0.195
10476SOL    HW232328   0.054   6.927   0.079
10477SOL     OW32329   6.627   0.654   4.550
10477SOL    HW132330   6.566   0.582   4.518
10477SOL    HW232331   6.598   0.741   4.510
10478SOL     OW32332   6.077   0.714   0.506
10478SOL    HW132333   6.041   0.762   0.426
10478SOL    HW232334   6.057   0.767   0.589
10479SOL     OW32335   6.960   1.671   2.829
10479SOL    HW132336   6.879   1.708   2.876
10479SOL    HW232337   6.973   1.576   2.856
10480SOL     OW32338   0.633   0.839   1.604
10480SOL    HW132339   0.537   0.815   1.615
10480SOL    HW232340   0.642   0.939   1.602
10481SOL     OW32341   2.178   6.989   4.229
10481SOL    HW132342   2.143   6.966   4.320
10481SOL    HW232343   2.261   0.026   4.239
10482SOL     OW32344   6.408   4.914   4.394
10482SOL    HW132345   6.494   4.959   4.417
10482SOL    HW232346   6.337   4.983   4.378
10483SOL     OW32347   6.383   4.938   0.536
10483SOL    HW132348   6.458   4.887   0.493
10483SOL    HW232349   6.329   4.983   0.465
10484SOL     OW32350   6.218   1.797   1.902
10484SOL    HW132351   6.177   1.738   1.971
10484SOL    HW232352   6.168   1.884   1.900
10485SOL     OW32353   3.274   3.776   0.509
10485SOL    HW132354   3.290   3.714   0.585
10485SOL    HW232355   3.206   3.737   0.447
10486SOL     OW32356   0.593   0.741   0.291
10486SOL    HW132357   0.678   0.753   0.240
10486SOL    HW232358   0.584   0.646   0.321
10487SOL     OW32359   4.787   0.981   1.150
10487SOL    HW132360   4.852   1.019   1.216
10487SOL    HW232361   4.795   0.881   1.150
10488SOL     OW32362   2.933   0.875   5.953
10488SOL    HW132363   2.878   0.870   5.869
10488SOL    HW232364   3.010   0.812   5.947
10489SOL     OW32365   0.413   6.789   5.372
10489SOL    HW132366   0.412   6.729   5.451
10489SOL    HW232367   0.328   6.841   5.367
10490SOL     OW32368   5.696   2.025   1.290
10490SOL    HW132369   5.753   1.945   1.308
10490SOL    HW232370   5.602   2.006   1.318
10491SOL     OW32371   2.321   2.202   6.578
10491SOL    HW132372   2.274   2.196   6.666
10491SOL    HW232373   2.403   2.258   6.589
10492SOL     OW32374   5.879   4.878   6.793
10492SOL    HW132375   5.920   4.810   6.731
10492SOL    HW232376   5.781   4.861   6.802
10493SOL     OW32377   3.373   0.531   2.335
10493SOL    HW132378   3.283   0.573   2.330
10493SOL    HW232379   3.441   0.601   2.357
10494SOL     OW32380   5.238   4.028   5.647
10494SOL    HW132381   5.277   3.982   5.727
10494SOL    HW232382   5.166   4.091   5.678
10495SOL     OW32383   1.873   6.835   1.222
10495SOL    HW132384   1.902   6.916   1.273
10495SOL    HW232385   1.913   6.836   1.130
10496SOL     OW32386   0.234   3.820   5.944
10496SOL    HW132387   0.137   3.825   5.924
10496SOL    HW232388   0.253   3.863   6.033
10497SOL     OW32389   1.974   6.775   1.899
10497SOL    HW132390   1.878   6.784   1.872
10497SOL    HW232391   2.022   6.860   1.879
10498SOL     OW32392   4.595   5.150   0.931
10498SOL    HW132393   4.602   5.131   0.833
10498SOL    HW232394   4.515   5.207   0.948
10499SOL     OW32395   4.095   6.968   2.246
10499SOL    HW132396   4.005   6.942   2.281
10499SOL    HW232397   4.108   0.049   2.257
10500SOL     OW32398   6.147   1.015   6.091
10500SOL    HW132399   6.090   1.095   6.072
10500SOL    HW232400   6.115   0.938   6.036
10501SOL     OW32401   2.456   5.518   1.851
10501SOL    HW132402   2.495   5.586   1.913
10501SOL    HW232403   2.514   5.510   1.770
10502SOL     OW32404   2.659   1.323   1.796
10502SOL    HW132405   2.619   1.246   1.847
10502SOL    HW232406   2.752   1.299   1.768
10503SOL     OW32407   4.316   2.657   0.923
10503SOL    HW132408   4.261   2.581   0.888
10503SOL    HW232409   4.408   2.624   0.945
10504SOL     OW32410   1.057   1.711   5.821
10504SOL    HW132411   1.130   1.666   5.770
10504SOL    HW232412   0.974   1.656   5.816
10505SOL     OW32413   4.976   4.868   0.540
10505SOL    HW132414   5.062   4.880   0.588
10505SOL    HW232415   4.941   4.775   0.556
10506SOL     OW32416   6.767   4.819   0.754
10506SOL    HW132417   6.687   4.879   0.761
10506SOL    HW232418   6.738   4.728   0.725
10507SOL     OW32419   2.187   6.908   0.136
10507SOL    HW132420   2.126   6.830   0.148
10507SOL    HW232421   2.133   6.991   0.123
10508SOL     OW32422   6.397   5.913   4.907
10508SOL    HW132423   6.304   5.878   4.914
10508SOL    HW232424   6.407   5.993   4.967
10509SOL     OW32425   0.358   5.444   4.201
10509SOL    HW132426   0.386   5.351   4.177
10509SOL    HW232427   0.270   5.441   4.247
10510SOL     OW32428   4.603   5.600   6.774
10510SOL    HW132429   4.630   5.620   6.680
10510SOL    HW232430   4.515   5.644   6.793
10511SOL     OW32431   3.297   1.157   2.207
10511SOL    HW132432   3.381   1.188   2.163
10511SOL    HW232433   3.275   1.218   2.284
10512SOL     OW32434   4.016   0.309   6.316
10512SOL    HW132435   4.056   0.266   6.397
10512SOL    HW232436   3.923   0.275   6.302
10513SOL     OW32437   5.769   2.191   4.633
10513SOL    HW132438   5.778   2.252   4.554
10513SOL    HW232439   5.695   2.223   4.692
10514SOL     OW32440   0.384   3.199   1.362
10514SOL    HW132441   0.291   3.174   1.390
10514SOL    HW232442   0.417   3.274   1.418
10515SOL     OW32443   0.648   3.453   3.676
10515SOL    HW132444   0.611   3.534   3.631
10515SOL    HW232445   0.690   3.480   3.763
10516SOL     OW32446   4.253   1.319   0.663
10516SOL    HW132447   4.196   1.238   0.650
10516SOL    HW232448   4.196   1.401   0.652
10517SOL     OW32449   0.752   2.960   1.871
10517SOL    HW132450   0.831   2.899   1.877
10517SOL    HW232451   0.695   2.932   1.793
10518SOL     OW32452   0.641   5.998   0.449
10518SOL    HW132453   0.711   6.070   0.450
10518SOL    HW232454   0.557   6.033   0.492
10519SOL     OW32455   3.130   3.563   0.322
10519SOL    HW132456   3.189   3.552   0.242
10519SOL    HW232457   3.158   3.499   0.393
10520SOL     OW32458   0.454   2.681   6.134
10520SOL    HW132459   0.481   2.762   6.185
10520SOL    HW232460   0.526   2.655   6.070
10521SOL     OW32461   5.963   5.926   1.473
10521SOL    HW132462   6.024   5.915   1.551
10521SOL    HW232463   5.868   5.916   1.504
10522SOL     OW32464   0.975   0.699   5.189
10522SOL    HW132465   1.017   0.609   5.197
10522SOL    HW232466   0.905   0.710   5.259
10523SOL     OW32467   1.123   4.684   3.338
10523SOL    HW132468   1.122   4.729   3.427
10523SOL    HW232469   1.087   4.747   3.268
10524SOL     OW32470   1.752   6.986   4.560
10524SOL    HW132471   1.825   0.016   4.609
10524SOL    HW232472   1.679   6.961   4.624
10525SOL     OW32473   4.059   6.366   6.202
10525SOL    HW132474   4.014   6.313   6.274
10525SOL    HW232475   4.040   6.325   6.113
10526SOL     OW32476   2.050   6.887   3.843
10526SOL    HW132477   1.987   6.950   3.890
10526SOL    HW232478   2.074   6.812   3.904
10527SOL     OW32479   0.816   1.062   5.224
10527SOL    HW132480   0.799   0.964   5.215
10527SOL    HW232481   0.868   1.079   5.308
10528SOL     OW32482   1.815   2.925   5.977
10528SOL    HW132483   1.877   3.000   5.954
10528SOL    HW232484   1.756   2.905   5.899
10529SOL     OW32485   3.324   5.810   4.175
10529SOL    HW132486   3.345   5.716   4.147
10529SOL    HW232487   3.409   5.858   4.197
10530SOL     OW32488   1.853   0.392   6.593
10530SOL    HW132489   1.889   0.314   6.645
10530SOL    HW232490   1.901   0.398   6.505
10531SOL     OW32491   1.020   2.755   4.534
10531SOL    HW132492   1.007   2.706   4.448
10531SOL    HW232493   0.974   2.844   4.529
10532SOL     OW32494   1.075   6.366   6.175
10532SOL    HW132495   1.146   6.384   6.106
10532SOL    HW232496   1.003   6.309   6.134
10533SOL     OW32497   3.062   6.613   4.064
10533SOL    HW132498   3.043   6.583   3.970
10533SOL    HW232499   3.155   6.583   4.089
10534SOL     OW32500   6.327   6.348   1.550
10534SOL    HW132501   6.316   6.393   1.461
10534SOL    HW232502   6.294   6.409   1.622
10535SOL     OW32503   1.722   2.062   1.644
10535SOL    HW132504   1.683   2.139   1.594
10535SOL    HW232505   1.694   2.068   1.740
10536SOL     OW32506   4.453   0.593   3.821
10536SOL    HW132507   4.378   0.600   3.756
10536SOL    HW232508   4.499   0.681   3.829
10537SOL     OW32509   3.805   5.873   4.146
10537SOL    HW132510   3.869   5.930   4.199
10537SOL    HW232511   3.712   5.892   4.176
10538SOL     OW32512   5.636   2.909   1.152
10538SOL    HW132513   5.600   2.950   1.236
10538SOL    HW232514   5.711   2.847   1.176
10539SOL     OW32515   0.617   4.756   6.938
10539SOL    HW132516   0.614   4.852   6.909
10539SOL    HW232517   0.584   4.697   6.864
10540SOL     OW32518   1.644   1.918   4.975
10540SOL    HW132519   1.724   1.954   4.927
10540SOL    HW232520   1.574   1.989   4.981
10541SOL     OW32521   3.182   4.016   1.917
10541SOL    HW132522   3.270   3.985   1.953
10541SOL    HW232523   3.116   3.941   1.922
10542SOL     OW32524   6.916   0.138   5.475
10542SOL    HW132525   6.863   0.183   5.546
10542SOL    HW232526   6.956   0.207   5.414
10543SOL     OW32527   0.133   1.650   4.139
10543SOL    HW132528   0.047   1.604   4.156
10543SOL    HW232529   0.126   1.704   4.054
10544SOL     OW32530   2.581   6.871   1.757
10544SOL    HW132531   2.659   6.909   1.707
10544SOL    HW232532   2.565   6.924   1.840
10545SOL     OW32533   0.468   2.046   2.076
10545SOL    HW132534   0.487   2.061   1.979
10545SOL    HW232535   0.391   1.983   2.086
10546SOL     OW32536   2.074   1.225   0.620
10546SOL    HW132537   2.020   1.259   0.543
10546SOL    HW232538   2.158   1.278   0.629
10547SOL     OW32539   5.635   2.843   2.789
10547SOL    HW132540   5.646   2.920   2.725
10547SOL    HW232541   5.541   2.842   2.824
10548SOL     OW32542   5.554   4.509   4.013
10548SOL    HW132543   5.649   4.538   4.001
10548SOL    HW232544   5.497   4.553   3.944
10549SOL     OW32545   0.943   0.086   1.878
10549SOL    HW132546   0.906   7.015   1.903
10549SOL    HW232547   1.043   0.085   1.891
10550SOL     OW32548   4.635   6.423   3.448
10550SOL    HW132549   4.549   6.419   3.397
10550SOL    HW232550   4.711   6.398   3.387
10551SOL     OW32551   1.682   2.624   6.504
10551SOL    HW132552   1.582   2.627   6.491
10551SOL    HW232553   1.726   2.623   6.414
10552SOL     OW32554   3.240   0.346   6.014
10552SOL    HW132555   3.260   0.440   5.985
10552SOL    HW232556   3.228   0.344   6.113
10553SOL     OW32557   0.661   4.275   1.948
10553SOL    HW132558   0.648   4.374   1.943
10553SOL    HW232559   0.573   4.230   1.964
10554SOL     OW32560   5.647   4.346   0.130
10554SOL    HW132561   5.584   4.268   0.129
10554SOL    HW232562   5.597   4.429   0.107
10555SOL     OW32563   1.385   2.747   0.056
10555SOL    HW132564   1.466   2.784   0.100
10555SOL    HW232565   1.408   2.663   0.007
10556SOL     OW32566   1.871   1.607   5.082
10556SOL    HW132567   1.809   1.593   5.005
10556SOL    HW232568   1.959   1.640   5.049
10557SOL     OW32569   2.364   2.816   3.191
10557SOL    HW132570   2.318   2.879   3.128
10557SOL    HW232571   2.362   2.724   3.153
10558SOL     OW32572   4.262   0.640   3.632
10558SOL    HW132573   4.306   0.699   3.563
10558SOL    HW232574   4.258   0.546   3.597
10559SOL     OW32575   4.772   0.474   1.605
10559SOL    HW132576   4.844   0.542   1.588
10559SOL    HW232577   4.801   0.413   1.678
10560SOL     OW32578   3.950   6.172   2.982
10560SOL    HW132579   3.953   6.159   3.081
10560SOL    HW232580   4.011   6.106   2.938
10561SOL     OW32581   3.182   3.553   1.851
10561SOL    HW132582   3.273   3.579   1.819
10561SOL    HW232583   3.184   3.460   1.887
10562SOL     OW32584   4.576   4.875   0.234
10562SOL    HW132585   4.512   4.873   0.156
10562SOL    HW232586   4.526   4.900   0.317
10563SOL     OW32587   0.563   1.876   3.443
10563SOL    HW132588   0.565   1.871   3.343
10563SOL    HW232589   0.597   1.790   3.481
10564SOL     OW32590   5.911   5.933   2.391
10564SOL    HW132591   5.936   5.846   2.348
10564SOL    HW232592   5.814   5.950   2.375
10565SOL     OW32593   0.425   6.715   5.652
10565SOL    HW132594   0.460   6.633   5.697
10565SOL    HW232595   0.386   6.776   5.722
10566SOL     OW32596   3.294   1.758   6.298
10566SOL    HW132597   3.253   1.667   6.294
10566SOL    HW232598   3.260   1.813   6.222
10567SOL     OW32599   2.984   2.125   4.803
10567SOL    HW132600   3.006   2.030   4.826
10567SOL    HW232601   3.045   2.186   4.852
10568SOL     OW32602   5.817   3.334   1.430
10568SOL    HW132603   5.861   3.287   1.353
10568SOL    HW232604   5.721   3.305   1.436
10569SOL     OW32605   5.847   1.957   2.023
10569SOL    HW132606   5.915   1.915   2.083
10569SOL    HW232607   5.811   2.039   2.067
10570SOL     OW32608   0.802   5.717   3.435
10570SOL    HW132609   0.760   5.808   3.443
10570SOL    HW232610   0.902   5.726   3.443
10571SOL     OW32611   0.138   4.324   5.706
10571SOL    HW132612   0.200   4.395   5.672
10571SOL    HW232613   0.188   4.239   5.719
10572SOL     OW32614   6.602   4.412   3.767
10572SOL    HW132615   6.573   4.344   3.835
10572SOL    HW232616   6.697   4.395   3.740
10573SOL     OW32617   4.703   0.639   5.231
10573SOL    HW132618   4.624   0.639   5.171
10573SOL    HW232619   4.749   0.550   5.227
10574SOL     OW32620   1.701   1.556   4.262
10574SOL    HW132621   1.785   1.506   4.240
10574SOL    HW232622   1.695   1.568   4.361
10575SOL     OW32623   6.871   1.643   4.151
10575SOL    HW132624   6.898   1.737   4.131
10575SOL    HW232625   6.871   1.590   4.066
10576SOL     OW32626   0.171   5.896   4.770
10576SOL    HW132627   0.219   5.854   4.693
10576SOL    HW232628   0.236   5.916   4.843
10577SOL     OW32629   1.747   4.442   0.239
10577SOL    HW132630   1.709   4.502   0.309
10577SOL    HW232631   1.805   4.373   0.282
10578SOL     OW32632   4.575   1.387   3.086
10578SOL    HW132633   4.594   1.301   3.039
10578SOL    HW232634   4.507   1.439   3.034
10579SOL     OW32635   4.513   2.668   1.548
10579SOL    HW132636   4.474   2.752   1.585
10579SOL    HW232637   4.607   2.657   1.582
10580SOL     OW32638   6.982   0.251   6.433
10580SOL    HW132639   6.923   0.331   6.421
10580SOL    HW232640   6.935   0.170   6.397
10581SOL     OW32641   6.550   7.015   3.478
10581SOL    HW132642   6.533   0.096   3.474
10581SOL    HW232643   6.619   6.991   3.409
10582SOL     OW32644   5.227   4.755   5.744
10582SOL    HW132645   5.236   4.765   5.843
10582SOL    HW232646   5.191   4.664   5.723
10583SOL     OW32647   4.075   0.802   4.118
10583SOL    HW132648   4.139   0.854   4.175
10583SOL    HW232649   4.123   0.766   4.038
10584SOL     OW32650   6.569   0.382   0.885
10584SOL    HW132651   6.517   0.299   0.907
10584SOL    HW232652   6.662   0.373   0.921
10585SOL     OW32653   2.106   1.740   5.057
10585SOL    HW132654   2.116   1.827   5.009
10585SOL    HW232655   2.151   1.667   5.005
10586SOL     OW32656   6.756   5.392   4.491
10586SOL    HW132657   6.679   5.456   4.489
10586SOL    HW232658   6.842   5.442   4.492
10587SOL     OW32659   6.533   4.318   0.076
10587SOL    HW132660   6.566   4.267   7.014
10587SOL    HW232661   6.437   4.297   0.091
10588SOL     OW32662   1.309   3.069   4.181
10588SOL    HW132663   1.365   3.123   4.243
10588SOL    HW232664   1.350   3.071   4.090
10589SOL     OW32665   6.049   0.985   4.193
10589SOL    HW132666   6.101   0.914   4.146
10589SOL    HW232667   6.111   1.058   4.221
10590SOL     OW32668   1.005   0.255   1.671
10590SOL    HW132669   0.960   0.191   1.732
10590SOL    HW232670   1.057   0.205   1.601
10591SOL     OW32671   2.058   2.329   6.562
10591SOL    HW132672   1.982   2.374   6.608
10591SOL    HW232673   2.092   2.254   6.619
10592SOL     OW32674   5.343   3.313   2.550
10592SOL    HW132675   5.311   3.370   2.626
10592SOL    HW232676   5.281   3.325   2.472
10593SOL     OW32677   2.538   6.353   0.527
10593SOL    HW132678   2.555   6.390   0.436
10593SOL    HW232679   2.445   6.315   0.531
10594SOL     OW32680   5.049   0.695   2.272
10594SOL    HW132681   5.017   0.787   2.296
10594SOL    HW232682   4.972   0.640   2.240
10595SOL     OW32683   4.942   6.074   6.704
10595SOL    HW132684   4.909   6.025   6.623
10595SOL    HW232685   5.032   6.040   6.730
10596SOL     OW32686   4.439   6.987   0.555
10596SOL    HW132687   4.482   6.898   0.566
10596SOL    HW232688   4.339   6.976   0.553
10597SOL     OW32689   3.328   0.886   5.704
10597SOL    HW132690   3.345   0.943   5.785
10597SOL    HW232691   3.380   0.801   5.713
10598SOL     OW32692   3.154   2.722   6.930
10598SOL    HW132693   3.217   2.655   6.893
10598SOL    HW232694   3.166   2.809   6.882
10599SOL     OW32695   5.001   3.307   5.909
10599SOL    HW132696   5.046   3.223   5.937
10599SOL    HW232697   4.939   3.338   5.981
10600SOL     OW32698   2.645   2.509   0.474
10600SOL    HW132699   2.586   2.430   0.492
10600SOL    HW232700   2.656   2.520   0.375
10601SOL     OW32701   1.969   4.738   4.981
10601SOL    HW132702   1.985   4.796   5.061
10601SOL    HW232703   1.916   4.658   5.008
10602SOL     OW32704   3.155   1.018   2.011
10602SOL    HW132705   3.182   1.016   1.915
10602SOL    HW232706   3.219   1.075   2.062
10603SOL     OW32707   3.727   6.583   3.162
10603SOL    HW132708   3.648   6.642   3.180
10603SOL    HW232709   3.750   6.532   3.245
10604SOL     OW32710   6.104   5.132   5.694
10604SOL    HW132711   6.125   5.163   5.787
10604SOL    HW232712   6.018   5.173   5.664
10605SOL     OW32713   1.519   6.266   0.136
10605SOL    HW132714   1.600   6.320   0.115
10605SOL    HW232715   1.453   6.274   0.060
10606SOL     OW32716   6.963   0.580   2.523
10606SOL    HW132717   6.961   0.481   2.508
10606SOL    HW232718   6.982   0.599   2.619
10607SOL     OW32719   3.909   4.838   5.465
10607SOL    HW132720   3.836   4.812   5.403
10607SOL    HW232721   3.943   4.929   5.441
10608SOL     OW32722   5.798   2.534   5.878
10608SOL    HW132723   5.870   2.512   5.945
10608SOL    HW232724   5.780   2.632   5.880
10609SOL     OW32725   2.464   6.592   6.951
10609SOL    HW132726   2.478   6.544   6.865
10609SOL    HW232727   2.391   6.549   7.003
10610SOL     OW32728   0.607   2.299   4.909
10610SOL    HW132729   0.519   2.320   4.868
10610SOL    HW232730   0.632   2.371   4.974
10611SOL     OW32731   2.997   4.188   6.537
10611SOL    HW132732   2.944   4.159   6.458
10611SOL    HW232733   3.075   4.127   6.550
10612SOL     OW32734   3.690   1.419   4.495
10612SOL    HW132735   3.761   1.490   4.499
10612SOL    HW232736   3.665   1.393   4.588
10613SOL     OW32737   5.663   6.146   5.380
10613SOL    HW132738   5.599   6.163   5.455
10613SOL    HW232739   5.663   6.048   5.358
10614SOL     OW32740   5.875   1.784   4.637
10614SOL    HW132741   5.897   1.878   4.666
10614SOL    HW232742   5.944   1.722   4.672
10615SOL     OW32743   3.954   6.913   5.500
10615SOL    HW132744   3.862   6.894   5.534
10615SOL    HW232745   3.984   6.838   5.441
10616SOL     OW32746   3.119   6.702   1.106
10616SOL    HW132747   3.153   6.700   1.012
10616SOL    HW232748   3.021   6.720   1.106
10617SOL     OW32749   3.093   3.211   1.522
10617SOL    HW132750   3.174   3.240   1.572
10617SOL    HW232751   3.050   3.134   1.570
10618SOL     OW32752   0.798   3.595   6.334
10618SOL    HW132753   0.852   3.569   6.254
10618SOL    HW232754   0.712   3.635   6.304
10619SOL     OW32755   6.895   4.200   1.950
10619SOL    HW132756   6.840   4.188   1.868
10619SOL    HW232757   6.877   4.290   1.990
10620SOL     OW32758   1.149   5.755   4.773
10620SOL    HW132759   1.071   5.769   4.712
10620SOL    HW232760   1.160   5.658   4.792
10621SOL     OW32761   0.964   5.873   1.773
10621SOL    HW132762   0.974   5.967   1.806
10621SOL    HW232763   0.967   5.810   1.850
10622SOL     OW32764   5.219   2.014   1.551
10622SOL    HW132765   5.198   1.927   1.506
10622SOL    HW232766   5.250   1.997   1.644
10623SOL     OW32767   6.833   4.811   5.159
10623SOL    HW132768   6.753   4.750   5.151
10623SOL    HW232769   6.808   4.891   5.213
10624SOL     OW32770   0.760   3.059   4.732
10624SOL    HW132771   0.742   2.975   4.782
10624SOL    HW232772   0.713   3.135   4.775
10625SOL     OW32773   0.481   4.270   0.806
10625SOL    HW132774   0.467   4.172   0.798
10625SOL    HW232775   0.427   4.305   0.883
10626SOL     OW32776   2.547   3.112   0.816
10626SOL    HW132777   2.484   3.045   0.853
10626SOL    HW232778   2.630   3.115   0.874
10627SOL     OW32779   5.713   6.913   0.570
10627SOL    HW132780   5.734   6.980   0.642
10627SOL    HW232781   5.625   6.935   0.529
10628SOL     OW32782   5.652   6.154   0.086
10628SOL    HW132783   5.558   6.153   0.121
10628SOL    HW232784   5.652   6.182   7.008
10629SOL     OW32785   2.250   4.691   5.210
10629SOL    HW132786   2.283   4.602   5.241
10629SOL    HW232787   2.284   4.710   5.118
10630SOL     OW32788   6.338   1.632   3.446
10630SOL    HW132789   6.265   1.601   3.385
10630SOL    HW232790   6.308   1.716   3.492
10631SOL     OW32791   2.392   4.821   4.978
10631SOL    HW132792   2.370   4.828   4.881
10631SOL    HW232793   2.491   4.813   4.989
10632SOL     OW32794   5.851   1.875   3.722
10632SOL    HW132795   5.919   1.825   3.776
10632SOL    HW232796   5.759   1.851   3.755
10633SOL     OW32797   2.648   3.004   1.211
10633SOL    HW132798   2.650   3.065   1.291
10633SOL    HW232799   2.676   3.055   1.130
10634SOL     OW32800   3.223   5.222   0.982
10634SOL    HW132801   3.137   5.231   0.932
10634SOL    HW232802   3.298   5.253   0.925
10635SOL     OW32803   2.536   2.648   1.103
10635SOL    HW132804   2.456   2.594   1.127
10635SOL    HW232805   2.596   2.656   1.182
10636SOL     OW32806   1.406   2.064   1.502
10636SOL    HW132807   1.394   2.025   1.593
10636SOL    HW232808   1.486   2.124   1.501
10637SOL     OW32809   2.671   4.742   6.195
10637SOL    HW132810   2.694   4.661   6.143
10637SOL    HW232811   2.606   4.719   6.267
10638SOL     OW32812   6.630   5.805   2.777
10638SOL    HW132813   6.597   5.759   2.860
10638SOL    HW232814   6.621   5.743   2.699
10639SOL     OW32815   0.989   3.266   3.659
10639SOL    HW132816   0.937   3.316   3.590
10639SOL    HW232817   0.926   3.220   3.721
10640SOL     OW32818   3.746   0.191   5.315
10640SOL    HW132819   3.828   0.202   5.372
10640SOL    HW232820   3.770   0.140   5.232
10641SOL     OW32821   2.314   2.003   1.876
10641SOL    HW132822   2.261   1.955   1.806
10641SOL    HW232823   2.410   1.978   1.867
10642SOL     OW32824   6.622   3.273   1.790
10642SOL    HW132825   6.571   3.318   1.717
10642SOL    HW232826   6.566   3.267   1.872
10643SOL     OW32827   1.717   5.078   5.424
10643SOL    HW132828   1.651   5.139   5.379
10643SOL    HW232829   1.737   5.001   5.363
10644SOL     OW32830   5.289   3.048   3.443
10644SOL    HW132831   5.291   2.948   3.450
10644SOL    HW232832   5.196   3.079   3.424
10645SOL     OW32833   2.211   2.388   4.520
10645SOL    HW132834   2.291   2.425   4.567
10645SOL    HW232835   2.163   2.462   4.473
10646SOL     OW32836   6.842   0.526   6.446
10646SOL    HW132837   6.902   0.579   6.505
10646SOL    HW232838   6.759   0.501   6.496
10647SOL     OW32839   2.726   5.570   4.929
10647SOL    HW132840   2.767   5.523   4.851
10647SOL    HW232841   2.667   5.643   4.896
10648SOL     OW32842   5.453   4.495   5.877
10648SOL    HW132843   5.454   4.407   5.831
10648SOL    HW232844   5.393   4.490   5.957
10649SOL     OW32845   0.157   4.442   2.439
10649SOL    HW132846   0.191   4.361   2.391
10649SOL    HW232847   0.092   4.415   2.509
10650SOL     OW32848   1.091   6.784   3.873
10650SOL    HW132849   1.059   6.862   3.926
10650SOL    HW232850   1.032   6.771   3.793
10651SOL     OW32851   5.333   6.073   6.263
10651SOL    HW132852   5.398   5.998   6.267
10651SOL    HW232853   5.382   6.159   6.250
10652SOL     OW32854   3.457   6.668   5.765
10652SOL    HW132855   3.436   6.590   5.707
10652SOL    HW232856   3.524   6.642   5.834
10653SOL     OW32857   4.575   4.449   4.261
10653SOL    HW132858   4.523   4.470   4.178
10653SOL    HW232859   4.660   4.503   4.261
10654SOL     OW32860   5.198   0.997   0.637
10654SOL    HW132861   5.112   0.969   0.681
10654SOL    HW232862   5.235   1.077   0.684
10655SOL     OW32863   2.326   5.287   0.877
10655SOL    HW132864   2.323   5.382   0.906
10655SOL    HW232865   2.242   5.264   0.828
10656SOL     OW32866   6.581   2.432   2.453
10656SOL    HW132867   6.636   2.356   2.488
10656SOL    HW232868   6.504   2.396   2.401
10657SOL     OW32869   6.445   6.786   6.029
10657SOL    HW132870   6.349   6.770   6.007
10657SOL    HW232871   6.490   6.829   5.951
10658SOL     OW32872   5.861   4.450   5.353
10658SOL    HW132873   5.843   4.476   5.447
10658SOL    HW232874   5.941   4.390   5.349
10659SOL     OW32875   6.721   5.818   1.253
10659SOL    HW132876   6.819   5.838   1.254
10659SOL    HW232877   6.688   5.809   1.347
10660SOL     OW32878   5.314   4.209   6.806
10660SOL    HW132879   5.388   4.157   6.849
10660SOL    HW232880   5.283   4.161   6.724
10661SOL     OW32881   1.317   0.452   2.177
10661SOL    HW132882   1.284   0.506   2.099
10661SOL    HW232883   1.366   0.511   2.240
10662SOL     OW32884   5.527   0.443   3.114
10662SOL    HW132885   5.463   0.485   3.049
10662SOL    HW232886   5.499   0.349   3.131
10663SOL     OW32887   0.699   1.126   1.600
10663SOL    HW132888   0.674   1.220   1.580
10663SOL    HW232889   0.728   1.118   1.696
10664SOL     OW32890   0.464   4.532   5.321
10664SOL    HW132891   0.533   4.584   5.271
10664SOL    HW232892   0.379   4.583   5.324
10665SOL     OW32893   1.092   1.143   0.598
10665SOL    HW132894   1.062   1.050   0.618
10665SOL    HW232895   1.187   1.156   0.629
10666SOL     OW32896   3.063   4.037   1.373
10666SOL    HW132897   3.098   3.992   1.455
10666SOL    HW232898   3.025   4.126   1.397
10667SOL     OW32899   4.057   3.547   5.365
10667SOL    HW132900   4.156   3.542   5.354
10667SOL    HW232901   4.016   3.590   5.284
10668SOL     OW32902   1.736   1.118   4.793
10668SOL    HW132903   1.736   1.139   4.695
10668SOL    HW232904   1.731   1.204   4.845
10669SOL     OW32905   5.827   6.421   1.107
10669SOL    HW132906   5.894   6.458   1.171
10669SOL    HW232907   5.749   6.384   1.159
10670SOL     OW32908   5.159   3.351   4.968
10670SOL    HW132909   5.182   3.410   4.891
10670SOL    HW232910   5.232   3.283   4.981
10671SOL     OW32911   2.618   2.338   3.371
10671SOL    HW132912   2.562   2.402   3.318
10671SOL    HW232913   2.698   2.311   3.317
10672SOL     OW32914   6.262   2.661   0.238
10672SOL    HW132915   6.302   2.710   0.160
10672SOL    HW232916   6.247   2.565   0.214
10673SOL     OW32917   1.377   1.120   0.006
10673SOL    HW132918   1.376   1.053   0.081
10673SOL    HW232919   1.436   1.086   6.950
10674SOL     OW32920   3.460   3.646   1.815
10674SOL    HW132921   3.468   3.641   1.914
10674SOL    HW232922   3.456   3.742   1.786
10675SOL     OW32923   1.725   6.542   6.615
10675SOL    HW132924   1.699   6.593   6.697
10675SOL    HW232925   1.662   6.566   6.540
10676SOL     OW32926   6.545   6.430   6.247
10676SOL    HW132927   6.499   6.428   6.158
10676SOL    HW232928   6.594   6.344   6.260
10677SOL     OW32929   1.073   0.892   2.586
10677SOL    HW132930   1.016   0.973   2.573
10677SOL    HW232931   1.169   0.920   2.593
10678SOL     OW32932   3.104   5.705   3.890
10678SOL    HW132933   3.162   5.645   3.945
10678SOL    HW232934   3.082   5.660   3.804
10679SOL     OW32935   4.627   5.913   6.649
10679SOL    HW132936   4.621   6.012   6.664
10679SOL    HW232937   4.657   5.868   6.733
10680SOL     OW32938   2.753   1.616   3.490
10680SOL    HW132939   2.725   1.680   3.562
10680SOL    HW232940   2.769   1.665   3.405
10681SOL     OW32941   0.891   3.598   0.196
10681SOL    HW132942   0.861   3.504   0.208
10681SOL    HW232943   0.983   3.609   0.236
10682SOL     OW32944   1.941   1.451   4.246
10682SOL    HW132945   2.013   1.387   4.221
10682SOL    HW232946   1.965   1.496   4.332
10683SOL     OW32947   3.245   1.698   3.999
10683SOL    HW132948   3.283   1.774   3.945
10683SOL    HW232949   3.150   1.683   3.971
10684SOL     OW32950   5.310   4.179   1.136
10684SOL    HW132951   5.307   4.119   1.216
10684SOL    HW232952   5.371   4.256   1.153
10685SOL     OW32953   0.478   5.942   2.863
10685SOL    HW132954   0.450   6.035   2.889
10685SOL    HW232955   0.403   5.897   2.814
10686SOL     OW32956   1.245   4.758   6.584
10686SOL    HW132957   1.234   4.724   6.490
10686SOL    HW232958   1.215   4.853   6.589
10687SOL     OW32959   6.969   5.508   2.035
10687SOL    HW132960   7.015   5.575   1.976
10687SOL    HW232961   6.870   5.518   2.024
10688SOL     OW32962   5.983   4.329   2.803
10688SOL    HW132963   5.912   4.268   2.840
10688SOL    HW232964   6.069   4.313   2.851
10689SOL     OW32965   0.656   6.990   3.580
10689SOL    HW132966   0.716   0.004   3.506
10689SOL    HW232967   0.580   0.037   3.592
10690SOL     OW32968   0.164   6.580   3.170
10690SOL    HW132969   0.106   6.501   3.187
10690SOL    HW232970   0.118   6.644   3.108
10691SOL     OW32971   0.877   1.833   2.274
10691SOL    HW132972   0.808   1.904   2.261
10691SOL    HW232973   0.936   1.857   2.351
10692SOL     OW32974   3.178   4.861   2.769
10692SOL    HW132975   3.113   4.807   2.821
10692SOL    HW232976   3.152   4.860   2.672
10693SOL     OW32977   2.796   0.251   0.750
10693SOL    HW132978   2.788   0.152   0.744
10693SOL    HW232979   2.707   0.291   0.772
10694SOL     OW32980   5.122   6.612   1.336
10694SOL    HW132981   5.091   6.627   1.430
10694SOL    HW232982   5.209   6.660   1.322
10695SOL     OW32983   5.391   2.125   2.804
10695SOL    HW132984   5.394   2.102   2.707
10695SOL    HW232985   5.349   2.215   2.815
10696SOL     OW32986   6.373   4.024   4.039
10696SOL    HW132987   6.301   4.093   4.050
10696SOL    HW232988   6.441   4.057   3.974
10697SOL     OW32989   0.623   5.573   4.648
10697SOL    HW132990   0.544   5.539   4.597
10697SOL    HW232991   0.696   5.504   4.646
10698SOL     OW32992   3.670   5.613   4.773
10698SOL    HW132993   3.668   5.514   4.792
10698SOL    HW232994   3.764   5.646   4.779
10699SOL     OW32995   4.239   2.425   1.817
10699SOL    HW132996   4.206   2.472   1.735
10699SOL    HW232997   4.335   2.448   1.832
10700SOL     OW32998   0.597   0.193   0.637
10700SOL    HW132999   0.661   0.221   0.565
10700SOL    HW233000   0.593   0.094   0.642
10701SOL     OW33001   2.872   5.529   0.270
10701SOL    HW133002   2.943   5.563   0.207
10701SOL    HW233003   2.877   5.579   0.356
10702SOL     OW33004   5.939   2.239   2.374
10702SOL    HW133005   6.004   2.217   2.301
10702SOL    HW233006   5.925   2.338   2.378
10703SOL     OW33007   2.974   3.390   4.146
10703SOL    HW133008   2.998   3.293   4.137
10703SOL    HW233009   2.955   3.410   4.242
10704SOL     OW33010   5.675   5.365   1.183
10704SOL    HW133011   5.583   5.391   1.154
10704SOL    HW233012   5.717   5.441   1.233
10705SOL     OW33013   6.360   4.042   2.321
10705SOL    HW133014   6.386   4.130   2.361
10705SOL    HW233015   6.361   4.048   2.222
10706SOL     OW33016   4.494   6.534   2.209
10706SOL    HW133017   4.400   6.511   2.235
10706SOL    HW233018   4.555   6.459   2.234
10707SOL     OW33019   0.317   0.034   3.718
10707SOL    HW133020   0.254   6.989   3.672
10707SOL    HW233021   0.359   0.095   3.650
10708SOL     OW33022   4.167   0.545   2.588
10708SOL    HW133023   4.087   0.487   2.576
10708SOL    HW233024   4.167   0.584   2.681
10709SOL     OW33025   6.125   0.316   5.135
10709SOL    HW133026   6.110   0.261   5.217
10709SOL    HW233027   6.221   0.309   5.108
10710SOL     OW33028   0.484   6.536   4.441
10710SOL    HW133029   0.553   6.519   4.370
10710SOL    HW233030   0.416   6.600   4.407
10711SOL     OW33031   1.677   6.573   3.337
10711SOL    HW133032   1.717   6.664   3.328
10711SOL    HW233033   1.670   6.531   3.247
10712SOL     OW33034   2.891   1.236   1.685
10712SOL    HW133035   2.913   1.195   1.773
10712SOL    HW233036   2.952   1.198   1.615
10713SOL     OW33037   0.729   3.783   2.022
10713SOL    HW133038   0.748   3.846   2.098
10713SOL    HW233039   0.796   3.798   1.949
10714SOL     OW33040   6.551   3.785   6.257
10714SOL    HW133041   6.452   3.796   6.267
10714SOL    HW233042   6.590   3.752   6.342
10715SOL     OW33043   4.860   6.803   2.980
10715SOL    HW133044   4.882   6.738   2.907
10715SOL    HW233045   4.765   6.789   3.010
10716SOL     OW33046   6.476   2.523   4.664
10716SOL    HW133047   6.394   2.558   4.619
10716SOL    HW233048   6.519   2.597   4.716
10717SOL     OW33049   1.416   2.762   0.716
10717SOL    HW133050   1.379   2.851   0.690
10717SOL    HW233051   1.353   2.717   0.779
10718SOL     OW33052   7.003   3.385   6.333
10718SOL    HW133053   0.041   3.428   6.404
10718SOL    HW233054   6.969   3.297   6.365
10719SOL     OW33055   4.640   6.123   0.012
10719SOL    HW133056   4.561   6.109   0.072
10719SOL    HW233057   4.679   6.034   7.005
10720SOL     OW33058   6.703   2.804   5.721
10720SOL    HW133059   6.690   2.719   5.668
10720SOL    HW233060   6.614   2.840   5.747
10721SOL     OW33061   6.356   3.582   5.459
10721SOL    HW133062   6.430   3.593   5.526
10721SOL    HW233063   6.335   3.671   5.419
10722SOL     OW33064   6.549   3.263   0.973
10722SOL    HW133065   6.641   3.274   1.013
10722SOL    HW233066   6.558   3.230   0.879
10723SOL     OW33067   6.610   3.459   0.019
10723SOL    HW133068   6.564   3.418   0.098
10723SOL    HW233069   6.709   3.454   0.031
10724SOL     OW33070   4.151   0.630   6.756
10724SOL    HW133071   4.098   0.696   6.809
10724SOL    HW233072   4.182   0.673   6.671
10725SOL     OW33073   6.862   5.225   3.814
10725SOL    HW133074   6.924   5.255   3.886
10725SOL    HW233075   6.843   5.302   3.753
10726SOL     OW33076   5.922   6.148   5.825
10726SOL    HW133077   5.872   6.215   5.770
10726SOL    HW233078   5.997   6.110   5.769
10727SOL     OW33079   1.121   4.790   3.592
10727SOL    HW133080   1.216   4.813   3.611
10727SOL    HW233081   1.062   4.862   3.629
10728SOL     OW33082   6.256   6.504   1.798
10728SOL    HW133083   6.168   6.541   1.770
10728SOL    HW233084   6.241   6.425   1.857
10729SOL     OW33085   6.324   0.764   2.965
10729SOL    HW133086   6.228   0.791   2.973
10729SOL    HW233087   6.354   0.726   3.052
10730SOL     OW33088   2.899   0.302   1.227
10730SOL    HW133089   2.889   0.331   1.132
10730SOL    HW233090   2.959   0.365   1.275
10731SOL     OW33091   1.934   5.834   6.395
10731SOL    HW133092   2.030   5.860   6.399
10731SOL    HW233093   1.914   5.769   6.468
10732SOL     OW33094   5.677   6.425   2.781
10732SOL    HW133095   5.634   6.411   2.870
10732SOL    HW233096   5.609   6.458   2.716
10733SOL     OW33097   5.819   1.998   6.892
10733SOL    HW133098   5.779   1.964   6.806
10733SOL    HW233099   5.785   1.943   6.968
10734SOL     OW33100   1.196   0.455   6.683
10734SOL    HW133101   1.142   0.460   6.599
10734SOL    HW233102   1.137   0.476   6.761
10735SOL     OW33103   1.746   4.963   2.214
10735SOL    HW133104   1.754   4.886   2.277
10735SOL    HW233105   1.837   4.999   2.192
10736SOL     OW33106   0.922   1.260   3.477
10736SOL    HW133107   0.995   1.304   3.425
10736SOL    HW233108   0.924   1.161   3.462
10737SOL     OW33109   1.428   1.580   0.365
10737SOL    HW133110   1.517   1.536   0.350
10737SOL    HW233111   1.429   1.671   0.324
10738SOL     OW33112   2.573   0.549   2.184
10738SOL    HW133113   2.519   0.472   2.149
10738SOL    HW233114   2.647   0.514   2.241
10739SOL     OW33115   0.762   1.040   2.152
10739SOL    HW133116   0.808   1.027   2.240
10739SOL    HW233117   0.732   1.135   2.144
10740SOL     OW33118   1.339   4.306   6.224
10740SOL    HW133119   1.342   4.270   6.317
10740SOL    HW233120   1.430   4.301   6.184
10741SOL     OW33121   0.929   1.017   3.333
10741SOL    HW133122   0.869   0.983   3.261
10741SOL    HW233123   1.022   1.028   3.296
10742SOL     OW33124   5.964   0.264   1.675
10742SOL    HW133125   5.964   0.364   1.688
10742SOL    HW233126   5.980   0.219   1.762
10743SOL     OW33127   2.630   2.496   3.583
10743SOL    HW133128   2.534   2.519   3.567
10743SOL    HW233129   2.669   2.459   3.499
10744SOL     OW33130   3.586   1.839   2.740
10744SOL    HW133131   3.615   1.932   2.717
10744SOL    HW233132   3.654   1.797   2.799
10745SOL     OW33133   0.743   4.871   0.428
10745SOL    HW133134   0.810   4.933   0.470
10745SOL    HW233135   0.727   4.794   0.489
10746SOL     OW33136   1.634   4.157   1.692
10746SOL    HW133137   1.638   4.157   1.592
10746SOL    HW233138   1.656   4.065   1.725
10747SOL     OW33139   4.905   1.667   3.270
10747SOL    HW133140   4.983   1.606   3.257
10747SOL    HW233141   4.916   1.748   3.213
10748SOL     OW33142   5.194   0.166   1.185
10748SOL    HW133143   5.290   0.171   1.213
10748SOL    HW233144   5.176   0.236   1.115
10749SOL     OW33145   0.476   4.819   2.665
10749SOL    HW133146   0.459   4.822   2.764
10749SOL    HW233147   0.441   4.903   2.623
10750SOL     OW33148   3.940   6.013   4.318
10750SOL    HW133149   3.884   6.053   4.390
10750SOL    HW233150   4.032   5.995   4.355
10751SOL     OW33151   0.887   3.671   5.210
10751SOL    HW133152   0.906   3.574   5.192
10751SOL    HW233153   0.900   3.723   5.126
10752SOL     OW33154   6.718   3.867   6.008
10752SOL    HW133155   6.782   3.809   5.959
10752SOL    HW233156   6.727   3.850   6.106
10753SOL     OW33157   5.722   0.745   3.749
10753SOL    HW133158   5.737   0.661   3.696
10753SOL    HW233159   5.797   0.756   3.814
10754SOL     OW33160   2.173   2.159   3.450
10754SOL    HW133161   2.217   2.248   3.457
10754SOL    HW233162   2.083   2.163   3.494
10755SOL     OW33163   0.447   1.800   0.760
10755SOL    HW133164   0.521   1.776   0.698
10755SOL    HW233165   0.447   1.738   0.839
10756SOL     OW33166   6.091   4.173   0.085
10756SOL    HW133167   6.050   4.185   7.012
10756SOL    HW233168   6.051   4.092   0.129
10757SOL     OW33169   6.855   3.396   0.784
10757SOL    HW133170   6.834   3.362   0.875
10757SOL    HW233171   6.833   3.493   0.778
10758SOL     OW33172   1.780   6.089   5.003
10758SOL    HW133173   1.728   6.053   4.925
10758SOL    HW233174   1.769   6.029   5.082
10759SOL     OW33175   2.044   3.237   6.929
10759SOL    HW133176   1.951   3.200   6.921
10759SOL    HW233177   2.068   3.245   0.008
10760SOL     OW33178   0.012   0.239   0.552
10760SOL    HW133179   0.042   0.222   0.646
10760SOL    HW233180   0.071   0.309   0.511
10761SOL     OW33181   0.919   1.946   6.186
10761SOL    HW133182   1.013   1.980   6.190
10761SOL    HW233183   0.858   2.013   6.228
10762SOL     OW33184   4.478   1.791   5.140
10762SOL    HW133185   4.395   1.793   5.085
10762SOL    HW233186   4.521   1.882   5.138
10763SOL     OW33187   4.644   6.185   0.477
10763SOL    HW133188   4.665   6.222   0.567
10763SOL    HW233189   4.655   6.086   0.478
10764SOL     OW33190   5.600   1.489   5.790
10764SOL    HW133191   5.518   1.433   5.800
10764SOL    HW233192   5.588   1.553   5.714
10765SOL     OW33193   5.803   2.715   1.257
10765SOL    HW133194   5.815   2.616   1.263
10765SOL    HW233195   5.851   2.759   1.333
10766SOL     OW33196   2.972   3.313   0.005
10766SOL    HW133197   2.989   3.243   0.074
10766SOL    HW233198   2.897   3.372   0.035
10767SOL     OW33199   1.434   0.562   0.602
10767SOL    HW133200   1.389   0.473   0.602
10767SOL    HW233201   1.503   0.565   0.675
10768SOL     OW33202   5.467   5.298   0.838
10768SOL    HW133203   5.505   5.229   0.900
10768SOL    HW233204   5.368   5.290   0.836
10769SOL     OW33205   2.098   4.734   4.345
10769SOL    HW133206   2.153   4.736   4.262
10769SOL    HW233207   2.106   4.644   4.388
10770SOL     OW33208   5.469   6.904   4.722
10770SOL    HW133209   5.497   6.832   4.658
10770SOL    HW233210   5.499   6.880   4.814
10771SOL     OW33211   4.671   6.864   4.994
10771SOL    HW133212   4.741   6.904   4.934
10771SOL    HW233213   4.639   6.933   5.059
10772SOL     OW33214   6.400   6.496   4.056
10772SOL    HW133215   6.472   6.551   4.015
10772SOL    HW233216   6.428   6.469   4.148
10773SOL     OW33217   6.461   5.276   6.643
10773SOL    HW133218   6.394   5.224   6.697
10773SOL    HW233219   6.435   5.272   6.546
10774SOL     OW33220   1.612   2.011   0.068
10774SOL    HW133221   1.673   2.054   0.134
10774SOL    HW233222   1.657   1.931   0.027
10775SOL     OW33223   0.608   3.667   0.981
10775SOL    HW133224   0.654   3.667   1.069
10775SOL    HW233225   0.675   3.674   0.908
10776SOL     OW33226   1.210   6.321   0.801
10776SOL    HW133227   1.170   6.351   0.714
10776SOL    HW233228   1.180   6.228   0.821
10777SOL     OW33229   3.965   6.681   4.105
10777SOL    HW133230   3.938   6.750   4.172
10777SOL    HW233231   3.900   6.682   4.029
10778SOL     OW33232   5.509   6.156   5.154
10778SOL    HW133233   5.583   6.154   5.221
10778SOL    HW233234   5.451   6.075   5.167
10779SOL     OW33235   6.118   4.764   3.390
10779SOL    HW133236   6.065   4.742   3.308
10779SOL    HW233237   6.215   4.747   3.374
10780SOL     OW33238   1.214   6.904   2.562
10780SOL    HW133239   1.182   6.940   2.649
10780SOL    HW233240   1.198   6.971   2.490
10781SOL     OW33241   4.092   1.456   3.311
10781SOL    HW133242   4.022   1.462   3.382
10781SOL    HW233243   4.092   1.364   3.272
10782SOL     OW33244   6.718   2.299   3.685
10782SOL    HW133245   6.713   2.221   3.623
10782SOL    HW233246   6.695   2.271   3.777
10783SOL     OW33247   1.223   3.142   3.529
10783SOL    HW133248   1.123   3.138   3.531
10783SOL    HW233249   1.259   3.117   3.619
10784SOL     OW33250   2.720   0.296   2.101
10784SOL    HW133251   2.686   0.269   2.011
10784SOL    HW233252   2.703   0.222   2.166
10785SOL     OW33253   0.637   5.102   1.135
10785SOL    HW133254   0.690   5.156   1.201
10785SOL    HW233255   0.685   5.017   1.116
10786SOL     OW33256   4.957   3.114   1.756
10786SOL    HW133257   4.934   3.145   1.848
10786SOL    HW233258   4.873   3.085   1.709
10787SOL     OW33259   3.241   2.181   4.636
10787SOL    HW133260   3.272   2.159   4.729
10787SOL    HW233261   3.149   2.145   4.623
10788SOL     OW33262   1.899   4.675   0.558
10788SOL    HW133263   1.805   4.702   0.538
10788SOL    HW233264   1.902   4.576   0.575
10789SOL     OW33265   5.959   1.797   0.529
10789SOL    HW133266   5.977   1.895   0.532
10789SOL    HW233267   5.861   1.781   0.518
10790SOL     OW33268   0.979   0.946   3.918
10790SOL    HW133269   1.043   0.967   3.845
10790SOL    HW233270   0.950   0.850   3.911
10791SOL     OW33271   0.709   1.223   1.280
10791SOL    HW133272   0.748   1.234   1.188
10791SOL    HW233273   0.644   1.148   1.280
10792SOL     OW33274   3.332   3.337   1.662
10792SOL    HW133275   3.414   3.392   1.643
10792SOL    HW233276   3.338   3.299   1.755
10793SOL     OW33277   5.231   2.781   4.353
10793SOL    HW133278   5.184   2.866   4.332
10793SOL    HW233279   5.164   2.706   4.356
10794SOL     OW33280   3.169   4.054   2.916
10794SOL    HW133281   3.208   3.988   2.981
10794SOL    HW233282   3.170   4.145   2.957
10795SOL     OW33283   6.538   3.806   4.341
10795SOL    HW133284   6.462   3.861   4.376
10795SOL    HW233285   6.521   3.783   4.246
10796SOL     OW33286   5.034   6.051   7.004
10796SOL    HW133287   4.962   6.047   6.935
10796SOL    HW233288   5.056   6.147   0.006
10797SOL     OW33289   4.462   2.137   0.953
10797SOL    HW133290   4.485   2.232   0.932
10797SOL    HW233291   4.521   2.104   1.027
10798SOL     OW33292   2.331   0.120   0.689
10798SOL    HW133293   2.395   0.051   0.723
10798SOL    HW233294   2.280   0.082   0.612
10799SOL     OW33295   3.513   1.474   2.014
10799SOL    HW133296   3.551   1.543   2.076
10799SOL    HW233297   3.414   1.468   2.027
10800SOL     OW33298   1.315   0.361   0.072
10800SOL    HW133299   1.311   0.418   0.154
10800SOL    HW233300   1.351   0.415   7.013
10801SOL     OW33301   0.833   0.000   4.874
10801SOL    HW133302   0.849   0.027   4.779
10801SOL    HW233303   0.850   6.920   4.884
10802SOL     OW33304   2.166   3.238   4.652
10802SOL    HW133305   2.180   3.222   4.554
10802SOL    HW233306   2.133   3.331   4.667
10803SOL     OW33307   4.532   4.232   5.202
10803SOL    HW133308   4.592   4.249   5.124
10803SOL    HW233309   4.438   4.254   5.179
10804SOL     OW33310   0.099   4.055   1.248
10804SOL    HW133311   0.008   4.035   1.211
10804SOL    HW233312   0.091   4.110   1.331
10805SOL     OW33313   3.052   6.836   6.550
10805SOL    HW133314   3.017   6.848   6.643
10805SOL    HW233315   3.140   6.789   6.553
10806SOL     OW33316   5.037   4.394   6.323
10806SOL    HW133317   4.989   4.307   6.311
10806SOL    HW233318   5.122   4.379   6.373
10807SOL     OW33319   2.744   6.973   3.369
10807SOL    HW133320   2.706   6.955   3.279
10807SOL    HW233321   2.676   0.002   3.425
10808SOL     OW33322   6.632   3.752   6.800
10808SOL    HW133323   6.560   3.683   6.804
10808SOL    HW233324   6.640   3.798   6.888
10809SOL     OW33325   2.202   6.463   3.706
10809SOL    HW133326   2.125   6.410   3.669
10809SOL    HW233327   2.231   6.531   3.639
10810SOL     OW33328   1.479   0.269   4.898
10810SOL    HW133329   1.560   0.259   4.841
10810SOL    HW233330   1.439   0.178   4.915
10811SOL     OW33331   4.701   4.646   5.628
10811SOL    HW133332   4.731   4.661   5.722
10811SOL    HW233333   4.778   4.611   5.575
10812SOL     OW33334   0.493   3.226   2.519
10812SOL    HW133335   0.423   3.296   2.507
10812SOL    HW233336   0.505   3.175   2.433
10813SOL     OW33337   1.584   6.030   7.010
10813SOL    HW133338   1.683   6.026   6.999
10813SOL    HW233339   1.560   6.102   0.058
10814SOL     OW33340   1.642   6.713   6.837
10814SOL    HW133341   1.685   6.795   6.799
10814SOL    HW233342   1.633   6.723   6.936
10815SOL     OW33343   5.116   4.784   3.011
10815SOL    HW133344   5.133   4.868   2.960
10815SOL    HW233345   5.069   4.718   2.953
10816SOL     OW33346   1.392   1.855   2.394
10816SOL    HW133347   1.311   1.902   2.428
10816SOL    HW233348   1.371   1.810   2.307
10817SOL     OW33349   5.228   0.155   2.423
10817SOL    HW133350   5.184   0.230   2.374
10817SOL    HW233351   5.322   0.145   2.392
10818SOL     OW33352   4.624   4.030   5.366
10818SOL    HW133353   4.620   4.112   5.308
10818SOL    HW233354   4.703   3.974   5.340
10819SOL     OW33355   6.745   4.491   0.025
10819SOL    HW133356   6.669   4.427   0.040
10819SOL    HW233357   6.710   4.577   7.007
10820SOL     OW33358   5.769   5.700   4.465
10820SOL    HW133359   5.794   5.796   4.477
10820SOL    HW233360   5.674   5.694   4.436
10821SOL     OW33361   5.443   6.512   1.885
10821SOL    HW133362   5.359   6.563   1.867
10821SOL    HW233363   5.481   6.541   1.973
10822SOL     OW33364   0.774   2.661   3.190
10822SOL    HW133365   0.688   2.612   3.204
10822SOL    HW233366   0.756   2.756   3.168
10823SOL     OW33367   1.530   4.935   1.882
10823SOL    HW133368   1.622   4.896   1.887
10823SOL    HW233369   1.511   4.989   1.964
10824SOL     OW33370   5.110   0.167   3.870
10824SOL    HW133371   5.129   0.081   3.917
10824SOL    HW233372   5.195   0.219   3.860
10825SOL     OW33373   2.756   0.477   6.858
10825SOL    HW133374   2.696   0.451   6.934
10825SOL    HW233375   2.820   0.402   6.840
10826SOL     OW33376   0.487   3.895   4.059
10826SOL    HW133377   0.577   3.934   4.078
10826SOL    HW233378   0.476   3.810   4.111
10827SOL     OW33379   5.631   3.821   4.694
10827SOL    HW133380   5.716   3.872   4.710
10827SOL    HW233381   5.643   3.761   4.615
10828SOL     OW33382   0.898   5.561   2.236
10828SOL    HW133383   0.958   5.483   2.253
10828SOL    HW233384   0.871   5.601   2.324
10829SOL     OW33385   3.780   2.360   0.405
10829SOL    HW133386   3.851   2.354   0.476
10829SOL    HW233387   3.699   2.404   0.444
10830SOL     OW33388   5.141   2.121   3.511
10830SOL    HW133389   5.187   2.196   3.558
10830SOL    HW233390   5.202   2.042   3.506
10831SOL     OW33391   4.000   5.931   1.792
10831SOL    HW133392   4.002   6.010   1.853
10831SOL    HW233393   4.092   5.916   1.754
10832SOL     OW33394   0.442   2.061   0.824
10832SOL    HW133395   0.441   2.093   0.918
10832SOL    HW233396   0.444   1.961   0.822
10833SOL     OW33397   1.478   0.898   3.626
10833SOL    HW133398   1.404   0.870   3.566
10833SOL    HW233399   1.479   0.839   3.707
10834SOL     OW33400   1.433   2.176   6.142
10834SOL    HW133401   1.420   2.275   6.139
10834SOL    HW233402   1.522   2.156   6.183
10835SOL     OW33403   6.353   1.805   1.089
10835SOL    HW133404   6.369   1.762   1.000
10835SOL    HW233405   6.422   1.774   1.154
10836SOL     OW33406   6.316   1.323   4.772
10836SOL    HW133407   6.396   1.354   4.720
10836SOL    HW233408   6.233   1.339   4.718
10837SOL     OW33409   0.283   5.093   0.395
10837SOL    HW133410   0.216   5.139   0.336
10837SOL    HW233411   0.341   5.162   0.439
10838SOL     OW33412   5.933   6.260   5.079
10838SOL    HW133413   5.872   6.340   5.084
10838SOL    HW233414   5.896   6.194   5.014
10839SOL     OW33415   3.312   3.068   0.168
10839SOL    HW133416   3.230   3.029   0.209
10839SOL    HW233417   3.377   2.995   0.148
10840SOL     OW33418   4.242   5.557   1.382
10840SOL    HW133419   4.230   5.651   1.348
10840SOL    HW233420   4.194   5.494   1.321
10841SOL     OW33421   3.711   6.580   0.137
10841SOL    HW133422   3.789   6.524   0.166
10841SOL    HW233423   3.729   6.616   0.045
10842SOL     OW33424   5.285   3.377   1.244
10842SOL    HW133425   5.309   3.401   1.337
10842SOL    HW233426   5.281   3.460   1.188
10843SOL     OW33427   0.887   2.265   2.127
10843SOL    HW133428   0.919   2.226   2.040
10843SOL    HW233429   0.843   2.353   2.109
10844SOL     OW33430   0.440   6.903   3.888
10844SOL    HW133431   0.456   6.952   3.973
10844SOL    HW233432   0.402   6.966   3.820
10845SOL     OW33433   3.161   0.571   0.194
10845SOL    HW133434   3.189   0.641   0.129
10845SOL    HW233435   3.067   0.587   0.223
10846SOL     OW33436   4.909   3.200   0.757
10846SOL    HW133437   4.815   3.214   0.788
10846SOL    HW233438   4.969   3.193   0.837
10847SOL     OW33439   3.378   2.707   6.589
10847SOL    HW133440   3.339   2.791   6.627
10847SOL    HW233441   3.413   2.650   6.663
10848SOL     OW33442   3.275   1.903   6.673
10848SOL    HW133443   3.342   1.844   6.628
10848SOL    HW233444   3.249   1.977   6.611
10849SOL     OW33445   2.715   4.699   3.319
10849SOL    HW133446   2.644   4.737   3.378
10849SOL    HW233447   2.673   4.648   3.244
10850SOL     OW33448   4.492   6.534   6.972
10850SOL    HW133449   4.534   6.574   6.891
10850SOL    HW233450   4.560   6.479   0.003
10851SOL     OW33451   2.968   3.141   6.634
10851SOL    HW133452   2.914   3.118   6.553
10851SOL    HW233453   2.907   3.163   6.710
10852SOL     OW33454   0.170   6.454   6.353
10852SOL    HW133455   0.245   6.481   6.293
10852SOL    HW233456   0.117   6.536   6.378
10853SOL     OW33457   3.525   1.601   5.676
10853SOL    HW133458   3.500   1.660   5.599
10853SOL    HW233459   3.526   1.506   5.647
10854SOL     OW33460   6.113   6.145   5.541
10854SOL    HW133461   6.063   6.149   5.454
10854SOL    HW233462   6.189   6.081   5.533
10855SOL     OW33463   3.097   6.246   2.013
10855SOL    HW133464   3.068   6.295   2.096
10855SOL    HW233465   3.122   6.313   1.943
10856SOL     OW33466   6.070   1.464   2.480
10856SOL    HW133467   6.102   1.378   2.520
10856SOL    HW233468   6.134   1.537   2.504
10857SOL     OW33469   5.742   3.396   3.814
10857SOL    HW133470   5.821   3.335   3.808
10857SOL    HW233471   5.772   3.486   3.843
10858SOL     OW33472   1.108   2.795   6.356
10858SOL    HW133473   1.088   2.741   6.438
10858SOL    HW233474   1.172   2.746   6.298
10859SOL     OW33475   2.186   3.956   4.007
10859SOL    HW133476   2.117   4.025   3.984
10859SOL    HW233477   2.232   3.926   3.923
10860SOL     OW33478   6.499   1.681   6.013
10860SOL    HW133479   6.430   1.609   6.018
10860SOL    HW233480   6.517   1.703   5.917
10861SOL     OW33481   3.856   2.941   2.447
10861SOL    HW133482   3.797   2.995   2.507
10861SOL    HW233483   3.861   2.847   2.481
10862SOL     OW33484   2.858   1.464   6.764
10862SOL    HW133485   2.882   1.555   6.731
10862SOL    HW233486   2.935   1.402   6.747
10863SOL     OW33487   3.959   0.347   2.363
10863SOL    HW133488   3.954   0.279   2.289
10863SOL    HW233489   3.866   0.378   2.384
10864SOL     OW33490   2.568   4.992   0.885
10864SOL    HW133491   2.548   5.056   0.811
10864SOL    HW233492   2.664   5.001   0.910
10865SOL     OW33493   5.582   1.893   3.834
10865SOL    HW133494   5.610   1.828   3.905
10865SOL    HW233495   5.482   1.899   3.832
10866SOL     OW33496   4.836   5.123   0.658
10866SOL    HW133497   4.920   5.166   0.626
10866SOL    HW233498   4.838   5.025   0.636
10867SOL     OW33499   3.107   4.319   0.376
10867SOL    HW133500   3.025   4.280   0.336
10867SOL    HW233501   3.102   4.313   0.476
10868SOL     OW33502   1.729   2.067   3.554
10868SOL    HW133503   1.669   1.988   3.548
10868SOL    HW233504   1.754   2.098   3.462
10869NA      NA33505   0.321   2.482   6.207
10870NA      NA33506   4.491   4.588   5.145
10871NA      NA33507   2.405   4.409   2.346
10872NA      NA33508   4.855   4.061   3.767
10873NA      NA33509   4.237   2.416   5.335
10874NA      NA33510   3.278   4.393   1.596
10875NA      NA33511   0.806   4.626   0.081
10876NA      NA33512   3.871   3.692   2.270
10877NA      NA33513   4.965   4.844   0.954
10878NA      NA33514   3.565   0.285   5.440
10879NA      NA33515   6.083   5.549   1.047
10880NA      NA33516   2.011   0.595   5.064
10881NA      NA33517   4.229   4.783   1.745
10882NA      NA33518   3.931   2.792   1.157
   7.01784   7.01784   7.01784
