Generated by trjconv : CNT in water t= 285.00000
33518
    1C        C    1   2.840   2.768   4.747
    1C        C    2   2.896   2.721   4.867
    1C        C    3   2.838   2.770   4.985
    1C        C    4   2.845   2.773   4.261
    1C        C    5   2.900   2.729   4.383
    1C        C    6   2.841   2.771   4.504
    1C        C    7   3.009   2.639   4.628
    1C        C    8   2.893   2.720   4.625
    1C        C    9   3.072   2.596   4.747
    1C        C   10   3.005   2.631   4.866
    1C        C   11   3.181   2.496   4.979
    1C        C   12   3.060   2.566   4.978
    1C        C   13   2.848   2.768   3.771
    1C        C   14   2.899   2.721   3.895
    1C        C   15   2.848   2.772   4.016
    1C        C   16   3.019   2.649   4.141
    1C        C   17   2.901   2.728   4.139
    1C        C   18   3.081   2.614   4.263
    1C        C   19   3.015   2.646   4.384
    1C        C   20   3.205   2.556   4.505
    1C        C   21   3.074   2.609   4.507
    1C        C   22   3.277   2.535   4.625
    1C        C   23   3.206   2.548   4.746
    1C        C   24   3.411   2.486   4.863
    1C        C   25   3.268   2.501   4.865
    1C        C   26   3.487   2.477   4.981
    1C        C   27   2.846   2.764   3.283
    1C        C   28   2.899   2.717   3.405
    1C        C   29   2.846   2.766   3.527
    1C        C   30   3.019   2.644   3.649
    1C        C   31   2.902   2.723   3.649
    1C        C   32   3.076   2.606   3.773
    1C        C   33   3.016   2.641   3.896
    1C        C   34   3.207   2.554   4.018
    1C        C   35   3.077   2.609   4.019
    1C        C   36   3.277   2.534   4.139
    1C        C   37   3.210   2.557   4.261
    1C        C   38   3.414   2.509   4.383
    1C        C   39   3.276   2.534   4.385
    1C        C   40   3.487   2.500   4.503
    1C        C   41   3.414   2.501   4.624
    1C        C   42   3.630   2.488   4.743
    1C        C   43   3.487   2.484   4.744
    1C        C   44   3.702   2.489   4.864
    1C        C   45   3.626   2.484   4.981
    1C        C   46   2.837   2.754   2.794
    1C        C   47   2.889   2.703   2.915
    1C        C   48   2.843   2.758   3.036
    1C        C   49   3.017   2.641   3.161
    1C        C   50   2.898   2.717   3.160
    1C        C   51   3.080   2.606   3.283
    1C        C   52   3.016   2.638   3.405
    1C        C   53   3.209   2.549   3.530
    1C        C   54   3.080   2.606   3.527
    1C        C   55   3.273   2.523   3.653
    1C        C   56   3.204   2.547   3.773
    1C        C   57   3.412   2.507   3.895
    1C        C   58   3.273   2.531   3.896
    1C        C   59   3.485   2.498   4.016
    1C        C   60   3.415   2.503   4.139
    1C        C   61   3.626   2.496   4.257
    1C        C   62   3.485   2.495   4.261
    1C        C   63   3.699   2.500   4.377
    1C        C   64   3.628   2.499   4.500
    1C        C   65   3.835   2.545   4.622
    1C        C   66   3.700   2.503   4.621
    1C        C   67   3.907   2.556   4.743
    1C        C   68   3.839   2.524   4.863
    1C        C   69   4.049   2.586   4.979
    1C        C   70   3.922   2.527   4.975
    1C        C   71   2.819   2.733   2.307
    1C        C   72   2.879   2.693   2.428
    1C        C   73   2.830   2.743   2.551
    1C        C   74   3.005   2.623   2.671
    1C        C   75   2.890   2.704   2.673
    1C        C   76   3.069   2.592   2.793
    1C        C   77   3.007   2.625   2.915
    1C        C   78   3.203   2.545   3.036
    1C        C   79   3.072   2.598   3.038
    1C        C   80   3.272   2.528   3.158
    1C        C   81   3.210   2.551   3.283
    1C        C   82   3.414   2.503   3.403
    1C        C   83   3.275   2.528   3.407
    1C        C   84   3.482   2.496   3.526
    1C        C   85   3.412   2.498   3.649
    1C        C   86   3.622   2.498   3.769
    1C        C   87   3.481   2.494   3.772
    1C        C   88   3.692   2.510   3.891
    1C        C   89   3.626   2.498   4.015
    1C        C   90   3.835   2.541   4.136
    1C        C   91   3.699   2.503   4.136
    1C        C   92   3.902   2.562   4.258
    1C        C   93   3.836   2.536   4.380
    1C        C   94   4.029   2.630   4.498
    1C        C   95   3.905   2.563   4.501
    1C        C   96   4.092   2.664   4.620
    1C        C   97   4.032   2.623   4.741
    1C        C   98   4.181   2.772   4.862
    1C        C   99   4.094   2.659   4.864
    1C        C  100   4.209   2.844   4.979
    1C        C  101   2.817   2.728   2.069
    1C        C  102   2.987   2.593   2.187
    1C        C  103   2.870   2.675   2.187
    1C        C  104   3.057   2.572   2.309
    1C        C  105   2.998   2.616   2.429
    1C        C  106   3.200   2.538   2.550
    1C        C  107   3.067   2.586   2.549
    1C        C  108   3.268   2.516   2.672
    1C        C  109   3.198   2.533   2.794
    1C        C  110   3.409   2.495   2.915
    1C        C  111   3.270   2.521   2.914
    1C        C  112   3.481   2.491   3.037
    1C        C  113   3.411   2.501   3.159
    1C        C  114   3.625   2.498   3.280
    1C        C  115   3.483   2.496   3.280
    1C        C  116   3.694   2.507   3.403
    1C        C  117   3.624   2.498   3.525
    1C        C  118   3.832   2.537   3.646
    1C        C  119   3.694   2.505   3.647
    1C        C  120   3.898   2.565   3.768
    1C        C  121   3.829   2.545   3.891
    1C        C  122   4.023   2.634   4.009
    1C        C  123   3.898   2.569   4.012
    1C        C  124   4.084   2.669   4.132
    1C        C  125   4.025   2.632   4.255
    1C        C  126   4.196   2.761   4.374
    1C        C  127   4.087   2.671   4.375
    1C        C  128   4.242   2.815   4.496
    1C        C  129   4.193   2.763   4.618
    1C        C  130   4.319   2.935   4.739
    1C        C  131   4.234   2.821   4.740
    1C        C  132   4.354   3.001   4.859
    1C        C  133   4.284   2.961   4.973
    1C        C  134   3.172   2.466   2.081
    1C        C  135   3.039   2.507   2.085
    1C        C  136   3.255   2.475   2.194
    1C        C  137   3.190   2.521   2.310
    1C        C  138   3.404   2.483   2.427
    1C        C  139   3.266   2.509   2.429
    1C        C  140   3.478   2.480   2.548
    1C        C  141   3.407   2.496   2.669
    1C        C  142   3.618   2.495   2.790
    1C        C  143   3.477   2.491   2.792
    1C        C  144   3.690   2.508   2.911
    1C        C  145   3.622   2.499   3.035
    1C        C  146   3.831   2.533   3.156
    1C        C  147   3.693   2.503   3.157
    1C        C  148   3.898   2.558   3.278
    1C        C  149   3.832   2.540   3.401
    1C        C  150   4.025   2.625   3.521
    1C        C  151   3.899   2.561   3.524
    1C        C  152   4.085   2.663   3.643
    1C        C  153   4.022   2.631   3.766
    1C        C  154   4.191   2.763   3.889
    1C        C  155   4.078   2.677   3.887
    1C        C  156   4.243   2.810   4.012
    1C        C  157   4.194   2.758   4.133
    1C        C  158   4.338   2.919   4.253
    1C        C  159   4.248   2.810   4.252
    1C        C  160   4.371   2.983   4.374
    1C        C  161   4.327   2.928   4.497
    1C        C  162   4.432   3.115   4.615
    1C        C  163   4.363   2.992   4.617
    1C        C  164   4.458   3.185   4.735
    1C        C  165   4.429   3.120   4.857
    1C        C  166   4.510   3.321   4.971
    1C        C  167   4.469   3.188   4.973
    1C        C  168   3.473   2.440   2.073
    1C        C  169   3.395   2.458   2.188
    1C        C  170   3.616   2.469   2.303
    1C        C  171   3.474   2.469   2.305
    1C        C  172   3.687   2.494   2.423
    1C        C  173   3.618   2.490   2.546
    1C        C  174   3.824   2.541   2.663
    1C        C  175   3.688   2.501   2.668
    1C        C  176   3.893   2.561   2.785
    1C        C  177   3.827   2.545   2.908
    1C        C  178   4.019   2.625   3.032
    1C        C  179   3.891   2.565   3.032
    1C        C  180   4.080   2.662   3.154
    1C        C  181   4.024   2.622   3.277
    1C        C  182   4.193   2.749   3.398
    1C        C  183   4.088   2.655   3.399
    1C        C  184   4.241   2.803   3.520
    1C        C  185   4.193   2.754   3.643
    1C        C  186   4.332   2.915   3.763
    1C        C  187   4.243   2.805   3.765
    1C        C  188   4.375   2.972   3.885
    1C        C  189   4.334   2.919   4.009
    1C        C  190   4.436   3.105   4.127
    1C        C  191   4.381   2.974   4.130
    1C        C  192   4.460   3.172   4.248
    1C        C  193   4.439   3.107   4.372
    1C        C  194   4.506   3.311   4.489
    1C        C  195   4.468   3.175   4.492
    1C        C  196   4.519   3.386   4.608
    1C        C  197   4.505   3.319   4.732
    1C        C  198   4.549   3.534   4.849
    1C        C  199   4.525   3.393   4.852
    1C        C  200   4.574   3.619   4.961
    1C        C  201   3.612   2.422   2.073
    1C        C  202   3.827   2.514   2.181
    1C        C  203   3.694   2.461   2.184
    1C        C  204   3.899   2.537   2.301
    1C        C  205   3.826   2.522   2.422
    1C        C  206   4.023   2.611   2.543
    1C        C  207   3.894   2.553   2.541
    1C        C  208   4.085   2.650   2.664
    1C        C  209   4.020   2.623   2.786
    1C        C  210   4.193   2.745   2.907
    1C        C  211   4.077   2.664   2.909
    1C        C  212   4.246   2.796   3.028
    1C        C  213   4.191   2.750   3.150
    1C        C  214   4.327   2.909   3.272
    1C        C  215   4.240   2.797   3.274
    1C        C  216   4.366   2.969   3.393
    1C        C  217   4.330   2.913   3.518
    1C        C  218   4.431   3.100   3.638
    1C        C  219   4.368   2.974   3.639
    1C        C  220   4.460   3.166   3.760
    1C        C  221   4.439   3.098   3.881
    1C        C  222   4.490   3.306   4.002
    1C        C  223   4.460   3.168   4.002
    1C        C  224   4.506   3.377   4.123
    1C        C  225   4.501   3.308   4.246
    1C        C  226   4.519   3.521   4.366
    1C        C  227   4.516   3.380   4.366
    1C        C  228   4.524   3.597   4.484
    1C        C  229   4.533   3.527   4.606
    1C        C  230   4.510   3.742   4.724
    1C        C  231   4.542   3.603   4.725
    1C        C  232   4.501   3.819   4.841
    1C        C  233   4.547   3.756   4.958
    1C        C  234   4.014   2.610   2.059
    1C        C  235   3.893   2.542   2.061
    1C        C  236   4.084   2.640   2.177
    1C        C  237   4.025   2.602   2.299
    1C        C  238   4.197   2.731   2.420
    1C        C  239   4.084   2.646   2.420
    1C        C  240   4.248   2.784   2.541
    1C        C  241   4.193   2.741   2.663
    1C        C  242   4.338   2.897   2.785
    1C        C  243   4.248   2.789   2.785
    1C        C  244   4.379   2.957   2.907
    1C        C  245   4.340   2.901   3.030
    1C        C  246   4.434   3.094   3.149
    1C        C  247   4.373   2.967   3.151
    1C        C  248   4.453   3.163   3.270
    1C        C  249   4.426   3.097   3.392
    1C        C  250   4.496   3.299   3.514
    1C        C  251   4.454   3.164   3.514
    1C        C  252   4.507   3.370   3.635
    1C        C  253   4.499   3.302   3.758
    1C        C  254   4.522   3.514   3.876
    1C        C  255   4.510   3.374   3.880
    1C        C  256   4.514   3.586   3.998
    1C        C  257   4.513   3.518   4.122
    1C        C  258   4.491   3.730   4.239
    1C        C  259   4.513   3.591   4.243
    1C        C  260   4.471   3.802   4.359
    1C        C  261   4.488   3.734   4.482
    1C        C  262   4.430   3.939   4.604
    1C        C  263   4.480   3.808   4.602
    1C        C  264   4.400   4.009   4.723
    1C        C  265   4.435   3.944   4.844
    1C        C  266   4.318   4.129   4.957
    1C        C  267   4.391   4.010   4.959
    1C        C  268   4.256   2.777   2.062
    1C        C  269   4.191   2.732   2.178
    1C        C  270   4.344   2.885   2.299
    1C        C  271   4.249   2.780   2.298
    1C        C  272   4.380   2.951   2.419
    1C        C  273   4.336   2.895   2.541
    1C        C  274   4.442   3.079   2.660
    1C        C  275   4.381   2.952   2.662
    1C        C  276   4.465   3.149   2.781
    1C        C  277   4.437   3.085   2.903
    1C        C  278   4.496   3.291   3.024
    1C        C  279   4.464   3.154   3.024
    1C        C  280   4.507   3.365   3.145
    1C        C  281   4.493   3.299   3.269
    1C        C  282   4.516   3.509   3.389
    1C        C  283   4.509   3.368   3.391
    1C        C  284   4.515   3.582   3.510
    1C        C  285   4.508   3.512   3.632
    1C        C  286   4.492   3.724   3.753
    1C        C  287   4.512   3.584   3.753
    1C        C  288   4.473   3.792   3.876
    1C        C  289   4.487   3.724   3.999
    1C        C  290   4.426   3.932   4.116
    1C        C  291   4.477   3.800   4.118
    1C        C  292   4.399   3.999   4.238
    1C        C  293   4.423   3.935   4.361
    1C        C  294   4.327   4.126   4.477
    1C        C  295   4.394   4.002   4.482
    1C        C  296   4.279   4.183   4.597
    1C        C  297   4.322   4.127   4.720
    1C        C  298   4.199   4.310   4.836
    1C        C  299   4.286   4.196   4.839
    1C        C  300   4.175   4.403   4.942
    1C        C  301   4.347   2.881   2.063
    1C        C  302   4.463   3.070   2.178
    1C        C  303   4.391   2.946   2.179
    1C        C  304   4.477   3.144   2.298
    1C        C  305   4.449   3.074   2.418
    1C        C  306   4.500   3.282   2.535
    1C        C  307   4.472   3.144   2.538
    1C        C  308   4.508   3.354   2.656
    1C        C  309   4.498   3.287   2.780
    1C        C  310   4.516   3.500   2.899
    1C        C  311   4.511   3.359   2.901
    1C        C  312   4.515   3.575   3.019
    1C        C  313   4.511   3.506   3.142
    1C        C  314   4.474   3.714   3.263
    1C        C  315   4.505   3.576   3.265
    1C        C  316   4.467   3.786   3.384
    1C        C  317   4.486   3.720   3.508
    1C        C  318   4.426   3.924   3.627
    1C        C  319   4.470   3.790   3.630
    1C        C  320   4.401   3.988   3.750
    1C        C  321   4.430   3.926   3.874
    1C        C  322   4.327   4.118   3.989
    1C        C  323   4.396   3.995   3.993
    1C        C  324   4.280   4.172   4.111
    1C        C  325   4.325   4.120   4.234
    1C        C  326   4.187   4.284   4.352
    1C        C  327   4.283   4.181   4.354
    1C        C  328   4.134   4.336   4.472
    1C        C  329   4.188   4.291   4.595
    1C        C  330   4.025   4.435   4.710
    1C        C  331   4.140   4.352   4.713
    1C        C  332   3.971   4.490   4.828
    1C        C  333   4.057   4.478   4.939
    1C        C  334   4.546   3.266   2.057
    1C        C  335   4.528   3.127   2.064
    1C        C  336   4.533   3.348   2.169
    1C        C  337   4.514   3.281   2.292
    1C        C  338   4.524   3.493   2.411
    1C        C  339   4.520   3.352   2.414
    1C        C  340   4.522   3.565   2.532
    1C        C  341   4.521   3.495   2.654
    1C        C  342   4.492   3.708   2.772
    1C        C  343   4.513   3.568   2.775
    1C        C  344   4.476   3.779   2.893
    1C        C  345   4.494   3.714   3.017
    1C        C  346   4.420   3.914   3.137
    1C        C  347   4.468   3.782   3.139
    1C        C  348   4.389   3.981   3.258
    1C        C  349   4.421   3.919   3.381
    1C        C  350   4.320   4.104   3.502
    1C        C  351   4.396   3.985   3.503
    1C        C  352   4.277   4.163   3.623
    1C        C  353   4.325   4.107   3.743
    1C        C  354   4.182   4.266   3.866
    1C        C  355   4.284   4.168   3.864
    1C        C  356   4.123   4.311   3.986
    1C        C  357   4.176   4.268   4.109
    1C        C  358   4.014   4.406   4.228
    1C        C  359   4.132   4.328   4.229
    1C        C  360   3.950   4.445   4.348
    1C        C  361   4.016   4.413   4.468
    1C        C  362   3.828   4.515   4.591
    1C        C  363   3.957   4.458   4.589
    1C        C  364   3.760   4.548   4.710
    1C        C  365   3.840   4.543   4.827
    1C        C  366   3.629   4.594   4.947
    1C        C  367   3.766   4.572   4.942
    1C        C  368   4.511   3.562   2.048
    1C        C  369   4.525   3.489   2.166
    1C        C  370   4.501   3.702   2.284
    1C        C  371   4.518   3.562   2.287
    1C        C  372   4.484   3.772   2.405
    1C        C  373   4.497   3.704   2.528
    1C        C  374   4.429   3.908   2.649
    1C        C  375   4.477   3.775   2.649
    1C        C  376   4.397   3.975   2.769
    1C        C  377   4.428   3.912   2.892
    1C        C  378   4.319   4.097   3.012
    1C        C  379   4.394   3.977   3.013
    1C        C  380   4.276   4.158   3.132
    1C        C  381   4.319   4.103   3.255
    1C        C  382   4.178   4.260   3.377
    1C        C  383   4.276   4.158   3.379
    1C        C  384   4.121   4.304   3.498
    1C        C  385   4.174   4.260   3.622
    1C        C  386   4.005   4.385   3.743
    1C        C  387   4.122   4.306   3.745
    1C        C  388   3.943   4.425   3.863
    1C        C  389   4.006   4.390   3.985
    1C        C  390   3.815   4.482   4.105
    1C        C  391   3.948   4.432   4.106
    1C        C  392   3.748   4.509   4.227
    1C        C  393   3.819   4.499   4.349
    1C        C  394   3.614   4.547   4.472
    1C        C  395   3.754   4.526   4.471
    1C        C  396   3.545   4.561   4.594
    1C        C  397   3.620   4.563   4.714
    1C        C  398   3.407   4.558   4.837
    1C        C  399   3.548   4.574   4.834
    1C        C  400   3.341   4.509   4.950
    1C        C  401   4.501   3.701   2.047
    1C        C  402   4.449   3.912   2.166
    1C        C  403   4.489   3.777   2.165
    1C        C  404   4.410   3.972   2.288
    1C        C  405   4.433   3.903   2.409
    1C        C  406   4.327   4.093   2.524
    1C        C  407   4.404   3.975   2.527
    1C        C  408   4.279   4.148   2.645
    1C        C  409   4.317   4.092   2.769
    1C        C  410   4.172   4.248   2.887
    1C        C  411   4.273   4.150   2.889
    1C        C  412   4.123   4.301   3.009
    1C        C  413   4.176   4.257   3.133
    1C        C  414   4.001   4.378   3.249
    1C        C  415   4.122   4.304   3.255
    1C        C  416   3.942   4.414   3.373
    1C        C  417   4.002   4.380   3.496
    1C        C  418   3.814   4.471   3.617
    1C        C  419   3.944   4.417   3.620
    1C        C  420   3.745   4.495   3.738
    1C        C  421   3.811   4.475   3.862
    1C        C  422   3.608   4.535   3.986
    1C        C  423   3.746   4.503   3.984
    1C        C  424   3.539   4.539   4.109
    1C        C  425   3.609   4.532   4.231
    1C        C  426   3.397   4.545   4.355
    1C        C  427   3.538   4.546   4.352
    1C        C  428   3.328   4.547   4.479
    1C        C  429   3.404   4.553   4.598
    1C        C  430   3.192   4.517   4.721
    1C        C  431   3.331   4.548   4.718
    1C        C  432   3.125   4.492   4.844
    1C        C  433   3.203   4.497   4.960
    1C        C  434   4.387   4.122   2.054
    1C        C  435   4.447   3.995   2.053
    1C        C  436   4.302   4.161   2.163
    1C        C  437   4.331   4.091   2.283
    1C        C  438   4.182   4.248   2.400
    1C        C  439   4.283   4.149   2.402
    1C        C  440   4.123   4.291   2.521
    1C        C  441   4.178   4.247   2.643
    1C        C  442   4.002   4.372   2.764
    1C        C  443   4.119   4.291   2.764
    1C        C  444   3.939   4.408   2.885
    1C        C  445   4.001   4.371   3.006
    1C        C  446   3.806   4.460   3.128
    1C        C  447   3.936   4.406   3.127
    1C        C  448   3.742   4.483   3.252
    1C        C  449   3.810   4.464   3.374
    1C        C  450   3.606   4.525   3.493
    1C        C  451   3.743   4.489   3.496
    1C        C  452   3.539   4.536   3.617
    1C        C  453   3.607   4.525   3.741
    1C        C  454   3.397   4.539   3.862
    1C        C  455   3.538   4.540   3.863
    1C        C  456   3.331   4.532   3.987
    1C        C  457   3.397   4.537   4.111
    1C        C  458   3.190   4.500   4.236
    1C        C  459   3.326   4.536   4.233
    1C        C  460   3.122   4.488   4.360
    1C        C  461   3.189   4.522   4.479
    1C        C  462   2.998   4.428   4.604
    1C        C  463   3.121   4.498   4.601
    1C        C  464   2.932   4.396   4.725
    1C        C  465   2.991   4.441   4.846
    1C        C  466   2.803   4.332   4.960
    1C        C  467   2.904   4.429   4.959
    1C        C  468   4.123   4.285   2.041
    1C        C  469   4.185   4.243   2.159
    1C        C  470   4.002   4.363   2.277
    1C        C  471   4.125   4.292   2.279
    1C        C  472   3.941   4.400   2.399
    1C        C  473   4.004   4.368   2.522
    1C        C  474   3.811   4.464   2.641
    1C        C  475   3.940   4.405   2.642
    1C        C  476   3.744   4.494   2.762
    1C        C  477   3.811   4.468   2.884
    1C        C  478   3.603   4.517   3.007
    1C        C  479   3.740   4.484   3.005
    1C        C  480   3.532   4.528   3.129
    1C        C  481   3.606   4.519   3.249
    1C        C  482   3.394   4.534   3.372
    1C        C  483   3.535   4.527   3.371
    1C        C  484   3.326   4.527   3.496
    1C        C  485   3.398   4.534   3.618
    1C        C  486   3.190   4.499   3.745
    1C        C  487   3.326   4.534   3.740
    1C        C  488   3.127   4.473   3.869
    1C        C  489   3.195   4.495   3.991
    1C        C  490   2.998   4.415   4.115
    1C        C  491   3.124   4.479   4.113
    1C        C  492   2.937   4.384   4.239
    1C        C  493   2.996   4.424   4.361
    1C        C  494   2.832   4.295   4.481
    1C        C  495   2.935   4.392   4.484
    1C        C  496   2.774   4.252   4.602
    1C        C  497   2.819   4.309   4.723
    1C        C  498   2.668   4.160   4.844
    1C        C  499   2.758   4.269   4.843
    1C        C  500   2.594   4.116   4.954
    1C        C  501   4.002   4.354   2.040
    1C        C  502   3.811   4.459   2.156
    1C        C  503   3.941   4.403   2.156
    1C        C  504   3.742   4.474   2.278
    1C        C  505   3.811   4.455   2.399
    1C        C  506   3.605   4.511   2.520
    1C        C  507   3.744   4.486   2.519
    1C        C  508   3.533   4.517   2.641
    1C        C  509   3.604   4.516   2.763
    1C        C  510   3.391   4.524   2.883
    1C        C  511   3.532   4.523   2.885
    1C        C  512   3.321   4.526   3.006
    1C        C  513   3.391   4.537   3.128
    1C        C  514   3.184   4.498   3.255
    1C        C  515   3.321   4.532   3.251
    1C        C  516   3.117   4.474   3.377
    1C        C  517   3.189   4.496   3.497
    1C        C  518   3.000   4.410   3.623
    1C        C  519   3.124   4.477   3.621
    1C        C  520   2.942   4.373   3.747
    1C        C  521   3.000   4.412   3.870
    1C        C  522   2.833   4.283   3.995
    1C        C  523   2.942   4.373   3.993
    1C        C  524   2.785   4.236   4.119
    1C        C  525   2.829   4.293   4.240
    1C        C  526   2.692   4.130   4.364
    1C        C  527   2.780   4.240   4.361
    1C        C  528   2.648   4.074   4.486
    1C        C  529   2.688   4.140   4.604
    1C        C  530   2.585   3.955   4.730
    1C        C  531   2.648   4.083   4.727
    1C        C  532   2.536   3.898   4.850
    1C        C  533   2.522   3.996   4.954
    1C        C  534   3.619   4.555   2.045
    1C        C  535   3.751   4.508   2.040
    1C        C  536   3.533   4.532   2.157
    1C        C  537   3.603   4.505   2.278
    1C        C  538   3.390   4.514   2.396
    1C        C  539   3.531   4.513   2.399
    1C        C  540   3.319   4.513   2.519
    1C        C  541   3.392   4.521   2.640
    1C        C  542   3.181   4.489   2.765
    1C        C  543   3.321   4.513   2.762
    1C        C  544   3.117   4.467   2.889
    1C        C  545   3.184   4.489   3.011
    1C        C  546   2.989   4.409   3.133
    1C        C  547   3.117   4.471   3.134
    1C        C  548   2.936   4.368   3.257
    1C        C  549   2.992   4.408   3.380
    1C        C  550   2.830   4.277   3.505
    1C        C  551   2.935   4.371   3.504
    1C        C  552   2.782   4.228   3.628
    1C        C  553   2.837   4.279   3.748
    1C        C  554   2.702   4.118   3.874
    1C        C  555   2.790   4.229   3.872
    1C        C  556   2.662   4.062   3.997
    1C        C  557   2.699   4.124   4.119
    1C        C  558   2.599   3.938   4.243
    1C        C  559   2.662   4.064   4.242
    1C        C  560   2.567   3.877   4.366
    1C        C  561   2.590   3.945   4.487
    1C        C  562   2.533   3.744   4.613
    1C        C  563   2.568   3.881   4.611
    1C        C  564   2.514   3.679   4.737
    1C        C  565   2.520   3.756   4.856
    1C        C  566   2.524   3.545   4.972
    1C        C  567   2.526   3.684   4.976
    1C        C  568   3.322   4.474   2.040
    1C        C  569   3.392   4.515   2.154
    1C        C  570   3.179   4.483   2.279
    1C        C  571   3.317   4.515   2.275
    1C        C  572   3.114   4.455   2.401
    1C        C  573   3.183   4.476   2.523
    1C        C  574   2.984   4.403   2.645
    1C        C  575   3.112   4.465   2.645
    1C        C  576   2.925   4.369   2.769
    1C        C  577   2.987   4.410   2.889
    1C        C  578   2.825   4.274   3.015
    1C        C  579   2.930   4.369   3.011
    1C        C  580   2.778   4.222   3.138
    1C        C  581   2.828   4.276   3.258
    1C        C  582   2.697   4.113   3.382
    1C        C  583   2.781   4.226   3.382
    1C        C  584   2.661   4.055   3.506
    1C        C  585   2.697   4.116   3.629
    1C        C  586   2.602   3.930   3.753
    1C        C  587   2.660   4.059   3.753
    1C        C  588   2.571   3.869   3.876
    1C        C  589   2.603   3.934   3.997
    1C        C  590   2.540   3.734   4.123
    1C        C  591   2.576   3.871   4.121
    1C        C  592   2.525   3.666   4.246
    1C        C  593   2.531   3.740   4.367
    1C        C  594   2.509   3.533   4.495
    1C        C  595   2.521   3.674   4.491
    1C        C  596   2.518   3.464   4.617
    1C        C  597   2.509   3.537   4.738
    1C        C  598   2.529   3.324   4.859
    1C        C  599   2.515   3.464   4.858
    1C        C  600   2.536   3.249   4.977
    1C        C  601   3.188   4.440   2.042
    1C        C  602   2.979   4.389   2.156
    1C        C  603   3.112   4.443   2.160
    1C        C  604   2.924   4.356   2.282
    1C        C  605   2.987   4.394   2.403
    1C        C  606   2.818   4.266   2.528
    1C        C  607   2.925   4.358   2.525
    1C        C  608   2.769   4.219   2.652
    1C        C  609   2.823   4.272   2.771
    1C        C  610   2.691   4.107   2.894
    1C        C  611   2.773   4.222   2.894
    1C        C  612   2.655   4.048   3.017
    1C        C  613   2.693   4.109   3.138
    1C        C  614   2.594   3.926   3.263
    1C        C  615   2.651   4.055   3.262
    1C        C  616   2.574   3.860   3.387
    1C        C  617   2.605   3.926   3.508
    1C        C  618   2.537   3.727   3.635
    1C        C  619   2.579   3.862   3.631
    1C        C  620   2.519   3.660   3.758
    1C        C  621   2.531   3.733   3.878
    1C        C  622   2.512   3.523   4.007
    1C        C  623   2.527   3.663   4.001
    1C        C  624   2.517   3.453   4.130
    1C        C  625   2.519   3.525   4.252
    1C        C  626   2.533   3.318   4.375
    1C        C  627   2.512   3.458   4.375
    1C        C  628   2.553   3.251   4.498
    1C        C  629   2.536   3.324   4.618
    1C        C  630   2.593   3.117   4.742
    1C        C  631   2.545   3.251   4.739
    1C        C  632   2.615   3.048   4.864
    1C        C  633   2.562   3.111   4.981
    1C        C  634   2.780   4.303   2.049
    1C        C  635   2.887   4.393   2.046
    1C        C  636   2.753   4.228   2.165
    1C        C  637   2.808   4.273   2.286
    1C        C  638   2.677   4.105   2.407
    1C        C  639   2.762   4.218   2.408
    1C        C  640   2.639   4.048   2.531
    1C        C  641   2.686   4.105   2.651
    1C        C  642   2.588   3.918   2.775
    1C        C  643   2.652   4.044   2.774
    1C        C  644   2.567   3.850   2.898
    1C        C  645   2.596   3.919   3.017
    1C        C  646   2.530   3.723   3.144
    1C        C  647   2.566   3.860   3.142
    1C        C  648   2.520   3.655   3.268
    1C        C  649   2.538   3.723   3.390
    1C        C  650   2.517   3.514   3.516
    1C        C  651   2.526   3.655   3.514
    1C        C  652   2.513   3.447   3.640
    1C        C  653   2.510   3.519   3.762
    1C        C  654   2.536   3.313   3.885
    1C        C  655   2.509   3.452   3.886
    1C        C  656   2.553   3.244   4.008
    1C        C  657   2.540   3.314   4.130
    1C        C  658   2.596   3.114   4.255
    1C        C  659   2.549   3.247   4.254
    1C        C  660   2.628   3.053   4.379
    1C        C  661   2.597   3.117   4.501
    1C        C  662   2.702   2.932   4.625
    1C        C  663   2.624   3.050   4.622
    1C        C  664   2.743   2.872   4.746
    1C        C  665   2.694   2.929   4.867
    1C        C  666   2.740   2.869   4.985
    1C        C  667   2.679   4.019   2.056
    1C        C  668   2.687   4.103   2.168
    1C        C  669   2.592   3.908   2.289
    1C        C  670   2.643   4.041   2.286
    1C        C  671   2.565   3.843   2.412
    1C        C  672   2.584   3.918   2.531
    1C        C  673   2.515   3.717   2.659
    1C        C  674   2.561   3.851   2.654
    1C        C  675   2.505   3.645   2.779
    1C        C  676   2.520   3.717   2.900
    1C        C  677   2.504   3.509   3.029
    1C        C  678   2.510   3.650   3.024
    1C        C  679   2.504   3.440   3.152
    1C        C  680   2.510   3.514   3.271
    1C        C  681   2.532   3.303   3.396
    1C        C  682   2.517   3.443   3.393
    1C        C  683   2.546   3.235   3.520
    1C        C  684   2.534   3.307   3.640
    1C        C  685   2.594   3.108   3.767
    1C        C  686   2.547   3.241   3.764
    1C        C  687   2.629   3.045   3.889
    1C        C  688   2.600   3.111   4.011
    1C        C  689   2.705   2.930   4.138
    1C        C  690   2.624   3.046   4.134
    1C        C  691   2.748   2.876   4.261
    1C        C  692   2.706   2.935   4.382
    1C        C  693   2.744   2.874   4.503
    1C        C  694   2.636   3.886   2.055
    1C        C  695   2.527   3.701   2.174
    1C        C  696   2.576   3.833   2.170
    1C        C  697   2.508   3.634   2.296
    1C        C  698   2.521   3.709   2.415
    1C        C  699   2.496   3.503   2.540
    1C        C  700   2.500   3.644   2.539
    1C        C  701   2.503   3.433   2.663
    1C        C  702   2.500   3.503   2.786
    1C        C  703   2.518   3.294   2.908
    1C        C  704   2.501   3.434   2.909
    1C        C  705   2.533   3.227   3.031
    1C        C  706   2.519   3.299   3.152
    1C        C  707   2.580   3.096   3.278
    1C        C  708   2.542   3.232   3.274
    1C        C  709   2.627   3.041   3.400
    1C        C  710   2.602   3.105   3.523
    1C        C  711   2.707   2.924   3.648
    1C        C  712   2.634   3.045   3.647
    1C        C  713   2.752   2.872   3.771
    1C        C  714   2.707   2.928   3.893
    1C        C  715   2.750   2.874   4.016
    1C        C  716   2.444   3.500   2.059
    1C        C  717   2.495   3.630   2.057
    1C        C  718   2.463   3.421   2.176
    1C        C  719   2.488   3.493   2.296
    1C        C  720   2.516   3.288   2.421
    1C        C  721   2.490   3.427   2.421
    1C        C  722   2.538   3.222   2.544
    1C        C  723   2.521   3.293   2.665
    1C        C  724   2.593   3.094   2.790
    1C        C  725   2.538   3.224   2.787
    1C        C  726   2.622   3.033   2.914
    1C        C  727   2.583   3.094   3.035
    1C        C  728   2.702   2.919   3.157
    1C        C  729   2.618   3.032   3.158
    1C        C  730   2.752   2.870   3.280
    1C        C  731   2.707   2.924   3.402
    1C        C  732   2.750   2.870   3.525
    1C        C  733   2.489   3.196   2.072
    1C        C  734   2.486   3.280   2.184
    1C        C  735   2.582   3.083   2.303
    1C        C  736   2.520   3.211   2.303
    1C        C  737   2.614   3.018   2.425
    1C        C  738   2.587   3.090   2.544
    1C        C  739   2.693   2.908   2.671
    1C        C  740   2.624   3.032   2.667
    1C        C  741   2.737   2.854   2.793
    1C        C  742   2.697   2.914   2.915
    1C        C  743   2.749   2.863   3.036
    1C        C  744   2.545   3.068   2.070
    1C        C  745   2.684   2.895   2.183
    1C        C  746   2.607   3.013   2.183
    1C        C  747   2.725   2.839   2.306
    1C        C  748   2.682   2.895   2.429
    1C        C  749   2.732   2.844   2.551
    1C        C  750   2.734   2.839   2.064
    1C        C  751   3.659   2.314   1.982
    1C        O  752   3.683   2.198   2.025
    1C        O  753   3.626   2.321   1.846
    1C        C  754   4.627   3.047   1.987
    1C        O  755   4.607   3.006   1.870
    1C        O  756   4.737   2.987   2.049
    1C        C  757   4.456   4.218   1.966
    1C        O  758   4.561   4.278   2.000
    1C        O  759   4.452   4.214   1.826
    1C        C  760   3.582   4.657   1.944
    1C        O  761   3.553   4.775   1.978
    1C        O  762   3.552   4.621   1.813
    1C        C  763   2.854   4.517   1.974
    1C        O  764   2.876   4.513   1.850
    1C        O  765   2.766   4.614   2.026
    1C        C  766   2.353   3.472   1.946
    1C        O  767   2.382   3.504   1.827
    1C        O  768   2.216   3.489   1.972
    1C        C  769   4.673   3.594   5.069
    1C        O  770   4.642   3.576   5.190
    1C        O  771   4.810   3.583   5.042
    1C        C  772   4.285   4.480   5.004
    1C        O  773   4.353   4.432   5.098
    1C        O  774   4.336   4.594   4.941
    1C        C  775   4.143   2.539   5.083
    1C        O  776   4.180   2.419   5.089
    1C        O  777   4.126   2.594   5.211
    1C        C  778   2.894   4.537   5.059
    1C        O  779   2.806   4.628   5.060
    1C        O  780   2.914   4.506   5.194
    1C        C  781   2.482   3.037   5.081
    1C        O  782   2.365   3.007   5.045
    1C        O  783   2.525   3.037   5.214
    1C        C  784   2.397   3.996   5.034
    1C        O  785   2.283   3.989   4.981
    1C        O  786   2.398   4.002   5.174
    1C        C  787   2.958   2.463   1.969
    1C        O  788   3.002   2.470   1.851
    1C        O  789   2.858   2.368   1.984
    1C        C  790   3.164   2.376   5.063
    1C        O  791   3.088   2.279   5.035
    1C        O  792   3.244   2.352   5.175
    1C        H  793   4.267   3.027   5.056
    1C        H  794   4.185   2.803   5.075
    1C        H  795   4.454   3.143   5.069
    1C        H  796   4.509   3.374   5.064
    1C        H  797   4.609   3.814   5.022
    1C        H  798   4.467   4.005   5.033
    1C        H  799   4.250   4.137   5.040
    1C        H  800   4.032   4.521   5.034
    1C        H  801   3.819   4.583   5.035
    1C        H  802   3.587   4.641   5.033
    1C        H  803   3.399   4.486   5.037
    1C        H  804   3.161   4.566   5.030
    1C        H  805   3.879   2.496   5.068
    1C        H  806   3.678   2.461   5.071
    1C        H  807   2.992   2.551   5.059
    1C        H  808   3.439   2.460   5.075
    1C        H  809   2.861   2.731   5.082
    1C        H  810   2.688   2.885   5.078
    1C        H  811   2.497   3.291   5.067
    1C        H  812   2.550   3.496   5.064
    1C        H  813   2.590   3.724   5.052
    1C        H  814   2.609   4.157   5.051
    1C        H  815   2.749   4.315   5.051
    1C        H  816   2.706   2.873   1.967
    1C        H  817   2.880   2.727   1.982
    1C        H  818   3.196   2.384   2.017
    1C        H  819   3.424   2.410   1.983
    1C        H  820   3.889   2.457   1.995
    1C        H  821   4.057   2.626   1.962
    1C        H  822   4.268   2.705   1.983
    1C        H  823   4.387   2.905   1.966
    1C        H  824   4.613   3.302   1.981
    1C        H  825   4.486   3.512   1.957
    1C        H  826   4.483   3.746   1.952
    1C        H  827   3.784   4.474   1.944
    1C        H  828   3.947   4.347   1.949
    1C        H  829   4.162   4.233   1.956
    1C        H  830   4.527   3.982   1.984
    1C        H  831   2.706   3.822   2.005
    1C        H  832   2.669   4.066   1.960
    1C        H  833   2.707   4.303   1.970
    1C        H  834   3.368   4.492   1.945
    1C        H  835   3.150   4.370   1.971
    1C        H  836   2.523   3.006   1.986
    1C        H  837   2.424   3.221   1.991
    1C        H  838   2.510   3.676   1.961
    2V3OU   H29  839   2.806   3.547   2.744
    2V3OU   C27  840   2.790   3.501   2.844
    2V3OU   H27  841   2.730   3.573   2.905
    2V3OU   H28  842   2.738   3.403   2.827
    2V3OU   O11  843   2.915   3.471   2.906
    2V3OU   C15  844   2.924   3.396   3.022
    2V3OU   C13  845   3.054   3.371   3.071
    2V3OU   C14  846   3.079   3.262   3.155
    2V3OU   C16  847   2.978   3.179   3.203
    2V3OU    H6  848   2.995   3.100   3.277
    2V3OU   C12  849   3.216   3.228   3.200
    2V3OU    O2  850   3.235   3.130   3.275
    2V3OU   C10  851   3.326   3.313   3.153
    2V3OU    C8  852   3.455   3.271   3.181
    2V3OU   O10  853   3.484   3.158   3.251
    2V3OU   H26  854   3.400   3.113   3.271
    2V3OU    C6  855   3.564   3.350   3.134
    2V3OU    C5  856   3.539   3.466   3.060
    2V3OU    C4  857   3.701   3.293   3.143
    2V3OU    H4  858   3.720   3.224   3.231
    2V3OU    H5  859   3.711   3.223   3.055
    2V3OU    C2  860   3.812   3.398   3.134
    2V3OU    O6  861   3.807   3.470   3.257
    2V3OU   H21  862   3.764   3.552   3.228
    2V3OU    C3  863   3.782   3.497   3.022
    2V3OU    H2  864   3.867   3.569   3.016
    2V3OU    H3  865   3.781   3.440   2.925
    2V3OU   C25  866   3.947   3.329   3.115
    2V3OU    O7  867   3.999   3.297   3.008
    2V3OU   C26  868   4.021   3.285   3.241
    2V3OU   H22  869   4.063   3.380   3.284
    2V3OU   H23  870   4.113   3.228   3.213
    2V3OU    O8  871   3.956   3.208   3.339
    2V3OU   H24  872   3.921   3.271   3.405
    2V3OU    C1  873   3.647   3.566   3.036
    2V3OU    H1  874   3.622   3.617   2.938
    2V3OU    O3  875   3.659   3.653   3.149
    2V3OU   C19  876   3.620   3.788   3.122
    2V3OU    H9  877   3.515   3.795   3.081
    2V3OU    O4  878   3.710   3.850   3.033
    2V3OU   C20  879   3.842   3.873   3.083
    2V3OU   H10  880   3.899   3.776   3.090
    2V3OU   C24  881   3.612   3.852   3.260
    2V3OU   H16  882   3.549   3.788   3.327
    2V3OU   H17  883   3.561   3.951   3.245
    2V3OU   C23  884   3.752   3.875   3.317
    2V3OU   H15  885   3.793   3.771   3.341
    2V3OU    N1  886   3.740   3.956   3.436
    2V3OU   H19  887   3.803   3.919   3.505
    2V3OU   H20  888   3.656   3.935   3.486
    2V3OU   C21  889   3.847   3.947   3.217
    2V3OU   H11  890   3.954   3.923   3.242
    2V3OU    O5  891   3.832   4.088   3.219
    2V3OU   H18  892   3.780   4.101   3.301
    2V3OU   C22  893   3.911   3.950   2.971
    2V3OU   H12  894   3.856   4.043   2.943
    2V3OU   H13  895   3.905   3.891   2.876
    2V3OU   H14  896   4.020   3.965   2.996
    2V3OU   C11  897   3.160   3.468   3.043
    2V3OU    O1  898   3.135   3.584   3.004
    2V3OU    C9  899   3.299   3.429   3.076
    2V3OU    C7  900   3.405   3.504   3.026
    2V3OU    O9  901   3.384   3.617   2.949
    2V3OU   H25  902   3.289   3.630   2.932
    2V3OU   C17  903   2.822   3.317   3.079
    2V3OU    H7  904   2.727   3.348   3.035
    2V3OU   C18  905   2.849   3.212   3.165
    2V3OU    H8  906   2.783   3.168   3.242
    3SOL     OW  907   2.476   5.402   6.353
    3SOL    HW1  908   2.518   5.323   6.398
    3SOL    HW2  909   2.436   5.462   6.423
    4SOL     OW  910   6.841   0.890   1.279
    4SOL    HW1  911   6.768   0.890   1.211
    4SOL    HW2  912   6.801   0.898   1.370
    5SOL     OW  913   4.274   2.266   2.137
    5SOL    HW1  914   4.327   2.351   2.128
    5SOL    HW2  915   4.231   2.244   2.050
    6SOL     OW  916   4.396   1.601   1.489
    6SOL    HW1  917   4.378   1.663   1.412
    6SOL    HW2  918   4.481   1.551   1.472
    7SOL     OW  919   0.888   3.990   3.801
    7SOL    HW1  920   0.895   3.915   3.736
    7SOL    HW2  921   0.854   4.072   3.754
    8SOL     OW  922   2.811   1.417   5.733
    8SOL    HW1  923   2.834   1.328   5.694
    8SOL    HW2  924   2.799   1.483   5.660
    9SOL     OW  925   4.522   1.341   5.759
    9SOL    HW1  926   4.487   1.434   5.747
    9SOL    HW2  927   4.513   1.314   5.856
   10SOL     OW  928   1.856   5.337   4.766
   10SOL    HW1  929   1.931   5.279   4.734
   10SOL    HW2  930   1.844   5.326   4.865
   11SOL     OW  931   2.265   0.927   5.751
   11SOL    HW1  932   2.204   0.995   5.710
   11SOL    HW2  933   2.326   0.891   5.681
   12SOL     OW  934   2.883   5.120   3.712
   12SOL    HW1  935   2.814   5.127   3.640
   12SOL    HW2  936   2.866   5.190   3.782
   13SOL     OW  937   3.455   6.573   4.279
   13SOL    HW1  938   3.412   6.637   4.214
   13SOL    HW2  939   3.387   6.543   4.346
   14SOL     OW  940   3.902   5.598   6.382
   14SOL    HW1  941   3.910   5.640   6.291
   14SOL    HW2  942   3.849   5.658   6.442
   15SOL     OW  943   0.741   6.884   0.894
   15SOL    HW1  944   0.813   6.871   0.826
   15SOL    HW2  945   0.758   6.825   0.973
   16SOL     OW  946   5.371   2.791   6.297
   16SOL    HW1  947   5.346   2.737   6.216
   16SOL    HW2  948   5.287   2.819   6.344
   17SOL     OW  949   6.092   5.752   6.897
   17SOL    HW1  950   6.099   5.710   6.987
   17SOL    HW2  951   6.049   5.842   6.905
   18SOL     OW  952   2.511   0.969   5.561
   18SOL    HW1  953   2.549   0.998   5.472
   18SOL    HW2  954   2.585   0.963   5.628
   19SOL     OW  955   0.463   2.078   3.268
   19SOL    HW1  956   0.439   2.126   3.183
   19SOL    HW2  957   0.541   2.018   3.251
   20SOL     OW  958   4.513   1.679   4.743
   20SOL    HW1  959   4.530   1.620   4.822
   20SOL    HW2  960   4.466   1.762   4.772
   21SOL     OW  961   2.847   0.987   2.171
   21SOL    HW1  962   2.747   0.993   2.178
   21SOL    HW2  963   2.877   0.901   2.212
   22SOL     OW  964   1.538   6.274   6.854
   22SOL    HW1  965   1.502   6.238   6.940
   22SOL    HW2  966   1.484   6.240   6.778
   23SOL     OW  967   4.613   5.435   2.432
   23SOL    HW1  968   4.631   5.412   2.527
   23SOL    HW2  969   4.564   5.359   2.388
   24SOL     OW  970   3.383   0.653   2.607
   24SOL    HW1  971   3.288   0.670   2.583
   24SOL    HW2  972   3.390   0.566   2.656
   25SOL     OW  973   3.739   6.833   3.453
   25SOL    HW1  974   3.673   6.793   3.390
   25SOL    HW2  975   3.695   6.905   3.506
   26SOL     OW  976   6.758   1.461   0.498
   26SOL    HW1  977   6.698   1.530   0.540
   26SOL    HW2  978   6.837   1.507   0.458
   27SOL     OW  979   1.938   1.309   2.284
   27SOL    HW1  980   1.954   1.401   2.317
   27SOL    HW2  981   1.913   1.250   2.361
   28SOL     OW  982   1.726   6.898   5.025
   28SOL    HW1  983   1.715   6.861   4.932
   28SOL    HW2  984   1.641   6.885   5.076
   29SOL     OW  985   6.385   1.873   1.903
   29SOL    HW1  986   6.407   1.776   1.910
   29SOL    HW2  987   6.463   1.922   1.865
   30SOL     OW  988   4.541   0.150   3.395
   30SOL    HW1  989   4.522   0.223   3.460
   30SOL    HW2  990   4.632   0.112   3.413
   31SOL     OW  991   0.244   2.450   6.848
   31SOL    HW1  992   0.226   2.477   6.753
   31SOL    HW2  993   0.343   2.447   6.864
   32SOL     OW  994   0.639   1.928   3.147
   32SOL    HW1  995   0.728   1.884   3.133
   32SOL    HW2  996   0.566   1.861   3.137
   33SOL     OW  997   1.551   4.471   5.042
   33SOL    HW1  998   1.578   4.391   5.095
   33SOL    HW2  999   1.463   4.505   5.076
   34SOL     OW 1000   2.609   6.567   4.984
   34SOL    HW1 1001   2.598   6.659   4.946
   34SOL    HW2 1002   2.657   6.573   5.072
   35SOL     OW 1003   4.650   2.977   6.098
   35SOL    HW1 1004   4.587   2.900   6.106
   35SOL    HW2 1005   4.716   2.974   6.174
   36SOL     OW 1006   4.741   1.976   4.242
   36SOL    HW1 1007   4.647   1.949   4.221
   36SOL    HW2 1008   4.792   1.896   4.275
   37SOL     OW 1009   1.598   1.584   5.674
   37SOL    HW1 1010   1.620   1.574   5.771
   37SOL    HW2 1011   1.663   1.648   5.632
   38SOL     OW 1012   1.052   5.197   2.260
   38SOL    HW1 1013   1.111   5.196   2.179
   38SOL    HW2 1014   0.996   5.114   2.261
   39SOL     OW 1015   6.172   4.130   6.486
   39SOL    HW1 1016   6.187   4.227   6.466
   39SOL    HW2 1017   6.257   4.080   6.469
   40SOL     OW 1018   4.471   1.701   0.643
   40SOL    HW1 1019   4.495   1.796   0.622
   40SOL    HW2 1020   4.518   1.640   0.578
   41SOL     OW 1021   6.391   3.714   3.955
   41SOL    HW1 1022   6.379   3.646   3.883
   41SOL    HW2 1023   6.358   3.802   3.924
   42SOL     OW 1024   3.466   5.571   3.918
   42SOL    HW1 1025   3.398   5.499   3.905
   42SOL    HW2 1026   3.548   5.532   3.960
   43SOL     OW 1027   4.662   0.017   5.341
   43SOL    HW1 1028   4.636   0.099   5.392
   43SOL    HW2 1029   4.758   0.024   5.313
   44SOL     OW 1030   4.529   1.989   6.002
   44SOL    HW1 1031   4.476   2.066   6.037
   44SOL    HW2 1032   4.554   2.006   5.907
   45SOL     OW 1033   4.597   4.717   1.466
   45SOL    HW1 1034   4.695   4.721   1.444
   45SOL    HW2 1035   4.546   4.689   1.385
   46SOL     OW 1036   0.410   3.043   3.883
   46SOL    HW1 1037   0.459   3.099   3.949
   46SOL    HW2 1038   0.471   2.970   3.850
   47SOL     OW 1039   4.445   3.800   0.914
   47SOL    HW1 1040   4.348   3.786   0.896
   47SOL    HW2 1041   4.465   3.898   0.917
   48SOL     OW 1042   6.543   2.633   6.027
   48SOL    HW1 1043   6.631   2.651   5.983
   48SOL    HW2 1044   6.557   2.577   6.109
   49SOL     OW 1045   5.778   3.080   2.474
   49SOL    HW1 1046   5.718   3.090   2.554
   49SOL    HW2 1047   5.794   2.983   2.455
   50SOL     OW 1048   5.641   0.974   4.932
   50SOL    HW1 1049   5.626   1.062   4.977
   50SOL    HW2 1050   5.561   0.915   4.947
   51SOL     OW 1051   2.426   6.672   2.885
   51SOL    HW1 1052   2.425   6.580   2.846
   51SOL    HW2 1053   2.509   6.719   2.856
   52SOL     OW 1054   6.025   3.242   1.926
   52SOL    HW1 1055   5.968   3.314   1.965
   52SOL    HW2 1056   5.977   3.154   1.934
   53SOL     OW 1057   5.079   1.227   3.772
   53SOL    HW1 1058   5.115   1.208   3.864
   53SOL    HW2 1059   4.994   1.177   3.758
   54SOL     OW 1060   5.468   5.773   0.678
   54SOL    HW1 1061   5.568   5.779   0.687
   54SOL    HW2 1062   5.432   5.860   0.645
   55SOL     OW 1063   2.203   2.450   5.322
   55SOL    HW1 1064   2.270   2.496   5.380
   55SOL    HW2 1065   2.152   2.518   5.269
   56SOL     OW 1066   0.572   0.918   1.255
   56SOL    HW1 1067   0.581   0.875   1.345
   56SOL    HW2 1068   0.479   0.907   1.221
   57SOL     OW 1069   4.208   0.863   1.510
   57SOL    HW1 1070   4.135   0.922   1.545
   57SOL    HW2 1071   4.225   0.884   1.414
   58SOL     OW 1072   0.703   0.045   5.320
   58SOL    HW1 1073   0.642   6.991   5.291
   58SOL    HW2 1074   0.791   0.007   5.348
   59SOL     OW 1075   0.191   3.068   6.551
   59SOL    HW1 1076   0.241   2.990   6.587
   59SOL    HW2 1077   0.237   3.103   6.469
   60SOL     OW 1078   5.318   2.714   4.636
   60SOL    HW1 1079   5.227   2.732   4.674
   60SOL    HW2 1080   5.331   2.615   4.627
   61SOL     OW 1081   6.394   1.835   4.200
   61SOL    HW1 1082   6.486   1.875   4.201
   61SOL    HW2 1083   6.401   1.735   4.210
   62SOL     OW 1084   1.710   0.994   1.801
   62SOL    HW1 1085   1.707   1.094   1.803
   62SOL    HW2 1086   1.666   0.961   1.718
   63SOL     OW 1087   4.608   0.727   4.297
   63SOL    HW1 1088   4.600   0.772   4.208
   63SOL    HW2 1089   4.645   0.635   4.284
   64SOL     OW 1090   6.767   2.856   6.028
   64SOL    HW1 1091   6.697   2.920   6.057
   64SOL    HW2 1092   6.847   2.864   6.088
   65SOL     OW 1093   0.511   4.239   6.767
   65SOL    HW1 1094   0.470   4.235   6.858
   65SOL    HW2 1095   0.523   4.335   6.739
   66SOL     OW 1096   3.251   0.677   3.944
   66SOL    HW1 1097   3.231   0.771   3.971
   66SOL    HW2 1098   3.282   0.676   3.849
   67SOL     OW 1099   6.798   2.583   5.871
   67SOL    HW1 1100   6.720   2.572   5.810
   67SOL    HW2 1101   6.856   2.657   5.837
   68SOL     OW 1102   0.250   1.489   6.750
   68SOL    HW1 1103   0.193   1.424   6.800
   68SOL    HW2 1104   0.304   1.439   6.681
   69SOL     OW 1105   1.330   2.730   5.483
   69SOL    HW1 1106   1.426   2.722   5.458
   69SOL    HW2 1107   1.316   2.812   5.539
   70SOL     OW 1108   5.066   4.532   4.187
   70SOL    HW1 1109   5.061   4.444   4.234
   70SOL    HW2 1110   4.983   4.585   4.207
   71SOL     OW 1111   4.116   2.142   3.789
   71SOL    HW1 1112   4.183   2.211   3.761
   71SOL    HW2 1113   4.104   2.146   3.888
   72SOL     OW 1114   1.158   1.375   3.481
   72SOL    HW1 1115   1.240   1.432   3.474
   72SOL    HW2 1116   1.184   1.279   3.491
   73SOL     OW 1117   3.524   6.984   0.800
   73SOL    HW1 1118   3.593   6.935   0.854
   73SOL    HW2 1119   3.480   0.033   0.856
   74SOL     OW 1120   3.968   0.489   0.156
   74SOL    HW1 1121   3.915   0.419   0.205
   74SOL    HW2 1122   4.003   0.556   0.221
   75SOL     OW 1123   4.102   0.525   1.247
   75SOL    HW1 1124   4.078   0.429   1.233
   75SOL    HW2 1125   4.180   0.549   1.189
   76SOL     OW 1126   2.862   3.779   0.573
   76SOL    HW1 1127   2.823   3.835   0.645
   76SOL    HW2 1128   2.861   3.683   0.601
   77SOL     OW 1129   1.132   0.539   3.571
   77SOL    HW1 1130   1.231   0.523   3.578
   77SOL    HW2 1131   1.084   0.469   3.623
   78SOL     OW 1132   4.981   1.564   0.851
   78SOL    HW1 1133   4.948   1.608   0.768
   78SOL    HW2 1134   5.080   1.553   0.846
   79SOL     OW 1135   3.236   5.930   1.280
   79SOL    HW1 1136   3.186   6.015   1.298
   79SOL    HW2 1137   3.236   5.873   1.363
   80SOL     OW 1138   4.688   1.142   3.905
   80SOL    HW1 1139   4.766   1.120   3.964
   80SOL    HW2 1140   4.608   1.162   3.962
   81SOL     OW 1141   1.972   0.234   2.235
   81SOL    HW1 1142   1.925   0.226   2.323
   81SOL    HW2 1143   2.051   0.173   2.233
   82SOL     OW 1144   5.553   5.017   0.892
   82SOL    HW1 1145   5.622   4.952   0.861
   82SOL    HW2 1146   5.473   4.967   0.926
   83SOL     OW 1147   0.203   0.496   6.893
   83SOL    HW1 1148   0.164   0.458   6.976
   83SOL    HW2 1149   0.225   0.593   6.907
   84SOL     OW 1150   6.312   3.522   2.695
   84SOL    HW1 1151   6.298   3.601   2.754
   84SOL    HW2 1152   6.409   3.498   2.693
   85SOL     OW 1153   1.737   1.573   2.687
   85SOL    HW1 1154   1.648   1.556   2.728
   85SOL    HW2 1155   1.796   1.621   2.752
   86SOL     OW 1156   0.013   1.360   6.567
   86SOL    HW1 1157   6.991   1.449   6.585
   86SOL    HW2 1158   0.053   1.324   6.651
   87SOL     OW 1159   4.907   4.263   1.077
   87SOL    HW1 1160   4.885   4.200   1.003
   87SOL    HW2 1161   5.006   4.263   1.093
   88SOL     OW 1162   2.951   2.003   6.065
   88SOL    HW1 1163   2.884   2.059   6.115
   88SOL    HW2 1164   3.043   2.027   6.095
   89SOL     OW 1165   2.562   3.016   0.249
   89SOL    HW1 1166   2.589   2.923   0.222
   89SOL    HW2 1167   2.473   3.013   0.294
   90SOL     OW 1168   4.228   5.436   2.305
   90SOL    HW1 1169   4.262   5.452   2.397
   90SOL    HW2 1170   4.195   5.522   2.266
   91SOL     OW 1171   6.771   4.112   6.078
   91SOL    HW1 1172   6.709   4.034   6.089
   91SOL    HW2 1173   6.719   4.197   6.085
   92SOL     OW 1174   4.797   4.134   1.293
   92SOL    HW1 1175   4.828   4.209   1.351
   92SOL    HW2 1176   4.840   4.142   1.202
   93SOL     OW 1177   3.573   3.565   0.064
   93SOL    HW1 1178   3.634   3.616   0.002
   93SOL    HW2 1179   3.598   3.585   0.158
   94SOL     OW 1180   3.078   5.792   6.847
   94SOL    HW1 1181   3.032   5.878   6.824
   94SOL    HW2 1182   3.100   5.791   6.944
   95SOL     OW 1183   1.891   1.315   2.708
   95SOL    HW1 1184   1.856   1.408   2.713
   95SOL    HW2 1185   1.973   1.313   2.650
   96SOL     OW 1186   4.045   6.140   5.415
   96SOL    HW1 1187   4.028   6.221   5.470
   96SOL    HW2 1188   3.966   6.079   5.420
   97SOL     OW 1189   2.546   3.488   5.959
   97SOL    HW1 1190   2.539   3.471   5.861
   97SOL    HW2 1191   2.455   3.495   5.998
   98SOL     OW 1192   1.246   2.403   0.134
   98SOL    HW1 1193   1.345   2.395   0.136
   98SOL    HW2 1194   1.205   2.314   0.157
   99SOL     OW 1195   4.485   3.437   1.322
   99SOL    HW1 1196   4.462   3.464   1.228
   99SOL    HW2 1197   4.402   3.423   1.375
  100SOL     OW 1198   0.685   6.685   3.919
  100SOL    HW1 1199   0.690   6.607   3.981
  100SOL    HW2 1200   0.600   6.735   3.935
  101SOL     OW 1201   0.967   4.321   2.370
  101SOL    HW1 1202   0.986   4.349   2.464
  101SOL    HW2 1203   0.989   4.396   2.308
  102SOL     OW 1204   3.845   5.422   2.098
  102SOL    HW1 1205   3.785   5.489   2.143
  102SOL    HW2 1206   3.803   5.332   2.102
  103SOL     OW 1207   2.348   2.311   2.142
  103SOL    HW1 1208   2.365   2.410   2.141
  103SOL    HW2 1209   2.289   2.287   2.065
  104SOL     OW 1210   1.080   6.077   2.708
  104SOL    HW1 1211   1.054   6.109   2.799
  104SOL    HW2 1212   1.085   5.977   2.707
  105SOL     OW 1213   5.681   0.855   6.276
  105SOL    HW1 1214   5.701   0.949   6.247
  105SOL    HW2 1215   5.662   0.854   6.374
  106SOL     OW 1216   3.488   6.151   3.592
  106SOL    HW1 1217   3.558   6.120   3.528
  106SOL    HW2 1218   3.525   6.149   3.685
  107SOL     OW 1219   0.538   1.011   6.718
  107SOL    HW1 1220   0.627   1.042   6.750
  107SOL    HW2 1221   0.517   0.922   6.758
  108SOL     OW 1222   3.934   6.694   6.456
  108SOL    HW1 1223   4.003   6.765   6.437
  108SOL    HW2 1224   3.979   6.615   6.497
  109SOL     OW 1225   3.005   1.886   2.875
  109SOL    HW1 1226   3.083   1.824   2.865
  109SOL    HW2 1227   2.958   1.895   2.788
  110SOL     OW 1228   3.150   4.956   4.180
  110SOL    HW1 1229   3.090   4.887   4.221
  110SOL    HW2 1230   3.094   5.027   4.137
  111SOL     OW 1231   2.317   1.808   4.245
  111SOL    HW1 1232   2.235   1.783   4.193
  111SOL    HW2 1233   2.376   1.727   4.254
  112SOL     OW 1234   3.661   6.099   0.315
  112SOL    HW1 1235   3.697   6.015   0.356
  112SOL    HW2 1236   3.728   6.172   0.326
  113SOL     OW 1237   1.104   6.542   2.790
  113SOL    HW1 1238   1.165   6.578   2.861
  113SOL    HW2 1239   1.017   6.516   2.830
  114SOL     OW 1240   0.836   6.192   1.379
  114SOL    HW1 1241   0.791   6.202   1.290
  114SOL    HW2 1242   0.875   6.100   1.386
  115SOL     OW 1243   5.101   0.543   2.801
  115SOL    HW1 1244   5.097   0.549   2.701
  115SOL    HW2 1245   5.186   0.497   2.828
  116SOL     OW 1246   6.807   6.564   1.614
  116SOL    HW1 1247   6.713   6.590   1.592
  116SOL    HW2 1248   6.810   6.466   1.634
  117SOL     OW 1249   0.267   1.346   0.472
  117SOL    HW1 1250   0.315   1.274   0.421
  117SOL    HW2 1251   0.204   1.394   0.410
  118SOL     OW 1252   1.338   1.546   2.290
  118SOL    HW1 1253   1.368   1.571   2.382
  118SOL    HW2 1254   1.395   1.593   2.222
  119SOL     OW 1255   0.590   0.248   0.150
  119SOL    HW1 1256   0.577   0.307   0.070
  119SOL    HW2 1257   0.629   0.302   0.224
  120SOL     OW 1258   4.862   1.199   5.318
  120SOL    HW1 1259   4.832   1.244   5.234
  120SOL    HW2 1260   4.897   1.267   5.382
  121SOL     OW 1261   1.176   3.344   0.310
  121SOL    HW1 1262   1.223   3.314   0.394
  121SOL    HW2 1263   1.239   3.339   0.233
  122SOL     OW 1264   1.659   3.765   0.283
  122SOL    HW1 1265   1.599   3.693   0.320
  122SOL    HW2 1266   1.622   3.855   0.308
  123SOL     OW 1267   1.151   1.916   2.575
  123SOL    HW1 1268   1.079   1.854   2.544
  123SOL    HW2 1269   1.123   2.011   2.558
  124SOL     OW 1270   3.377   2.917   0.935
  124SOL    HW1 1271   3.314   2.896   0.861
  124SOL    HW2 1272   3.457   2.857   0.929
  125SOL     OW 1273   4.229   2.326   0.639
  125SOL    HW1 1274   4.277   2.405   0.599
  125SOL    HW2 1275   4.269   2.305   0.728
  126SOL     OW 1276   3.603   3.444   1.992
  126SOL    HW1 1277   3.537   3.377   1.958
  126SOL    HW2 1278   3.696   3.408   1.980
  127SOL     OW 1279   0.484   4.941   6.469
  127SOL    HW1 1280   0.468   4.868   6.404
  127SOL    HW2 1281   0.496   5.028   6.421
  128SOL     OW 1282   4.816   3.190   1.240
  128SOL    HW1 1283   4.799   3.289   1.236
  128SOL    HW2 1284   4.728   3.142   1.240
  129SOL     OW 1285   2.690   3.387   6.939
  129SOL    HW1 1286   2.608   3.367   6.886
  129SOL    HW2 1287   2.669   3.455   7.010
  130SOL     OW 1288   0.432   0.607   4.524
  130SOL    HW1 1289   0.432   0.508   4.536
  130SOL    HW2 1290   0.398   0.651   4.608
  131SOL     OW 1291   5.058   0.693   3.792
  131SOL    HW1 1292   5.103   0.604   3.778
  131SOL    HW2 1293   5.011   0.693   3.880
  132SOL     OW 1294   3.221   2.438   1.608
  132SOL    HW1 1295   3.219   2.347   1.566
  132SOL    HW2 1296   3.162   2.439   1.689
  133SOL     OW 1297   5.410   0.386   4.132
  133SOL    HW1 1298   5.381   0.409   4.225
  133SOL    HW2 1299   5.403   0.288   4.118
  134SOL     OW 1300   0.707   0.404   2.692
  134SOL    HW1 1301   0.611   0.415   2.667
  134SOL    HW2 1302   0.715   0.393   2.791
  135SOL     OW 1303   5.511   3.625   4.474
  135SOL    HW1 1304   5.602   3.619   4.514
  135SOL    HW2 1305   5.494   3.718   4.442
  136SOL     OW 1306   1.565   4.812   5.239
  136SOL    HW1 1307   1.542   4.867   5.319
  136SOL    HW2 1308   1.491   4.819   5.172
  137SOL     OW 1309   4.557   1.734   3.689
  137SOL    HW1 1310   4.460   1.743   3.712
  137SOL    HW2 1311   4.569   1.743   3.590
  138SOL     OW 1312   1.274   3.767   2.862
  138SOL    HW1 1313   1.338   3.730   2.796
  138SOL    HW2 1314   1.185   3.780   2.819
  139SOL     OW 1315   1.989   6.249   5.389
  139SOL    HW1 1316   2.017   6.219   5.481
  139SOL    HW2 1317   2.000   6.174   5.325
  140SOL     OW 1318   1.768   6.325   3.398
  140SOL    HW1 1319   1.835   6.274   3.452
  140SOL    HW2 1320   1.813   6.364   3.317
  141SOL     OW 1321   0.192   2.906   4.762
  141SOL    HW1 1322   0.163   2.892   4.667
  141SOL    HW2 1323   0.141   2.844   4.822
  142SOL     OW 1324   2.095   3.443   2.230
  142SOL    HW1 1325   2.094   3.509   2.155
  142SOL    HW2 1326   2.150   3.364   2.205
  143SOL     OW 1327   5.290   4.947   0.614
  143SOL    HW1 1328   5.337   4.862   0.591
  143SOL    HW2 1329   5.357   5.020   0.626
  144SOL     OW 1330   1.744   4.710   5.818
  144SOL    HW1 1331   1.743   4.729   5.916
  144SOL    HW2 1332   1.804   4.633   5.799
  145SOL     OW 1333   2.498   5.339   1.415
  145SOL    HW1 1334   2.514   5.321   1.318
  145SOL    HW2 1335   2.402   5.324   1.436
  146SOL     OW 1336   5.226   0.390   6.424
  146SOL    HW1 1337   5.325   0.383   6.410
  146SOL    HW2 1338   5.179   0.324   6.366
  147SOL     OW 1339   5.313   1.383   6.066
  147SOL    HW1 1340   5.284   1.304   6.012
  147SOL    HW2 1341   5.236   1.446   6.077
  148SOL     OW 1342   6.841   5.455   1.418
  148SOL    HW1 1343   6.865   5.408   1.502
  148SOL    HW2 1344   6.824   5.388   1.346
  149SOL     OW 1345   3.700   2.141   5.161
  149SOL    HW1 1346   3.738   2.166   5.250
  149SOL    HW2 1347   3.774   2.109   5.101
  150SOL     OW 1348   5.602   6.995   6.607
  150SOL    HW1 1349   5.696   6.986   6.641
  150SOL    HW2 1350   5.587   0.069   6.577
  151SOL     OW 1351   3.329   0.799   1.401
  151SOL    HW1 1352   3.315   0.728   1.470
  151SOL    HW2 1353   3.287   0.771   1.315
  152SOL     OW 1354   0.146   1.810   0.432
  152SOL    HW1 1355   0.234   1.777   0.397
  152SOL    HW2 1356   0.157   1.837   0.528
  153SOL     OW 1357   2.709   6.898   3.150
  153SOL    HW1 1358   2.678   6.806   3.171
  153SOL    HW2 1359   2.641   6.943   3.091
  154SOL     OW 1360   0.624   3.112   0.475
  154SOL    HW1 1361   0.676   3.058   0.541
  154SOL    HW2 1362   0.645   3.209   0.488
  155SOL     OW 1363   1.049   1.390   3.832
  155SOL    HW1 1364   1.134   1.377   3.780
  155SOL    HW2 1365   1.065   1.456   3.905
  156SOL     OW 1366   6.730   0.562   0.040
  156SOL    HW1 1367   6.804   0.595   0.099
  156SOL    HW2 1368   6.727   0.617   6.977
  157SOL     OW 1369   5.483   3.812   0.436
  157SOL    HW1 1370   5.543   3.758   0.377
  157SOL    HW2 1371   5.532   3.894   0.466
  158SOL     OW 1372   1.837   3.015   1.491
  158SOL    HW1 1373   1.796   3.060   1.411
  158SOL    HW2 1374   1.810   2.919   1.492
  159SOL     OW 1375   4.190   5.005   1.590
  159SOL    HW1 1376   4.200   4.959   1.502
  159SOL    HW2 1377   4.225   5.098   1.584
  160SOL     OW 1378   6.066   0.390   0.655
  160SOL    HW1 1379   6.128   0.315   0.633
  160SOL    HW2 1380   6.062   0.454   0.579
  161SOL     OW 1381   1.765   0.620   3.172
  161SOL    HW1 1382   1.761   0.567   3.088
  161SOL    HW2 1383   1.676   0.617   3.218
  162SOL     OW 1384   3.704   6.252   6.965
  162SOL    HW1 1385   3.631   6.196   7.003
  162SOL    HW2 1386   3.675   6.348   6.962
  163SOL     OW 1387   0.052   6.115   2.216
  163SOL    HW1 1388   6.989   6.059   2.210
  163SOL    HW2 1389   0.028   6.211   2.208
  164SOL     OW 1390   0.781   3.681   3.285
  164SOL    HW1 1391   0.756   3.593   3.245
  164SOL    HW2 1392   0.760   3.755   3.220
  165SOL     OW 1393   4.879   4.585   6.748
  165SOL    HW1 1394   4.784   4.593   6.718
  165SOL    HW2 1395   4.939   4.630   6.682
  166SOL     OW 1396   0.580   3.306   1.978
  166SOL    HW1 1397   0.528   3.220   1.981
  166SOL    HW2 1398   0.653   3.304   2.046
  167SOL     OW 1399   5.991   1.725   0.040
  167SOL    HW1 1400   6.045   1.664   0.098
  167SOL    HW2 1401   6.050   1.767   6.992
  168SOL     OW 1402   3.959   1.674   0.877
  168SOL    HW1 1403   4.019   1.596   0.891
  168SOL    HW2 1404   4.013   1.758   0.875
  169SOL     OW 1405   5.890   2.608   0.510
  169SOL    HW1 1406   5.838   2.538   0.559
  169SOL    HW2 1407   5.919   2.679   0.574
  170SOL     OW 1408   6.355   6.340   2.238
  170SOL    HW1 1409   6.435   6.301   2.284
  170SOL    HW2 1410   6.368   6.438   2.227
  171SOL     OW 1411   2.346   4.849   6.883
  171SOL    HW1 1412   2.379   4.796   6.806
  171SOL    HW2 1413   2.419   4.857   6.951
  172SOL     OW 1414   6.304   1.960   3.359
  172SOL    HW1 1415   6.397   1.971   3.393
  172SOL    HW2 1416   6.246   1.923   3.431
  173SOL     OW 1417   5.432   1.044   4.178
  173SOL    HW1 1418   5.496   1.006   4.111
  173SOL    HW2 1419   5.480   1.105   4.241
  174SOL     OW 1420   4.726   5.210   4.071
  174SOL    HW1 1421   4.628   5.206   4.052
  174SOL    HW2 1422   4.776   5.176   3.991
  175SOL     OW 1423   3.817   0.635   0.964
  175SOL    HW1 1424   3.732   0.675   0.999
  175SOL    HW2 1425   3.858   0.576   1.033
  176SOL     OW 1426   6.039   4.867   1.884
  176SOL    HW1 1427   6.008   4.934   1.952
  176SOL    HW2 1428   6.132   4.837   1.906
  177SOL     OW 1429   5.404   2.973   4.561
  177SOL    HW1 1430   5.318   3.024   4.553
  177SOL    HW2 1431   5.385   2.880   4.593
  178SOL     OW 1432   3.049   4.568   5.674
  178SOL    HW1 1433   3.000   4.599   5.593
  178SOL    HW2 1434   3.141   4.608   5.676
  179SOL     OW 1435   3.621   1.065   6.777
  179SOL    HW1 1436   3.546   1.060   6.843
  179SOL    HW2 1437   3.651   0.973   6.753
  180SOL     OW 1438   2.212   0.814   1.121
  180SOL    HW1 1439   2.189   0.878   1.195
  180SOL    HW2 1440   2.253   0.732   1.160
  181SOL     OW 1441   2.915   3.290   5.868
  181SOL    HW1 1442   2.867   3.353   5.929
  181SOL    HW2 1443   2.996   3.253   5.914
  182SOL     OW 1444   4.028   1.639   6.386
  182SOL    HW1 1445   4.015   1.724   6.438
  182SOL    HW2 1446   3.950   1.578   6.402
  183SOL     OW 1447   3.294   1.932   3.794
  183SOL    HW1 1448   3.310   2.001   3.864
  183SOL    HW2 1449   3.323   1.967   3.705
  184SOL     OW 1450   0.065   6.643   3.460
  184SOL    HW1 1451   0.151   6.598   3.487
  184SOL    HW2 1452   7.009   6.580   3.475
  185SOL     OW 1453   1.224   1.914   4.785
  185SOL    HW1 1454   1.286   1.839   4.810
  185SOL    HW2 1455   1.207   1.971   4.866
  186SOL     OW 1456   6.503   1.551   4.143
  186SOL    HW1 1457   6.495   1.614   4.067
  186SOL    HW2 1458   6.426   1.488   4.143
  187SOL     OW 1459   5.132   6.944   2.298
  187SOL    HW1 1460   5.228   6.968   2.313
  187SOL    HW2 1461   5.087   6.928   2.387
  188SOL     OW 1462   1.150   3.475   3.643
  188SOL    HW1 1463   1.228   3.481   3.580
  188SOL    HW2 1464   1.071   3.439   3.595
  189SOL     OW 1465   1.360   5.677   0.440
  189SOL    HW1 1466   1.373   5.734   0.359
  189SOL    HW2 1467   1.443   5.624   0.457
  190SOL     OW 1468   6.391   4.171   6.094
  190SOL    HW1 1469   6.404   4.079   6.056
  190SOL    HW2 1470   6.442   4.180   6.179
  191SOL     OW 1471   6.403   1.253   6.846
  191SOL    HW1 1472   6.319   1.306   6.833
  191SOL    HW2 1473   6.414   1.230   6.942
  192SOL     OW 1474   0.276   5.037   1.674
  192SOL    HW1 1475   0.234   5.117   1.632
  192SOL    HW2 1476   0.237   5.022   1.765
  193SOL     OW 1477   5.024   3.683   5.175
  193SOL    HW1 1478   5.083   3.626   5.232
  193SOL    HW2 1479   4.959   3.625   5.126
  194SOL     OW 1480   3.917   6.674   3.572
  194SOL    HW1 1481   3.952   6.735   3.642
  194SOL    HW2 1482   3.848   6.722   3.518
  195SOL     OW 1483   1.505   1.049   4.245
  195SOL    HW1 1484   1.414   1.072   4.211
  195SOL    HW2 1485   1.518   0.950   4.240
  196SOL     OW 1486   2.604   0.072   6.662
  196SOL    HW1 1487   2.589   0.019   6.746
  196SOL    HW2 1488   2.614   0.169   6.685
  197SOL     OW 1489   2.445   0.384   1.337
  197SOL    HW1 1490   2.398   0.398   1.424
  197SOL    HW2 1491   2.521   0.449   1.330
  198SOL     OW 1492   4.409   6.579   1.979
  198SOL    HW1 1493   4.390   6.669   2.019
  198SOL    HW2 1494   4.419   6.512   2.053
  199SOL     OW 1495   6.893   1.191   3.672
  199SOL    HW1 1496   6.868   1.270   3.617
  199SOL    HW2 1497   6.938   1.221   3.756
  200SOL     OW 1498   0.970   4.086   1.777
  200SOL    HW1 1499   0.999   4.152   1.846
  200SOL    HW2 1500   0.912   4.131   1.710
  201SOL     OW 1501   5.504   6.993   6.121
  201SOL    HW1 1502   5.490   6.910   6.067
  201SOL    HW2 1503   5.548   6.969   6.208
  202SOL     OW 1504   5.098   6.999   5.545
  202SOL    HW1 1505   5.039   6.946   5.483
  202SOL    HW2 1506   5.051   0.063   5.572
  203SOL     OW 1507   5.007   2.194   4.760
  203SOL    HW1 1508   5.024   2.112   4.816
  203SOL    HW2 1509   4.924   2.180   4.706
  204SOL     OW 1510   6.146   0.648   6.191
  204SOL    HW1 1511   6.133   0.560   6.236
  204SOL    HW2 1512   6.078   0.713   6.225
  205SOL     OW 1513   0.819   0.891   2.807
  205SOL    HW1 1514   0.754   0.928   2.872
  205SOL    HW2 1515   0.909   0.885   2.850
  206SOL     OW 1516   0.435   4.964   2.037
  206SOL    HW1 1517   0.414   5.055   2.073
  206SOL    HW2 1518   0.365   4.900   2.066
  207SOL     OW 1519   4.857   0.409   3.731
  207SOL    HW1 1520   4.824   0.454   3.647
  207SOL    HW2 1521   4.892   0.478   3.794
  208SOL     OW 1522   5.212   4.129   5.362
  208SOL    HW1 1523   5.216   4.148   5.460
  208SOL    HW2 1524   5.138   4.066   5.342
  209SOL     OW 1525   0.960   5.217   4.504
  209SOL    HW1 1526   1.024   5.188   4.574
  209SOL    HW2 1527   0.892   5.145   4.488
  210SOL     OW 1528   4.276   2.156   1.593
  210SOL    HW1 1529   4.309   2.175   1.685
  210SOL    HW2 1530   4.176   2.158   1.592
  211SOL     OW 1531   1.585   6.425   3.576
  211SOL    HW1 1532   1.659   6.367   3.541
  211SOL    HW2 1533   1.562   6.494   3.508
  212SOL     OW 1534   1.649   4.862   1.681
  212SOL    HW1 1535   1.704   4.846   1.598
  212SOL    HW2 1536   1.685   4.941   1.729
  213SOL     OW 1537   3.245   0.701   5.891
  213SOL    HW1 1538   3.154   0.661   5.887
  213SOL    HW2 1539   3.298   0.671   5.811
  214SOL     OW 1540   4.096   5.461   1.978
  214SOL    HW1 1541   4.003   5.439   2.008
  214SOL    HW2 1542   4.130   5.540   2.030
  215SOL     OW 1543   3.010   3.782   1.763
  215SOL    HW1 1544   2.921   3.757   1.725
  215SOL    HW2 1545   3.027   3.879   1.746
  216SOL     OW 1546   1.501   5.899   4.910
  216SOL    HW1 1547   1.454   5.862   4.830
  216SOL    HW2 1548   1.463   5.858   4.993
  217SOL     OW 1549   2.327   2.815   3.452
  217SOL    HW1 1550   2.236   2.851   3.433
  217SOL    HW2 1551   2.369   2.784   3.367
  218SOL     OW 1552   0.867   2.929   4.519
  218SOL    HW1 1553   0.772   2.916   4.546
  218SOL    HW2 1554   0.906   3.005   4.571
  219SOL     OW 1555   3.734   6.338   5.996
  219SOL    HW1 1556   3.642   6.328   6.034
  219SOL    HW2 1557   3.734   6.309   5.901
  220SOL     OW 1558   3.335   6.302   0.060
  220SOL    HW1 1559   3.262   6.367   0.085
  220SOL    HW2 1560   3.419   6.352   0.043
  221SOL     OW 1561   6.716   4.220   2.778
  221SOL    HW1 1562   6.719   4.210   2.878
  221SOL    HW2 1563   6.803   4.193   2.739
  222SOL     OW 1564   2.601   4.980   5.461
  222SOL    HW1 1565   2.626   4.883   5.463
  222SOL    HW2 1566   2.563   5.003   5.372
  223SOL     OW 1567   5.524   3.419   0.965
  223SOL    HW1 1568   5.593   3.355   0.998
  223SOL    HW2 1569   5.433   3.379   0.976
  224SOL     OW 1570   2.774   1.891   4.231
  224SOL    HW1 1571   2.748   1.948   4.154
  224SOL    HW2 1572   2.784   1.948   4.313
  225SOL     OW 1573   5.492   1.849   5.638
  225SOL    HW1 1574   5.579   1.837   5.685
  225SOL    HW2 1575   5.501   1.923   5.571
  226SOL     OW 1576   1.533   0.469   6.075
  226SOL    HW1 1577   1.567   0.465   5.982
  226SOL    HW2 1578   1.609   0.457   6.139
  227SOL     OW 1579   1.561   4.156   2.282
  227SOL    HW1 1580   1.656   4.169   2.313
  227SOL    HW2 1581   1.554   4.067   2.236
  228SOL     OW 1582   3.231   6.349   4.043
  228SOL    HW1 1583   3.147   6.295   4.048
  228SOL    HW2 1584   3.296   6.316   4.111
  229SOL     OW 1585   5.512   6.310   0.120
  229SOL    HW1 1586   5.439   6.318   0.187
  229SOL    HW2 1587   5.477   6.265   0.038
  230SOL     OW 1588   2.756   4.736   2.833
  230SOL    HW1 1589   2.819   4.661   2.814
  230SOL    HW2 1590   2.689   4.706   2.901
  231SOL     OW 1591   6.574   1.875   6.779
  231SOL    HW1 1592   6.648   1.902   6.840
  231SOL    HW2 1593   6.550   1.780   6.795
  232SOL     OW 1594   1.185   3.994   6.009
  232SOL    HW1 1595   1.091   4.022   5.987
  232SOL    HW2 1596   1.240   4.074   6.030
  233SOL     OW 1597   2.305   1.218   4.438
  233SOL    HW1 1598   2.394   1.256   4.460
  233SOL    HW2 1599   2.284   1.234   4.342
  234SOL     OW 1600   3.419   6.048   5.625
  234SOL    HW1 1601   3.481   5.997   5.565
  234SOL    HW2 1602   3.439   6.146   5.616
  235SOL     OW 1603   3.058   3.030   1.948
  235SOL    HW1 1604   3.144   2.979   1.947
  235SOL    HW2 1605   3.005   3.008   1.866
  236SOL     OW 1606   5.877   2.725   6.244
  236SOL    HW1 1607   5.882   2.806   6.303
  236SOL    HW2 1608   5.853   2.645   6.299
  237SOL     OW 1609   6.010   6.228   1.515
  237SOL    HW1 1610   6.106   6.249   1.533
  237SOL    HW2 1611   5.985   6.263   1.424
  238SOL     OW 1612   6.008   2.024   0.334
  238SOL    HW1 1613   5.964   2.113   0.323
  238SOL    HW2 1614   5.964   1.975   0.410
  239SOL     OW 1615   0.442   5.760   6.665
  239SOL    HW1 1616   0.358   5.754   6.611
  239SOL    HW2 1617   0.499   5.834   6.629
  240SOL     OW 1618   0.198   2.570   5.778
  240SOL    HW1 1619   0.184   2.581   5.680
  240SOL    HW2 1620   0.130   2.507   5.815
  241SOL     OW 1621   1.681   6.614   4.727
  241SOL    HW1 1622   1.696   6.711   4.710
  241SOL    HW2 1623   1.685   6.564   4.641
  242SOL     OW 1624   2.927   2.924   6.024
  242SOL    HW1 1625   2.845   2.887   5.981
  242SOL    HW2 1626   2.939   3.019   5.997
  243SOL     OW 1627   4.872   0.572   5.974
  243SOL    HW1 1628   4.883   0.530   6.064
  243SOL    HW2 1629   4.896   0.506   5.903
  244SOL     OW 1630   5.028   2.480   4.810
  244SOL    HW1 1631   5.015   2.552   4.742
  244SOL    HW2 1632   5.014   2.391   4.768
  245SOL     OW 1633   6.948   2.734   5.347
  245SOL    HW1 1634   6.968   2.761   5.441
  245SOL    HW2 1635   6.996   2.794   5.283
  246SOL     OW 1636   4.780   2.681   2.550
  246SOL    HW1 1637   4.753   2.744   2.478
  246SOL    HW2 1638   4.793   2.732   2.635
  247SOL     OW 1639   2.904   1.285   2.199
  247SOL    HW1 1640   2.984   1.290   2.138
  247SOL    HW2 1641   2.868   1.192   2.198
  248SOL     OW 1642   4.186   2.108   4.465
  248SOL    HW1 1643   4.268   2.051   4.459
  248SOL    HW2 1644   4.115   2.070   4.406
  249SOL     OW 1645   5.061   0.073   5.853
  249SOL    HW1 1646   5.070   0.141   5.925
  249SOL    HW2 1647   4.982   0.095   5.796
  250SOL     OW 1648   5.014   1.744   6.856
  250SOL    HW1 1649   4.943   1.706   6.797
  250SOL    HW2 1650   5.034   1.680   6.930
  251SOL     OW 1651   4.061   4.357   6.426
  251SOL    HW1 1652   4.056   4.454   6.448
  251SOL    HW2 1653   3.970   4.323   6.403
  252SOL     OW 1654   6.114   0.436   6.334
  252SOL    HW1 1655   6.101   0.492   6.416
  252SOL    HW2 1656   6.097   0.340   6.355
  253SOL     OW 1657   1.790   4.503   0.032
  253SOL    HW1 1658   1.839   4.544   0.108
  253SOL    HW2 1659   1.731   4.571   7.009
  254SOL     OW 1660   5.570   3.428   3.420
  254SOL    HW1 1661   5.570   3.333   3.390
  254SOL    HW2 1662   5.664   3.458   3.436
  255SOL     OW 1663   1.524   3.242   4.367
  255SOL    HW1 1664   1.495   3.332   4.399
  255SOL    HW2 1665   1.623   3.241   4.354
  256SOL     OW 1666   6.170   4.407   6.478
  256SOL    HW1 1667   6.221   4.468   6.538
  256SOL    HW2 1668   6.103   4.459   6.426
  257SOL     OW 1669   4.328   6.484   4.346
  257SOL    HW1 1670   4.264   6.422   4.391
  257SOL    HW2 1671   4.363   6.550   4.412
  258SOL     OW 1672   5.750   5.002   4.833
  258SOL    HW1 1673   5.771   5.016   4.737
  258SOL    HW2 1674   5.740   4.905   4.852
  259SOL     OW 1675   2.008   2.820   2.329
  259SOL    HW1 1676   2.004   2.784   2.235
  259SOL    HW2 1677   2.103   2.833   2.356
  260SOL     OW 1678   4.408   1.100   1.260
  260SOL    HW1 1679   4.403   1.180   1.200
  260SOL    HW2 1680   4.360   1.023   1.218
  261SOL     OW 1681   6.482   3.783   1.043
  261SOL    HW1 1682   6.402   3.753   0.992
  261SOL    HW2 1683   6.515   3.870   1.005
  262SOL     OW 1684   0.550   3.967   1.440
  262SOL    HW1 1685   0.586   3.968   1.533
  262SOL    HW2 1686   0.621   3.937   1.376
  263SOL     OW 1687   0.448   1.667   3.588
  263SOL    HW1 1688   0.429   1.689   3.492
  263SOL    HW2 1689   0.382   1.599   3.620
  264SOL     OW 1690   5.001   3.978   5.226
  264SOL    HW1 1691   4.997   3.879   5.210
  264SOL    HW2 1692   4.976   4.026   5.142
  265SOL     OW 1693   4.324   4.674   3.352
  265SOL    HW1 1694   4.391   4.600   3.366
  265SOL    HW2 1695   4.296   4.675   3.256
  266SOL     OW 1696   3.711   3.626   5.688
  266SOL    HW1 1697   3.666   3.714   5.669
  266SOL    HW2 1698   3.737   3.582   5.601
  267SOL     OW 1699   6.065   2.464   5.989
  267SOL    HW1 1700   6.142   2.414   5.949
  267SOL    HW2 1701   6.099   2.523   6.062
  268SOL     OW 1702   4.658   6.640   5.202
  268SOL    HW1 1703   4.722   6.710   5.170
  268SOL    HW2 1704   4.663   6.560   5.143
  269SOL     OW 1705   2.091   3.077   0.728
  269SOL    HW1 1706   2.110   3.153   0.666
  269SOL    HW2 1707   2.167   3.065   0.791
  270SOL     OW 1708   6.461   0.204   2.102
  270SOL    HW1 1709   6.509   0.122   2.134
  270SOL    HW2 1710   6.367   0.179   2.075
  271SOL     OW 1711   2.773   2.543   0.647
  271SOL    HW1 1712   2.722   2.467   0.686
  271SOL    HW2 1713   2.797   2.607   0.720
  272SOL     OW 1714   3.286   5.351   3.912
  272SOL    HW1 1715   3.284   5.253   3.932
  272SOL    HW2 1716   3.194   5.390   3.922
  273SOL     OW 1717   1.981   5.132   5.196
  273SOL    HW1 1718   1.923   5.089   5.265
  273SOL    HW2 1719   1.931   5.207   5.152
  274SOL     OW 1720   4.830   2.331   3.595
  274SOL    HW1 1721   4.795   2.250   3.548
  274SOL    HW2 1722   4.810   2.413   3.541
  275SOL     OW 1723   6.366   5.902   6.532
  275SOL    HW1 1724   6.351   5.859   6.621
  275SOL    HW2 1725   6.464   5.919   6.520
  276SOL     OW 1726   0.240   5.579   3.067
  276SOL    HW1 1727   0.331   5.566   3.027
  276SOL    HW2 1728   0.236   5.670   3.108
  277SOL     OW 1729   2.609   2.525   0.354
  277SOL    HW1 1730   2.634   2.453   0.418
  277SOL    HW2 1731   2.691   2.562   0.311
  278SOL     OW 1732   6.971   3.991   1.520
  278SOL    HW1 1733   0.008   4.051   1.577
  278SOL    HW2 1734   6.960   3.903   1.566
  279SOL     OW 1735   6.484   2.926   4.436
  279SOL    HW1 1736   6.452   2.853   4.496
  279SOL    HW2 1737   6.561   2.893   4.381
  280SOL     OW 1738   3.621   6.882   2.753
  280SOL    HW1 1739   3.524   6.879   2.731
  280SOL    HW2 1740   3.659   6.970   2.722
  281SOL     OW 1741   3.158   4.906   2.552
  281SOL    HW1 1742   3.074   4.901   2.498
  281SOL    HW2 1743   3.236   4.926   2.492
  282SOL     OW 1744   4.141   2.125   5.241
  282SOL    HW1 1745   4.227   2.082   5.215
  282SOL    HW2 1746   4.081   2.056   5.281
  283SOL     OW 1747   6.752   1.543   6.038
  283SOL    HW1 1748   6.786   1.457   6.076
  283SOL    HW2 1749   6.780   1.550   5.942
  284SOL     OW 1750   0.470   4.442   5.094
  284SOL    HW1 1751   0.466   4.507   5.170
  284SOL    HW2 1752   0.488   4.491   5.009
  285SOL     OW 1753   5.773   5.237   6.705
  285SOL    HW1 1754   5.726   5.151   6.726
  285SOL    HW2 1755   5.854   5.218   6.650
  286SOL     OW 1756   3.488   5.012   4.876
  286SOL    HW1 1757   3.429   5.090   4.897
  286SOL    HW2 1758   3.432   4.936   4.845
  287SOL     OW 1759   0.513   5.020   6.737
  287SOL    HW1 1760   0.561   5.106   6.721
  287SOL    HW2 1761   0.483   4.982   6.649
  288SOL     OW 1762   4.104   1.504   0.633
  288SOL    HW1 1763   4.137   1.598   0.628
  288SOL    HW2 1764   4.008   1.501   0.604
  289SOL     OW 1765   0.218   5.402   4.687
  289SOL    HW1 1766   0.272   5.348   4.623
  289SOL    HW2 1767   0.127   5.360   4.698
  290SOL     OW 1768   5.148   2.081   3.922
  290SOL    HW1 1769   5.093   2.152   3.878
  290SOL    HW2 1770   5.098   1.994   3.920
  291SOL     OW 1771   3.804   0.594   4.396
  291SOL    HW1 1772   3.815   0.511   4.451
  291SOL    HW2 1773   3.811   0.571   4.299
  292SOL     OW 1774   4.248   1.930   3.051
  292SOL    HW1 1775   4.231   2.020   3.010
  292SOL    HW2 1776   4.211   1.930   3.144
  293SOL     OW 1777   4.430   5.454   2.063
  293SOL    HW1 1778   4.433   5.513   1.982
  293SOL    HW2 1779   4.347   5.473   2.116
  294SOL     OW 1780   6.643   5.321   6.906
  294SOL    HW1 1781   6.614   5.368   6.989
  294SOL    HW2 1782   6.588   5.352   6.828
  295SOL     OW 1783   3.059   1.434   4.784
  295SOL    HW1 1784   2.987   1.502   4.799
  295SOL    HW2 1785   3.128   1.471   4.722
  296SOL     OW 1786   6.593   2.050   2.136
  296SOL    HW1 1787   6.554   2.136   2.168
  296SOL    HW2 1788   6.566   2.035   2.041
  297SOL     OW 1789   2.934   4.968   2.731
  297SOL    HW1 1790   2.920   5.066   2.721
  297SOL    HW2 1791   2.934   4.924   2.641
  298SOL     OW 1792   4.123   6.813   0.269
  298SOL    HW1 1793   4.109   6.881   0.341
  298SOL    HW2 1794   4.047   6.748   0.270
  299SOL     OW 1795   4.955   2.198   6.939
  299SOL    HW1 1796   5.030   2.259   6.915
  299SOL    HW2 1797   4.888   2.248   6.995
  300SOL     OW 1798   4.810   0.960   1.724
  300SOL    HW1 1799   4.823   0.867   1.688
  300SOL    HW2 1800   4.721   0.994   1.695
  301SOL     OW 1801   5.192   2.360   0.583
  301SOL    HW1 1802   5.213   2.333   0.489
  301SOL    HW2 1803   5.241   2.444   0.605
  302SOL     OW 1804   6.770   0.631   3.372
  302SOL    HW1 1805   6.777   0.656   3.469
  302SOL    HW2 1806   6.769   0.713   3.316
  303SOL     OW 1807   5.845   6.651   2.421
  303SOL    HW1 1808   5.827   6.581   2.353
  303SOL    HW2 1809   5.761   6.702   2.441
  304SOL     OW 1810   1.816   6.251   5.830
  304SOL    HW1 1811   1.914   6.247   5.846
  304SOL    HW2 1812   1.773   6.166   5.860
  305SOL     OW 1813   1.521   2.478   0.165
  305SOL    HW1 1814   1.517   2.549   0.235
  305SOL    HW2 1815   1.582   2.506   0.091
  306SOL     OW 1816   1.379   1.124   3.279
  306SOL    HW1 1817   1.468   1.091   3.247
  306SOL    HW2 1818   1.365   1.218   3.245
  307SOL     OW 1819   4.858   4.933   0.500
  307SOL    HW1 1820   4.929   4.971   0.441
  307SOL    HW2 1821   4.892   4.849   0.543
  308SOL     OW 1822   5.883   3.656   4.960
  308SOL    HW1 1823   5.959   3.591   4.963
  308SOL    HW2 1824   5.832   3.643   4.875
  309SOL     OW 1825   2.076   6.241   0.341
  309SOL    HW1 1826   2.100   6.224   0.437
  309SOL    HW2 1827   2.127   6.178   0.283
  310SOL     OW 1828   5.015   5.973   5.704
  310SOL    HW1 1829   4.939   5.946   5.763
  310SOL    HW2 1830   4.995   6.062   5.663
  311SOL     OW 1831   3.468   5.178   2.909
  311SOL    HW1 1832   3.398   5.111   2.936
  311SOL    HW2 1833   3.511   5.216   2.991
  312SOL     OW 1834   4.446   1.362   3.991
  312SOL    HW1 1835   4.366   1.326   3.944
  312SOL    HW2 1836   4.478   1.295   4.059
  313SOL     OW 1837   3.479   3.096   2.259
  313SOL    HW1 1838   3.465   3.076   2.356
  313SOL    HW2 1839   3.391   3.100   2.213
  314SOL     OW 1840   2.829   4.814   0.187
  314SOL    HW1 1841   2.902   4.835   0.253
  314SOL    HW2 1842   2.824   4.886   0.119
  315SOL     OW 1843   1.355   3.300   3.715
  315SOL    HW1 1844   1.267   3.338   3.745
  315SOL    HW2 1845   1.407   3.271   3.795
  316SOL     OW 1846   2.947   0.821   4.817
  316SOL    HW1 1847   2.890   0.743   4.840
  316SOL    HW2 1848   2.900   0.878   4.748
  317SOL     OW 1849   0.535   2.021   1.319
  317SOL    HW1 1850   0.592   1.948   1.283
  317SOL    HW2 1851   0.438   1.995   1.312
  318SOL     OW 1852   0.394   5.889   0.295
  318SOL    HW1 1853   0.323   5.924   0.234
  318SOL    HW2 1854   0.354   5.818   0.354
  319SOL     OW 1855   6.444   1.313   3.594
  319SOL    HW1 1856   6.520   1.367   3.631
  319SOL    HW2 1857   6.368   1.314   3.659
  320SOL     OW 1858   5.627   2.518   6.954
  320SOL    HW1 1859   5.678   2.533   6.870
  320SOL    HW2 1860   5.613   2.605   7.001
  321SOL     OW 1861   3.353   1.238   6.252
  321SOL    HW1 1862   3.280   1.279   6.306
  321SOL    HW2 1863   3.435   1.295   6.259
  322SOL     OW 1864   3.248   3.417   3.495
  322SOL    HW1 1865   3.347   3.408   3.484
  322SOL    HW2 1866   3.211   3.331   3.532
  323SOL     OW 1867   1.701   3.087   6.116
  323SOL    HW1 1868   1.605   3.084   6.087
  323SOL    HW2 1869   1.760   3.081   6.036
  324SOL     OW 1870   3.011   0.792   3.345
  324SOL    HW1 1871   3.097   0.783   3.394
  324SOL    HW2 1872   2.999   0.713   3.285
  325SOL     OW 1873   0.321   2.665   2.302
  325SOL    HW1 1874   0.222   2.661   2.288
  325SOL    HW2 1875   0.344   2.751   2.348
  326SOL     OW 1876   1.203   5.041   6.777
  326SOL    HW1 1877   1.297   5.072   6.765
  326SOL    HW2 1878   1.159   5.032   6.688
  327SOL     OW 1879   1.649   4.490   2.021
  327SOL    HW1 1880   1.708   4.425   1.973
  327SOL    HW2 1881   1.582   4.441   2.076
  328SOL     OW 1882   1.326   5.848   1.838
  328SOL    HW1 1883   1.324   5.935   1.889
  328SOL    HW2 1884   1.260   5.853   1.763
  329SOL     OW 1885   3.039   3.110   4.328
  329SOL    HW1 1886   3.029   3.090   4.231
  329SOL    HW2 1887   3.136   3.122   4.350
  330SOL     OW 1888   3.511   6.100   1.408
  330SOL    HW1 1889   3.429   6.100   1.465
  330SOL    HW2 1890   3.485   6.107   1.312
  331SOL     OW 1891   3.937   5.918   0.779
  331SOL    HW1 1892   3.952   5.967   0.693
  331SOL    HW2 1893   3.928   5.820   0.759
  332SOL     OW 1894   4.866   2.073   5.806
  332SOL    HW1 1895   4.945   2.027   5.765
  332SOL    HW2 1896   4.857   2.045   5.901
  333SOL     OW 1897   4.148   0.537   6.087
  333SOL    HW1 1898   4.242   0.534   6.120
  333SOL    HW2 1899   4.138   0.610   6.020
  334SOL     OW 1900   3.205   1.362   0.691
  334SOL    HW1 1901   3.173   1.455   0.713
  334SOL    HW2 1902   3.289   1.368   0.638
  335SOL     OW 1903   4.256   6.381   5.887
  335SOL    HW1 1904   4.311   6.395   5.970
  335SOL    HW2 1905   4.307   6.322   5.824
  336SOL     OW 1906   2.811   1.062   3.564
  336SOL    HW1 1907   2.774   1.019   3.482
  336SOL    HW2 1908   2.884   1.126   3.539
  337SOL     OW 1909   0.401   2.859   6.345
  337SOL    HW1 1910   0.414   2.825   6.251
  337SOL    HW2 1911   0.394   2.959   6.343
  338SOL     OW 1912   2.960   2.488   1.503
  338SOL    HW1 1913   2.904   2.482   1.586
  338SOL    HW2 1914   3.056   2.496   1.528
  339SOL     OW 1915   4.558   5.760   4.795
  339SOL    HW1 1916   4.563   5.824   4.719
  339SOL    HW2 1917   4.466   5.763   4.835
  340SOL     OW 1918   4.842   4.077   4.956
  340SOL    HW1 1919   4.915   4.026   4.911
  340SOL    HW2 1920   4.773   4.103   4.889
  341SOL     OW 1921   6.355   6.761   4.418
  341SOL    HW1 1922   6.371   6.718   4.507
  341SOL    HW2 1923   6.318   6.853   4.432
  342SOL     OW 1924   5.402   3.678   0.652
  342SOL    HW1 1925   5.427   3.715   0.563
  342SOL    HW2 1926   5.479   3.685   0.715
  343SOL     OW 1927   1.544   6.074   1.503
  343SOL    HW1 1928   1.478   6.087   1.429
  343SOL    HW2 1929   1.600   6.157   1.513
  344SOL     OW 1930   1.395   3.197   2.037
  344SOL    HW1 1931   1.414   3.294   2.025
  344SOL    HW2 1932   1.405   3.172   2.133
  345SOL     OW 1933   4.708   1.949   3.787
  345SOL    HW1 1934   4.633   1.890   3.757
  345SOL    HW2 1935   4.684   1.993   3.873
  346SOL     OW 1936   1.879   1.199   3.280
  346SOL    HW1 1937   1.973   1.177   3.307
  346SOL    HW2 1938   1.875   1.209   3.180
  347SOL     OW 1939   2.586   5.505   6.760
  347SOL    HW1 1940   2.522   5.435   6.793
  347SOL    HW2 1941   2.679   5.470   6.764
  348SOL     OW 1942   4.792   4.151   2.292
  348SOL    HW1 1943   4.713   4.174   2.349
  348SOL    HW2 1944   4.765   4.149   2.196
  349SOL     OW 1945   6.727   5.300   1.225
  349SOL    HW1 1946   6.710   5.207   1.258
  349SOL    HW2 1947   6.674   5.316   1.142
  350SOL     OW 1948   3.126   3.098   1.123
  350SOL    HW1 1949   3.057   3.048   1.071
  350SOL    HW2 1950   3.191   3.032   1.162
  351SOL     OW 1951   2.350   3.905   1.195
  351SOL    HW1 1952   2.309   3.994   1.176
  351SOL    HW2 1953   2.362   3.894   1.294
  352SOL     OW 1954   3.431   6.921   4.359
  352SOL    HW1 1955   3.504   6.989   4.351
  352SOL    HW2 1956   3.401   6.893   4.268
  353SOL     OW 1957   2.912   0.383   0.624
  353SOL    HW1 1958   2.903   0.333   0.710
  353SOL    HW2 1959   2.831   0.369   0.568
  354SOL     OW 1960   3.907   2.680   0.673
  354SOL    HW1 1961   3.905   2.590   0.718
  354SOL    HW2 1962   3.930   2.668   0.577
  355SOL     OW 1963   1.243   3.426   2.538
  355SOL    HW1 1964   1.328   3.466   2.571
  355SOL    HW2 1965   1.165   3.475   2.576
  356SOL     OW 1966   2.521   6.952   6.247
  356SOL    HW1 1967   2.524   6.927   6.150
  356SOL    HW2 1968   2.587   0.004   6.265
  357SOL     OW 1969   0.024   5.785   5.659
  357SOL    HW1 1970   6.950   5.783   5.626
  357SOL    HW2 1971   0.080   5.841   5.598
  358SOL     OW 1972   4.733   6.399   0.736
  358SOL    HW1 1973   4.637   6.403   0.763
  358SOL    HW2 1974   4.787   6.362   0.812
  359SOL     OW 1975   2.940   2.151   1.799
  359SOL    HW1 1976   3.027   2.142   1.752
  359SOL    HW2 1977   2.944   2.228   1.863
  360SOL     OW 1978   1.070   4.633   6.096
  360SOL    HW1 1979   1.135   4.624   6.173
  360SOL    HW2 1980   1.001   4.561   6.102
  361SOL     OW 1981   6.011   6.911   2.794
  361SOL    HW1 1982   6.083   6.859   2.748
  361SOL    HW2 1983   5.952   6.954   2.725
  362SOL     OW 1984   3.659   3.108   0.872
  362SOL    HW1 1985   3.603   3.191   0.867
  362SOL    HW2 1986   3.755   3.131   0.855
  363SOL     OW 1987   5.340   3.828   3.078
  363SOL    HW1 1988   5.385   3.814   2.989
  363SOL    HW2 1989   5.394   3.783   3.149
  364SOL     OW 1990   6.363   5.099   0.068
  364SOL    HW1 1991   6.398   5.192   0.058
  364SOL    HW2 1992   6.264   5.099   0.054
  365SOL     OW 1993   5.650   6.190   1.103
  365SOL    HW1 1994   5.687   6.104   1.138
  365SOL    HW2 1995   5.587   6.228   1.171
  366SOL     OW 1996   5.506   0.392   6.356
  366SOL    HW1 1997   5.486   0.335   6.276
  366SOL    HW2 1998   5.594   0.437   6.343
  367SOL     OW 1999   5.238   3.079   1.616
  367SOL    HW1 2000   5.208   3.168   1.651
  367SOL    HW2 2001   5.185   3.055   1.535
  368SOL     OW 2002   0.268   2.812   5.177
  368SOL    HW1 2003   0.264   2.901   5.222
  368SOL    HW2 2004   0.195   2.805   5.110
  369SOL     OW 2005   6.033   5.313   2.056
  369SOL    HW1 2006   6.020   5.218   2.081
  369SOL    HW2 2007   6.068   5.364   2.134
  370SOL     OW 2008   2.335   1.189   5.175
  370SOL    HW1 2009   2.267   1.238   5.229
  370SOL    HW2 2010   2.297   1.102   5.144
  371SOL     OW 2011   2.040   4.111   6.096
  371SOL    HW1 2012   1.979   4.126   6.018
  371SOL    HW2 2013   2.078   4.019   6.091
  372SOL     OW 2014   0.843   6.900   6.426
  372SOL    HW1 2015   0.865   6.975   6.489
  372SOL    HW2 2016   0.927   6.867   6.383
  373SOL     OW 2017   5.844   5.929   4.402
  373SOL    HW1 2018   5.859   5.910   4.305
  373SOL    HW2 2019   5.850   6.027   4.418
  374SOL     OW 2020   3.072   1.984   3.953
  374SOL    HW1 2021   3.055   2.074   3.914
  374SOL    HW2 2022   3.154   1.944   3.911
  375SOL     OW 2023   1.324   4.765   4.039
  375SOL    HW1 2024   1.259   4.786   4.112
  375SOL    HW2 2025   1.322   4.667   4.019
  376SOL     OW 2026   2.695   0.713   5.238
  376SOL    HW1 2027   2.595   0.708   5.246
  376SOL    HW2 2028   2.721   0.796   5.190
  377SOL     OW 2029   1.283   2.224   0.934
  377SOL    HW1 2030   1.323   2.133   0.928
  377SOL    HW2 2031   1.187   2.216   0.962
  378SOL     OW 2032   4.780   2.876   6.329
  378SOL    HW1 2033   4.870   2.834   6.340
  378SOL    HW2 2034   4.712   2.823   6.379
  379SOL     OW 2035   5.976   2.749   0.973
  379SOL    HW1 2036   5.942   2.675   1.031
  379SOL    HW2 2037   6.072   2.733   0.951
  380SOL     OW 2038   2.522   1.374   0.601
  380SOL    HW1 2039   2.518   1.296   0.539
  380SOL    HW2 2040   2.540   1.457   0.550
  381SOL     OW 2041   1.081   3.836   2.657
  381SOL    HW1 2042   0.988   3.866   2.638
  381SOL    HW2 2043   1.132   3.829   2.572
  382SOL     OW 2044   5.511   0.236   6.582
  382SOL    HW1 2045   5.525   0.281   6.494
  382SOL    HW2 2046   5.536   0.299   6.656
  383SOL     OW 2047   3.712   3.759   6.396
  383SOL    HW1 2048   3.618   3.766   6.362
  383SOL    HW2 2049   3.721   3.677   6.453
  384SOL     OW 2050   0.016   5.721   3.581
  384SOL    HW1 2051   6.961   5.667   3.543
  384SOL    HW2 2052   6.999   5.806   3.620
  385SOL     OW 2053   3.713   4.826   5.579
  385SOL    HW1 2054   3.737   4.847   5.484
  385SOL    HW2 2055   3.737   4.903   5.637
  386SOL     OW 2056   2.470   0.040   5.380
  386SOL    HW1 2057   2.429   0.008   5.294
  386SOL    HW2 2058   2.541   6.995   5.408
  387SOL     OW 2059   1.440   6.759   2.721
  387SOL    HW1 2060   1.400   6.785   2.633
  387SOL    HW2 2061   1.539   6.748   2.710
  388SOL     OW 2062   1.343   1.659   4.867
  388SOL    HW1 2063   1.438   1.690   4.866
  388SOL    HW2 2064   1.341   1.559   4.863
  389SOL     OW 2065   4.148   3.954   1.177
  389SOL    HW1 2066   4.187   4.040   1.208
  389SOL    HW2 2067   4.214   3.880   1.191
  390SOL     OW 2068   3.285   1.597   0.832
  390SOL    HW1 2069   3.363   1.645   0.791
  390SOL    HW2 2070   3.216   1.664   0.859
  391SOL     OW 2071   2.023   3.116   6.729
  391SOL    HW1 2072   1.968   3.111   6.812
  391SOL    HW2 2073   2.086   3.038   6.726
  392SOL     OW 2074   1.325   4.483   0.671
  392SOL    HW1 2075   1.411   4.460   0.626
  392SOL    HW2 2076   1.249   4.473   0.606
  393SOL     OW 2077   1.324   4.210   6.567
  393SOL    HW1 2078   1.309   4.261   6.651
  393SOL    HW2 2079   1.321   4.112   6.587
  394SOL     OW 2080   6.890   2.368   0.686
  394SOL    HW1 2081   6.855   2.364   0.779
  394SOL    HW2 2082   6.961   2.438   0.680
  395SOL     OW 2083   5.065   4.077   3.403
  395SOL    HW1 2084   5.136   4.094   3.335
  395SOL    HW2 2085   5.097   4.008   3.468
  396SOL     OW 2086   3.174   3.336   2.016
  396SOL    HW1 2087   3.090   3.319   2.069
  396SOL    HW2 2088   3.160   3.416   1.958
  397SOL     OW 2089   5.958   1.443   5.596
  397SOL    HW1 2090   6.005   1.427   5.683
  397SOL    HW2 2091   5.914   1.359   5.566
  398SOL     OW 2092   1.510   0.317   2.556
  398SOL    HW1 2093   1.411   0.312   2.540
  398SOL    HW2 2094   1.527   0.342   2.651
  399SOL     OW 2095   5.565   6.142   2.202
  399SOL    HW1 2096   5.478   6.095   2.190
  399SOL    HW2 2097   5.604   6.119   2.292
  400SOL     OW 2098   6.617   6.373   5.238
  400SOL    HW1 2099   6.592   6.306   5.309
  400SOL    HW2 2100   6.605   6.465   5.274
  401SOL     OW 2101   5.854   0.330   6.564
  401SOL    HW1 2102   5.834   0.406   6.503
  401SOL    HW2 2103   5.779   0.320   6.631
  402SOL     OW 2104   6.255   0.297   3.895
  402SOL    HW1 2105   6.314   0.253   3.827
  402SOL    HW2 2106   6.194   0.362   3.849
  403SOL     OW 2107   3.704   1.771   4.509
  403SOL    HW1 2108   3.727   1.783   4.413
  403SOL    HW2 2109   3.742   1.847   4.562
  404SOL     OW 2110   1.848   5.176   3.871
  404SOL    HW1 2111   1.823   5.194   3.966
  404SOL    HW2 2112   1.888   5.258   3.831
  405SOL     OW 2113   2.153   3.063   2.504
  405SOL    HW1 2114   2.168   3.018   2.416
  405SOL    HW2 2115   2.117   3.155   2.490
  406SOL     OW 2116   1.180   4.657   4.884
  406SOL    HW1 2117   1.227   4.575   4.850
  406SOL    HW2 2118   1.141   4.638   4.974
  407SOL     OW 2119   0.984   1.144   4.743
  407SOL    HW1 2120   0.889   1.160   4.715
  407SOL    HW2 2121   1.045   1.203   4.691
  408SOL     OW 2122   1.442   2.157   2.897
  408SOL    HW1 2123   1.532   2.156   2.853
  408SOL    HW2 2124   1.371   2.138   2.828
  409SOL     OW 2125   6.539   2.850   2.433
  409SOL    HW1 2126   6.612   2.784   2.419
  409SOL    HW2 2127   6.545   2.887   2.526
  410SOL     OW 2128   1.775   1.674   0.943
  410SOL    HW1 2129   1.849   1.738   0.961
  410SOL    HW2 2130   1.799   1.584   0.979
  411SOL     OW 2131   6.542   0.648   1.796
  411SOL    HW1 2132   6.588   0.721   1.846
  411SOL    HW2 2133   6.610   0.587   1.755
  412SOL     OW 2134   2.823   6.024   3.417
  412SOL    HW1 2135   2.794   5.935   3.382
  412SOL    HW2 2136   2.870   6.074   3.345
  413SOL     OW 2137   5.631   3.853   1.673
  413SOL    HW1 2138   5.718   3.829   1.629
  413SOL    HW2 2139   5.590   3.930   1.625
  414SOL     OW 2140   2.949   5.049   3.283
  414SOL    HW1 2141   2.889   5.128   3.268
  414SOL    HW2 2142   2.903   4.966   3.253
  415SOL     OW 2143   0.770   6.369   6.849
  415SOL    HW1 2144   0.713   6.424   6.909
  415SOL    HW2 2145   0.840   6.322   6.903
  416SOL     OW 2146   4.841   6.546   4.768
  416SOL    HW1 2147   4.856   6.632   4.816
  416SOL    HW2 2148   4.748   6.545   4.731
  417SOL     OW 2149   1.733   6.007   5.945
  417SOL    HW1 2150   1.812   5.962   5.987
  417SOL    HW2 2151   1.654   5.998   6.006
  418SOL     OW 2152   3.909   6.950   6.745
  418SOL    HW1 2153   3.962   6.865   6.744
  418SOL    HW2 2154   3.812   6.929   6.752
  419SOL     OW 2155   1.670   6.327   1.505
  419SOL    HW1 2156   1.663   6.356   1.600
  419SOL    HW2 2157   1.617   6.389   1.447
  420SOL     OW 2158   6.060   1.363   0.515
  420SOL    HW1 2159   6.000   1.410   0.450
  420SOL    HW2 2160   6.137   1.423   0.537
  421SOL     OW 2161   0.071   4.086   5.222
  421SOL    HW1 2162   0.077   4.105   5.320
  421SOL    HW2 2163   0.147   4.129   5.174
  422SOL     OW 2164   5.279   3.699   1.544
  422SOL    HW1 2165   5.321   3.789   1.539
  422SOL    HW2 2166   5.263   3.675   1.640
  423SOL     OW 2167   0.705   2.189   6.055
  423SOL    HW1 2168   0.725   2.099   6.016
  423SOL    HW2 2169   0.723   2.260   5.987
  424SOL     OW 2170   1.416   5.246   1.241
  424SOL    HW1 2171   1.336   5.230   1.298
  424SOL    HW2 2172   1.493   5.194   1.277
  425SOL     OW 2173   4.774   2.056   3.514
  425SOL    HW1 2174   4.794   1.982   3.450
  425SOL    HW2 2175   4.785   2.023   3.608
  426SOL     OW 2176   3.378   1.720   4.244
  426SOL    HW1 2177   3.302   1.785   4.237
  426SOL    HW2 2178   3.464   1.766   4.222
  427SOL     OW 2179   5.791   6.126   3.968
  427SOL    HW1 2180   5.849   6.142   3.888
  427SOL    HW2 2181   5.743   6.039   3.957
  428SOL     OW 2182   4.697   6.965   3.561
  428SOL    HW1 2183   4.704   0.033   3.606
  428SOL    HW2 2184   4.601   6.945   3.541
  429SOL     OW 2185   1.036   4.959   1.880
  429SOL    HW1 2186   1.078   5.007   1.803
  429SOL    HW2 2187   0.942   4.990   1.892
  430SOL     OW 2188   0.853   6.903   4.368
  430SOL    HW1 2189   0.802   6.890   4.454
  430SOL    HW2 2190   0.880   6.814   4.332
  431SOL     OW 2191   2.848   0.758   1.336
  431SOL    HW1 2192   2.853   0.800   1.245
  431SOL    HW2 2193   2.927   0.699   1.349
  432SOL     OW 2194   6.403   2.083   0.829
  432SOL    HW1 2195   6.430   2.056   0.921
  432SOL    HW2 2196   6.480   2.066   0.766
  433SOL     OW 2197   2.168   6.476   4.964
  433SOL    HW1 2198   2.093   6.468   4.898
  433SOL    HW2 2199   2.133   6.461   5.056
  434SOL     OW 2200   3.658   5.490   3.369
  434SOL    HW1 2201   3.651   5.485   3.270
  434SOL    HW2 2202   3.713   5.414   3.403
  435SOL     OW 2203   4.571   2.430   6.603
  435SOL    HW1 2204   4.565   2.331   6.610
  435SOL    HW2 2205   4.478   2.468   6.601
  436SOL     OW 2206   3.298   5.590   1.844
  436SOL    HW1 2207   3.340   5.525   1.906
  436SOL    HW2 2208   3.251   5.541   1.770
  437SOL     OW 2209   0.841   1.419   6.709
  437SOL    HW1 2210   0.908   1.420   6.635
  437SOL    HW2 2211   0.755   1.460   6.676
  438SOL     OW 2212   2.268   4.008   3.779
  438SOL    HW1 2213   2.249   3.976   3.687
  438SOL    HW2 2214   2.314   4.097   3.775
  439SOL     OW 2215   5.970   5.698   2.119
  439SOL    HW1 2216   6.063   5.733   2.107
  439SOL    HW2 2217   5.942   5.649   2.037
  440SOL     OW 2218   2.641   1.934   5.202
  440SOL    HW1 2219   2.564   1.885   5.163
  440SOL    HW2 2220   2.625   2.033   5.196
  441SOL     OW 2221   0.773   3.593   3.995
  441SOL    HW1 2222   0.780   3.545   4.082
  441SOL    HW2 2223   0.677   3.596   3.966
  442SOL     OW 2224   3.590   5.856   5.467
  442SOL    HW1 2225   3.601   5.778   5.528
  442SOL    HW2 2226   3.680   5.893   5.443
  443SOL     OW 2227   6.109   4.263   4.024
  443SOL    HW1 2228   6.208   4.252   4.029
  443SOL    HW2 2229   6.079   4.329   4.093
  444SOL     OW 2230   5.427   0.677   6.458
  444SOL    HW1 2231   5.438   0.600   6.395
  444SOL    HW2 2232   5.354   0.655   6.523
  445SOL     OW 2233   1.616   5.682   2.877
  445SOL    HW1 2234   1.683   5.750   2.847
  445SOL    HW2 2235   1.664   5.600   2.907
  446SOL     OW 2236   3.686   5.176   3.149
  446SOL    HW1 2237   3.641   5.096   3.109
  446SOL    HW2 2238   3.749   5.146   3.220
  447SOL     OW 2239   0.515   2.877   5.950
  447SOL    HW1 2240   0.507   2.968   5.990
  447SOL    HW2 2241   0.589   2.878   5.882
  448SOL     OW 2242   2.368   0.818   2.920
  448SOL    HW1 2243   2.286   0.876   2.916
  448SOL    HW2 2244   2.415   0.821   2.831
  449SOL     OW 2245   2.604   1.252   4.117
  449SOL    HW1 2246   2.627   1.260   4.020
  449SOL    HW2 2247   2.617   1.157   4.146
  450SOL     OW 2248   1.042   5.019   3.170
  450SOL    HW1 2249   0.999   5.052   3.254
  450SOL    HW2 2250   1.015   5.079   3.094
  451SOL     OW 2251   1.222   2.296   4.560
  451SOL    HW1 2252   1.193   2.332   4.649
  451SOL    HW2 2253   1.194   2.360   4.488
  452SOL     OW 2254   5.693   6.646   0.349
  452SOL    HW1 2255   5.647   6.726   0.388
  452SOL    HW2 2256   5.688   6.651   0.249
  453SOL     OW 2257   3.974   0.422   6.743
  453SOL    HW1 2258   3.999   0.487   6.671
  453SOL    HW2 2259   3.935   0.472   6.821
  454SOL     OW 2260   0.270   4.420   6.695
  454SOL    HW1 2261   0.237   4.339   6.743
  454SOL    HW2 2262   0.340   4.465   6.749
  455SOL     OW 2263   5.542   2.189   4.689
  455SOL    HW1 2264   5.448   2.223   4.676
  455SOL    HW2 2265   5.567   2.198   4.786
  456SOL     OW 2266   0.554   0.234   3.581
  456SOL    HW1 2267   0.513   0.310   3.530
  456SOL    HW2 2268   0.493   0.207   3.656
  457SOL     OW 2269   1.709   3.491   4.579
  457SOL    HW1 2270   1.765   3.501   4.497
  457SOL    HW2 2271   1.750   3.543   4.654
  458SOL     OW 2272   3.059   6.056   2.709
  458SOL    HW1 2273   3.073   6.001   2.627
  458SOL    HW2 2274   3.148   6.086   2.745
  459SOL     OW 2275   1.972   6.859   5.995
  459SOL    HW1 2276   2.013   6.945   6.025
  459SOL    HW2 2277   1.983   6.790   6.066
  460SOL     OW 2278   2.275   6.716   4.992
  460SOL    HW1 2279   2.273   6.619   4.970
  460SOL    HW2 2280   2.186   6.744   5.029
  461SOL     OW 2281   0.129   5.417   5.637
  461SOL    HW1 2282   0.173   5.479   5.701
  461SOL    HW2 2283   0.030   5.425   5.645
  462SOL     OW 2284   3.690   3.454   6.596
  462SOL    HW1 2285   3.639   3.412   6.671
  462SOL    HW2 2286   3.642   3.439   6.510
  463SOL     OW 2287   5.901   5.876   4.148
  463SOL    HW1 2288   5.821   5.917   4.103
  463SOL    HW2 2289   5.941   5.806   4.089
  464SOL     OW 2290   2.991   1.035   5.019
  464SOL    HW1 2291   3.030   1.095   4.949
  464SOL    HW2 2292   2.995   0.940   4.987
  465SOL     OW 2293   0.948   2.334   0.069
  465SOL    HW1 2294   1.002   2.322   0.152
  465SOL    HW2 2295   0.981   2.414   0.019
  466SOL     OW 2296   1.578   6.726   4.220
  466SOL    HW1 2297   1.619   6.635   4.216
  466SOL    HW2 2298   1.593   6.766   4.310
  467SOL     OW 2299   1.889   1.347   1.371
  467SOL    HW1 2300   1.917   1.367   1.277
  467SOL    HW2 2301   1.791   1.365   1.381
  468SOL     OW 2302   3.479   6.302   5.568
  468SOL    HW1 2303   3.442   6.391   5.596
  468SOL    HW2 2304   3.473   6.293   5.469
  469SOL     OW 2305   2.664   3.722   6.403
  469SOL    HW1 2306   2.636   3.654   6.336
  469SOL    HW2 2307   2.757   3.753   6.383
  470SOL     OW 2308   4.814   6.397   1.028
  470SOL    HW1 2309   4.823   6.494   1.003
  470SOL    HW2 2310   4.824   6.387   1.127
  471SOL     OW 2311   2.580   2.510   4.069
  471SOL    HW1 2312   2.528   2.578   4.120
  471SOL    HW2 2313   2.534   2.422   4.074
  472SOL     OW 2314   5.019   4.510   6.176
  472SOL    HW1 2315   4.998   4.417   6.146
  472SOL    HW2 2316   5.022   4.514   6.275
  473SOL     OW 2317   1.090   2.126   2.427
  473SOL    HW1 2318   0.999   2.164   2.411
  473SOL    HW2 2319   1.138   2.118   2.339
  474SOL     OW 2320   5.237   5.991   4.651
  474SOL    HW1 2321   5.275   5.900   4.667
  474SOL    HW2 2322   5.137   5.985   4.644
  475SOL     OW 2323   6.217   1.933   0.149
  475SOL    HW1 2324   6.151   1.947   0.223
  475SOL    HW2 2325   6.186   1.979   0.067
  476SOL     OW 2326   0.319   3.689   2.255
  476SOL    HW1 2327   0.222   3.673   2.270
  476SOL    HW2 2328   0.359   3.611   2.207
  477SOL     OW 2329   2.917   6.154   3.135
  477SOL    HW1 2330   2.831   6.106   3.119
  477SOL    HW2 2331   2.989   6.088   3.153
  478SOL     OW 2332   3.629   6.533   2.364
  478SOL    HW1 2333   3.629   6.526   2.464
  478SOL    HW2 2334   3.566   6.465   2.326
  479SOL     OW 2335   3.677   3.132   5.199
  479SOL    HW1 2336   3.696   3.183   5.115
  479SOL    HW2 2337   3.615   3.184   5.257
  480SOL     OW 2338   2.389   0.904   0.585
  480SOL    HW1 2339   2.385   0.851   0.669
  480SOL    HW2 2340   2.324   0.980   0.590
  481SOL     OW 2341   1.100   6.541   1.415
  481SOL    HW1 2342   1.175   6.584   1.465
  481SOL    HW2 2343   1.022   6.527   1.477
  482SOL     OW 2344   4.152   4.717   2.114
  482SOL    HW1 2345   4.213   4.699   2.191
  482SOL    HW2 2346   4.059   4.688   2.138
  483SOL     OW 2347   6.264   2.355   2.924
  483SOL    HW1 2348   6.313   2.441   2.932
  483SOL    HW2 2349   6.203   2.359   2.844
  484SOL     OW 2350   2.134   3.143   5.425
  484SOL    HW1 2351   2.193   3.222   5.410
  484SOL    HW2 2352   2.131   3.088   5.341
  485SOL     OW 2353   4.094   4.920   2.633
  485SOL    HW1 2354   4.089   4.944   2.536
  485SOL    HW2 2355   4.001   4.912   2.670
  486SOL     OW 2356   0.034   1.220   0.088
  486SOL    HW1 2357   6.988   1.160   0.131
  486SOL    HW2 2358   0.023   1.217   7.009
  487SOL     OW 2359   0.913   0.633   3.395
  487SOL    HW1 2360   0.992   0.627   3.455
  487SOL    HW2 2361   0.836   0.672   3.445
  488SOL     OW 2362   1.517   0.741   2.583
  488SOL    HW1 2363   1.553   0.681   2.511
  488SOL    HW2 2364   1.593   0.785   2.631
  489SOL     OW 2365   5.210   5.955   5.522
  489SOL    HW1 2366   5.132   5.983   5.579
  489SOL    HW2 2367   5.267   5.891   5.573
  490SOL     OW 2368   1.276   6.306   3.491
  490SOL    HW1 2369   1.283   6.208   3.507
  490SOL    HW2 2370   1.273   6.354   3.578
  491SOL     OW 2371   0.949   3.405   1.824
  491SOL    HW1 2372   0.904   3.436   1.740
  491SOL    HW2 2373   1.014   3.332   1.802
  492SOL     OW 2374   1.423   0.350   5.532
  492SOL    HW1 2375   1.508   0.393   5.500
  492SOL    HW2 2376   1.345   0.395   5.489
  493SOL     OW 2377   3.834   6.489   5.326
  493SOL    HW1 2378   3.884   6.425   5.385
  493SOL    HW2 2379   3.844   6.461   5.230
  494SOL     OW 2380   0.936   0.141   6.539
  494SOL    HW1 2381   0.898   0.183   6.457
  494SOL    HW2 2382   1.035   0.127   6.527
  495SOL     OW 2383   3.916   5.772   3.515
  495SOL    HW1 2384   3.993   5.828   3.543
  495SOL    HW2 2385   3.831   5.809   3.552
  496SOL     OW 2386   5.667   3.051   1.815
  496SOL    HW1 2387   5.604   2.973   1.810
  496SOL    HW2 2388   5.631   3.118   1.880
  497SOL     OW 2389   3.296   1.472   4.326
  497SOL    HW1 2390   3.329   1.562   4.299
  497SOL    HW2 2391   3.353   1.437   4.401
  498SOL     OW 2392   0.778   5.067   1.932
  498SOL    HW1 2393   0.736   5.158   1.926
  498SOL    HW2 2394   0.745   5.021   2.014
  499SOL     OW 2395   1.656   5.294   4.583
  499SOL    HW1 2396   1.711   5.324   4.662
  499SOL    HW2 2397   1.650   5.369   4.517
  500SOL     OW 2398   0.128   2.153   6.080
  500SOL    HW1 2399   0.031   2.154   6.105
  500SOL    HW2 2400   0.149   2.233   6.024
  501SOL     OW 2401   4.249   0.275   0.992
  501SOL    HW1 2402   4.262   0.202   0.925
  501SOL    HW2 2403   4.279   0.244   1.082
  502SOL     OW 2404   0.761   4.328   5.497
  502SOL    HW1 2405   0.842   4.386   5.484
  502SOL    HW2 2406   0.725   4.300   5.407
  503SOL     OW 2407   0.091   4.922   6.689
  503SOL    HW1 2408   0.012   4.980   6.669
  503SOL    HW2 2409   0.121   4.876   6.605
  504SOL     OW 2410   0.744   5.294   2.460
  504SOL    HW1 2411   0.739   5.213   2.402
  504SOL    HW2 2412   0.838   5.306   2.492
  505SOL     OW 2413   3.339   5.863   4.604
  505SOL    HW1 2414   3.417   5.834   4.549
  505SOL    HW2 2415   3.263   5.799   4.592
  506SOL     OW 2416   3.778   5.842   3.081
  506SOL    HW1 2417   3.719   5.763   3.066
  506SOL    HW2 2418   3.858   5.836   3.021
  507SOL     OW 2419   3.600   0.113   3.206
  507SOL    HW1 2420   3.595   0.168   3.122
  507SOL    HW2 2421   3.689   0.068   3.211
  508SOL     OW 2422   0.009   3.518   3.008
  508SOL    HW1 2423   0.091   3.544   2.958
  508SOL    HW2 2424   0.035   3.473   3.094
  509SOL     OW 2425   3.205   1.681   1.199
  509SOL    HW1 2426   3.185   1.658   1.294
  509SOL    HW2 2427   3.200   1.598   1.143
  510SOL     OW 2428   6.346   4.033   6.984
  510SOL    HW1 2429   6.393   3.952   7.020
  510SOL    HW2 2430   6.275   4.062   0.029
  511SOL     OW 2431   1.066   2.456   5.961
  511SOL    HW1 2432   1.086   2.539   6.012
  511SOL    HW2 2433   1.151   2.405   5.947
  512SOL     OW 2434   0.110   2.201   6.932
  512SOL    HW1 2435   0.147   2.290   6.960
  512SOL    HW2 2436   0.113   2.194   6.832
  513SOL     OW 2437   5.718   6.528   3.293
  513SOL    HW1 2438   5.794   6.472   3.326
  513SOL    HW2 2439   5.636   6.510   3.347
  514SOL     OW 2440   6.350   0.257   4.675
  514SOL    HW1 2441   6.307   0.233   4.762
  514SOL    HW2 2442   6.449   0.259   4.687
  515SOL     OW 2443   1.115   0.576   1.484
  515SOL    HW1 2444   1.131   0.500   1.547
  515SOL    HW2 2445   1.019   0.581   1.460
  516SOL     OW 2446   2.800   4.734   2.255
  516SOL    HW1 2447   2.808   4.685   2.169
  516SOL    HW2 2448   2.751   4.678   2.322
  517SOL     OW 2449   3.426   5.014   1.907
  517SOL    HW1 2450   3.453   4.918   1.902
  517SOL    HW2 2451   3.328   5.022   1.893
  518SOL     OW 2452   2.174   2.390   3.807
  518SOL    HW1 2453   2.256   2.336   3.827
  518SOL    HW2 2454   2.160   2.458   3.879
  519SOL     OW 2455   0.884   6.539   3.682
  519SOL    HW1 2456   0.798   6.492   3.661
  519SOL    HW2 2457   0.904   6.529   3.780
  520SOL     OW 2458   5.823   3.724   6.849
  520SOL    HW1 2459   5.854   3.634   6.820
  520SOL    HW2 2460   5.901   3.783   6.865
  521SOL     OW 2461   6.321   6.008   5.256
  521SOL    HW1 2462   6.226   6.036   5.245
  521SOL    HW2 2463   6.373   6.082   5.298
  522SOL     OW 2464   3.515   3.266   3.512
  522SOL    HW1 2465   3.550   3.222   3.429
  522SOL    HW2 2466   3.540   3.211   3.592
  523SOL     OW 2467   0.461   6.399   1.925
  523SOL    HW1 2468   0.448   6.462   1.848
  523SOL    HW2 2469   0.494   6.311   1.891
  524SOL     OW 2470   0.797   2.217   2.758
  524SOL    HW1 2471   0.754   2.133   2.723
  524SOL    HW2 2472   0.892   2.198   2.783
  525SOL     OW 2473   1.856   4.259   6.481
  525SOL    HW1 2474   1.948   4.251   6.520
  525SOL    HW2 2475   1.858   4.229   6.385
  526SOL     OW 2476   3.496   6.342   4.534
  526SOL    HW1 2477   3.442   6.427   4.538
  526SOL    HW2 2478   3.577   6.352   4.592
  527SOL     OW 2479   6.864   2.972   0.895
  527SOL    HW1 2480   6.782   3.020   0.865
  527SOL    HW2 2481   6.943   3.033   0.888
  528SOL     OW 2482   1.704   2.405   3.607
  528SOL    HW1 2483   1.720   2.307   3.621
  528SOL    HW2 2484   1.768   2.457   3.664
  529SOL     OW 2485   1.402   5.518   5.132
  529SOL    HW1 2486   1.350   5.507   5.216
  529SOL    HW2 2487   1.365   5.595   5.079
  530SOL     OW 2488   4.152   3.349   3.629
  530SOL    HW1 2489   4.161   3.410   3.550
  530SOL    HW2 2490   4.153   3.403   3.713
  531SOL     OW 2491   0.432   2.207   2.984
  531SOL    HW1 2492   0.424   2.261   2.900
  531SOL    HW2 2493   0.528   2.200   3.010
  532SOL     OW 2494   0.773   2.752   0.410
  532SOL    HW1 2495   0.759   2.843   0.371
  532SOL    HW2 2496   0.800   2.689   0.338
  533SOL     OW 2497   4.484   0.159   3.859
  533SOL    HW1 2498   4.389   0.130   3.843
  533SOL    HW2 2499   4.527   0.096   3.924
  534SOL     OW 2500   5.260   6.179   2.787
  534SOL    HW1 2501   5.285   6.144   2.877
  534SOL    HW2 2502   5.238   6.277   2.794
  535SOL     OW 2503   6.716   3.831   4.655
  535SOL    HW1 2504   6.741   3.735   4.640
  535SOL    HW2 2505   6.705   3.876   4.566
  536SOL     OW 2506   6.007   4.978   2.896
  536SOL    HW1 2507   6.064   4.952   2.974
  536SOL    HW2 2508   6.029   4.920   2.818
  537SOL     OW 2509   2.880   6.567   5.143
  537SOL    HW1 2510   2.825   6.563   5.226
  537SOL    HW2 2511   2.943   6.489   5.140
  538SOL     OW 2512   1.170   4.527   3.769
  538SOL    HW1 2513   1.187   4.431   3.746
  538SOL    HW2 2514   1.107   4.567   3.702
  539SOL     OW 2515   1.634   5.218   1.560
  539SOL    HW1 2516   1.605   5.297   1.506
  539SOL    HW2 2517   1.586   5.136   1.529
  540SOL     OW 2518   1.324   1.906   2.783
  540SOL    HW1 2519   1.253   1.933   2.717
  540SOL    HW2 2520   1.393   1.850   2.737
  541SOL     OW 2521   5.389   5.621   3.655
  541SOL    HW1 2522   5.323   5.665   3.716
  541SOL    HW2 2523   5.467   5.682   3.641
  542SOL     OW 2524   5.914   6.748   6.589
  542SOL    HW1 2525   5.933   6.842   6.618
  542SOL    HW2 2526   5.821   6.723   6.616
  543SOL     OW 2527   0.189   3.849   4.991
  543SOL    HW1 2528   0.095   3.846   4.959
  543SOL    HW2 2529   0.190   3.868   5.090
  544SOL     OW 2530   1.263   5.044   0.326
  544SOL    HW1 2531   1.321   5.016   0.250
  544SOL    HW2 2532   1.315   5.099   0.390
  545SOL     OW 2533   3.074   1.780   0.790
  545SOL    HW1 2534   2.981   1.789   0.826
  545SOL    HW2 2535   3.118   1.870   0.790
  546SOL     OW 2536   2.086   3.715   0.602
  546SOL    HW1 2537   2.171   3.706   0.550
  546SOL    HW2 2538   2.012   3.744   0.541
  547SOL     OW 2539   3.171   1.765   0.238
  547SOL    HW1 2540   3.075   1.738   0.240
  547SOL    HW2 2541   3.180   1.855   0.196
  548SOL     OW 2542   3.251   3.493   2.248
  548SOL    HW1 2543   3.231   3.447   2.161
  548SOL    HW2 2544   3.284   3.426   2.314
  549SOL     OW 2545   5.585   2.794   0.996
  549SOL    HW1 2546   5.652   2.864   1.022
  549SOL    HW2 2547   5.586   2.782   0.897
  550SOL     OW 2548   1.264   5.658   3.795
  550SOL    HW1 2549   1.298   5.715   3.719
  550SOL    HW2 2550   1.336   5.596   3.825
  551SOL     OW 2551   1.155   0.036   2.181
  551SOL    HW1 2552   1.214   0.113   2.155
  551SOL    HW2 2553   1.141   0.037   2.280
  552SOL     OW 2554   6.615   4.672   6.915
  552SOL    HW1 2555   6.590   4.664   6.819
  552SOL    HW2 2556   6.570   4.752   6.955
  553SOL     OW 2557   2.506   6.442   3.363
  553SOL    HW1 2558   2.480   6.492   3.446
  553SOL    HW2 2559   2.554   6.504   3.301
  554SOL     OW 2560   6.611   6.946   6.731
  554SOL    HW1 2561   6.674   6.878   6.769
  554SOL    HW2 2562   6.591   6.922   6.636
  555SOL     OW 2563   2.469   4.580   4.686
  555SOL    HW1 2564   2.393   4.520   4.659
  555SOL    HW2 2565   2.506   4.548   4.773
  556SOL     OW 2566   4.314   1.822   3.735
  556SOL    HW1 2567   4.307   1.832   3.834
  556SOL    HW2 2568   4.334   1.911   3.694
  557SOL     OW 2569   6.972   5.888   1.352
  557SOL    HW1 2570   6.965   5.972   1.407
  557SOL    HW2 2571   7.009   5.911   1.262
  558SOL     OW 2572   2.917   3.386   3.433
  558SOL    HW1 2573   2.840   3.335   3.396
  558SOL    HW2 2574   2.926   3.473   3.385
  559SOL     OW 2575   0.291   5.664   6.873
  559SOL    HW1 2576   0.246   5.580   6.847
  559SOL    HW2 2577   0.318   5.715   6.791
  560SOL     OW 2578   5.796   4.686   4.815
  560SOL    HW1 2579   5.783   4.587   4.819
  560SOL    HW2 2580   5.815   4.714   4.721
  561SOL     OW 2581   0.852   2.099   1.499
  561SOL    HW1 2582   0.809   2.179   1.542
  561SOL    HW2 2583   0.822   2.093   1.403
  562SOL     OW 2584   4.445   6.477   6.122
  562SOL    HW1 2585   4.386   6.531   6.183
  562SOL    HW2 2586   4.520   6.534   6.089
  563SOL     OW 2587   2.923   6.889   2.970
  563SOL    HW1 2588   2.992   6.844   3.027
  563SOL    HW2 2589   2.836   6.894   3.020
  564SOL     OW 2590   1.296   2.685   6.557
  564SOL    HW1 2591   1.344   2.752   6.502
  564SOL    HW2 2592   1.294   2.597   6.510
  565SOL     OW 2593   3.079   3.088   4.713
  565SOL    HW1 2594   2.980   3.085   4.727
  565SOL    HW2 2595   3.106   3.181   4.689
  566SOL     OW 2596   0.274   4.729   3.569
  566SOL    HW1 2597   0.227   4.801   3.619
  566SOL    HW2 2598   0.236   4.640   3.595
  567SOL     OW 2599   2.945   3.164   1.439
  567SOL    HW1 2600   2.995   3.078   1.422
  567SOL    HW2 2601   2.998   3.220   1.503
  568SOL     OW 2602   4.916   0.370   0.022
  568SOL    HW1 2603   4.916   0.452   6.985
  568SOL    HW2 2604   5.006   0.360   0.066
  569SOL     OW 2605   1.807   2.840   6.934
  569SOL    HW1 2606   1.864   2.856   7.015
  569SOL    HW2 2607   1.746   2.918   6.919
  570SOL     OW 2608   4.142   6.146   6.807
  570SOL    HW1 2609   4.052   6.130   6.769
  570SOL    HW2 2610   4.161   6.078   6.878
  571SOL     OW 2611   3.537   6.522   1.847
  571SOL    HW1 2612   3.539   6.606   1.901
  571SOL    HW2 2613   3.516   6.444   1.906
  572SOL     OW 2614   2.604   4.705   5.452
  572SOL    HW1 2615   2.561   4.623   5.489
  572SOL    HW2 2616   2.587   4.711   5.354
  573SOL     OW 2617   5.134   1.435   5.485
  573SOL    HW1 2618   5.090   1.422   5.574
  573SOL    HW2 2619   5.234   1.429   5.497
  574SOL     OW 2620   3.824   1.306   4.168
  574SOL    HW1 2621   3.753   1.330   4.233
  574SOL    HW2 2622   3.783   1.260   4.089
  575SOL     OW 2623   4.868   3.953   6.878
  575SOL    HW1 2624   4.863   4.007   6.794
  575SOL    HW2 2625   4.825   3.863   6.863
  576SOL     OW 2626   1.001   2.115   3.367
  576SOL    HW1 2627   1.020   2.212   3.386
  576SOL    HW2 2628   0.967   2.071   3.449
  577SOL     OW 2629   1.503   1.540   2.826
  577SOL    HW1 2630   1.482   1.608   2.896
  577SOL    HW2 2631   1.428   1.535   2.760
  578SOL     OW 2632   5.565   5.432   3.792
  578SOL    HW1 2633   5.563   5.333   3.805
  578SOL    HW2 2634   5.492   5.458   3.728
  579SOL     OW 2635   1.820   3.399   3.353
  579SOL    HW1 2636   1.794   3.403   3.450
  579SOL    HW2 2637   1.916   3.424   3.343
  580SOL     OW 2638   4.733   5.631   6.548
  580SOL    HW1 2639   4.739   5.728   6.526
  580SOL    HW2 2640   4.823   5.599   6.580
  581SOL     OW 2641   2.023   3.632   1.623
  581SOL    HW1 2642   2.019   3.623   1.523
  581SOL    HW2 2643   1.930   3.645   1.658
  582SOL     OW 2644   4.104   6.200   1.843
  582SOL    HW1 2645   4.164   6.278   1.825
  582SOL    HW2 2646   4.076   6.159   1.756
  583SOL     OW 2647   3.143   6.261   5.472
  583SOL    HW1 2648   3.154   6.286   5.568
  583SOL    HW2 2649   3.056   6.213   5.460
  584SOL     OW 2650   3.118   5.100   6.827
  584SOL    HW1 2651   3.174   5.115   6.909
  584SOL    HW2 2652   3.167   5.134   6.747
  585SOL     OW 2653   5.328   2.052   6.386
  585SOL    HW1 2654   5.246   2.014   6.429
  585SOL    HW2 2655   5.374   2.112   6.451
  586SOL     OW 2656   3.398   0.820   6.097
  586SOL    HW1 2657   3.417   0.759   6.174
  586SOL    HW2 2658   3.361   0.767   6.021
  587SOL     OW 2659   4.390   1.911   4.848
  587SOL    HW1 2660   4.292   1.930   4.837
  587SOL    HW2 2661   4.438   1.997   4.866
  588SOL     OW 2662   1.573   4.900   2.262
  588SOL    HW1 2663   1.665   4.870   2.288
  588SOL    HW2 2664   1.541   4.843   2.186
  589SOL     OW 2665   3.370   4.596   1.632
  589SOL    HW1 2666   3.304   4.668   1.654
  589SOL    HW2 2667   3.441   4.594   1.702
  590SOL     OW 2668   4.920   3.061   2.718
  590SOL    HW1 2669   4.916   3.036   2.622
  590SOL    HW2 2670   4.914   3.161   2.727
  591SOL     OW 2671   2.804   5.319   3.906
  591SOL    HW1 2672   2.708   5.299   3.886
  591SOL    HW2 2673   2.809   5.398   3.967
  592SOL     OW 2674   3.976   1.259   1.352
  592SOL    HW1 2675   3.883   1.295   1.364
  592SOL    HW2 2676   4.041   1.334   1.343
  593SOL     OW 2677   4.378   2.325   4.673
  593SOL    HW1 2678   4.414   2.414   4.701
  593SOL    HW2 2679   4.400   2.309   4.577
  594SOL     OW 2680   6.790   1.701   0.207
  594SOL    HW1 2681   6.829   1.682   0.297
  594SOL    HW2 2682   6.861   1.737   0.147
  595SOL     OW 2683   5.903   0.320   3.361
  595SOL    HW1 2684   5.969   0.261   3.313
  595SOL    HW2 2685   5.823   0.334   3.304
  596SOL     OW 2686   0.958   5.323   3.293
  596SOL    HW1 2687   1.037   5.383   3.277
  596SOL    HW2 2688   0.893   5.332   3.218
  597SOL     OW 2689   2.924   0.455   0.051
  597SOL    HW1 2690   2.891   0.362   0.070
  597SOL    HW2 2691   2.956   0.497   0.135
  598SOL     OW 2692   4.162   4.585   5.409
  598SOL    HW1 2693   4.127   4.676   5.385
  598SOL    HW2 2694   4.119   4.554   5.494
  599SOL     OW 2695   2.424   6.216   1.486
  599SOL    HW1 2696   2.485   6.189   1.411
  599SOL    HW2 2697   2.453   6.304   1.523
  600SOL     OW 2698   0.094   1.085   6.464
  600SOL    HW1 2699   0.058   1.165   6.513
  600SOL    HW2 2700   0.193   1.082   6.474
  601SOL     OW 2701   1.513   0.355   4.563
  601SOL    HW1 2702   1.507   0.454   4.566
  601SOL    HW2 2703   1.607   0.326   4.581
  602SOL     OW 2704   1.900   2.114   6.445
  602SOL    HW1 2705   1.961   2.192   6.433
  602SOL    HW2 2706   1.836   2.110   6.369
  603SOL     OW 2707   2.829   2.275   4.985
  603SOL    HW1 2708   2.927   2.275   5.006
  603SOL    HW2 2709   2.812   2.211   4.910
  604SOL     OW 2710   1.417   2.580   1.918
  604SOL    HW1 2711   1.335   2.592   1.973
  604SOL    HW2 2712   1.498   2.585   1.977
  605SOL     OW 2713   6.619   6.425   0.628
  605SOL    HW1 2714   6.536   6.383   0.664
  605SOL    HW2 2715   6.685   6.438   0.702
  606SOL     OW 2716   4.795   6.708   6.706
  606SOL    HW1 2717   4.771   6.641   6.777
  606SOL    HW2 2718   4.889   6.692   6.676
  607SOL     OW 2719   6.762   6.081   5.875
  607SOL    HW1 2720   6.669   6.073   5.912
  607SOL    HW2 2721   6.773   6.170   5.831
  608SOL     OW 2722   3.679   5.927   6.893
  608SOL    HW1 2723   3.620   6.002   6.922
  608SOL    HW2 2724   3.622   5.851   6.860
  609SOL     OW 2725   3.993   3.088   2.833
  609SOL    HW1 2726   4.010   3.030   2.913
  609SOL    HW2 2727   3.986   3.183   2.863
  610SOL     OW 2728   5.435   4.077   1.811
  610SOL    HW1 2729   5.390   4.006   1.866
  610SOL    HW2 2730   5.531   4.083   1.838
  611SOL     OW 2731   4.004   6.856   0.928
  611SOL    HW1 2732   4.022   6.758   0.929
  611SOL    HW2 2733   4.030   6.895   1.017
  612SOL     OW 2734   4.031   6.815   5.335
  612SOL    HW1 2735   4.062   6.794   5.428
  612SOL    HW2 2736   4.079   6.756   5.270
  613SOL     OW 2737   3.933   6.329   5.556
  613SOL    HW1 2738   3.835   6.328   5.579
  613SOL    HW2 2739   3.984   6.371   5.630
  614SOL     OW 2740   5.265   5.287   0.842
  614SOL    HW1 2741   5.202   5.292   0.919
  614SOL    HW2 2742   5.286   5.380   0.811
  615SOL     OW 2743   6.529   2.296   1.668
  615SOL    HW1 2744   6.538   2.197   1.684
  615SOL    HW2 2745   6.464   2.311   1.593
  616SOL     OW 2746   0.219   2.982   3.711
  616SOL    HW1 2747   0.284   3.000   3.785
  616SOL    HW2 2748   0.209   2.883   3.698
  617SOL     OW 2749   6.562   4.438   6.292
  617SOL    HW1 2750   6.648   4.396   6.261
  617SOL    HW2 2751   6.485   4.395   6.245
  618SOL     OW 2752   6.722   2.155   6.766
  618SOL    HW1 2753   6.817   2.173   6.739
  618SOL    HW2 2754   6.719   2.078   6.829
  619SOL     OW 2755   4.367   1.238   6.837
  619SOL    HW1 2756   4.361   1.258   6.739
  619SOL    HW2 2757   4.423   1.308   6.881
  620SOL     OW 2758   4.467   2.849   1.284
  620SOL    HW1 2759   4.396   2.894   1.336
  620SOL    HW2 2760   4.502   2.770   1.335
  621SOL     OW 2761   2.722   0.182   6.996
  621SOL    HW1 2762   2.731   0.101   6.938
  621SOL    HW2 2763   2.636   0.175   0.028
  622SOL     OW 2764   1.523   0.416   5.205
  622SOL    HW1 2765   1.433   0.428   5.162
  622SOL    HW2 2766   1.567   0.335   5.166
  623SOL     OW 2767   0.840   5.428   5.518
  623SOL    HW1 2768   0.913   5.471   5.571
  623SOL    HW2 2769   0.865   5.333   5.498
  624SOL     OW 2770   0.045   2.410   1.276
  624SOL    HW1 2771   0.017   2.315   1.291
  624SOL    HW2 2772   0.026   2.436   1.181
  625SOL     OW 2773   1.779   1.605   2.267
  625SOL    HW1 2774   1.813   1.608   2.173
  625SOL    HW2 2775   1.808   1.688   2.315
  626SOL     OW 2776   2.134   5.756   3.162
  626SOL    HW1 2777   2.231   5.781   3.153
  626SOL    HW2 2778   2.109   5.692   3.090
  627SOL     OW 2779   6.142   6.513   0.216
  627SOL    HW1 2780   6.080   6.489   0.291
  627SOL    HW2 2781   6.236   6.504   0.248
  628SOL     OW 2782   6.347   5.644   6.086
  628SOL    HW1 2783   6.281   5.607   6.021
  628SOL    HW2 2784   6.400   5.717   6.043
  629SOL     OW 2785   0.031   0.117   6.758
  629SOL    HW1 2786   0.116   0.130   6.809
  629SOL    HW2 2787   6.988   0.191   6.778
  630SOL     OW 2788   0.438   1.600   0.958
  630SOL    HW1 2789   0.452   1.577   1.055
  630SOL    HW2 2790   0.395   1.523   0.912
  631SOL     OW 2791   3.589   6.940   5.087
  631SOL    HW1 2792   3.629   6.972   5.001
  631SOL    HW2 2793   3.654   6.880   5.134
  632SOL     OW 2794   3.215   1.430   1.027
  632SOL    HW1 2795   3.249   1.487   0.952
  632SOL    HW2 2796   3.271   1.348   1.034
  633SOL     OW 2797   3.275   3.956   6.940
  633SOL    HW1 2798   3.179   3.930   6.937
  633SOL    HW2 2799   3.316   3.922   0.005
  634SOL     OW 2800   3.923   3.720   1.181
  634SOL    HW1 2801   3.943   3.816   1.198
  634SOL    HW2 2802   3.830   3.711   1.146
  635SOL     OW 2803   4.438   5.313   1.738
  635SOL    HW1 2804   4.365   5.292   1.804
  635SOL    HW2 2805   4.404   5.378   1.671
  636SOL     OW 2806   3.080   5.817   0.269
  636SOL    HW1 2807   3.053   5.803   0.365
  636SOL    HW2 2808   3.106   5.913   0.256
  637SOL     OW 2809   6.857   3.480   3.365
  637SOL    HW1 2810   6.777   3.445   3.315
  637SOL    HW2 2811   6.857   3.580   3.363
  638SOL     OW 2812   5.420   2.143   4.023
  638SOL    HW1 2813   5.321   2.133   4.012
  638SOL    HW2 2814   5.453   2.218   3.965
  639SOL     OW 2815   5.463   3.687   2.877
  639SOL    HW1 2816   5.475   3.591   2.900
  639SOL    HW2 2817   5.552   3.729   2.859
  640SOL     OW 2818   0.579   5.396   3.609
  640SOL    HW1 2819   0.487   5.433   3.595
  640SOL    HW2 2820   0.590   5.312   3.556
  641SOL     OW 2821   6.590   5.099   4.477
  641SOL    HW1 2822   6.635   5.188   4.470
  641SOL    HW2 2823   6.659   5.028   4.490
  642SOL     OW 2824   6.432   3.124   4.981
  642SOL    HW1 2825   6.339   3.160   4.982
  642SOL    HW2 2826   6.473   3.133   5.072
  643SOL     OW 2827   6.117   5.691   5.861
  643SOL    HW1 2828   6.047   5.730   5.922
  643SOL    HW2 2829   6.072   5.638   5.790
  644SOL     OW 2830   1.450   6.250   4.817
  644SOL    HW1 2831   1.501   6.183   4.763
  644SOL    HW2 2832   1.441   6.335   4.765
  645SOL     OW 2833   3.819   0.935   4.203
  645SOL    HW1 2834   3.856   1.009   4.148
  645SOL    HW2 2835   3.871   0.929   4.289
  646SOL     OW 2836   3.281   1.027   4.580
  646SOL    HW1 2837   3.320   1.094   4.516
  646SOL    HW2 2838   3.352   1.000   4.646
  647SOL     OW 2839   5.152   1.238   4.704
  647SOL    HW1 2840   5.236   1.212   4.752
  647SOL    HW2 2841   5.157   1.335   4.679
  648SOL     OW 2842   1.028   3.808   4.165
  648SOL    HW1 2843   1.072   3.789   4.253
  648SOL    HW2 2844   1.035   3.727   4.106
  649SOL     OW 2845   2.993   4.047   0.875
  649SOL    HW1 2846   2.918   4.014   0.817
  649SOL    HW2 2847   3.034   3.970   0.923
  650SOL     OW 2848   6.105   4.399   0.791
  650SOL    HW1 2849   6.020   4.452   0.793
  650SOL    HW2 2850   6.183   4.461   0.794
  651SOL     OW 2851   0.129   5.843   6.049
  651SOL    HW1 2852   0.166   5.848   6.142
  651SOL    HW2 2853   0.193   5.885   5.985
  652SOL     OW 2854   4.934   6.527   3.507
  652SOL    HW1 2855   4.917   6.514   3.605
  652SOL    HW2 2856   4.915   6.622   3.482
  653SOL     OW 2857   1.501   5.357   5.419
  653SOL    HW1 2858   1.571   5.426   5.396
  653SOL    HW2 2859   1.449   5.333   5.337
  654SOL     OW 2860   0.505   4.031   6.175
  654SOL    HW1 2861   0.601   4.029   6.201
  654SOL    HW2 2862   0.462   3.943   6.199
  655SOL     OW 2863   0.421   5.670   2.249
  655SOL    HW1 2864   0.452   5.739   2.314
  655SOL    HW2 2865   0.359   5.711   2.182
  656SOL     OW 2866   1.030   5.610   1.576
  656SOL    HW1 2867   1.065   5.523   1.612
  656SOL    HW2 2868   0.930   5.605   1.567
  657SOL     OW 2869   2.063   3.093   1.582
  657SOL    HW1 2870   2.060   3.037   1.665
  657SOL    HW2 2871   1.975   3.085   1.534
  658SOL     OW 2872   2.692   4.413   6.418
  658SOL    HW1 2873   2.777   4.390   6.370
  658SOL    HW2 2874   2.710   4.416   6.516
  659SOL     OW 2875   1.926   5.769   5.448
  659SOL    HW1 2876   1.898   5.689   5.501
  659SOL    HW2 2877   1.845   5.819   5.418
  660SOL     OW 2878   5.466   4.688   2.319
  660SOL    HW1 2879   5.546   4.654   2.370
  660SOL    HW2 2880   5.429   4.615   2.263
  661SOL     OW 2881   4.726   5.058   3.685
  661SOL    HW1 2882   4.789   5.112   3.740
  661SOL    HW2 2883   4.721   5.096   3.592
  662SOL     OW 2884   3.995   0.558   5.037
  662SOL    HW1 2885   3.914   0.610   5.065
  662SOL    HW2 2886   3.970   0.462   5.024
  663SOL     OW 2887   2.491   4.045   0.063
  663SOL    HW1 2888   2.588   4.024   0.072
  663SOL    HW2 2889   2.479   4.144   0.053
  664SOL     OW 2890   0.059   5.327   6.507
  664SOL    HW1 2891   0.041   5.296   6.414
  664SOL    HW2 2892   0.044   5.425   6.513
  665SOL     OW 2893   5.097   4.926   1.199
  665SOL    HW1 2894   5.117   4.842   1.248
  665SOL    HW2 2895   5.093   5.003   1.263
  666SOL     OW 2896   4.716   2.206   2.335
  666SOL    HW1 2897   4.737   2.275   2.405
  666SOL    HW2 2898   4.751   2.237   2.247
  667SOL     OW 2899   6.836   4.807   3.722
  667SOL    HW1 2900   6.887   4.880   3.767
  667SOL    HW2 2901   6.884   4.720   3.734
  668SOL     OW 2902   5.696   6.317   6.452
  668SOL    HW1 2903   5.618   6.379   6.468
  668SOL    HW2 2904   5.663   6.223   6.445
  669SOL     OW 2905   4.218   0.116   3.816
  669SOL    HW1 2906   4.155   0.166   3.876
  669SOL    HW2 2907   4.189   0.021   3.810
  670SOL     OW 2908   2.888   3.122   0.921
  670SOL    HW1 2909   2.938   3.207   0.906
  670SOL    HW2 2910   2.871   3.110   1.018
  671SOL     OW 2911   1.915   6.500   0.634
  671SOL    HW1 2912   1.950   6.555   0.558
  671SOL    HW2 2913   1.970   6.417   0.643
  672SOL     OW 2914   1.070   5.119   1.652
  672SOL    HW1 2915   0.991   5.088   1.599
  672SOL    HW2 2916   1.054   5.212   1.686
  673SOL     OW 2917   0.534   0.336   1.988
  673SOL    HW1 2918   0.531   0.407   1.917
  673SOL    HW2 2919   0.626   0.331   2.026
  674SOL     OW 2920   0.379   2.519   4.963
  674SOL    HW1 2921   0.397   2.615   4.939
  674SOL    HW2 2922   0.296   2.488   4.916
  675SOL     OW 2923   0.555   1.526   3.926
  675SOL    HW1 2924   0.493   1.559   3.997
  675SOL    HW2 2925   0.506   1.465   3.864
  676SOL     OW 2926   3.579   6.028   2.975
  676SOL    HW1 2927   3.649   6.096   2.998
  676SOL    HW2 2928   3.613   5.937   2.997
  677SOL     OW 2929   6.540   1.507   0.281
  677SOL    HW1 2930   6.609   1.508   0.353
  677SOL    HW2 2931   6.506   1.600   0.265
  678SOL     OW 2932   1.862   1.139   5.505
  678SOL    HW1 2933   1.876   1.120   5.408
  678SOL    HW2 2934   1.835   1.234   5.517
  679SOL     OW 2935   4.427   1.587   4.153
  679SOL    HW1 2936   4.425   1.515   4.084
  679SOL    HW2 2937   4.507   1.574   4.212
  680SOL     OW 2938   5.639   5.470   5.653
  680SOL    HW1 2939   5.656   5.559   5.609
  680SOL    HW2 2940   5.561   5.426   5.608
  681SOL     OW 2941   5.501   5.012   1.258
  681SOL    HW1 2942   5.488   5.012   1.159
  681SOL    HW2 2943   5.512   5.106   1.290
  682SOL     OW 2944   1.096   1.129   0.314
  682SOL    HW1 2945   1.193   1.140   0.335
  682SOL    HW2 2946   1.071   1.192   0.240
  683SOL     OW 2947   3.996   3.609   0.725
  683SOL    HW1 2948   3.947   3.574   0.805
  683SOL    HW2 2949   3.955   3.572   0.642
  684SOL     OW 2950   0.238   0.759   6.504
  684SOL    HW1 2951   0.144   0.753   6.536
  684SOL    HW2 2952   0.257   0.851   6.472
  685SOL     OW 2953   4.767   1.336   3.715
  685SOL    HW1 2954   4.754   1.249   3.763
  685SOL    HW2 2955   4.760   1.411   3.780
  686SOL     OW 2956   5.163   2.504   3.795
  686SOL    HW1 2957   5.109   2.588   3.782
  686SOL    HW2 2958   5.228   2.518   3.870
  687SOL     OW 2959   0.461   2.645   4.542
  687SOL    HW1 2960   0.557   2.662   4.519
  687SOL    HW2 2961   0.404   2.667   4.463
  688SOL     OW 2962   1.238   1.817   0.312
  688SOL    HW1 2963   1.147   1.775   0.303
  688SOL    HW2 2964   1.307   1.754   0.277
  689SOL     OW 2965   6.347   3.678   6.598
  689SOL    HW1 2966   6.421   3.676   6.664
  689SOL    HW2 2967   6.327   3.585   6.567
  690SOL     OW 2968   0.111   4.697   2.819
  690SOL    HW1 2969   0.025   4.652   2.843
  690SOL    HW2 2970   0.177   4.684   2.892
  691SOL     OW 2971   2.521   6.752   0.040
  691SOL    HW1 2972   2.498   6.750   0.137
  691SOL    HW2 2973   2.535   6.658   0.008
  692SOL     OW 2974   3.019   6.383   3.511
  692SOL    HW1 2975   2.950   6.448   3.482
  692SOL    HW2 2976   3.076   6.358   3.433
  693SOL     OW 2977   6.444   0.758   3.240
  693SOL    HW1 2978   6.413   0.723   3.328
  693SOL    HW2 2979   6.405   0.702   3.166
  694SOL     OW 2980   4.207   5.789   2.616
  694SOL    HW1 2981   4.283   5.773   2.553
  694SOL    HW2 2982   4.234   5.764   2.709
  695SOL     OW 2983   3.898   5.960   3.864
  695SOL    HW1 2984   3.826   5.940   3.930
  695SOL    HW2 2985   3.941   6.047   3.887
  696SOL     OW 2986   3.860   4.800   2.268
  696SOL    HW1 2987   3.883   4.727   2.203
  696SOL    HW2 2988   3.772   4.840   2.242
  697SOL     OW 2989   2.103   3.577   3.761
  697SOL    HW1 2990   2.107   3.489   3.807
  697SOL    HW2 2991   2.011   3.616   3.770
  698SOL     OW 2992   5.449   6.573   0.006
  698SOL    HW1 2993   5.412   6.562   6.934
  698SOL    HW2 2994   5.433   6.490   0.058
  699SOL     OW 2995   2.037   3.152   6.438
  699SOL    HW1 2996   2.021   3.219   6.510
  699SOL    HW2 2997   2.034   3.060   6.477
  700SOL     OW 2998   3.280   1.176   2.863
  700SOL    HW1 2999   3.352   1.177   2.793
  700SOL    HW2 3000   3.196   1.213   2.824
  701SOL     OW 3001   6.503   3.295   5.743
  701SOL    HW1 3002   6.443   3.369   5.712
  701SOL    HW2 3003   6.513   3.228   5.669
  702SOL     OW 3004   1.255   5.719   5.022
  702SOL    HW1 3005   1.187   5.737   4.951
  702SOL    HW2 3006   1.264   5.800   5.081
  703SOL     OW 3007   3.395   4.277   6.262
  703SOL    HW1 3008   3.323   4.280   6.193
  703SOL    HW2 3009   3.402   4.184   6.299
  704SOL     OW 3010   1.525   2.142   0.252
  704SOL    HW1 3011   1.531   2.241   0.265
  704SOL    HW2 3012   1.617   2.104   0.243
  705SOL     OW 3013   6.128   6.246   2.094
  705SOL    HW1 3014   6.215   6.263   2.141
  705SOL    HW2 3015   6.056   6.229   2.161
  706SOL     OW 3016   4.438   2.495   5.074
  706SOL    HW1 3017   4.348   2.453   5.062
  706SOL    HW2 3018   4.433   2.565   5.144
  707SOL     OW 3019   4.801   5.414   2.713
  707SOL    HW1 3020   4.831   5.435   2.806
  707SOL    HW2 3021   4.853   5.336   2.678
  708SOL     OW 3022   4.499   6.902   1.506
  708SOL    HW1 3023   4.487   6.910   1.407
  708SOL    HW2 3024   4.426   6.846   1.544
  709SOL     OW 3025   0.587   5.911   1.376
  709SOL    HW1 3026   0.553   5.879   1.465
  709SOL    HW2 3027   0.685   5.892   1.370
  710SOL     OW 3028   4.084   3.075   1.896
  710SOL    HW1 3029   4.143   3.061   1.975
  710SOL    HW2 3030   3.997   3.027   1.911
  711SOL     OW 3031   6.937   3.311   5.638
  711SOL    HW1 3032   6.986   3.390   5.674
  711SOL    HW2 3033   6.860   3.289   5.698
  712SOL     OW 3034   4.531   3.172   1.278
  712SOL    HW1 3035   4.538   3.148   1.181
  712SOL    HW2 3036   4.518   3.271   1.287
  713SOL     OW 3037   4.502   2.329   5.583
  713SOL    HW1 3038   4.425   2.392   5.570
  713SOL    HW2 3039   4.514   2.274   5.500
  714SOL     OW 3040   6.402   4.241   3.397
  714SOL    HW1 3041   6.417   4.215   3.493
  714SOL    HW2 3042   6.376   4.338   3.393
  715SOL     OW 3043   5.706   5.665   0.118
  715SOL    HW1 3044   5.701   5.676   0.217
  715SOL    HW2 3045   5.679   5.750   0.074
  716SOL     OW 3046   0.325   0.652   1.903
  716SOL    HW1 3047   0.287   0.688   1.988
  716SOL    HW2 3048   0.421   0.628   1.916
  717SOL     OW 3049   6.540   4.274   5.740
  717SOL    HW1 3050   6.532   4.371   5.717
  717SOL    HW2 3051   6.634   4.243   5.725
  718SOL     OW 3052   5.217   2.608   6.090
  718SOL    HW1 3053   5.292   2.555   6.049
  718SOL    HW2 3054   5.154   2.637   6.017
  719SOL     OW 3055   6.267   0.679   1.811
  719SOL    HW1 3056   6.205   0.715   1.741
  719SOL    HW2 3057   6.362   0.690   1.781
  720SOL     OW 3058   2.992   0.597   5.864
  720SOL    HW1 3059   2.932   0.596   5.784
  720SOL    HW2 3060   3.032   0.507   5.877
  721SOL     OW 3061   2.577   2.115   3.571
  721SOL    HW1 3062   2.653   2.063   3.609
  721SOL    HW2 3063   2.612   2.189   3.514
  722SOL     OW 3064   3.107   0.427   5.340
  722SOL    HW1 3065   3.031   0.490   5.353
  722SOL    HW2 3066   3.072   0.334   5.330
  723SOL     OW 3067   2.000   4.936   3.187
  723SOL    HW1 3068   1.937   5.012   3.203
  723SOL    HW2 3069   2.069   4.935   3.259
  724SOL     OW 3070   1.018   3.004   4.850
  724SOL    HW1 3071   0.986   3.067   4.780
  724SOL    HW2 3072   1.034   2.914   4.810
  725SOL     OW 3073   2.516   5.517   1.096
  725SOL    HW1 3074   2.525   5.574   1.177
  725SOL    HW2 3075   2.432   5.462   1.102
  726SOL     OW 3076   3.857   5.269   1.385
  726SOL    HW1 3077   3.877   5.229   1.295
  726SOL    HW2 3078   3.928   5.243   1.450
  727SOL     OW 3079   5.796   4.779   5.085
  727SOL    HW1 3080   5.704   4.816   5.082
  727SOL    HW2 3081   5.820   4.743   4.995
  728SOL     OW 3082   6.618   2.778   5.238
  728SOL    HW1 3083   6.693   2.712   5.249
  728SOL    HW2 3084   6.551   2.741   5.173
  729SOL     OW 3085   1.156   2.393   1.310
  729SOL    HW1 3086   1.159   2.307   1.362
  729SOL    HW2 3087   1.200   2.465   1.363
  730SOL     OW 3088   5.375   0.201   4.853
  730SOL    HW1 3089   5.295   0.221   4.909
  730SOL    HW2 3090   5.455   0.244   4.892
  731SOL     OW 3091   5.121   4.176   6.204
  731SOL    HW1 3092   5.039   4.200   6.151
  731SOL    HW2 3093   5.093   4.134   6.290
  732SOL     OW 3094   0.026   2.578   1.492
  732SOL    HW1 3095   0.056   2.518   1.418
  732SOL    HW2 3096   0.012   2.670   1.457
  733SOL     OW 3097   5.512   6.664   5.296
  733SOL    HW1 3098   5.508   6.641   5.394
  733SOL    HW2 3099   5.572   6.599   5.249
  734SOL     OW 3100   6.703   5.248   2.799
  734SOL    HW1 3101   6.638   5.206   2.736
  734SOL    HW2 3102   6.658   5.322   2.849
  735SOL     OW 3103   4.187   1.657   0.310
  735SOL    HW1 3104   4.286   1.655   0.324
  735SOL    HW2 3105   4.141   1.659   0.399
  736SOL     OW 3106   6.695   1.479   3.744
  736SOL    HW1 3107   6.697   1.407   3.814
  736SOL    HW2 3108   6.769   1.465   3.679
  737SOL     OW 3109   4.941   1.738   4.820
  737SOL    HW1 3110   5.006   1.807   4.789
  737SOL    HW2 3111   4.917   1.677   4.744
  738SOL     OW 3112   2.346   4.348   1.476
  738SOL    HW1 3113   2.422   4.374   1.537
  738SOL    HW2 3114   2.362   4.386   1.385
  739SOL     OW 3115   5.235   0.167   4.301
  739SOL    HW1 3116   5.291   0.093   4.338
  739SOL    HW2 3117   5.144   0.164   4.342
  740SOL     OW 3118   6.643   0.842   1.073
  740SOL    HW1 3119   6.684   0.826   0.983
  740SOL    HW2 3120   6.547   0.867   1.061
  741SOL     OW 3121   2.160   6.369   3.181
  741SOL    HW1 3122   2.220   6.396   3.256
  741SOL    HW2 3123   2.138   6.449   3.125
  742SOL     OW 3124   2.830   6.601   2.413
  742SOL    HW1 3125   2.887   6.589   2.332
  742SOL    HW2 3126   2.853   6.531   2.481
  743SOL     OW 3127   6.813   4.863   2.968
  743SOL    HW1 3128   6.819   4.862   3.067
  743SOL    HW2 3129   6.857   4.945   2.932
  744SOL     OW 3130   5.918   0.416   0.049
  744SOL    HW1 3131   5.966   0.340   0.093
  744SOL    HW2 3132   5.924   0.497   0.107
  745SOL     OW 3133   1.624   4.891   4.658
  745SOL    HW1 3134   1.691   4.862   4.727
  745SOL    HW2 3135   1.532   4.889   4.699
  746SOL     OW 3136   0.016   3.774   6.997
  746SOL    HW1 3137   6.988   3.818   0.052
  746SOL    HW2 3138   0.035   3.840   6.925
  747SOL     OW 3139   3.873   6.433   4.350
  747SOL    HW1 3140   3.949   6.392   4.400
  747SOL    HW2 3141   3.831   6.364   4.291
  748SOL     OW 3142   3.776   5.139   2.090
  748SOL    HW1 3143   3.785   5.075   2.014
  748SOL    HW2 3144   3.846   5.118   2.159
  749SOL     OW 3145   5.786   3.755   5.330
  749SOL    HW1 3146   5.882   3.782   5.338
  749SOL    HW2 3147   5.731   3.836   5.310
  750SOL     OW 3148   1.931   2.450   1.362
  750SOL    HW1 3149   1.919   2.508   1.281
  750SOL    HW2 3150   2.005   2.487   1.419
  751SOL     OW 3151   3.740   2.360   0.246
  751SOL    HW1 3152   3.791   2.371   0.331
  751SOL    HW2 3153   3.758   2.437   0.186
  752SOL     OW 3154   3.175   1.074   1.674
  752SOL    HW1 3155   3.156   0.979   1.649
  752SOL    HW2 3156   3.155   1.133   1.596
  753SOL     OW 3157   2.333   2.849   5.703
  753SOL    HW1 3158   2.396   2.913   5.660
  753SOL    HW2 3159   2.248   2.844   5.651
  754SOL     OW 3160   5.041   2.696   5.400
  754SOL    HW1 3161   5.007   2.628   5.334
  754SOL    HW2 3162   5.057   2.651   5.487
  755SOL     OW 3163   1.630   4.788   6.137
  755SOL    HW1 3164   1.665   4.695   6.145
  755SOL    HW2 3165   1.642   4.836   6.224
  756SOL     OW 3166   2.926   6.720   6.441
  756SOL    HW1 3167   2.904   6.817   6.449
  756SOL    HW2 3168   2.959   6.686   6.528
  757SOL     OW 3169   0.149   0.639   3.915
  757SOL    HW1 3170   0.066   0.615   3.865
  757SOL    HW2 3171   0.190   0.556   3.954
  758SOL     OW 3172   3.619   0.772   2.601
  758SOL    HW1 3173   3.533   0.721   2.600
  758SOL    HW2 3174   3.693   0.713   2.635
  759SOL     OW 3175   6.907   1.249   1.644
  759SOL    HW1 3176   6.973   1.205   1.705
  759SOL    HW2 3177   6.940   1.339   1.618
  760SOL     OW 3178   5.999   0.058   4.961
  760SOL    HW1 3179   5.948   0.013   5.034
  760SOL    HW2 3180   5.960   0.033   4.873
  761SOL     OW 3181   4.989   3.652   6.111
  761SOL    HW1 3182   5.051   3.648   6.190
  761SOL    HW2 3183   5.015   3.730   6.053
  762SOL     OW 3184   1.981   0.197   4.500
  762SOL    HW1 3185   1.964   0.170   4.406
  762SOL    HW2 3186   1.990   0.297   4.505
  763SOL     OW 3187   4.272   5.295   6.432
  763SOL    HW1 3188   4.354   5.251   6.396
  763SOL    HW2 3189   4.269   5.284   6.531
  764SOL     OW 3190   5.020   0.580   5.191
  764SOL    HW1 3191   4.934   0.606   5.235
  764SOL    HW2 3192   5.001   0.540   5.101
  765SOL     OW 3193   1.978   5.998   1.502
  765SOL    HW1 3194   1.954   5.906   1.471
  765SOL    HW2 3195   1.921   6.065   1.455
  766SOL     OW 3196   2.676   2.853   5.916
  766SOL    HW1 3197   2.647   2.801   5.835
  766SOL    HW2 3198   2.598   2.906   5.951
  767SOL     OW 3199   6.431   5.633   1.675
  767SOL    HW1 3200   6.456   5.588   1.589
  767SOL    HW2 3201   6.492   5.710   1.691
  768SOL     OW 3202   2.585   6.670   2.487
  768SOL    HW1 3203   2.545   6.578   2.491
  768SOL    HW2 3204   2.685   6.662   2.482
  769SOL     OW 3205   2.474   0.669   4.931
  769SOL    HW1 3206   2.506   0.581   4.894
  769SOL    HW2 3207   2.508   0.743   4.874
  770SOL     OW 3208   2.120   4.869   2.943
  770SOL    HW1 3209   2.069   4.797   2.896
  770SOL    HW2 3210   2.067   4.902   3.022
  771SOL     OW 3211   1.400   5.463   2.497
  771SOL    HW1 3212   1.330   5.534   2.497
  771SOL    HW2 3213   1.358   5.374   2.507
  772SOL     OW 3214   5.403   5.749   6.964
  772SOL    HW1 3215   5.450   5.750   0.032
  772SOL    HW2 3216   5.435   5.825   6.908
  773SOL     OW 3217   6.856   4.369   4.029
  773SOL    HW1 3218   6.928   4.312   4.069
  773SOL    HW2 3219   6.848   4.348   3.931
  774SOL     OW 3220   1.890   1.486   1.753
  774SOL    HW1 3221   1.965   1.504   1.817
  774SOL    HW2 3222   1.887   1.559   1.685
  775SOL     OW 3223   1.200   2.445   3.630
  775SOL    HW1 3224   1.130   2.402   3.687
  775SOL    HW2 3225   1.220   2.537   3.664
  776SOL     OW 3226   1.335   0.243   6.049
  776SOL    HW1 3227   1.269   0.266   5.978
  776SOL    HW2 3228   1.401   0.318   6.059
  777SOL     OW 3229   2.014   4.492   1.882
  777SOL    HW1 3230   2.093   4.466   1.827
  777SOL    HW2 3231   1.936   4.435   1.856
  778SOL     OW 3232   2.213   1.637   2.140
  778SOL    HW1 3233   2.313   1.632   2.139
  778SOL    HW2 3234   2.184   1.732   2.126
  779SOL     OW 3235   6.247   2.476   1.689
  779SOL    HW1 3236   6.313   2.541   1.727
  779SOL    HW2 3237   6.160   2.485   1.739
  780SOL     OW 3238   0.067   4.114   3.799
  780SOL    HW1 3239   7.006   4.057   3.810
  780SOL    HW2 3240   0.123   4.079   3.724
  781SOL     OW 3241   6.070   6.840   6.942
  781SOL    HW1 3242   6.139   6.868   7.010
  781SOL    HW2 3243   6.105   6.858   6.850
  782SOL     OW 3244   1.762   3.707   6.351
  782SOL    HW1 3245   1.756   3.748   6.442
  782SOL    HW2 3246   1.826   3.630   6.354
  783SOL     OW 3247   4.627   5.078   1.816
  783SOL    HW1 3248   4.556   5.148   1.829
  783SOL    HW2 3249   4.694   5.085   1.890
  784SOL     OW 3250   4.638   5.005   0.643
  784SOL    HW1 3251   4.655   4.943   0.719
  784SOL    HW2 3252   4.697   4.981   0.566
  785SOL     OW 3253   0.240   2.726   3.571
  785SOL    HW1 3254   0.317   2.681   3.616
  785SOL    HW2 3255   0.266   2.749   3.477
  786SOL     OW 3256   1.368   1.066   2.975
  786SOL    HW1 3257   1.420   0.981   2.981
  786SOL    HW2 3258   1.285   1.059   3.029
  787SOL     OW 3259   2.073   0.492   6.784
  787SOL    HW1 3260   2.024   0.527   6.704
  787SOL    HW2 3261   2.091   0.567   6.848
  788SOL     OW 3262   3.856   2.263   6.779
  788SOL    HW1 3263   3.801   2.256   6.863
  788SOL    HW2 3264   3.797   2.292   6.704
  789SOL     OW 3265   4.551   4.142   0.495
  789SOL    HW1 3266   4.466   4.191   0.518
  789SOL    HW2 3267   4.547   4.111   0.400
  790SOL     OW 3268   2.385   1.458   3.807
  790SOL    HW1 3269   2.469   1.499   3.843
  790SOL    HW2 3270   2.308   1.518   3.829
  791SOL     OW 3271   2.002   5.840   3.740
  791SOL    HW1 3272   2.004   5.862   3.643
  791SOL    HW2 3273   2.065   5.765   3.759
  792SOL     OW 3274   0.763   0.853   1.053
  792SOL    HW1 3275   0.686   0.886   1.107
  792SOL    HW2 3276   0.847   0.863   1.106
  793SOL     OW 3277   4.804   5.084   3.405
  793SOL    HW1 3278   4.708   5.055   3.411
  793SOL    HW2 3279   4.856   5.017   3.353
  794SOL     OW 3280   3.408   4.120   5.909
  794SOL    HW1 3281   3.309   4.112   5.919
  794SOL    HW2 3282   3.431   4.132   5.813
  795SOL     OW 3283   3.008   6.735   4.299
  795SOL    HW1 3284   2.992   6.745   4.200
  795SOL    HW2 3285   3.077   6.801   4.328
  796SOL     OW 3286   0.094   1.712   6.805
  796SOL    HW1 3287   0.143   1.641   6.754
  796SOL    HW2 3288   0.155   1.750   6.875
  797SOL     OW 3289   5.709   2.478   0.817
  797SOL    HW1 3290   5.767   2.479   0.898
  797SOL    HW2 3291   5.669   2.388   0.806
  798SOL     OW 3292   3.730   5.862   2.028
  798SOL    HW1 3293   3.729   5.954   2.068
  798SOL    HW2 3294   3.637   5.834   2.004
  799SOL     OW 3295   0.028   6.503   5.617
  799SOL    HW1 3296   6.971   6.457   5.574
  799SOL    HW2 3297   0.090   6.538   5.547
  800SOL     OW 3298   5.391   1.519   2.785
  800SOL    HW1 3299   5.446   1.598   2.811
  800SOL    HW2 3300   5.353   1.476   2.866
  801SOL     OW 3301   1.706   4.011   4.672
  801SOL    HW1 3302   1.805   3.998   4.670
  801SOL    HW2 3303   1.667   3.958   4.747
  802SOL     OW 3304   3.634   2.387   0.888
  802SOL    HW1 3305   3.555   2.368   0.829
  802SOL    HW2 3306   3.675   2.300   0.917
  803SOL     OW 3307   0.200   6.819   5.459
  803SOL    HW1 3308   0.181   6.729   5.421
  803SOL    HW2 3309   0.122   6.880   5.442
  804SOL     OW 3310   5.924   5.374   6.348
  804SOL    HW1 3311   5.921   5.283   6.305
  804SOL    HW2 3312   5.846   5.385   6.409
  805SOL     OW 3313   2.906   0.238   4.230
  805SOL    HW1 3314   2.836   0.242   4.160
  805SOL    HW2 3315   2.990   0.281   4.196
  806SOL     OW 3316   4.636   1.552   4.310
  806SOL    HW1 3317   4.686   1.465   4.309
  806SOL    HW2 3318   4.700   1.627   4.329
  807SOL     OW 3319   1.371   1.104   5.553
  807SOL    HW1 3320   1.352   1.078   5.647
  807SOL    HW2 3321   1.461   1.071   5.526
  808SOL     OW 3322   3.508   3.467   6.379
  808SOL    HW1 3323   3.545   3.402   6.312
  808SOL    HW2 3324   3.423   3.505   6.345
  809SOL     OW 3325   0.489   4.777   1.388
  809SOL    HW1 3326   0.392   4.800   1.400
  809SOL    HW2 3327   0.508   4.767   1.290
  810SOL     OW 3328   3.784   3.483   0.941
  810SOL    HW1 3329   3.741   3.416   0.880
  810SOL    HW2 3330   3.747   3.473   1.033
  811SOL     OW 3331   4.556   5.306   5.564
  811SOL    HW1 3332   4.516   5.305   5.655
  811SOL    HW2 3333   4.566   5.401   5.533
  812SOL     OW 3334   0.181   1.244   2.457
  812SOL    HW1 3335   0.274   1.208   2.461
  812SOL    HW2 3336   0.115   1.170   2.470
  813SOL     OW 3337   4.081   0.010   4.301
  813SOL    HW1 3338   4.142   0.057   4.237
  813SOL    HW2 3339   4.030   0.078   4.354
  814SOL     OW 3340   5.798   6.494   2.181
  814SOL    HW1 3341   5.800   6.522   2.085
  814SOL    HW2 3342   5.852   6.410   2.192
  815SOL     OW 3343   0.359   4.088   3.390
  815SOL    HW1 3344   0.369   4.178   3.346
  815SOL    HW2 3345   0.440   4.033   3.370
  816SOL     OW 3346   6.413   6.720   0.064
  816SOL    HW1 3347   6.421   6.631   0.020
  816SOL    HW2 3348   6.504   6.759   0.078
  817SOL     OW 3349   1.224   4.877   1.094
  817SOL    HW1 3350   1.195   4.967   1.127
  817SOL    HW2 3351   1.171   4.853   1.013
  818SOL     OW 3352   6.287   2.938   2.664
  818SOL    HW1 3353   6.332   3.000   2.600
  818SOL    HW2 3354   6.278   2.848   2.623
  819SOL     OW 3355   5.704   2.522   2.838
  819SOL    HW1 3356   5.702   2.614   2.798
  819SOL    HW2 3357   5.611   2.491   2.855
  820SOL     OW 3358   3.618   1.884   5.232
  820SOL    HW1 3359   3.656   1.962   5.183
  820SOL    HW2 3360   3.523   1.870   5.203
  821SOL     OW 3361   0.614   4.147   1.201
  821SOL    HW1 3362   0.617   4.098   1.114
  821SOL    HW2 3363   0.519   4.170   1.222
  822SOL     OW 3364   1.395   4.386   3.634
  822SOL    HW1 3365   1.341   4.444   3.573
  822SOL    HW2 3366   1.416   4.300   3.588
  823SOL     OW 3367   4.545   3.674   6.485
  823SOL    HW1 3368   4.618   3.609   6.508
  823SOL    HW2 3369   4.586   3.761   6.459
  824SOL     OW 3370   4.979   1.538   6.488
  824SOL    HW1 3371   5.054   1.474   6.504
  824SOL    HW2 3372   5.008   1.631   6.513
  825SOL     OW 3373   6.714   4.849   1.577
  825SOL    HW1 3374   6.692   4.941   1.610
  825SOL    HW2 3375   6.812   4.832   1.589
  826SOL     OW 3376   4.079   3.075   5.737
  826SOL    HW1 3377   4.160   3.097   5.683
  826SOL    HW2 3378   4.001   3.126   5.702
  827SOL     OW 3379   2.863   4.599   5.488
  827SOL    HW1 3380   2.838   4.537   5.414
  827SOL    HW2 3381   2.789   4.664   5.504
  828SOL     OW 3382   6.108   6.564   6.965
  828SOL    HW1 3383   6.115   6.525   0.037
  828SOL    HW2 3384   6.083   6.661   6.972
  829SOL     OW 3385   4.050   3.793   2.675
  829SOL    HW1 3386   4.091   3.819   2.763
  829SOL    HW2 3387   4.029   3.875   2.623
  830SOL     OW 3388   4.973   5.272   6.243
  830SOL    HW1 3389   5.031   5.191   6.256
  830SOL    HW2 3390   4.997   5.341   6.312
  831SOL     OW 3391   6.514   0.367   0.039
  831SOL    HW1 3392   6.426   0.413   0.057
  831SOL    HW2 3393   6.588   0.435   0.043
  832SOL     OW 3394   3.535   0.761   2.329
  832SOL    HW1 3395   3.622   0.734   2.288
  832SOL    HW2 3396   3.550   0.790   2.424
  833SOL     OW 3397   1.320   3.771   5.943
  833SOL    HW1 3398   1.289   3.862   5.971
  833SOL    HW2 3399   1.240   3.713   5.924
  834SOL     OW 3400   3.680   3.723   0.716
  834SOL    HW1 3401   3.691   3.633   0.758
  834SOL    HW2 3402   3.721   3.722   0.625
  835SOL     OW 3403   3.733   0.244   5.473
  835SOL    HW1 3404   3.749   0.233   5.571
  835SOL    HW2 3405   3.802   0.192   5.423
  836SOL     OW 3406   4.013   5.892   5.849
  836SOL    HW1 3407   4.105   5.908   5.815
  836SOL    HW2 3408   3.965   5.829   5.788
  837SOL     OW 3409   5.527   0.443   0.814
  837SOL    HW1 3410   5.489   0.526   0.774
  837SOL    HW2 3411   5.616   0.423   0.772
  838SOL     OW 3412   2.355   0.486   4.284
  838SOL    HW1 3413   2.283   0.428   4.247
  838SOL    HW2 3414   2.398   0.440   4.362
  839SOL     OW 3415   1.257   2.203   2.654
  839SOL    HW1 3416   1.214   2.169   2.571
  839SOL    HW2 3417   1.297   2.293   2.637
  840SOL     OW 3418   6.604   5.655   0.912
  840SOL    HW1 3419   6.659   5.676   0.831
  840SOL    HW2 3420   6.660   5.671   0.994
  841SOL     OW 3421   3.637   4.891   6.854
  841SOL    HW1 3422   3.590   4.849   6.776
  841SOL    HW2 3423   3.736   4.879   6.843
  842SOL     OW 3424   4.035   0.472   4.101
  842SOL    HW1 3425   4.046   0.537   4.026
  842SOL    HW2 3426   3.944   0.482   4.141
  843SOL     OW 3427   0.772   1.587   1.009
  843SOL    HW1 3428   0.814   1.601   1.098
  843SOL    HW2 3429   0.683   1.543   1.021
  844SOL     OW 3430   5.243   0.641   0.413
  844SOL    HW1 3431   5.227   0.694   0.497
  844SOL    HW2 3432   5.339   0.612   0.410
  845SOL     OW 3433   4.898   4.353   4.985
  845SOL    HW1 3434   4.960   4.384   4.914
  845SOL    HW2 3435   4.875   4.257   4.971
  846SOL     OW 3436   2.034   1.925   6.218
  846SOL    HW1 3437   2.081   1.846   6.257
  846SOL    HW2 3438   2.093   2.006   6.227
  847SOL     OW 3439   1.164   3.269   1.432
  847SOL    HW1 3440   1.125   3.182   1.461
  847SOL    HW2 3441   1.240   3.294   1.493
  848SOL     OW 3442   6.095   0.457   5.963
  848SOL    HW1 3443   6.031   0.504   5.902
  848SOL    HW2 3444   6.136   0.522   6.026
  849SOL     OW 3445   0.199   3.313   6.205
  849SOL    HW1 3446   0.161   3.332   6.296
  849SOL    HW2 3447   0.194   3.215   6.187
  850SOL     OW 3448   5.173   0.735   3.244
  850SOL    HW1 3449   5.228   0.750   3.326
  850SOL    HW2 3450   5.162   0.822   3.196
  851SOL     OW 3451   6.916   1.960   2.831
  851SOL    HW1 3452   6.834   1.997   2.786
  851SOL    HW2 3453   6.970   2.036   2.868
  852SOL     OW 3454   0.822   3.655   0.178
  852SOL    HW1 3455   0.779   3.722   0.239
  852SOL    HW2 3456   0.767   3.572   0.177
  853SOL     OW 3457   1.250   4.499   1.193
  853SOL    HW1 3458   1.168   4.546   1.161
  853SOL    HW2 3459   1.322   4.566   1.212
  854SOL     OW 3460   5.026   5.453   0.632
  854SOL    HW1 3461   4.986   5.370   0.671
  854SOL    HW2 3462   4.964   5.490   0.562
  855SOL     OW 3463   0.009   6.949   1.796
  855SOL    HW1 3464   7.017   0.007   1.858
  855SOL    HW2 3465   0.075   6.972   1.725
  856SOL     OW 3466   1.337   2.483   5.581
  856SOL    HW1 3467   1.331   2.567   5.527
  856SOL    HW2 3468   1.338   2.404   5.520
  857SOL     OW 3469   5.801   4.671   2.236
  857SOL    HW1 3470   5.754   4.699   2.153
  857SOL    HW2 3471   5.897   4.700   2.231
  858SOL     OW 3472   2.481   3.538   1.145
  858SOL    HW1 3473   2.452   3.619   1.092
  858SOL    HW2 3474   2.516   3.567   1.234
  859SOL     OW 3475   6.301   5.851   5.471
  859SOL    HW1 3476   6.300   5.929   5.408
  859SOL    HW2 3477   6.264   5.771   5.426
  860SOL     OW 3478   5.682   2.851   0.609
  860SOL    HW1 3479   5.761   2.806   0.652
  860SOL    HW2 3480   5.599   2.802   0.633
  861SOL     OW 3481   2.776   5.767   3.323
  861SOL    HW1 3482   2.686   5.730   3.346
  861SOL    HW2 3483   2.846   5.697   3.340
  862SOL     OW 3484   1.503   3.752   4.737
  862SOL    HW1 3485   1.412   3.793   4.736
  862SOL    HW2 3486   1.569   3.817   4.774
  863SOL     OW 3487   6.503   1.454   0.791
  863SOL    HW1 3488   6.505   1.357   0.816
  863SOL    HW2 3489   6.497   1.510   0.873
  864SOL     OW 3490   4.417   5.298   3.981
  864SOL    HW1 3491   4.337   5.238   3.987
  864SOL    HW2 3492   4.386   5.393   3.973
  865SOL     OW 3493   1.177   6.744   5.738
  865SOL    HW1 3494   1.196   6.838   5.765
  865SOL    HW2 3495   1.083   6.737   5.705
  866SOL     OW 3496   2.158   2.216   2.324
  866SOL    HW1 3497   2.217   2.160   2.383
  866SOL    HW2 3498   2.215   2.277   2.269
  867SOL     OW 3499   4.286   3.545   0.472
  867SOL    HW1 3500   4.347   3.556   0.551
  867SOL    HW2 3501   4.327   3.589   0.392
  868SOL     OW 3502   5.557   1.456   0.680
  868SOL    HW1 3503   5.644   1.420   0.714
  868SOL    HW2 3504   5.563   1.555   0.670
  869SOL     OW 3505   0.369   4.562   2.926
  869SOL    HW1 3506   0.407   4.513   2.848
  869SOL    HW2 3507   0.382   4.508   3.009
  870SOL     OW 3508   4.628   3.059   0.395
  870SOL    HW1 3509   4.694   3.122   0.353
  870SOL    HW2 3510   4.544   3.109   0.416
  871SOL     OW 3511   4.460   2.457   2.774
  871SOL    HW1 3512   4.449   2.450   2.675
  871SOL    HW2 3513   4.522   2.385   2.806
  872SOL     OW 3514   5.644   2.925   4.021
  872SOL    HW1 3515   5.733   2.880   4.033
  872SOL    HW2 3516   5.606   2.902   3.932
  873SOL     OW 3517   5.840   0.086   4.261
  873SOL    HW1 3518   5.778   0.008   4.256
  873SOL    HW2 3519   5.914   0.074   4.195
  874SOL     OW 3520   0.837   4.001   5.958
  874SOL    HW1 3521   0.838   3.942   5.877
  874SOL    HW2 3522   0.797   4.090   5.934
  875SOL     OW 3523   3.887   3.533   0.479
  875SOL    HW1 3524   3.821   3.587   0.427
  875SOL    HW2 3525   3.933   3.469   0.417
  876SOL     OW 3526   0.661   4.345   2.444
  876SOL    HW1 3527   0.634   4.275   2.378
  876SOL    HW2 3528   0.719   4.413   2.399
  877SOL     OW 3529   3.840   4.581   6.308
  877SOL    HW1 3530   3.840   4.662   6.250
  877SOL    HW2 3531   3.802   4.504   6.257
  878SOL     OW 3532   3.583   6.171   5.162
  878SOL    HW1 3533   3.543   6.233   5.229
  878SOL    HW2 3534   3.513   6.107   5.130
  879SOL     OW 3535   3.834   2.107   0.925
  879SOL    HW1 3536   3.926   2.104   0.887
  879SOL    HW2 3537   3.816   2.023   0.975
  880SOL     OW 3538   3.244   4.008   4.584
  880SOL    HW1 3539   3.157   3.974   4.618
  880SOL    HW2 3540   3.301   3.931   4.555
  881SOL     OW 3541   5.239   3.815   5.042
  881SOL    HW1 3542   5.313   3.764   4.998
  881SOL    HW2 3543   5.167   3.752   5.070
  882SOL     OW 3544   0.864   2.634   4.185
  882SOL    HW1 3545   0.850   2.538   4.160
  882SOL    HW2 3546   0.782   2.686   4.162
  883SOL     OW 3547   4.630   7.010   6.485
  883SOL    HW1 3548   4.656   6.955   6.406
  883SOL    HW2 3549   4.654   6.962   6.569
  884SOL     OW 3550   0.107   4.226   0.410
  884SOL    HW1 3551   0.057   4.146   0.445
  884SOL    HW2 3552   0.204   4.215   0.429
  885SOL     OW 3553   4.659   6.056   6.236
  885SOL    HW1 3554   4.584   6.120   6.253
  885SOL    HW2 3555   4.621   5.964   6.226
  886SOL     OW 3556   4.188   0.867   1.217
  886SOL    HW1 3557   4.130   0.927   1.162
  886SOL    HW2 3558   4.183   0.774   1.182
  887SOL     OW 3559   3.996   5.509   3.997
  887SOL    HW1 3560   4.036   5.521   3.906
  887SOL    HW2 3561   3.973   5.598   4.036
  888SOL     OW 3562   6.555   5.597   2.549
  888SOL    HW1 3563   6.493   5.532   2.593
  888SOL    HW2 3564   6.625   5.548   2.498
  889SOL     OW 3565   0.895   0.323   5.850
  889SOL    HW1 3566   0.926   0.303   5.943
  889SOL    HW2 3567   0.832   0.252   5.819
  890SOL     OW 3568   1.621   5.455   2.116
  890SOL    HW1 3569   1.522   5.441   2.115
  890SOL    HW2 3570   1.643   5.540   2.068
  891SOL     OW 3571   6.445   3.626   0.483
  891SOL    HW1 3572   6.480   3.532   0.480
  891SOL    HW2 3573   6.368   3.630   0.546
  892SOL     OW 3574   3.611   4.757   5.821
  892SOL    HW1 3575   3.611   4.849   5.860
  892SOL    HW2 3576   3.630   4.762   5.723
  893SOL     OW 3577   2.351   0.693   2.494
  893SOL    HW1 3578   2.411   0.746   2.554
  893SOL    HW2 3579   2.347   0.599   2.526
  894SOL     OW 3580   0.870   2.698   3.464
  894SOL    HW1 3581   0.821   2.648   3.392
  894SOL    HW2 3582   0.947   2.747   3.423
  895SOL     OW 3583   0.907   5.267   3.710
  895SOL    HW1 3584   0.846   5.344   3.726
  895SOL    HW2 3585   0.984   5.297   3.653
  896SOL     OW 3586   5.852   6.762   1.219
  896SOL    HW1 3587   5.775   6.704   1.247
  896SOL    HW2 3588   5.932   6.705   1.202
  897SOL     OW 3589   4.273   0.863   6.631
  897SOL    HW1 3590   4.181   0.896   6.650
  897SOL    HW2 3591   4.335   0.889   6.704
  898SOL     OW 3592   3.556   6.605   2.909
  898SOL    HW1 3593   3.622   6.582   2.838
  898SOL    HW2 3594   3.579   6.695   2.947
  899SOL     OW 3595   0.514   5.511   1.057
  899SOL    HW1 3596   0.596   5.565   1.074
  899SOL    HW2 3597   0.480   5.475   1.144
  900SOL     OW 3598   4.875   5.989   0.242
  900SOL    HW1 3599   4.952   5.934   0.272
  900SOL    HW2 3600   4.888   6.016   0.147
  901SOL     OW 3601   1.179   1.019   5.102
  901SOL    HW1 3602   1.214   1.069   5.181
  901SOL    HW2 3603   1.095   1.063   5.070
  902SOL     OW 3604   0.908   2.685   0.783
  902SOL    HW1 3605   0.960   2.616   0.733
  902SOL    HW2 3606   0.824   2.707   0.733
  903SOL     OW 3607   0.320   3.547   6.551
  903SOL    HW1 3608   0.327   3.532   6.650
  903SOL    HW2 3609   0.335   3.644   6.531
  904SOL     OW 3610   2.448   2.399   2.842
  904SOL    HW1 3611   2.457   2.494   2.873
  904SOL    HW2 3612   2.368   2.391   2.782
  905SOL     OW 3613   5.096   3.803   5.887
  905SOL    HW1 3614   5.154   3.884   5.896
  905SOL    HW2 3615   5.032   3.815   5.811
  906SOL     OW 3616   0.786   3.078   6.703
  906SOL    HW1 3617   0.858   3.011   6.685
  906SOL    HW2 3618   0.814   3.136   6.780
  907SOL     OW 3619   4.876   2.427   2.457
  907SOL    HW1 3620   4.891   2.416   2.358
  907SOL    HW2 3621   4.865   2.525   2.477
  908SOL     OW 3622   2.289   4.936   2.584
  908SOL    HW1 3623   2.267   5.032   2.605
  908SOL    HW2 3624   2.372   4.932   2.530
  909SOL     OW 3625   2.827   5.939   1.900
  909SOL    HW1 3626   2.769   6.008   1.855
  909SOL    HW2 3627   2.824   5.952   1.999
  910SOL     OW 3628   2.977   1.002   0.487
  910SOL    HW1 3629   2.982   1.065   0.410
  910SOL    HW2 3630   3.028   1.039   0.564
  911SOL     OW 3631   6.786   5.639   0.354
  911SOL    HW1 3632   6.766   5.664   0.259
  911SOL    HW2 3633   6.820   5.719   0.403
  912SOL     OW 3634   5.217   0.477   3.764
  912SOL    HW1 3635   5.242   0.385   3.795
  912SOL    HW2 3636   5.248   0.490   3.670
  913SOL     OW 3637   2.183   0.941   3.623
  913SOL    HW1 3638   2.271   0.901   3.598
  913SOL    HW2 3639   2.189   1.041   3.614
  914SOL     OW 3640   2.012   6.012   5.241
  914SOL    HW1 3641   1.940   5.954   5.278
  914SOL    HW2 3642   2.070   5.959   5.180
  915SOL     OW 3643   1.037   3.187   0.829
  915SOL    HW1 3644   0.964   3.237   0.875
  915SOL    HW2 3645   1.119   3.188   0.886
  916SOL     OW 3646   1.720   2.963   2.297
  916SOL    HW1 3647   1.724   2.960   2.197
  916SOL    HW2 3648   1.790   2.903   2.335
  917SOL     OW 3649   5.674   0.934   2.297
  917SOL    HW1 3650   5.722   0.864   2.351
  917SOL    HW2 3651   5.597   0.970   2.349
  918SOL     OW 3652   3.236   0.295   0.771
  918SOL    HW1 3653   3.246   0.292   0.672
  918SOL    HW2 3654   3.170   0.226   0.800
  919SOL     OW 3655   6.377   6.031   2.895
  919SOL    HW1 3656   6.396   6.087   2.814
  919SOL    HW2 3657   6.447   6.047   2.964
  920SOL     OW 3658   2.167   5.140   2.870
  920SOL    HW1 3659   2.111   5.216   2.903
  920SOL    HW2 3660   2.117   5.054   2.880
  921SOL     OW 3661   4.695   4.330   3.315
  921SOL    HW1 3662   4.730   4.236   3.308
  921SOL    HW2 3663   4.762   4.387   3.362
  922SOL     OW 3664   3.366   3.525   5.926
  922SOL    HW1 3665   3.453   3.502   5.883
  922SOL    HW2 3666   3.306   3.568   5.858
  923SOL     OW 3667   3.120   4.892   5.980
  923SOL    HW1 3668   3.206   4.840   5.975
  923SOL    HW2 3669   3.043   4.830   5.965
  924SOL     OW 3670   5.897   2.509   3.027
  924SOL    HW1 3671   5.938   2.595   2.998
  924SOL    HW2 3672   5.817   2.490   2.970
  925SOL     OW 3673   0.449   1.622   6.910
  925SOL    HW1 3674   0.377   1.586   6.851
  925SOL    HW2 3675   0.538   1.589   6.879
  926SOL     OW 3676   6.192   1.079   0.937
  926SOL    HW1 3677   6.239   1.044   0.855
  926SOL    HW2 3678   6.133   1.007   0.974
  927SOL     OW 3679   6.307   3.983   3.015
  927SOL    HW1 3680   6.259   3.933   3.087
  927SOL    HW2 3681   6.397   4.011   3.048
  928SOL     OW 3682   1.126   5.806   0.775
  928SOL    HW1 3683   1.203   5.866   0.751
  928SOL    HW2 3684   1.049   5.827   0.715
  929SOL     OW 3685   0.446   0.882   0.971
  929SOL    HW1 3686   0.507   0.939   0.917
  929SOL    HW2 3687   0.452   0.787   0.939
  930SOL     OW 3688   5.462   5.849   3.844
  930SOL    HW1 3689   5.549   5.898   3.834
  930SOL    HW2 3690   5.468   5.788   3.923
  931SOL     OW 3691   6.201   2.296   3.609
  931SOL    HW1 3692   6.172   2.262   3.519
  931SOL    HW2 3693   6.224   2.393   3.602
  932SOL     OW 3694   3.024   6.682   3.175
  932SOL    HW1 3695   3.076   6.673   3.261
  932SOL    HW2 3696   3.054   6.612   3.111
  933SOL     OW 3697   1.379   6.016   3.229
  933SOL    HW1 3698   1.323   6.027   3.147
  933SOL    HW2 3699   1.458   6.078   3.224
  934SOL     OW 3700   2.193   0.092   5.951
  934SOL    HW1 3701   2.290   0.080   5.929
  934SOL    HW2 3702   2.179   0.184   5.987
  935SOL     OW 3703   4.529   4.821   4.626
  935SOL    HW1 3704   4.547   4.907   4.672
  935SOL    HW2 3705   4.437   4.789   4.650
  936SOL     OW 3706   1.181   0.358   5.826
  936SOL    HW1 3707   1.107   0.326   5.766
  936SOL    HW2 3708   1.183   0.458   5.827
  937SOL     OW 3709   5.068   1.038   5.080
  937SOL    HW1 3710   5.052   1.091   5.164
  937SOL    HW2 3711   5.002   1.067   5.010
  938SOL     OW 3712   6.721   5.153   5.764
  938SOL    HW1 3713   6.742   5.229   5.824
  938SOL    HW2 3714   6.669   5.084   5.814
  939SOL     OW 3715   6.164   0.229   5.376
  939SOL    HW1 3716   6.107   0.161   5.422
  939SOL    HW2 3717   6.233   0.264   5.439
  940SOL     OW 3718   0.351   2.478   2.104
  940SOL    HW1 3719   0.253   2.465   2.086
  940SOL    HW2 3720   0.362   2.530   2.189
  941SOL     OW 3721   5.199   1.188   5.896
  941SOL    HW1 3722   5.120   1.173   5.955
  941SOL    HW2 3723   5.274   1.128   5.926
  942SOL     OW 3724   5.237   6.668   3.493
  942SOL    HW1 3725   5.234   6.617   3.579
  942SOL    HW2 3726   5.332   6.680   3.464
  943SOL     OW 3727   2.124   3.330   3.852
  943SOL    HW1 3728   2.139   3.271   3.773
  943SOL    HW2 3729   2.126   3.276   3.935
  944SOL     OW 3730   0.523   4.073   5.775
  944SOL    HW1 3731   0.521   3.988   5.829
  944SOL    HW2 3732   0.616   4.087   5.740
  945SOL     OW 3733   6.142   4.274   4.799
  945SOL    HW1 3734   6.214   4.206   4.784
  945SOL    HW2 3735   6.053   4.229   4.799
  946SOL     OW 3736   5.118   2.528   6.447
  946SOL    HW1 3737   5.123   2.612   6.393
  946SOL    HW2 3738   5.027   2.488   6.437
  947SOL     OW 3739   3.884   3.001   4.041
  947SOL    HW1 3740   3.906   3.037   4.132
  947SOL    HW2 3741   3.920   3.063   3.971
  948SOL     OW 3742   3.804   0.356   1.364
  948SOL    HW1 3743   3.900   0.363   1.339
  948SOL    HW2 3744   3.792   0.280   1.429
  949SOL     OW 3745   0.991   6.505   6.510
  949SOL    HW1 3746   1.028   6.464   6.427
  949SOL    HW2 3747   0.904   6.460   6.533
  950SOL     OW 3748   4.729   5.324   1.718
  950SOL    HW1 3749   4.699   5.229   1.714
  950SOL    HW2 3750   4.651   5.383   1.736
  951SOL     OW 3751   2.126   1.656   4.092
  951SOL    HW1 3752   2.031   1.672   4.119
  951SOL    HW2 3753   2.132   1.650   3.992
  952SOL     OW 3754   5.142   1.541   3.205
  952SOL    HW1 3755   5.130   1.519   3.302
  952SOL    HW2 3756   5.053   1.564   3.165
  953SOL     OW 3757   5.470   5.154   4.237
  953SOL    HW1 3758   5.385   5.166   4.288
  953SOL    HW2 3759   5.456   5.184   4.142
  954SOL     OW 3760   4.225   5.295   0.396
  954SOL    HW1 3761   4.165   5.355   0.449
  954SOL    HW2 3762   4.171   5.221   0.355
  955SOL     OW 3763   0.167   3.620   3.426
  955SOL    HW1 3764   0.118   3.544   3.384
  955SOL    HW2 3765   0.195   3.685   3.355
  956SOL     OW 3766   6.653   1.829   2.556
  956SOL    HW1 3767   6.610   1.826   2.466
  956SOL    HW2 3768   6.740   1.878   2.548
  957SOL     OW 3769   6.405   4.214   5.024
  957SOL    HW1 3770   6.444   4.181   4.939
  957SOL    HW2 3771   6.306   4.205   5.021
  958SOL     OW 3772   4.331   1.877   1.672
  958SOL    HW1 3773   4.305   1.965   1.633
  958SOL    HW2 3774   4.249   1.824   1.694
  959SOL     OW 3775   3.895   5.527   2.908
  959SOL    HW1 3776   3.967   5.489   2.849
  959SOL    HW2 3777   3.832   5.453   2.934
  960SOL     OW 3778   1.106   6.139   1.562
  960SOL    HW1 3779   1.078   6.196   1.485
  960SOL    HW2 3780   1.087   6.187   1.647
  961SOL     OW 3781   5.289   6.947   3.698
  961SOL    HW1 3782   5.346   0.008   3.702
  961SOL    HW2 3783   5.228   6.952   3.619
  962SOL     OW 3784   0.621   0.939   5.272
  962SOL    HW1 3785   0.625   0.942   5.172
  962SOL    HW2 3786   0.526   0.950   5.302
  963SOL     OW 3787   6.992   1.921   6.657
  963SOL    HW1 3788   0.007   2.014   6.663
  963SOL    HW2 3789   0.008   1.867   6.733
  964SOL     OW 3790   5.859   4.276   0.371
  964SOL    HW1 3791   5.855   4.186   0.414
  964SOL    HW2 3792   5.850   4.267   0.272
  965SOL     OW 3793   5.301   2.110   1.163
  965SOL    HW1 3794   5.255   2.111   1.074
  965SOL    HW2 3795   5.233   2.109   1.236
  966SOL     OW 3796   5.271   1.993   2.175
  966SOL    HW1 3797   5.280   2.048   2.258
  966SOL    HW2 3798   5.189   1.935   2.182
  967SOL     OW 3799   2.396   4.483   1.227
  967SOL    HW1 3800   2.486   4.461   1.189
  967SOL    HW2 3801   2.331   4.497   1.152
  968SOL     OW 3802   3.582   1.148   1.421
  968SOL    HW1 3803   3.549   1.081   1.355
  968SOL    HW2 3804   3.654   1.108   1.477
  969SOL     OW 3805   3.194   6.058   6.146
  969SOL    HW1 3806   3.289   6.049   6.176
  969SOL    HW2 3807   3.158   6.145   6.180
  970SOL     OW 3808   5.250   0.544   5.767
  970SOL    HW1 3809   5.167   0.525   5.715
  970SOL    HW2 3810   5.260   0.643   5.778
  971SOL     OW 3811   6.378   2.155   3.095
  971SOL    HW1 3812   6.337   2.219   3.031
  971SOL    HW2 3813   6.357   2.184   3.189
  972SOL     OW 3814   5.307   3.611   2.176
  972SOL    HW1 3815   5.313   3.692   2.117
  972SOL    HW2 3816   5.310   3.639   2.272
  973SOL     OW 3817   0.102   4.607   0.406
  973SOL    HW1 3818   0.159   4.540   0.452
  973SOL    HW2 3819   0.127   4.699   0.435
  974SOL     OW 3820   5.266   6.673   2.231
  974SOL    HW1 3821   5.214   6.758   2.231
  974SOL    HW2 3822   5.212   6.601   2.276
  975SOL     OW 3823   0.934   6.728   6.657
  975SOL    HW1 3824   0.968   6.639   6.625
  975SOL    HW2 3825   0.946   6.796   6.584
  976SOL     OW 3826   6.758   3.497   2.972
  976SOL    HW1 3827   6.858   3.490   2.979
  976SOL    HW2 3828   6.718   3.490   3.063
  977SOL     OW 3829   1.390   0.781   2.299
  977SOL    HW1 3830   1.360   0.800   2.392
  977SOL    HW2 3831   1.411   0.683   2.291
  978SOL     OW 3832   4.353   3.807   5.861
  978SOL    HW1 3833   4.339   3.718   5.903
  978SOL    HW2 3834   4.432   3.852   5.903
  979SOL     OW 3835   0.130   2.148   0.857
  979SOL    HW1 3836   0.108   2.183   0.766
  979SOL    HW2 3837   0.202   2.203   0.898
  980SOL     OW 3838   4.396   2.303   4.389
  980SOL    HW1 3839   4.315   2.245   4.389
  980SOL    HW2 3840   4.471   2.256   4.341
  981SOL     OW 3841   0.172   1.908   5.179
  981SOL    HW1 3842   0.225   1.983   5.220
  981SOL    HW2 3843   0.182   1.910   5.080
  982SOL     OW 3844   2.751   2.340   4.292
  982SOL    HW1 3845   2.729   2.412   4.227
  982SOL    HW2 3846   2.814   2.275   4.250
  983SOL     OW 3847   5.785   2.366   5.421
  983SOL    HW1 3848   5.745   2.375   5.512
  983SOL    HW2 3849   5.836   2.280   5.416
  984SOL     OW 3850   2.152   1.487   4.938
  984SOL    HW1 3851   2.116   1.505   4.847
  984SOL    HW2 3852   2.240   1.534   4.950
  985SOL     OW 3853   5.666   3.998   5.261
  985SOL    HW1 3854   5.580   3.958   5.230
  985SOL    HW2 3855   5.691   4.074   5.201
  986SOL     OW 3856   6.022   4.681   1.174
  986SOL    HW1 3857   6.007   4.742   1.252
  986SOL    HW2 3858   5.991   4.589   1.197
  987SOL     OW 3859   4.594   6.900   1.939
  987SOL    HW1 3860   4.688   6.927   1.960
  987SOL    HW2 3861   4.543   6.979   1.905
  988SOL     OW 3862   3.391   3.553   2.617
  988SOL    HW1 3863   3.429   3.481   2.676
  988SOL    HW2 3864   3.292   3.556   2.627
  989SOL     OW 3865   5.997   1.146   5.953
  989SOL    HW1 3866   5.910   1.193   5.934
  989SOL    HW2 3867   5.979   1.049   5.965
  990SOL     OW 3868   3.783   0.719   2.177
  990SOL    HW1 3869   3.855   0.754   2.236
  990SOL    HW2 3870   3.796   0.755   2.084
  991SOL     OW 3871   0.859   2.869   5.490
  991SOL    HW1 3872   0.943   2.852   5.542
  991SOL    HW2 3873   0.817   2.781   5.467
  992SOL     OW 3874   6.887   2.801   2.146
  992SOL    HW1 3875   6.869   2.723   2.086
  992SOL    HW2 3876   6.802   2.829   2.190
  993SOL     OW 3877   0.678   4.574   1.223
  993SOL    HW1 3878   0.739   4.526   1.286
  993SOL    HW2 3879   0.733   4.623   1.156
  994SOL     OW 3880   4.036   4.421   1.420
  994SOL    HW1 3881   3.989   4.337   1.447
  994SOL    HW2 3882   3.969   4.491   1.396
  995SOL     OW 3883   3.908   3.004   4.935
  995SOL    HW1 3884   3.813   2.974   4.947
  995SOL    HW2 3885   3.955   3.003   5.023
  996SOL     OW 3886   2.883   4.983   4.514
  996SOL    HW1 3887   2.902   4.938   4.427
  996SOL    HW2 3888   2.814   4.930   4.564
  997SOL     OW 3889   1.101   0.909   2.845
  997SOL    HW1 3890   1.153   0.957   2.916
  997SOL    HW2 3891   1.142   0.819   2.829
  998SOL     OW 3892   4.749   0.190   4.307
  998SOL    HW1 3893   4.655   0.199   4.340
  998SOL    HW2 3894   4.749   0.184   4.208
  999SOL     OW 3895   4.910   4.015   2.806
  999SOL    HW1 3896   4.951   3.926   2.788
  999SOL    HW2 3897   4.885   4.058   2.719
 1000SOL     OW 3898   2.431   1.158   1.812
 1000SOL    HW1 3899   2.375   1.234   1.845
 1000SOL    HW2 3900   2.448   1.094   1.887
 1001SOL     OW 3901   4.732   5.783   0.321
 1001SOL    HW1 3902   4.797   5.718   0.362
 1001SOL    HW2 3903   4.783   5.854   0.273
 1002SOL     OW 3904   6.218   1.362   1.423
 1002SOL    HW1 3905   6.209   1.288   1.356
 1002SOL    HW2 3906   6.151   1.350   1.496
 1003SOL     OW 3907   2.035   6.384   2.370
 1003SOL    HW1 3908   2.045   6.289   2.399
 1003SOL    HW2 3909   2.064   6.445   2.444
 1004SOL     OW 3910   0.610   6.993   2.699
 1004SOL    HW1 3911   0.543   0.007   2.765
 1004SOL    HW2 3912   0.645   0.049   2.644
 1005SOL     OW 3913   2.277   2.876   3.964
 1005SOL    HW1 3914   2.315   2.968   3.978
 1005SOL    HW2 3915   2.247   2.868   3.869
 1006SOL     OW 3916   0.701   4.857   1.516
 1006SOL    HW1 3917   0.637   4.822   1.448
 1006SOL    HW2 3918   0.650   4.895   1.593
 1007SOL     OW 3919   4.521   6.829   4.925
 1007SOL    HW1 3920   4.579   6.904   4.958
 1007SOL    HW2 3921   4.441   6.867   4.878
 1008SOL     OW 3922   1.724   2.897   5.398
 1008SOL    HW1 3923   1.699   2.954   5.476
 1008SOL    HW2 3924   1.674   2.811   5.402
 1009SOL     OW 3925   0.469   5.506   5.063
 1009SOL    HW1 3926   0.371   5.520   5.045
 1009SOL    HW2 3927   0.508   5.447   4.993
 1010SOL     OW 3928   3.742   2.840   6.145
 1010SOL    HW1 3929   3.766   2.925   6.099
 1010SOL    HW2 3930   3.820   2.778   6.145
 1011SOL     OW 3931   2.457   4.550   2.505
 1011SOL    HW1 3932   2.431   4.543   2.601
 1011SOL    HW2 3933   2.525   4.622   2.494
 1012SOL     OW 3934   6.875   0.666   2.215
 1012SOL    HW1 3935   6.807   0.658   2.287
 1012SOL    HW2 3936   6.965   0.639   2.251
 1013SOL     OW 3937   1.363   0.623   5.676
 1013SOL    HW1 3938   1.351   0.560   5.599
 1013SOL    HW2 3939   1.274   0.643   5.717
 1014SOL     OW 3940   6.197   5.182   6.370
 1014SOL    HW1 3941   6.105   5.173   6.407
 1014SOL    HW2 3942   6.215   5.107   6.306
 1015SOL     OW 3943   2.283   6.576   6.110
 1015SOL    HW1 3944   2.186   6.599   6.113
 1015SOL    HW2 3945   2.329   6.615   6.191
 1016SOL     OW 3946   3.982   3.534   6.804
 1016SOL    HW1 3947   4.002   3.448   6.852
 1016SOL    HW2 3948   4.025   3.532   6.714
 1017SOL     OW 3949   4.152   2.699   1.250
 1017SOL    HW1 3950   4.223   2.724   1.316
 1017SOL    HW2 3951   4.174   2.610   1.211
 1018SOL     OW 3952   0.185   4.523   4.121
 1018SOL    HW1 3953   0.174   4.538   4.219
 1018SOL    HW2 3954   0.160   4.428   4.099
 1019SOL     OW 3955   6.990   6.906   1.070
 1019SOL    HW1 3956   0.035   6.876   1.000
 1019SOL    HW2 3957   0.012   6.974   1.129
 1020SOL     OW 3958   0.257   0.997   1.153
 1020SOL    HW1 3959   0.194   0.940   1.206
 1020SOL    HW2 3960   0.311   0.940   1.092
 1021SOL     OW 3961   5.603   0.340   1.441
 1021SOL    HW1 3962   5.658   0.353   1.359
 1021SOL    HW2 3963   5.512   0.310   1.416
 1022SOL     OW 3964   3.627   4.598   5.465
 1022SOL    HW1 3965   3.537   4.622   5.428
 1022SOL    HW2 3966   3.664   4.676   5.516
 1023SOL     OW 3967   1.139   6.999   3.054
 1023SOL    HW1 3968   1.132   6.957   2.964
 1023SOL    HW2 3969   1.132   6.928   3.125
 1024SOL     OW 3970   0.443   2.676   4.007
 1024SOL    HW1 3971   0.354   2.717   4.027
 1024SOL    HW2 3972   0.439   2.578   4.025
 1025SOL     OW 3973   3.425   3.248   1.123
 1025SOL    HW1 3974   3.418   3.167   1.181
 1025SOL    HW2 3975   3.353   3.246   1.053
 1026SOL     OW 3976   2.276   2.786   0.878
 1026SOL    HW1 3977   2.182   2.769   0.905
 1026SOL    HW2 3978   2.310   2.710   0.823
 1027SOL     OW 3979   3.068   6.382   1.438
 1027SOL    HW1 3980   3.089   6.305   1.499
 1027SOL    HW2 3981   2.976   6.371   1.401
 1028SOL     OW 3982   2.750   6.432   0.540
 1028SOL    HW1 3983   2.739   6.497   0.466
 1028SOL    HW2 3984   2.661   6.392   0.563
 1029SOL     OW 3985   1.377   0.151   6.699
 1029SOL    HW1 3986   1.406   0.082   6.765
 1029SOL    HW2 3987   1.375   0.241   6.744
 1030SOL     OW 3988   3.112   2.692   1.786
 1030SOL    HW1 3989   3.074   2.601   1.797
 1030SOL    HW2 3990   3.047   2.749   1.734
 1031SOL     OW 3991   5.630   4.205   1.235
 1031SOL    HW1 3992   5.605   4.286   1.289
 1031SOL    HW2 3993   5.686   4.233   1.157
 1032SOL     OW 3994   2.196   2.228   5.473
 1032SOL    HW1 3995   2.223   2.138   5.439
 1032SOL    HW2 3996   2.186   2.291   5.396
 1033SOL     OW 3997   1.478   6.745   1.358
 1033SOL    HW1 3998   1.526   6.809   1.296
 1033SOL    HW2 3999   1.440   6.796   1.435
 1034SOL     OW 4000   0.404   5.235   4.555
 1034SOL    HW1 4001   0.396   5.191   4.466
 1034SOL    HW2 4002   0.427   5.167   4.625
 1035SOL     OW 4003   0.192   0.881   5.077
 1035SOL    HW1 4004   0.124   0.808   5.071
 1035SOL    HW2 4005   0.184   0.941   4.998
 1036SOL     OW 4006   3.431   1.373   1.623
 1036SOL    HW1 4007   3.402   1.278   1.633
 1036SOL    HW2 4008   3.528   1.381   1.646
 1037SOL     OW 4009   1.728   1.249   1.833
 1037SOL    HW1 4010   1.809   1.303   1.811
 1037SOL    HW2 4011   1.708   1.257   1.931
 1038SOL     OW 4012   1.155   0.384   4.758
 1038SOL    HW1 4013   1.228   0.412   4.820
 1038SOL    HW2 4014   1.111   0.466   4.720
 1039SOL     OW 4015   3.555   3.914   5.677
 1039SOL    HW1 4016   3.595   3.939   5.589
 1039SOL    HW2 4017   3.604   3.961   5.750
 1040SOL     OW 4018   4.478   1.641   2.476
 1040SOL    HW1 4019   4.447   1.623   2.569
 1040SOL    HW2 4020   4.557   1.584   2.454
 1041SOL     OW 4021   6.948   0.044   3.688
 1041SOL    HW1 4022   6.916   0.072   3.779
 1041SOL    HW2 4023   6.887   0.081   3.618
 1042SOL     OW 4024   4.651   4.949   2.251
 1042SOL    HW1 4025   4.626   5.037   2.293
 1042SOL    HW2 4026   4.669   4.882   2.323
 1043SOL     OW 4027   3.728   1.482   5.167
 1043SOL    HW1 4028   3.823   1.453   5.155
 1043SOL    HW2 4029   3.678   1.467   5.082
 1044SOL     OW 4030   5.385   5.068   2.663
 1044SOL    HW1 4031   5.403   4.971   2.648
 1044SOL    HW2 4032   5.451   5.103   2.730
 1045SOL     OW 4033   4.143   6.494   2.219
 1045SOL    HW1 4034   4.128   6.557   2.143
 1045SOL    HW2 4035   4.066   6.430   2.224
 1046SOL     OW 4036   1.613   0.791   0.622
 1046SOL    HW1 4037   1.626   0.695   0.645
 1046SOL    HW2 4038   1.517   0.816   0.637
 1047SOL     OW 4039   1.762   1.147   3.524
 1047SOL    HW1 4040   1.789   1.168   3.430
 1047SOL    HW2 4041   1.823   1.195   3.587
 1048SOL     OW 4042   4.705   6.182   3.887
 1048SOL    HW1 4043   4.626   6.230   3.926
 1048SOL    HW2 4044   4.684   6.085   3.880
 1049SOL     OW 4045   6.452   6.141   3.730
 1049SOL    HW1 4046   6.538   6.175   3.767
 1049SOL    HW2 4047   6.421   6.063   3.783
 1050SOL     OW 4048   4.054   5.134   1.166
 1050SOL    HW1 4049   4.064   5.232   1.148
 1050SOL    HW2 4050   4.017   5.089   1.085
 1051SOL     OW 4051   2.230   6.304   0.944
 1051SOL    HW1 4052   2.239   6.244   1.024
 1051SOL    HW2 4053   2.308   6.290   0.883
 1052SOL     OW 4054   3.813   0.952   4.591
 1052SOL    HW1 4055   3.891   0.923   4.536
 1052SOL    HW2 4056   3.786   1.044   4.565
 1053SOL     OW 4057   5.756   5.233   3.036
 1053SOL    HW1 4058   5.795   5.215   2.945
 1053SOL    HW2 4059   5.801   5.176   3.104
 1054SOL     OW 4060   3.079   4.087   6.219
 1054SOL    HW1 4061   3.165   4.039   6.235
 1054SOL    HW2 4062   3.074   4.114   6.123
 1055SOL     OW 4063   3.395   6.588   4.931
 1055SOL    HW1 4064   3.490   6.589   4.899
 1055SOL    HW2 4065   3.357   6.497   4.915
 1056SOL     OW 4066   1.602   5.461   6.140
 1056SOL    HW1 4067   1.683   5.425   6.094
 1056SOL    HW2 4068   1.522   5.447   6.081
 1057SOL     OW 4069   2.701   3.257   1.749
 1057SOL    HW1 4070   2.758   3.259   1.831
 1057SOL    HW2 4071   2.703   3.165   1.710
 1058SOL     OW 4072   5.081   1.252   2.970
 1058SOL    HW1 4073   5.150   1.311   3.013
 1058SOL    HW2 4074   5.086   1.161   3.010
 1059SOL     OW 4075   2.595   0.646   1.584
 1059SOL    HW1 4076   2.509   0.623   1.539
 1059SOL    HW2 4077   2.614   0.743   1.570
 1060SOL     OW 4078   0.312   4.208   4.800
 1060SOL    HW1 4079   0.302   4.206   4.900
 1060SOL    HW2 4080   0.252   4.278   4.762
 1061SOL     OW 4081   5.930   2.779   0.717
 1061SOL    HW1 4082   6.023   2.816   0.713
 1061SOL    HW2 4083   5.905   2.760   0.812
 1062SOL     OW 4084   5.414   4.019   6.114
 1062SOL    HW1 4085   5.342   4.052   6.053
 1062SOL    HW2 4086   5.479   3.964   6.062
 1063SOL     OW 4087   1.650   5.173   1.861
 1063SOL    HW1 4088   1.714   5.204   1.932
 1063SOL    HW2 4089   1.696   5.175   1.772
 1064SOL     OW 4090   1.714   4.177   1.976
 1064SOL    HW1 4091   1.645   4.113   1.942
 1064SOL    HW2 4092   1.773   4.206   1.900
 1065SOL     OW 4093   3.607   0.029   3.646
 1065SOL    HW1 4094   3.592   0.105   3.709
 1065SOL    HW2 4095   3.552   6.970   3.675
 1066SOL     OW 4096   4.595   6.356   2.988
 1066SOL    HW1 4097   4.648   6.282   2.945
 1066SOL    HW2 4098   4.535   6.317   3.057
 1067SOL     OW 4099   0.739   3.358   0.831
 1067SOL    HW1 4100   0.651   3.328   0.868
 1067SOL    HW2 4101   0.797   3.393   0.904
 1068SOL     OW 4102   5.687   5.684   3.020
 1068SOL    HW1 4103   5.675   5.604   3.078
 1068SOL    HW2 4104   5.726   5.758   3.073
 1069SOL     OW 4105   4.294   5.232   1.332
 1069SOL    HW1 4106   4.240   5.247   1.415
 1069SOL    HW2 4107   4.249   5.163   1.275
 1070SOL     OW 4108   6.912   0.177   2.177
 1070SOL    HW1 4109   6.973   0.246   2.215
 1070SOL    HW2 4110   6.871   0.124   2.251
 1071SOL     OW 4111   1.217   0.474   3.871
 1071SOL    HW1 4112   1.168   0.386   3.869
 1071SOL    HW2 4113   1.197   0.521   3.957
 1072SOL     OW 4114   2.195   0.966   1.331
 1072SOL    HW1 4115   2.123   1.008   1.385
 1072SOL    HW2 4116   2.282   1.011   1.351
 1073SOL     OW 4117   5.088   6.902   2.021
 1073SOL    HW1 4118   5.126   6.930   2.109
 1073SOL    HW2 4119   5.076   6.983   1.963
 1074SOL     OW 4120   2.051   5.535   1.156
 1074SOL    HW1 4121   2.101   5.449   1.166
 1074SOL    HW2 4122   2.044   5.580   1.246
 1075SOL     OW 4123   5.090   6.916   3.896
 1075SOL    HW1 4124   5.163   6.925   3.828
 1075SOL    HW2 4125   5.092   6.823   3.934
 1076SOL     OW 4126   7.020   2.807   5.597
 1076SOL    HW1 4127   6.943   2.832   5.655
 1076SOL    HW2 4128   0.072   2.875   5.605
 1077SOL     OW 4129   5.853   0.732   1.293
 1077SOL    HW1 4130   5.915   0.809   1.277
 1077SOL    HW2 4131   5.903   0.657   1.336
 1078SOL     OW 4132   1.253   1.533   2.640
 1078SOL    HW1 4133   1.333   1.564   2.588
 1078SOL    HW2 4134   1.231   1.439   2.613
 1079SOL     OW 4135   2.243   5.964   2.378
 1079SOL    HW1 4136   2.182   5.926   2.308
 1079SOL    HW2 4137   2.197   6.041   2.422
 1080SOL     OW 4138   1.161   4.247   3.768
 1080SOL    HW1 4139   1.179   4.218   3.674
 1080SOL    HW2 4140   1.192   4.176   3.831
 1081SOL     OW 4141   0.738   5.481   5.839
 1081SOL    HW1 4142   0.790   5.433   5.769
 1081SOL    HW2 4143   0.658   5.427   5.864
 1082SOL     OW 4144   4.213   1.867   5.594
 1082SOL    HW1 4145   4.255   1.877   5.503
 1082SOL    HW2 4146   4.114   1.866   5.585
 1083SOL     OW 4147   4.001   3.917   0.083
 1083SOL    HW1 4148   3.966   3.871   0.001
 1083SOL    HW2 4149   4.099   3.900   0.092
 1084SOL     OW 4150   5.527   5.628   6.632
 1084SOL    HW1 4151   5.624   5.610   6.647
 1084SOL    HW2 4152   5.491   5.679   6.710
 1085SOL     OW 4153   1.494   3.542   4.077
 1085SOL    HW1 4154   1.535   3.462   4.033
 1085SOL    HW2 4155   1.547   3.566   4.159
 1086SOL     OW 4156   6.711   6.183   0.867
 1086SOL    HW1 4157   6.616   6.214   0.864
 1086SOL    HW2 4158   6.764   6.232   0.798
 1087SOL     OW 4159   5.415   1.513   4.655
 1087SOL    HW1 4160   5.395   1.609   4.635
 1087SOL    HW2 4161   5.514   1.501   4.667
 1088SOL     OW 4162   6.839   4.869   3.232
 1088SOL    HW1 4163   6.818   4.787   3.286
 1088SOL    HW2 4164   6.864   4.943   3.294
 1089SOL     OW 4165   1.715   6.488   4.220
 1089SOL    HW1 4166   1.759   6.491   4.130
 1089SOL    HW2 4167   1.771   6.435   4.283
 1090SOL     OW 4168   2.458   2.258   3.813
 1090SOL    HW1 4169   2.469   2.192   3.739
 1090SOL    HW2 4170   2.504   2.343   3.790
 1091SOL     OW 4171   3.295   1.410   4.927
 1091SOL    HW1 4172   3.210   1.435   4.880
 1091SOL    HW2 4173   3.273   1.367   5.014
 1092SOL     OW 4174   2.059   3.996   1.546
 1092SOL    HW1 4175   1.984   3.970   1.485
 1092SOL    HW2 4176   2.134   3.930   1.538
 1093SOL     OW 4177   2.055   1.507   1.972
 1093SOL    HW1 4178   2.077   1.412   1.948
 1093SOL    HW2 4179   2.119   1.540   2.041
 1094SOL     OW 4180   0.737   0.011   3.280
 1094SOL    HW1 4181   0.816   0.040   3.333
 1094SOL    HW2 4182   0.753   6.940   3.243
 1095SOL     OW 4183   0.438   2.715   6.581
 1095SOL    HW1 4184   0.417   2.774   6.503
 1095SOL    HW2 4185   0.433   2.619   6.553
 1096SOL     OW 4186   3.506   4.357   1.754
 1096SOL    HW1 4187   3.500   4.289   1.827
 1096SOL    HW2 4188   3.531   4.446   1.793
 1097SOL     OW 4189   1.952   4.377   4.028
 1097SOL    HW1 4190   1.944   4.442   3.953
 1097SOL    HW2 4191   1.895   4.406   4.105
 1098SOL     OW 4192   3.742   3.737   6.937
 1098SOL    HW1 4193   3.679   3.810   6.909
 1098SOL    HW2 4194   3.788   3.701   6.856
 1099SOL     OW 4195   4.077   1.472   5.547
 1099SOL    HW1 4196   3.988   1.517   5.548
 1099SOL    HW2 4197   4.120   1.481   5.636
 1100SOL     OW 4198   3.469   1.769   5.473
 1100SOL    HW1 4199   3.399   1.835   5.498
 1100SOL    HW2 4200   3.521   1.802   5.394
 1101SOL     OW 4201   6.151   2.025   6.906
 1101SOL    HW1 4202   6.116   2.011   6.813
 1101SOL    HW2 4203   6.249   2.042   6.902
 1102SOL     OW 4204   0.395   6.518   5.207
 1102SOL    HW1 4205   0.364   6.574   5.130
 1102SOL    HW2 4206   0.454   6.445   5.173
 1103SOL     OW 4207   3.649   1.608   0.113
 1103SOL    HW1 4208   3.580   1.674   0.142
 1103SOL    HW2 4209   3.635   1.522   0.162
 1104SOL     OW 4210   2.384   2.592   5.482
 1104SOL    HW1 4211   2.368   2.563   5.576
 1104SOL    HW2 4212   2.347   2.684   5.468
 1105SOL     OW 4213   6.523   3.808   5.291
 1105SOL    HW1 4214   6.508   3.765   5.202
 1105SOL    HW2 4215   6.548   3.904   5.279
 1106SOL     OW 4216   0.564   2.316   2.000
 1106SOL    HW1 4217   0.536   2.240   1.942
 1106SOL    HW2 4218   0.484   2.373   2.021
 1107SOL     OW 4219   0.923   0.745   6.873
 1107SOL    HW1 4220   0.839   0.798   6.881
 1107SOL    HW2 4221   1.001   0.804   6.891
 1108SOL     OW 4222   3.786   0.260   6.135
 1108SOL    HW1 4223   3.855   0.297   6.073
 1108SOL    HW2 4224   3.826   0.185   6.189
 1109SOL     OW 4225   5.154   0.910   4.715
 1109SOL    HW1 4226   5.228   0.962   4.756
 1109SOL    HW2 4227   5.183   0.873   4.626
 1110SOL     OW 4228   2.597   1.246   3.288
 1110SOL    HW1 4229   2.657   1.166   3.280
 1110SOL    HW2 4230   2.612   1.307   3.210
 1111SOL     OW 4231   4.523   5.197   6.306
 1111SOL    HW1 4232   4.444   5.164   6.254
 1111SOL    HW2 4233   4.597   5.220   6.244
 1112SOL     OW 4234   5.032   1.377   2.225
 1112SOL    HW1 4235   5.042   1.285   2.187
 1112SOL    HW2 4236   5.022   1.371   2.324
 1113SOL     OW 4237   6.286   4.069   1.911
 1113SOL    HW1 4238   6.270   4.041   1.817
 1113SOL    HW2 4239   6.336   3.997   1.960
 1114SOL     OW 4240   3.894   1.904   6.721
 1114SOL    HW1 4241   3.949   1.954   6.787
 1114SOL    HW2 4242   3.812   1.957   6.699
 1115SOL     OW 4243   3.919   3.272   6.583
 1115SOL    HW1 4244   3.956   3.277   6.490
 1115SOL    HW2 4245   3.851   3.344   6.596
 1116SOL     OW 4246   5.097   6.675   6.117
 1116SOL    HW1 4247   5.069   6.746   6.182
 1116SOL    HW2 4248   5.196   6.679   6.104
 1117SOL     OW 4249   2.296   2.371   2.615
 1117SOL    HW1 4250   2.377   2.329   2.573
 1117SOL    HW2 4251   2.245   2.421   2.545
 1118SOL     OW 4252   2.657   4.762   1.164
 1118SOL    HW1 4253   2.751   4.730   1.155
 1118SOL    HW2 4254   2.643   4.842   1.105
 1119SOL     OW 4255   4.312   4.472   1.461
 1119SOL    HW1 4256   4.348   4.396   1.516
 1119SOL    HW2 4257   4.217   4.452   1.435
 1120SOL     OW 4258   6.293   6.522   6.539
 1120SOL    HW1 4259   6.276   6.479   6.450
 1120SOL    HW2 4260   6.234   6.481   6.608
 1121SOL     OW 4261   5.188   4.968   3.399
 1121SOL    HW1 4262   5.255   4.995   3.330
 1121SOL    HW2 4263   5.100   4.948   3.355
 1122SOL     OW 4264   5.497   2.849   6.960
 1122SOL    HW1 4265   5.439   2.880   0.016
 1122SOL    HW2 4266   5.574   2.796   6.997
 1123SOL     OW 4267   4.602   0.951   2.932
 1123SOL    HW1 4268   4.652   0.865   2.944
 1123SOL    HW2 4269   4.524   0.953   2.993
 1124SOL     OW 4270   0.248   3.497   5.125
 1124SOL    HW1 4271   0.300   3.434   5.183
 1124SOL    HW2 4272   0.188   3.552   5.183
 1125SOL     OW 4273   3.468   2.038   4.371
 1125SOL    HW1 4274   3.445   2.053   4.467
 1125SOL    HW2 4275   3.402   2.085   4.312
 1126SOL     OW 4276   6.356   4.838   6.753
 1126SOL    HW1 4277   6.426   4.877   6.813
 1126SOL    HW2 4278   6.357   4.885   6.665
 1127SOL     OW 4279   5.310   5.263   4.951
 1127SOL    HW1 4280   5.400   5.235   4.917
 1127SOL    HW2 4281   5.307   5.363   4.961
 1128SOL     OW 4282   5.655   1.528   5.320
 1128SOL    HW1 4283   5.628   1.549   5.226
 1128SOL    HW2 4284   5.755   1.524   5.326
 1129SOL     OW 4285   1.880   0.367   6.919
 1129SOL    HW1 4286   1.956   0.377   6.855
 1129SOL    HW2 4287   1.799   0.334   6.870
 1130SOL     OW 4288   2.664   4.697   0.863
 1130SOL    HW1 4289   2.588   4.659   0.811
 1130SOL    HW2 4290   2.631   4.732   0.951
 1131SOL     OW 4291   0.204   5.488   5.973
 1131SOL    HW1 4292   0.248   5.559   5.919
 1131SOL    HW2 4293   0.115   5.520   6.004
 1132SOL     OW 4294   5.426   0.566   1.814
 1132SOL    HW1 4295   5.478   0.571   1.729
 1132SOL    HW2 4296   5.343   0.511   1.800
 1133SOL     OW 4297   0.725   0.251   1.378
 1133SOL    HW1 4298   0.723   0.332   1.319
 1133SOL    HW2 4299   0.812   0.203   1.365
 1134SOL     OW 4300   4.884   0.581   1.896
 1134SOL    HW1 4301   4.860   0.614   1.804
 1134SOL    HW2 4302   4.882   0.657   1.960
 1135SOL     OW 4303   2.709   0.509   2.537
 1135SOL    HW1 4304   2.731   0.523   2.634
 1135SOL    HW2 4305   2.747   0.422   2.507
 1136SOL     OW 4306   3.795   5.088   3.401
 1136SOL    HW1 4307   3.890   5.091   3.433
 1136SOL    HW2 4308   3.740   5.152   3.454
 1137SOL     OW 4309   1.494   0.912   6.543
 1137SOL    HW1 4310   1.398   0.929   6.561
 1137SOL    HW2 4311   1.538   0.996   6.512
 1138SOL     OW 4312   6.849   0.461   5.733
 1138SOL    HW1 4313   6.824   0.373   5.692
 1138SOL    HW2 4314   6.902   0.514   5.667
 1139SOL     OW 4315   3.436   5.110   1.604
 1139SOL    HW1 4316   3.501   5.175   1.565
 1139SOL    HW2 4317   3.480   5.022   1.619
 1140SOL     OW 4318   4.280   1.342   1.959
 1140SOL    HW1 4319   4.278   1.414   2.027
 1140SOL    HW2 4320   4.284   1.382   1.867
 1141SOL     OW 4321   0.490   6.016   6.842
 1141SOL    HW1 4322   0.400   5.987   6.875
 1141SOL    HW2 4323   0.518   6.099   6.891
 1142SOL     OW 4324   2.745   6.787   4.419
 1142SOL    HW1 4325   2.740   6.860   4.487
 1142SOL    HW2 4326   2.838   6.780   4.384
 1143SOL     OW 4327   1.676   3.795   2.781
 1143SOL    HW1 4328   1.719   3.880   2.809
 1143SOL    HW2 4329   1.746   3.729   2.753
 1144SOL     OW 4330   6.437   4.880   4.256
 1144SOL    HW1 4331   6.528   4.901   4.293
 1144SOL    HW2 4332   6.370   4.881   4.330
 1145SOL     OW 4333   6.763   3.517   2.469
 1145SOL    HW1 4334   6.777   3.593   2.406
 1145SOL    HW2 4335   6.742   3.434   2.417
 1146SOL     OW 4336   6.600   0.358   2.622
 1146SOL    HW1 4337   6.677   0.395   2.673
 1146SOL    HW2 4338   6.561   0.281   2.672
 1147SOL     OW 4339   2.594   5.039   1.371
 1147SOL    HW1 4340   2.518   5.029   1.307
 1147SOL    HW2 4341   2.560   5.030   1.465
 1148SOL     OW 4342   5.150   6.054   0.654
 1148SOL    HW1 4343   5.249   6.049   0.642
 1148SOL    HW2 4344   5.130   6.103   0.739
 1149SOL     OW 4345   6.925   4.180   3.343
 1149SOL    HW1 4346   6.985   4.259   3.354
 1149SOL    HW2 4347   6.835   4.202   3.381
 1150SOL     OW 4348   2.343   3.697   0.492
 1150SOL    HW1 4349   2.407   3.634   0.447
 1150SOL    HW2 4350   2.370   3.791   0.472
 1151SOL     OW 4351   5.143   4.462   6.844
 1151SOL    HW1 4352   5.153   4.424   6.936
 1151SOL    HW2 4353   5.113   4.389   6.781
 1152SOL     OW 4354   5.535   4.648   6.193
 1152SOL    HW1 4355   5.492   4.731   6.229
 1152SOL    HW2 4356   5.469   4.598   6.136
 1153SOL     OW 4357   1.539   0.726   1.686
 1153SOL    HW1 4358   1.469   0.714   1.756
 1153SOL    HW2 4359   1.610   0.657   1.698
 1154SOL     OW 4360   0.028   4.452   0.955
 1154SOL    HW1 4361   0.093   4.387   0.995
 1154SOL    HW2 4362   6.955   4.418   0.968
 1155SOL     OW 4363   2.474   5.637   7.009
 1155SOL    HW1 4364   2.377   5.623   6.988
 1155SOL    HW2 4365   2.529   5.617   6.928
 1156SOL     OW 4366   4.003   1.575   4.489
 1156SOL    HW1 4367   4.093   1.571   4.446
 1156SOL    HW2 4368   3.991   1.665   4.531
 1157SOL     OW 4369   5.507   1.056   5.499
 1157SOL    HW1 4370   5.539   0.962   5.510
 1157SOL    HW2 4371   5.568   1.105   5.437
 1158SOL     OW 4372   0.023   5.250   5.114
 1158SOL    HW1 4373   0.089   5.298   5.055
 1158SOL    HW2 4374   0.037   5.151   5.105
 1159SOL     OW 4375   6.334   6.897   4.086
 1159SOL    HW1 4376   6.390   6.820   4.054
 1159SOL    HW2 4377   6.252   6.862   4.132
 1160SOL     OW 4378   4.784   3.887   0.536
 1160SOL    HW1 4379   4.825   3.870   0.625
 1160SOL    HW2 4380   4.725   3.968   0.542
 1161SOL     OW 4381   6.266   6.858   6.524
 1161SOL    HW1 4382   6.258   6.925   6.599
 1161SOL    HW2 4383   6.286   6.768   6.562
 1162SOL     OW 4384   2.993   2.281   6.478
 1162SOL    HW1 4385   2.949   2.321   6.558
 1162SOL    HW2 4386   2.952   2.191   6.459
 1163SOL     OW 4387   6.543   3.221   2.000
 1163SOL    HW1 4388   6.448   3.199   1.976
 1163SOL    HW2 4389   6.587   3.140   2.039
 1164SOL     OW 4390   6.171   3.168   4.856
 1164SOL    HW1 4391   6.091   3.144   4.911
 1164SOL    HW2 4392   6.186   3.097   4.787
 1165SOL     OW 4393   3.014   4.894   3.763
 1165SOL    HW1 4394   3.108   4.908   3.793
 1165SOL    HW2 4395   2.969   4.982   3.749
 1166SOL     OW 4396   3.910   6.660   0.200
 1166SOL    HW1 4397   3.813   6.674   0.220
 1166SOL    HW2 4398   3.921   6.646   0.101
 1167SOL     OW 4399   4.159   6.618   6.690
 1167SOL    HW1 4400   4.240   6.669   6.718
 1167SOL    HW2 4401   4.182   6.521   6.681
 1168SOL     OW 4402   5.227   2.429   3.294
 1168SOL    HW1 4403   5.225   2.335   3.260
 1168SOL    HW2 4404   5.208   2.493   3.220
 1169SOL     OW 4405   5.027   2.300   5.881
 1169SOL    HW1 4406   5.001   2.321   5.975
 1169SOL    HW2 4407   4.962   2.234   5.843
 1170SOL     OW 4408   4.913   0.644   3.301
 1170SOL    HW1 4409   4.865   0.610   3.220
 1170SOL    HW2 4410   5.008   0.664   3.278
 1171SOL     OW 4411   2.878   6.005   0.050
 1171SOL    HW1 4412   2.967   6.023   0.090
 1171SOL    HW2 4413   2.806   6.039   0.110
 1172SOL     OW 4414   2.912   4.059   1.745
 1172SOL    HW1 4415   2.859   4.007   1.813
 1172SOL    HW2 4416   2.856   4.070   1.663
 1173SOL     OW 4417   2.637   0.594   6.760
 1173SOL    HW1 4418   2.660   0.609   6.856
 1173SOL    HW2 4419   2.565   0.658   6.733
 1174SOL     OW 4420   3.427   4.775   1.124
 1174SOL    HW1 4421   3.436   4.730   1.036
 1174SOL    HW2 4422   3.427   4.706   1.197
 1175SOL     OW 4423   3.551   3.922   6.906
 1175SOL    HW1 4424   3.594   4.004   6.869
 1175SOL    HW2 4425   3.456   3.943   6.933
 1176SOL     OW 4426   6.186   4.808   6.462
 1176SOL    HW1 4427   6.238   4.875   6.410
 1176SOL    HW2 4428   6.246   4.732   6.488
 1177SOL     OW 4429   6.851   1.825   5.233
 1177SOL    HW1 4430   6.896   1.904   5.275
 1177SOL    HW2 4431   6.803   1.854   5.150
 1178SOL     OW 4432   3.301   4.110   0.729
 1178SOL    HW1 4433   3.239   4.113   0.808
 1178SOL    HW2 4434   3.254   4.066   0.652
 1179SOL     OW 4435   3.138   6.217   0.892
 1179SOL    HW1 4436   3.041   6.235   0.909
 1179SOL    HW2 4437   3.178   6.294   0.843
 1180SOL     OW 4438   2.140   5.988   3.945
 1180SOL    HW1 4439   2.074   5.935   3.892
 1180SOL    HW2 4440   2.116   6.085   3.941
 1181SOL     OW 4441   0.109   3.411   5.963
 1181SOL    HW1 4442   0.156   3.354   5.896
 1181SOL    HW2 4443   0.131   3.380   6.055
 1182SOL     OW 4444   3.090   4.877   2.941
 1182SOL    HW1 4445   3.036   4.902   2.860
 1182SOL    HW2 4446   3.031   4.833   3.008
 1183SOL     OW 4447   3.625   5.521   2.226
 1183SOL    HW1 4448   3.663   5.603   2.269
 1183SOL    HW2 4449   3.621   5.447   2.293
 1184SOL     OW 4450   6.149   6.618   6.045
 1184SOL    HW1 4451   6.198   6.680   6.107
 1184SOL    HW2 4452   6.067   6.585   6.091
 1185SOL     OW 4453   0.695   0.888   0.589
 1185SOL    HW1 4454   0.684   0.937   0.676
 1185SOL    HW2 4455   0.788   0.901   0.556
 1186SOL     OW 4456   5.638   5.850   5.566
 1186SOL    HW1 4457   5.575   5.883   5.636
 1186SOL    HW2 4458   5.721   5.815   5.609
 1187SOL     OW 4459   5.114   6.383   5.726
 1187SOL    HW1 4460   5.069   6.314   5.668
 1187SOL    HW2 4461   5.165   6.336   5.798
 1188SOL     OW 4462   3.170   5.363   6.161
 1188SOL    HW1 4463   3.234   5.297   6.122
 1188SOL    HW2 4464   3.220   5.446   6.188
 1189SOL     OW 4465   6.478   0.611   0.786
 1189SOL    HW1 4466   6.520   0.545   0.849
 1189SOL    HW2 4467   6.381   0.620   0.808
 1190SOL     OW 4468   2.895   5.548   2.779
 1190SOL    HW1 4469   2.812   5.501   2.807
 1190SOL    HW2 4470   2.975   5.496   2.807
 1191SOL     OW 4471   2.730   6.265   4.361
 1191SOL    HW1 4472   2.794   6.214   4.419
 1191SOL    HW2 4473   2.692   6.204   4.292
 1192SOL     OW 4474   6.001   6.034   3.529
 1192SOL    HW1 4475   6.089   6.040   3.481
 1192SOL    HW2 4476   6.008   6.079   3.618
 1193SOL     OW 4477   0.116   0.647   5.296
 1193SOL    HW1 4478   0.041   0.636   5.230
 1193SOL    HW2 4479   0.193   0.589   5.269
 1194SOL     OW 4480   6.789   1.187   1.394
 1194SOL    HW1 4481   6.692   1.178   1.417
 1194SOL    HW2 4482   6.845   1.167   1.474
 1195SOL     OW 4483   6.972   3.391   0.589
 1195SOL    HW1 4484   6.928   3.427   0.672
 1195SOL    HW2 4485   6.947   3.449   0.511
 1196SOL     OW 4486   6.523   4.565   3.595
 1196SOL    HW1 4487   6.509   4.623   3.675
 1196SOL    HW2 4488   6.567   4.480   3.623
 1197SOL     OW 4489   4.459   6.270   4.556
 1197SOL    HW1 4490   4.476   6.334   4.632
 1197SOL    HW2 4491   4.528   6.285   4.485
 1198SOL     OW 4492   1.145   3.532   1.925
 1198SOL    HW1 4493   1.132   3.581   2.012
 1198SOL    HW2 4494   1.060   3.488   1.899
 1199SOL     OW 4495   3.212   3.898   2.876
 1199SOL    HW1 4496   3.278   3.973   2.875
 1199SOL    HW2 4497   3.199   3.867   2.970
 1200SOL     OW 4498   3.939   3.940   4.378
 1200SOL    HW1 4499   3.874   3.872   4.413
 1200SOL    HW2 4500   3.890   4.024   4.354
 1201SOL     OW 4501   6.585   0.812   4.912
 1201SOL    HW1 4502   6.549   0.897   4.874
 1201SOL    HW2 4503   6.624   0.757   4.839
 1202SOL     OW 4504   0.388   5.937   5.349
 1202SOL    HW1 4505   0.378   5.873   5.273
 1202SOL    HW2 4506   0.382   6.031   5.315
 1203SOL     OW 4507   0.570   6.582   0.589
 1203SOL    HW1 4508   0.564   6.561   0.492
 1203SOL    HW2 4509   0.661   6.561   0.623
 1204SOL     OW 4510   4.850   1.212   1.405
 1204SOL    HW1 4511   4.789   1.151   1.355
 1204SOL    HW2 4512   4.890   1.279   1.342
 1205SOL     OW 4513   3.501   3.787   0.455
 1205SOL    HW1 4514   3.418   3.731   0.458
 1205SOL    HW2 4515   3.476   3.882   0.440
 1206SOL     OW 4516   0.956   3.272   4.949
 1206SOL    HW1 4517   1.047   3.310   4.933
 1206SOL    HW2 4518   0.941   3.195   4.887
 1207SOL     OW 4519   0.337   0.819   0.703
 1207SOL    HW1 4520   0.336   0.899   0.762
 1207SOL    HW2 4521   0.265   0.827   0.634
 1208SOL     OW 4522   3.345   3.326   1.646
 1208SOL    HW1 4523   3.380   3.260   1.580
 1208SOL    HW2 4524   3.401   3.322   1.730
 1209SOL     OW 4525   5.362   6.941   4.332
 1209SOL    HW1 4526   5.380   6.919   4.428
 1209SOL    HW2 4527   5.360   6.856   4.279
 1210SOL     OW 4528   4.187   6.444   3.637
 1210SOL    HW1 4529   4.091   6.467   3.618
 1210SOL    HW2 4530   4.195   6.409   3.730
 1211SOL     OW 4531   0.537   3.269   3.021
 1211SOL    HW1 4532   0.514   3.227   2.933
 1211SOL    HW2 4533   0.504   3.212   3.096
 1212SOL     OW 4534   6.578   6.736   6.236
 1212SOL    HW1 4535   6.568   6.777   6.146
 1212SOL    HW2 4536   6.515   6.658   6.244
 1213SOL     OW 4537   5.777   2.536   1.868
 1213SOL    HW1 4538   5.733   2.608   1.922
 1213SOL    HW2 4539   5.856   2.500   1.916
 1214SOL     OW 4540   1.001   2.469   6.762
 1214SOL    HW1 4541   0.957   2.484   6.673
 1214SOL    HW2 4542   1.052   2.383   6.760
 1215SOL     OW 4543   1.382   4.828   2.783
 1215SOL    HW1 4544   1.393   4.880   2.699
 1215SOL    HW2 4545   1.296   4.777   2.781
 1216SOL     OW 4546   5.193   1.405   0.593
 1216SOL    HW1 4547   5.286   1.409   0.629
 1216SOL    HW2 4548   5.196   1.406   0.493
 1217SOL     OW 4549   2.480   4.850   0.356
 1217SOL    HW1 4550   2.537   4.931   0.370
 1217SOL    HW2 4551   2.384   4.878   0.351
 1218SOL     OW 4552   1.909   2.432   4.902
 1218SOL    HW1 4553   1.810   2.425   4.914
 1218SOL    HW2 4554   1.937   2.528   4.912
 1219SOL     OW 4555   5.563   5.784   1.885
 1219SOL    HW1 4556   5.496   5.858   1.882
 1219SOL    HW2 4557   5.640   5.807   1.826
 1220SOL     OW 4558   6.865   4.064   2.442
 1220SOL    HW1 4559   6.792   4.122   2.405
 1220SOL    HW2 4560   6.917   4.024   2.367
 1221SOL     OW 4561   5.155   3.676   6.386
 1221SOL    HW1 4562   5.245   3.709   6.359
 1221SOL    HW2 4563   5.120   3.733   6.460
 1222SOL     OW 4564   6.565   1.215   6.233
 1222SOL    HW1 4565   6.583   1.122   6.202
 1222SOL    HW2 4566   6.647   1.271   6.218
 1223SOL     OW 4567   4.083   0.802   0.134
 1223SOL    HW1 4568   3.999   0.809   0.188
 1223SOL    HW2 4569   4.162   0.814   0.194
 1224SOL     OW 4570   2.818   6.213   6.656
 1224SOL    HW1 4571   2.888   6.259   6.602
 1224SOL    HW2 4572   2.735   6.204   6.601
 1225SOL     OW 4573   3.361   2.413   6.652
 1225SOL    HW1 4574   3.311   2.330   6.626
 1225SOL    HW2 4575   3.417   2.393   6.733
 1226SOL     OW 4576   3.836   6.295   0.384
 1226SOL    HW1 4577   3.911   6.319   0.322
 1226SOL    HW2 4578   3.792   6.379   0.417
 1227SOL     OW 4579   4.998   4.827   5.604
 1227SOL    HW1 4580   5.064   4.764   5.644
 1227SOL    HW2 4581   5.045   4.896   5.550
 1228SOL     OW 4582   2.585   2.338   6.374
 1228SOL    HW1 4583   2.501   2.392   6.369
 1228SOL    HW2 4584   2.569   2.257   6.429
 1229SOL     OW 4585   2.219   5.321   6.979
 1229SOL    HW1 4586   2.133   5.360   7.011
 1229SOL    HW2 4587   2.206   5.281   6.888
 1230SOL     OW 4588   5.443   6.658   1.575
 1230SOL    HW1 4589   5.354   6.698   1.553
 1230SOL    HW2 4590   5.433   6.591   1.649
 1231SOL     OW 4591   1.850   1.929   5.318
 1231SOL    HW1 4592   1.866   2.004   5.254
 1231SOL    HW2 4593   1.816   1.849   5.268
 1232SOL     OW 4594   6.694   1.320   4.861
 1232SOL    HW1 4595   6.612   1.282   4.905
 1232SOL    HW2 4596   6.696   1.293   4.765
 1233SOL     OW 4597   0.782   5.384   4.881
 1233SOL    HW1 4598   0.751   5.470   4.923
 1233SOL    HW2 4599   0.778   5.393   4.781
 1234SOL     OW 4600   6.198   3.035   5.990
 1234SOL    HW1 4601   6.199   3.131   5.962
 1234SOL    HW2 4602   6.209   2.977   5.909
 1235SOL     OW 4603   5.807   5.341   1.910
 1235SOL    HW1 4604   5.804   5.430   1.865
 1235SOL    HW2 4605   5.898   5.326   1.949
 1236SOL     OW 4606   4.544   0.648   0.976
 1236SOL    HW1 4607   4.453   0.614   1.000
 1236SOL    HW2 4608   4.545   0.679   0.881
 1237SOL     OW 4609   1.899   4.352   6.191
 1237SOL    HW1 4610   1.926   4.257   6.175
 1237SOL    HW2 4611   1.810   4.354   6.236
 1238SOL     OW 4612   1.413   0.802   6.254
 1238SOL    HW1 4613   1.425   0.901   6.246
 1238SOL    HW2 4614   1.316   0.781   6.269
 1239SOL     OW 4615   0.352   0.276   0.351
 1239SOL    HW1 4616   0.412   0.207   0.309
 1239SOL    HW2 4617   0.286   0.231   0.410
 1240SOL     OW 4618   5.888   6.124   0.644
 1240SOL    HW1 4619   5.975   6.092   0.606
 1240SOL    HW2 4620   5.841   6.049   0.689
 1241SOL     OW 4621   5.602   4.445   5.471
 1241SOL    HW1 4622   5.581   4.483   5.381
 1241SOL    HW2 4623   5.650   4.358   5.460
 1242SOL     OW 4624   1.885   3.599   1.344
 1242SOL    HW1 4625   1.948   3.533   1.303
 1242SOL    HW2 4626   1.799   3.553   1.367
 1243SOL     OW 4627   0.791   0.393   4.984
 1243SOL    HW1 4628   0.808   0.463   4.915
 1243SOL    HW2 4629   0.820   0.304   4.949
 1244SOL     OW 4630   5.606   6.357   4.008
 1244SOL    HW1 4631   5.567   6.284   3.952
 1244SOL    HW2 4632   5.676   6.405   3.956
 1245SOL     OW 4633   5.556   4.185   0.278
 1245SOL    HW1 4634   5.473   4.225   0.239
 1245SOL    HW2 4635   5.551   4.190   0.378
 1246SOL     OW 4636   3.254   1.188   1.371
 1246SOL    HW1 4637   3.298   1.254   1.310
 1246SOL    HW2 4638   3.320   1.119   1.399
 1247SOL     OW 4639   0.027   6.565   5.885
 1247SOL    HW1 4640   0.033   6.472   5.920
 1247SOL    HW2 4641   0.014   6.563   5.786
 1248SOL     OW 4642   2.094   6.913   4.771
 1248SOL    HW1 4643   2.192   6.892   4.772
 1248SOL    HW2 4644   2.048   6.857   4.840
 1249SOL     OW 4645   6.866   2.028   2.184
 1249SOL    HW1 4646   6.766   2.030   2.182
 1249SOL    HW2 4647   6.899   1.973   2.107
 1250SOL     OW 4648   5.675   5.439   3.193
 1250SOL    HW1 4649   5.632   5.387   3.266
 1250SOL    HW2 4650   5.726   5.376   3.133
 1251SOL     OW 4651   2.742   0.838   3.383
 1251SOL    HW1 4652   2.708   0.750   3.415
 1251SOL    HW2 4653   2.842   0.835   3.376
 1252SOL     OW 4654   4.517   4.071   6.387
 1252SOL    HW1 4655   4.533   4.163   6.421
 1252SOL    HW2 4656   4.418   4.056   6.376
 1253SOL     OW 4657   3.316   6.475   1.693
 1253SOL    HW1 4658   3.386   6.535   1.730
 1253SOL    HW2 4659   3.356   6.414   1.625
 1254SOL     OW 4660   0.580   3.160   3.565
 1254SOL    HW1 4661   0.623   3.228   3.624
 1254SOL    HW2 4662   0.625   3.072   3.577
 1255SOL     OW 4663   5.927   1.517   6.075
 1255SOL    HW1 4664   5.969   1.528   6.165
 1255SOL    HW2 4665   5.840   1.567   6.073
 1256SOL     OW 4666   6.728   6.925   3.277
 1256SOL    HW1 4667   6.682   6.900   3.362
 1256SOL    HW2 4668   6.666   6.909   3.199
 1257SOL     OW 4669   7.010   5.193   4.518
 1257SOL    HW1 4670   6.973   5.180   4.610
 1257SOL    HW2 4671   0.019   5.104   4.482
 1258SOL     OW 4672   1.585   4.933   2.938
 1258SOL    HW1 4673   1.546   4.867   2.875
 1258SOL    HW2 4674   1.680   4.951   2.914
 1259SOL     OW 4675   3.189   0.356   4.173
 1259SOL    HW1 4676   3.230   0.446   4.162
 1259SOL    HW2 4677   3.210   0.299   4.093
 1260SOL     OW 4678   2.938   2.500   6.889
 1260SOL    HW1 4679   3.023   2.449   6.901
 1260SOL    HW2 4680   2.860   2.439   6.901
 1261SOL     OW 4681   6.901   5.387   6.801
 1261SOL    HW1 4682   6.844   5.357   6.878
 1261SOL    HW2 4683   6.851   5.455   6.748
 1262SOL     OW 4684   6.081   3.886   1.418
 1262SOL    HW1 4685   6.096   3.906   1.515
 1262SOL    HW2 4686   6.008   3.817   1.409
 1263SOL     OW 4687   0.255   1.888   1.311
 1263SOL    HW1 4688   0.242   1.921   1.218
 1263SOL    HW2 4689   0.176   1.834   1.339
 1264SOL     OW 4690   6.807   3.694   1.954
 1264SOL    HW1 4691   6.823   3.700   1.855
 1264SOL    HW2 4692   6.708   3.702   1.972
 1265SOL     OW 4693   4.660   5.909   3.839
 1265SOL    HW1 4694   4.646   5.817   3.803
 1265SOL    HW2 4695   4.751   5.917   3.879
 1266SOL     OW 4696   0.099   1.516   4.733
 1266SOL    HW1 4697   0.186   1.537   4.777
 1266SOL    HW2 4698   0.115   1.488   4.639
 1267SOL     OW 4699   4.864   6.700   1.226
 1267SOL    HW1 4700   4.811   6.739   1.151
 1267SOL    HW2 4701   4.817   6.715   1.312
 1268SOL     OW 4702   3.090   2.897   0.143
 1268SOL    HW1 4703   3.065   2.826   0.077
 1268SOL    HW2 4704   3.009   2.920   0.198
 1269SOL     OW 4705   5.622   5.135   5.186
 1269SOL    HW1 4706   5.574   5.052   5.155
 1269SOL    HW2 4707   5.699   5.154   5.125
 1270SOL     OW 4708   1.594   3.570   3.290
 1270SOL    HW1 4709   1.579   3.548   3.194
 1270SOL    HW2 4710   1.669   3.515   3.326
 1271SOL     OW 4711   2.980   2.248   3.905
 1271SOL    HW1 4712   2.994   2.281   3.998
 1271SOL    HW2 4713   2.895   2.287   3.869
 1272SOL     OW 4714   5.656   5.137   0.133
 1272SOL    HW1 4715   5.644   5.218   0.075
 1272SOL    HW2 4716   5.596   5.064   0.101
 1273SOL     OW 4717   0.114   3.637   0.509
 1273SOL    HW1 4718   0.123   3.713   0.573
 1273SOL    HW2 4719   0.131   3.551   0.557
 1274SOL     OW 4720   6.422   4.476   1.344
 1274SOL    HW1 4721   6.426   4.429   1.256
 1274SOL    HW2 4722   6.498   4.540   1.351
 1275SOL     OW 4723   3.583   1.639   4.740
 1275SOL    HW1 4724   3.503   1.696   4.759
 1275SOL    HW2 4725   3.647   1.690   4.682
 1276SOL     OW 4726   0.206   5.667   4.585
 1276SOL    HW1 4727   0.173   5.651   4.492
 1276SOL    HW2 4728   0.236   5.581   4.625
 1277SOL     OW 4729   1.268   5.819   6.312
 1277SOL    HW1 4730   1.272   5.741   6.375
 1277SOL    HW2 4731   1.332   5.889   6.344
 1278SOL     OW 4732   0.511   0.175   4.863
 1278SOL    HW1 4733   0.476   0.117   4.790
 1278SOL    HW2 4734   0.597   0.137   4.897
 1279SOL     OW 4735   2.184   6.005   0.752
 1279SOL    HW1 4736   2.278   5.983   0.776
 1279SOL    HW2 4737   2.125   5.989   0.832
 1280SOL     OW 4738   3.261   6.352   4.857
 1280SOL    HW1 4739   3.300   6.262   4.875
 1280SOL    HW2 4740   3.236   6.358   4.760
 1281SOL     OW 4741   2.171   6.584   3.417
 1281SOL    HW1 4742   2.114   6.655   3.458
 1281SOL    HW2 4743   2.237   6.626   3.355
 1282SOL     OW 4744   0.465   2.239   0.125
 1282SOL    HW1 4745   0.458   2.140   0.111
 1282SOL    HW2 4746   0.375   2.277   0.147
 1283SOL     OW 4747   0.306   3.305   5.765
 1283SOL    HW1 4748   0.286   3.326   5.669
 1283SOL    HW2 4749   0.396   3.262   5.772
 1284SOL     OW 4750   4.610   2.270   1.292
 1284SOL    HW1 4751   4.689   2.325   1.318
 1284SOL    HW2 4752   4.639   2.199   1.228
 1285SOL     OW 4753   4.468   2.472   6.248
 1285SOL    HW1 4754   4.380   2.504   6.284
 1285SOL    HW2 4755   4.516   2.548   6.206
 1286SOL     OW 4756   4.769   3.463   1.231
 1286SOL    HW1 4757   4.774   3.481   1.329
 1286SOL    HW2 4758   4.697   3.519   1.190
 1287SOL     OW 4759   6.014   5.538   5.628
 1287SOL    HW1 4760   6.069   5.583   5.557
 1287SOL    HW2 4761   6.010   5.440   5.609
 1288SOL     OW 4762   4.220   3.130   6.217
 1288SOL    HW1 4763   4.216   3.150   6.119
 1288SOL    HW2 4764   4.219   3.216   6.269
 1289SOL     OW 4765   0.226   6.656   1.575
 1289SOL    HW1 4766   0.213   6.745   1.531
 1289SOL    HW2 4767   0.317   6.652   1.616
 1290SOL     OW 4768   0.635   5.906   6.487
 1290SOL    HW1 4769   0.606   5.835   6.422
 1290SOL    HW2 4770   0.707   5.962   6.446
 1291SOL     OW 4771   6.936   3.891   4.977
 1291SOL    HW1 4772   6.901   3.953   5.048
 1291SOL    HW2 4773   6.935   3.938   4.889
 1292SOL     OW 4774   0.463   5.879   2.484
 1292SOL    HW1 4775   0.482   5.965   2.436
 1292SOL    HW2 4776   0.400   5.896   2.560
 1293SOL     OW 4777   0.652   1.769   0.061
 1293SOL    HW1 4778   0.601   1.721   0.132
 1293SOL    HW2 4779   0.714   1.706   0.015
 1294SOL     OW 4780   1.120   3.096   6.558
 1294SOL    HW1 4781   1.200   3.141   6.519
 1294SOL    HW2 4782   1.055   3.165   6.590
 1295SOL     OW 4783   0.098   3.461   2.049
 1295SOL    HW1 4784   0.077   3.379   2.103
 1295SOL    HW2 4785   0.197   3.475   2.047
 1296SOL     OW 4786   3.787   6.569   5.686
 1296SOL    HW1 4787   3.721   6.500   5.716
 1296SOL    HW2 4788   3.871   6.560   5.739
 1297SOL     OW 4789   6.873   0.956   1.619
 1297SOL    HW1 4790   6.821   1.021   1.675
 1297SOL    HW2 4791   6.826   0.868   1.617
 1298SOL     OW 4792   5.837   5.429   2.658
 1298SOL    HW1 4793   5.856   5.518   2.697
 1298SOL    HW2 4794   5.755   5.435   2.601
 1299SOL     OW 4795   1.595   3.792   3.060
 1299SOL    HW1 4796   1.533   3.870   3.063
 1299SOL    HW2 4797   1.641   3.790   2.971
 1300SOL     OW 4798   2.532   3.176   1.388
 1300SOL    HW1 4799   2.579   3.126   1.460
 1300SOL    HW2 4800   2.451   3.221   1.425
 1301SOL     OW 4801   0.472   6.813   0.900
 1301SOL    HW1 4802   0.446   6.724   0.863
 1301SOL    HW2 4803   0.569   6.830   0.880
 1302SOL     OW 4804   4.884   0.145   5.665
 1302SOL    HW1 4805   4.807   0.084   5.684
 1302SOL    HW2 4806   4.889   0.161   5.566
 1303SOL     OW 4807   4.292   2.464   1.255
 1303SOL    HW1 4808   4.332   2.375   1.279
 1303SOL    HW2 4809   4.278   2.469   1.156
 1304SOL     OW 4810   2.017   0.926   6.738
 1304SOL    HW1 4811   2.072   0.961   6.663
 1304SOL    HW2 4812   1.934   0.884   6.702
 1305SOL     OW 4813   5.643   3.640   0.296
 1305SOL    HW1 4814   5.722   3.579   0.297
 1305SOL    HW2 4815   5.562   3.589   0.328
 1306SOL     OW 4816   0.841   4.975   3.684
 1306SOL    HW1 4817   0.888   4.914   3.748
 1306SOL    HW2 4818   0.858   5.070   3.711
 1307SOL     OW 4819   0.925   4.615   3.639
 1307SOL    HW1 4820   0.920   4.683   3.566
 1307SOL    HW2 4821   0.860   4.640   3.711
 1308SOL     OW 4822   6.075   6.148   5.220
 1308SOL    HW1 4823   6.027   6.152   5.307
 1308SOL    HW2 4824   6.008   6.153   5.145
 1309SOL     OW 4825   5.725   3.987   5.800
 1309SOL    HW1 4826   5.750   3.903   5.752
 1309SOL    HW2 4827   5.691   3.965   5.891
 1310SOL     OW 4828   6.703   3.940   3.962
 1310SOL    HW1 4829   6.673   3.850   3.993
 1310SOL    HW2 4830   6.803   3.940   3.950
 1311SOL     OW 4831   0.399   6.207   4.986
 1311SOL    HW1 4832   0.319   6.260   4.959
 1311SOL    HW2 4833   0.479   6.237   4.934
 1312SOL     OW 4834   1.185   6.878   6.914
 1312SOL    HW1 4835   1.242   6.799   6.890
 1312SOL    HW2 4836   1.091   6.847   6.930
 1313SOL     OW 4837   0.396   4.435   3.161
 1313SOL    HW1 4838   0.407   4.336   3.151
 1313SOL    HW2 4839   0.485   4.480   3.151
 1314SOL     OW 4840   4.355   1.539   5.429
 1314SOL    HW1 4841   4.279   1.487   5.469
 1314SOL    HW2 4842   4.374   1.505   5.337
 1315SOL     OW 4843   0.646   1.368   2.236
 1315SOL    HW1 4844   0.737   1.408   2.227
 1315SOL    HW2 4845   0.588   1.427   2.291
 1316SOL     OW 4846   1.815   5.817   5.096
 1316SOL    HW1 4847   1.763   5.736   5.125
 1316SOL    HW2 4848   1.910   5.807   5.125
 1317SOL     OW 4849   2.569   4.698   6.314
 1317SOL    HW1 4850   2.612   4.639   6.245
 1317SOL    HW2 4851   2.587   4.661   6.405
 1318SOL     OW 4852   0.692   1.821   1.181
 1318SOL    HW1 4853   0.762   1.893   1.183
 1318SOL    HW2 4854   0.734   1.734   1.207
 1319SOL     OW 4855   0.117   6.725   0.239
 1319SOL    HW1 4856   0.150   6.792   0.173
 1319SOL    HW2 4857   0.070   6.772   0.313
 1320SOL     OW 4858   4.573   4.237   0.745
 1320SOL    HW1 4859   4.559   4.335   0.735
 1320SOL    HW2 4860   4.593   4.197   0.655
 1321SOL     OW 4861   5.736   1.559   6.385
 1321SOL    HW1 4862   5.719   1.603   6.297
 1321SOL    HW2 4863   5.678   1.477   6.393
 1322SOL     OW 4864   4.065   0.991   3.404
 1322SOL    HW1 4865   4.026   0.923   3.467
 1322SOL    HW2 4866   4.157   1.015   3.434
 1323SOL     OW 4867   4.208   0.628   5.643
 1323SOL    HW1 4868   4.199   0.652   5.739
 1323SOL    HW2 4869   4.135   0.566   5.617
 1324SOL     OW 4870   0.895   3.673   0.466
 1324SOL    HW1 4871   0.983   3.705   0.502
 1324SOL    HW2 4872   0.906   3.643   0.371
 1325SOL     OW 4873   2.502   0.189   3.047
 1325SOL    HW1 4874   2.582   0.203   2.988
 1325SOL    HW2 4875   2.458   0.102   3.023
 1326SOL     OW 4876   4.955   3.272   5.048
 1326SOL    HW1 4877   5.033   3.330   5.070
 1326SOL    HW2 4878   4.870   3.324   5.060
 1327SOL     OW 4879   0.569   5.872   1.662
 1327SOL    HW1 4880   0.607   5.801   1.722
 1327SOL    HW2 4881   0.601   5.962   1.694
 1328SOL     OW 4882   1.590   3.083   0.446
 1328SOL    HW1 4883   1.623   3.150   0.512
 1328SOL    HW2 4884   1.514   3.032   0.485
 1329SOL     OW 4885   0.261   2.266   1.703
 1329SOL    HW1 4886   0.194   2.213   1.755
 1329SOL    HW2 4887   0.346   2.214   1.694
 1330SOL     OW 4888   0.731   1.392   1.711
 1330SOL    HW1 4889   0.674   1.471   1.686
 1330SOL    HW2 4890   0.704   1.359   1.802
 1331SOL     OW 4891   4.956   2.881   3.228
 1331SOL    HW1 4892   4.959   2.943   3.150
 1331SOL    HW2 4893   4.863   2.845   3.238
 1332SOL     OW 4894   2.666   6.746   6.680
 1332SOL    HW1 4895   2.710   6.828   6.643
 1332SOL    HW2 4896   2.582   6.726   6.628
 1333SOL     OW 4897   3.494   3.578   4.112
 1333SOL    HW1 4898   3.488   3.479   4.120
 1333SOL    HW2 4899   3.521   3.617   4.201
 1334SOL     OW 4900   6.033   1.725   4.452
 1334SOL    HW1 4901   5.973   1.779   4.511
 1334SOL    HW2 4902   6.071   1.785   4.381
 1335SOL     OW 4903   2.462   1.986   2.977
 1335SOL    HW1 4904   2.474   2.004   3.075
 1335SOL    HW2 4905   2.371   2.017   2.948
 1336SOL     OW 4906   1.622   2.849   4.854
 1336SOL    HW1 4907   1.644   2.801   4.940
 1336SOL    HW2 4908   1.673   2.934   4.850
 1337SOL     OW 4909   1.756   2.427   4.605
 1337SOL    HW1 4910   1.687   2.355   4.595
 1337SOL    HW2 4911   1.844   2.386   4.630
 1338SOL     OW 4912   5.308   1.943   5.109
 1338SOL    HW1 4913   5.262   1.893   5.183
 1338SOL    HW2 4914   5.350   2.025   5.146
 1339SOL     OW 4915   0.227   1.903   6.478
 1339SOL    HW1 4916   0.301   1.837   6.463
 1339SOL    HW2 4917   0.142   1.854   6.496
 1340SOL     OW 4918   6.792   2.156   2.600
 1340SOL    HW1 4919   6.806   2.227   2.670
 1340SOL    HW2 4920   6.782   2.199   2.510
 1341SOL     OW 4921   5.424   6.505   6.157
 1341SOL    HW1 4922   5.442   6.603   6.150
 1341SOL    HW2 4923   5.462   6.470   6.243
 1342SOL     OW 4924   2.255   5.512   5.671
 1342SOL    HW1 4925   2.294   5.599   5.701
 1342SOL    HW2 4926   2.279   5.440   5.736
 1343SOL     OW 4927   4.562   5.803   2.811
 1343SOL    HW1 4928   4.659   5.780   2.824
 1343SOL    HW2 4929   4.536   5.873   2.878
 1344SOL     OW 4930   6.638   5.621   4.298
 1344SOL    HW1 4931   6.696   5.700   4.281
 1344SOL    HW2 4932   6.563   5.647   4.360
 1345SOL     OW 4933   1.710   0.849   2.815
 1345SOL    HW1 4934   1.728   0.931   2.761
 1345SOL    HW2 4935   1.780   0.780   2.794
 1346SOL     OW 4936   0.815   6.150   4.939
 1346SOL    HW1 4937   0.770   6.239   4.939
 1346SOL    HW2 4938   0.794   6.102   5.024
 1347SOL     OW 4939   6.666   6.605   5.007
 1347SOL    HW1 4940   6.569   6.592   5.027
 1347SOL    HW2 4941   6.716   6.610   5.093
 1348SOL     OW 4942   5.481   5.691   2.516
 1348SOL    HW1 4943   5.391   5.656   2.544
 1348SOL    HW2 4944   5.494   5.673   2.419
 1349SOL     OW 4945   4.520   2.333   5.856
 1349SOL    HW1 4946   4.594   2.381   5.902
 1349SOL    HW2 4947   4.527   2.349   5.757
 1350SOL     OW 4948   5.206   5.006   5.168
 1350SOL    HW1 4949   5.269   5.026   5.092
 1350SOL    HW2 4950   5.146   4.930   5.143
 1351SOL     OW 4951   5.970   1.531   3.361
 1351SOL    HW1 4952   5.891   1.527   3.422
 1351SOL    HW2 4953   5.976   1.621   3.319
 1352SOL     OW 4954   0.011   6.393   2.161
 1352SOL    HW1 4955   7.014   6.467   2.226
 1352SOL    HW2 4956   0.074   6.424   2.090
 1353SOL     OW 4957   0.627   3.102   0.209
 1353SOL    HW1 4958   0.722   3.086   0.185
 1353SOL    HW2 4959   0.618   3.106   0.309
 1354SOL     OW 4960   0.989   3.650   1.434
 1354SOL    HW1 4961   0.949   3.568   1.475
 1354SOL    HW2 4962   1.074   3.673   1.482
 1355SOL     OW 4963   6.779   2.811   4.853
 1355SOL    HW1 4964   6.819   2.890   4.808
 1355SOL    HW2 4965   6.747   2.746   4.784
 1356SOL     OW 4966   3.065   3.104   2.871
 1356SOL    HW1 4967   3.024   3.182   2.918
 1356SOL    HW2 4968   3.052   3.114   2.773
 1357SOL     OW 4969   1.341   2.943   5.682
 1357SOL    HW1 4970   1.263   2.915   5.738
 1357SOL    HW2 4971   1.366   3.037   5.702
 1358SOL     OW 4972   4.171   0.256   5.786
 1358SOL    HW1 4973   4.156   0.274   5.688
 1358SOL    HW2 4974   4.268   0.268   5.807
 1359SOL     OW 4975   5.742   4.656   1.937
 1359SOL    HW1 4976   5.706   4.677   1.845
 1359SOL    HW2 4977   5.764   4.559   1.943
 1360SOL     OW 4978   3.536   2.866   0.188
 1360SOL    HW1 4979   3.553   2.909   0.099
 1360SOL    HW2 4980   3.456   2.909   0.231
 1361SOL     OW 4981   0.190   5.450   5.022
 1361SOL    HW1 4982   0.180   5.525   4.956
 1361SOL    HW2 4983   0.189   5.487   5.115
 1362SOL     OW 4984   3.501   4.045   4.246
 1362SOL    HW1 4985   3.502   4.048   4.146
 1362SOL    HW2 4986   3.407   4.031   4.278
 1363SOL     OW 4987   6.862   5.422   3.159
 1363SOL    HW1 4988   6.935   5.400   3.093
 1363SOL    HW2 4989   6.902   5.465   3.240
 1364SOL     OW 4990   6.226   2.724   1.383
 1364SOL    HW1 4991   6.257   2.762   1.296
 1364SOL    HW2 4992   6.298   2.732   1.451
 1365SOL     OW 4993   1.587   3.468   6.456
 1365SOL    HW1 4994   1.555   3.561   6.438
 1365SOL    HW2 4995   1.652   3.440   6.385
 1366SOL     OW 4996   0.957   4.768   6.884
 1366SOL    HW1 4997   0.933   4.852   6.836
 1366SOL    HW2 4998   1.021   4.714   6.829
 1367SOL     OW 4999   2.412   6.944   2.716
 1367SOL    HW1 5000   2.504   6.937   2.755
 1367SOL    HW2 5001   2.347   6.895   2.774
 1368SOL     OW 5002   6.525   0.503   3.559
 1368SOL    HW1 5003   6.564   0.505   3.651
 1368SOL    HW2 5004   6.586   0.452   3.498
 1369SOL     OW 5005   2.452   0.117   1.744
 1369SOL    HW1 5006   2.497   0.149   1.661
 1369SOL    HW2 5007   2.411   0.195   1.792
 1370SOL     OW 5008   4.319   1.796   1.297
 1370SOL    HW1 5009   4.247   1.864   1.310
 1370SOL    HW2 5010   4.382   1.827   1.226
 1371SOL     OW 5011   6.076   1.449   4.381
 1371SOL    HW1 5012   6.084   1.542   4.417
 1371SOL    HW2 5013   5.980   1.425   4.369
 1372SOL     OW 5014   1.074   3.464   0.653
 1372SOL    HW1 5015   1.018   3.384   0.630
 1372SOL    HW2 5016   1.015   3.544   0.661
 1373SOL     OW 5017   4.783   2.486   6.780
 1373SOL    HW1 5018   4.709   2.443   6.728
 1373SOL    HW2 5019   4.871   2.446   6.752
 1374SOL     OW 5020   5.194   2.077   0.275
 1374SOL    HW1 5021   5.174   2.175   0.264
 1374SOL    HW2 5022   5.185   2.031   0.187
 1375SOL     OW 5023   0.573   4.031   6.626
 1375SOL    HW1 5024   0.617   3.973   6.694
 1375SOL    HW2 5025   0.542   4.115   6.669
 1376SOL     OW 5026   4.114   4.787   5.023
 1376SOL    HW1 5027   4.192   4.725   5.026
 1376SOL    HW2 5028   4.097   4.817   4.929
 1377SOL     OW 5029   0.629   3.574   5.420
 1377SOL    HW1 5030   0.536   3.597   5.449
 1377SOL    HW2 5031   0.625   3.520   5.337
 1378SOL     OW 5032   5.786   0.661   5.037
 1378SOL    HW1 5033   5.883   0.683   5.028
 1378SOL    HW2 5034   5.737   0.687   4.953
 1379SOL     OW 5035   3.849   0.018   3.194
 1379SOL    HW1 5036   3.917   0.015   3.266
 1379SOL    HW2 5037   3.894   0.027   3.105
 1380SOL     OW 5038   0.205   6.751   2.353
 1380SOL    HW1 5039   0.166   6.789   2.437
 1380SOL    HW2 5040   0.304   6.760   2.356
 1381SOL     OW 5041   6.131   2.284   6.949
 1381SOL    HW1 5042   6.033   2.302   6.955
 1381SOL    HW2 5043   6.147   2.185   6.948
 1382SOL     OW 5044   4.651   3.606   0.122
 1382SOL    HW1 5045   4.606   3.650   0.044
 1382SOL    HW2 5046   4.750   3.617   0.113
 1383SOL     OW 5047   1.180   0.523   2.036
 1383SOL    HW1 5048   1.117   0.484   1.968
 1383SOL    HW2 5049   1.140   0.606   2.075
 1384SOL     OW 5050   4.653   0.093   1.627
 1384SOL    HW1 5051   4.596   0.026   1.579
 1384SOL    HW2 5052   4.597   0.173   1.650
 1385SOL     OW 5053   1.838   3.877   4.003
 1385SOL    HW1 5054   1.911   3.938   3.969
 1385SOL    HW2 5055   1.880   3.797   4.045
 1386SOL     OW 5056   3.356   0.868   4.209
 1386SOL    HW1 5057   3.304   0.853   4.293
 1386SOL    HW2 5058   3.301   0.920   4.144
 1387SOL     OW 5059   3.758   5.693   2.356
 1387SOL    HW1 5060   3.731   5.787   2.379
 1387SOL    HW2 5061   3.844   5.671   2.403
 1388SOL     OW 5062   0.746   6.850   3.026
 1388SOL    HW1 5063   0.700   6.771   3.065
 1388SOL    HW2 5064   0.800   6.822   2.946
 1389SOL     OW 5065   0.236   1.158   3.646
 1389SOL    HW1 5066   0.154   1.157   3.704
 1389SOL    HW2 5067   0.310   1.108   3.692
 1390SOL     OW 5068   5.698   3.019   6.120
 1390SOL    HW1 5069   5.631   3.085   6.085
 1390SOL    HW2 5070   5.790   3.055   6.106
 1391SOL     OW 5071   6.220   6.871   5.182
 1391SOL    HW1 5072   6.141   6.811   5.167
 1391SOL    HW2 5073   6.297   6.838   5.127
 1392SOL     OW 5074   5.677   6.645   6.673
 1392SOL    HW1 5075   5.630   6.687   6.751
 1392SOL    HW2 5076   5.610   6.599   6.614
 1393SOL     OW 5077   6.237   3.603   5.989
 1393SOL    HW1 5078   6.246   3.701   5.973
 1393SOL    HW2 5079   6.157   3.586   6.047
 1394SOL     OW 5080   3.986   5.652   4.440
 1394SOL    HW1 5081   4.066   5.663   4.498
 1394SOL    HW2 5082   4.008   5.591   4.364
 1395SOL     OW 5083   1.526   4.311   4.061
 1395SOL    HW1 5084   1.583   4.312   3.979
 1395SOL    HW2 5085   1.444   4.366   4.045
 1396SOL     OW 5086   0.637   0.529   4.228
 1396SOL    HW1 5087   0.713   0.509   4.166
 1396SOL    HW2 5088   0.570   0.585   4.181
 1397SOL     OW 5089   0.681   5.698   4.781
 1397SOL    HW1 5090   0.637   5.784   4.806
 1397SOL    HW2 5091   0.612   5.626   4.777
 1398SOL     OW 5092   1.959   1.987   6.675
 1398SOL    HW1 5093   1.910   1.900   6.677
 1398SOL    HW2 5094   1.935   2.037   6.592
 1399SOL     OW 5095   3.647   6.739   0.213
 1399SOL    HW1 5096   3.584   6.703   0.282
 1399SOL    HW2 5097   3.596   6.790   0.144
 1400SOL     OW 5098   0.065   2.405   4.428
 1400SOL    HW1 5099   0.076   2.389   4.330
 1400SOL    HW2 5100   0.155   2.404   4.471
 1401SOL     OW 5101   6.026   6.786   4.293
 1401SOL    HW1 5102   6.074   6.701   4.316
 1401SOL    HW2 5103   5.928   6.774   4.309
 1402SOL     OW 5104   5.789   4.599   6.078
 1402SOL    HW1 5105   5.864   4.660   6.101
 1402SOL    HW2 5106   5.702   4.640   6.106
 1403SOL     OW 5107   1.948   2.192   1.519
 1403SOL    HW1 5108   1.984   2.266   1.463
 1403SOL    HW2 5109   1.856   2.167   1.486
 1404SOL     OW 5110   6.649   0.125   7.009
 1404SOL    HW1 5111   6.585   0.201   0.000
 1404SOL    HW2 5112   6.627   0.075   6.925
 1405SOL     OW 5113   2.471   4.301   0.770
 1405SOL    HW1 5114   2.534   4.254   0.708
 1405SOL    HW2 5115   2.412   4.234   0.815
 1406SOL     OW 5116   1.886   5.515   1.475
 1406SOL    HW1 5117   1.931   5.599   1.444
 1406SOL    HW2 5118   1.915   5.439   1.418
 1407SOL     OW 5119   1.826   4.150   3.428
 1407SOL    HW1 5120   1.900   4.215   3.412
 1407SOL    HW2 5121   1.847   4.095   3.509
 1408SOL     OW 5122   5.644   6.877   6.316
 1408SOL    HW1 5123   5.731   6.835   6.290
 1408SOL    HW2 5124   5.639   6.887   6.415
 1409SOL     OW 5125   6.933   0.393   5.447
 1409SOL    HW1 5126   6.944   0.414   5.350
 1409SOL    HW2 5127   6.978   0.464   5.501
 1410SOL     OW 5128   2.993   4.063   0.103
 1410SOL    HW1 5129   3.079   4.035   0.145
 1410SOL    HW2 5130   2.978   4.160   0.118
 1411SOL     OW 5131   3.492   5.545   6.833
 1411SOL    HW1 5132   3.520   5.459   6.791
 1411SOL    HW2 5133   3.490   5.535   6.932
 1412SOL     OW 5134   0.827   3.856   1.371
 1412SOL    HW1 5135   0.884   3.931   1.336
 1412SOL    HW2 5136   0.885   3.788   1.416
 1413SOL     OW 5137   2.092   1.318   4.596
 1413SOL    HW1 5138   2.038   1.235   4.608
 1413SOL    HW2 5139   2.180   1.295   4.554
 1414SOL     OW 5140   2.496   2.151   1.835
 1414SOL    HW1 5141   2.526   2.239   1.873
 1414SOL    HW2 5142   2.576   2.094   1.818
 1415SOL     OW 5143   2.931   1.098   4.194
 1415SOL    HW1 5144   2.911   1.122   4.100
 1415SOL    HW2 5145   2.907   1.174   4.254
 1416SOL     OW 5146   3.684   6.997   4.839
 1416SOL    HW1 5147   3.752   7.009   4.767
 1416SOL    HW2 5148   3.595   6.976   4.797
 1417SOL     OW 5149   3.095   2.871   6.739
 1417SOL    HW1 5150   3.160   2.820   6.682
 1417SOL    HW2 5151   3.036   2.926   6.681
 1418SOL     OW 5152   2.933   4.050   0.451
 1418SOL    HW1 5153   2.913   3.952   0.444
 1418SOL    HW2 5154   2.848   4.101   0.463
 1419SOL     OW 5155   2.857   5.726   3.738
 1419SOL    HW1 5156   2.833   5.823   3.744
 1419SOL    HW2 5157   2.956   5.716   3.741
 1420SOL     OW 5158   3.440   5.981   3.325
 1420SOL    HW1 5159   3.367   6.016   3.383
 1420SOL    HW2 5160   3.406   5.902   3.273
 1421SOL     OW 5161   0.889   4.220   3.653
 1421SOL    HW1 5162   0.981   4.230   3.691
 1421SOL    HW2 5163   0.865   4.304   3.604
 1422SOL     OW 5164   3.067   4.578   6.897
 1422SOL    HW1 5165   3.063   4.674   6.868
 1422SOL    HW2 5166   3.161   4.552   6.917
 1423SOL     OW 5167   3.655   0.745   4.568
 1423SOL    HW1 5168   3.703   0.831   4.585
 1423SOL    HW2 5169   3.691   0.702   4.486
 1424SOL     OW 5170   6.781   3.594   6.569
 1424SOL    HW1 5171   6.876   3.580   6.598
 1424SOL    HW2 5172   6.742   3.671   6.621
 1425SOL     OW 5173   2.135   5.485   5.045
 1425SOL    HW1 5174   2.199   5.411   5.027
 1425SOL    HW2 5175   2.122   5.494   5.144
 1426SOL     OW 5176   2.394   1.895   5.722
 1426SOL    HW1 5177   2.348   1.811   5.692
 1426SOL    HW2 5178   2.329   1.953   5.770
 1427SOL     OW 5179   6.827   6.736   3.965
 1427SOL    HW1 5180   6.908   6.716   3.910
 1427SOL    HW2 5181   6.849   6.809   4.030
 1428SOL     OW 5182   0.654   1.799   1.721
 1428SOL    HW1 5183   0.578   1.859   1.695
 1428SOL    HW2 5184   0.646   1.712   1.674
 1429SOL     OW 5185   6.255   1.657   0.396
 1429SOL    HW1 5186   6.298   1.739   0.432
 1429SOL    HW2 5187   6.324   1.596   0.358
 1430SOL     OW 5188   2.138   5.006   3.684
 1430SOL    HW1 5189   2.225   5.032   3.727
 1430SOL    HW2 5190   2.073   4.981   3.756
 1431SOL     OW 5191   2.702   2.588   6.058
 1431SOL    HW1 5192   2.711   2.675   6.107
 1431SOL    HW2 5193   2.689   2.606   5.960
 1432SOL     OW 5194   2.943   0.741   0.858
 1432SOL    HW1 5195   2.939   0.805   0.935
 1432SOL    HW2 5196   2.851   0.730   0.820
 1433SOL     OW 5197   4.475   0.189   4.531
 1433SOL    HW1 5198   4.545   0.136   4.579
 1433SOL    HW2 5199   4.389   0.139   4.532
 1434SOL     OW 5200   0.343   0.578   6.037
 1434SOL    HW1 5201   0.265   0.555   5.980
 1434SOL    HW2 5202   0.365   0.500   6.097
 1435SOL     OW 5203   6.932   0.072   3.140
 1435SOL    HW1 5204   6.924   0.157   3.192
 1435SOL    HW2 5205   6.865   0.006   3.174
 1436SOL     OW 5206   5.416   3.678   6.860
 1436SOL    HW1 5207   5.406   3.583   6.890
 1436SOL    HW2 5208   5.482   3.724   6.919
 1437SOL     OW 5209   2.710   0.802   6.216
 1437SOL    HW1 5210   2.632   0.765   6.166
 1437SOL    HW2 5211   2.744   0.883   6.168
 1438SOL     OW 5212   2.538   0.144   1.467
 1438SOL    HW1 5213   2.551   0.061   1.413
 1438SOL    HW2 5214   2.524   0.222   1.406
 1439SOL     OW 5215   0.501   5.119   0.936
 1439SOL    HW1 5216   0.419   5.114   0.879
 1439SOL    HW2 5217   0.477   5.155   1.026
 1440SOL     OW 5218   3.332   3.119   5.445
 1440SOL    HW1 5219   3.409   3.172   5.409
 1440SOL    HW2 5220   3.261   3.111   5.375
 1441SOL     OW 5221   6.299   3.777   4.840
 1441SOL    HW1 5222   6.392   3.806   4.862
 1441SOL    HW2 5223   6.300   3.727   4.753
 1442SOL     OW 5224   6.531   4.925   6.924
 1442SOL    HW1 5225   6.621   4.966   6.909
 1442SOL    HW2 5226   6.474   4.990   6.975
 1443SOL     OW 5227   0.985   2.314   5.038
 1443SOL    HW1 5228   0.905   2.369   5.063
 1443SOL    HW2 5229   1.026   2.275   5.121
 1444SOL     OW 5230   4.344   5.531   1.581
 1444SOL    HW1 5231   4.413   5.512   1.511
 1444SOL    HW2 5232   4.353   5.626   1.611
 1445SOL     OW 5233   0.043   2.709   2.521
 1445SOL    HW1 5234   0.011   2.672   2.435
 1445SOL    HW2 5235   0.055   2.635   2.587
 1446SOL     OW 5236   5.055   2.121   6.595
 1446SOL    HW1 5237   5.115   2.061   6.648
 1446SOL    HW2 5238   5.078   2.216   6.615
 1447SOL     OW 5239   6.154   6.815   5.641
 1447SOL    HW1 5240   6.148   6.888   5.573
 1447SOL    HW2 5241   6.090   6.742   5.618
 1448SOL     OW 5242   6.644   2.601   6.987
 1448SOL    HW1 5243   6.619   2.504   6.987
 1448SOL    HW2 5244   6.581   2.651   6.928
 1449SOL     OW 5245   6.167   1.076   0.110
 1449SOL    HW1 5246   6.177   1.173   0.090
 1449SOL    HW2 5247   6.070   1.052   0.111
 1450SOL     OW 5248   0.871   2.298   2.376
 1450SOL    HW1 5249   0.824   2.260   2.297
 1450SOL    HW2 5250   0.812   2.366   2.420
 1451SOL     OW 5251   2.908   0.983   2.739
 1451SOL    HW1 5252   2.918   1.074   2.778
 1451SOL    HW2 5253   2.981   0.965   2.673
 1452SOL     OW 5254   3.993   1.097   3.994
 1452SOL    HW1 5255   4.054   1.138   3.927
 1452SOL    HW2 5256   4.040   1.022   4.040
 1453SOL     OW 5257   0.363   3.681   5.501
 1453SOL    HW1 5258   0.345   3.669   5.403
 1453SOL    HW2 5259   0.283   3.722   5.545
 1454SOL     OW 5260   6.062   2.307   3.101
 1454SOL    HW1 5261   6.148   2.304   3.049
 1454SOL    HW2 5262   6.008   2.386   3.073
 1455SOL     OW 5263   1.749   0.653   1.352
 1455SOL    HW1 5264   1.780   0.748   1.346
 1455SOL    HW2 5265   1.728   0.631   1.447
 1456SOL     OW 5266   6.355   0.089   5.232
 1456SOL    HW1 5267   6.327   7.015   5.216
 1456SOL    HW2 5268   6.276   0.144   5.260
 1457SOL     OW 5269   1.369   0.125   1.119
 1457SOL    HW1 5270   1.289   0.072   1.147
 1457SOL    HW2 5271   1.452   0.084   1.158
 1458SOL     OW 5272   6.312   6.473   3.623
 1458SOL    HW1 5273   6.252   6.402   3.659
 1458SOL    HW2 5274   6.283   6.498   3.531
 1459SOL     OW 5275   2.318   4.878   5.544
 1459SOL    HW1 5276   2.410   4.853   5.514
 1459SOL    HW2 5277   2.299   4.972   5.518
 1460SOL     OW 5278   0.297   4.911   5.760
 1460SOL    HW1 5279   0.216   4.969   5.756
 1460SOL    HW2 5280   0.360   4.936   5.686
 1461SOL     OW 5281   0.617   5.107   3.462
 1461SOL    HW1 5282   0.704   5.079   3.422
 1461SOL    HW2 5283   0.543   5.087   3.398
 1462SOL     OW 5284   0.900   0.819   5.690
 1462SOL    HW1 5285   0.954   0.860   5.617
 1462SOL    HW2 5286   0.899   0.720   5.680
 1463SOL     OW 5287   0.259   5.271   0.022
 1463SOL    HW1 5288   0.252   5.183   6.997
 1463SOL    HW2 5289   0.214   5.341   6.986
 1464SOL     OW 5290   6.540   6.596   1.063
 1464SOL    HW1 5291   6.615   6.659   1.084
 1464SOL    HW2 5292   6.453   6.635   1.093
 1465SOL     OW 5293   1.908   1.862   3.951
 1465SOL    HW1 5294   1.897   1.764   3.940
 1465SOL    HW2 5295   1.823   1.909   3.925
 1466SOL     OW 5296   1.319   0.913   2.529
 1466SOL    HW1 5297   1.374   0.842   2.572
 1466SOL    HW2 5298   1.324   0.997   2.583
 1467SOL     OW 5299   1.980   1.785   2.362
 1467SOL    HW1 5300   2.031   1.850   2.305
 1467SOL    HW2 5301   2.042   1.743   2.428
 1468SOL     OW 5302   5.346   5.223   2.978
 1468SOL    HW1 5303   5.324   5.313   3.016
 1468SOL    HW2 5304   5.439   5.224   2.941
 1469SOL     OW 5305   1.208   1.179   2.061
 1469SOL    HW1 5306   1.191   1.082   2.044
 1469SOL    HW2 5307   1.158   1.234   1.993
 1470SOL     OW 5308   1.840   1.243   3.005
 1470SOL    HW1 5309   1.742   1.263   3.005
 1470SOL    HW2 5310   1.878   1.264   2.915
 1471SOL     OW 5311   0.712   0.591   0.996
 1471SOL    HW1 5312   0.740   0.686   0.982
 1471SOL    HW2 5313   0.751   0.534   0.923
 1472SOL     OW 5314   3.924   5.866   5.124
 1472SOL    HW1 5315   3.890   5.835   5.035
 1472SOL    HW2 5316   3.922   5.966   5.127
 1473SOL     OW 5317   5.901   5.773   3.500
 1473SOL    HW1 5318   5.976   5.719   3.463
 1473SOL    HW2 5319   5.936   5.861   3.533
 1474SOL     OW 5320   6.138   5.916   2.937
 1474SOL    HW1 5321   6.224   5.967   2.936
 1474SOL    HW2 5322   6.143   5.841   2.871
 1475SOL     OW 5323   6.715   0.521   1.613
 1475SOL    HW1 5324   6.789   0.455   1.626
 1475SOL    HW2 5325   6.630   0.473   1.593
 1476SOL     OW 5326   2.285   1.978   1.489
 1476SOL    HW1 5327   2.234   2.024   1.561
 1476SOL    HW2 5328   2.380   1.968   1.517
 1477SOL     OW 5329   3.133   0.787   6.892
 1477SOL    HW1 5330   3.167   0.761   6.982
 1477SOL    HW2 5331   3.095   0.879   6.896
 1478SOL     OW 5332   5.467   4.622   0.118
 1478SOL    HW1 5333   5.434   4.528   0.115
 1478SOL    HW2 5334   5.389   4.685   0.114
 1479SOL     OW 5335   1.568   3.457   6.734
 1479SOL    HW1 5336   1.508   3.490   6.808
 1479SOL    HW2 5337   1.537   3.495   6.647
 1480SOL     OW 5338   2.911   0.332   5.949
 1480SOL    HW1 5339   2.825   0.362   5.907
 1480SOL    HW2 5340   2.905   0.346   6.048
 1481SOL     OW 5341   0.049   2.374   5.334
 1481SOL    HW1 5342   0.128   2.404   5.281
 1481SOL    HW2 5343   0.046   2.274   5.335
 1482SOL     OW 5344   5.002   2.505   0.886
 1482SOL    HW1 5345   5.026   2.408   0.895
 1482SOL    HW2 5346   5.062   2.548   0.819
 1483SOL     OW 5347   6.120   2.014   6.608
 1483SOL    HW1 5348   6.083   2.105   6.590
 1483SOL    HW2 5349   6.210   2.006   6.567
 1484SOL     OW 5350   5.611   5.169   3.817
 1484SOL    HW1 5351   5.681   5.114   3.771
 1484SOL    HW2 5352   5.648   5.201   3.905
 1485SOL     OW 5353   3.764   1.792   3.166
 1485SOL    HW1 5354   3.769   1.807   3.265
 1485SOL    HW2 5355   3.768   1.694   3.148
 1486SOL     OW 5356   5.295   2.251   2.985
 1486SOL    HW1 5357   5.219   2.269   2.923
 1486SOL    HW2 5358   5.264   2.192   3.059
 1487SOL     OW 5359   6.868   2.584   6.795
 1487SOL    HW1 5360   6.795   2.598   6.862
 1487SOL    HW2 5361   6.828   2.553   6.708
 1488SOL     OW 5362   5.521   1.803   3.393
 1488SOL    HW1 5363   5.437   1.761   3.426
 1488SOL    HW2 5364   5.599   1.745   3.419
 1489SOL     OW 5365   4.214   5.023   3.874
 1489SOL    HW1 5366   4.239   5.024   3.971
 1489SOL    HW2 5367   4.123   5.062   3.863
 1490SOL     OW 5368   1.408   3.136   1.283
 1490SOL    HW1 5369   1.385   3.089   1.198
 1490SOL    HW2 5370   1.324   3.154   1.334
 1491SOL     OW 5371   5.905   4.056   4.072
 1491SOL    HW1 5372   5.954   3.975   4.040
 1491SOL    HW2 5373   5.966   4.136   4.069
 1492SOL     OW 5374   5.679   1.452   2.830
 1492SOL    HW1 5375   5.700   1.538   2.876
 1492SOL    HW2 5376   5.582   1.430   2.843
 1493SOL     OW 5377   4.847   6.690   3.757
 1493SOL    HW1 5378   4.787   6.720   3.832
 1493SOL    HW2 5379   4.847   6.758   3.684
 1494SOL     OW 5380   5.691   1.971   5.877
 1494SOL    HW1 5381   5.747   2.033   5.822
 1494SOL    HW2 5382   5.649   2.023   5.952
 1495SOL     OW 5383   6.509   2.928   4.817
 1495SOL    HW1 5384   6.607   2.911   4.822
 1495SOL    HW2 5385   6.482   2.992   4.889
 1496SOL     OW 5386   0.780   1.687   2.482
 1496SOL    HW1 5387   0.873   1.690   2.445
 1496SOL    HW2 5388   0.779   1.634   2.566
 1497SOL     OW 5389   6.795   3.061   3.817
 1497SOL    HW1 5390   6.809   2.963   3.801
 1497SOL    HW2 5391   6.818   3.113   3.735
 1498SOL     OW 5392   1.889   4.751   6.378
 1498SOL    HW1 5393   1.804   4.697   6.378
 1498SOL    HW2 5394   1.944   4.726   6.298
 1499SOL     OW 5395   1.389   3.608   6.223
 1499SOL    HW1 5396   1.293   3.581   6.220
 1499SOL    HW2 5397   1.413   3.635   6.317
 1500SOL     OW 5398   6.866   6.632   7.004
 1500SOL    HW1 5399   6.958   6.594   6.997
 1500SOL    HW2 5400   6.857   6.711   6.944
 1501SOL     OW 5401   4.795   1.603   6.295
 1501SOL    HW1 5402   4.842   1.544   6.361
 1501SOL    HW2 5403   4.704   1.625   6.330
 1502SOL     OW 5404   6.176   0.311   1.104
 1502SOL    HW1 5405   6.122   0.376   1.051
 1502SOL    HW2 5406   6.116   0.241   1.143
 1503SOL     OW 5407   2.670   1.551   2.480
 1503SOL    HW1 5408   2.690   1.508   2.392
 1503SOL    HW2 5409   2.709   1.643   2.483
 1504SOL     OW 5410   0.878   0.915   4.522
 1504SOL    HW1 5411   0.802   0.853   4.501
 1504SOL    HW2 5412   0.928   0.880   4.601
 1505SOL     OW 5413   5.984   0.192   5.664
 1505SOL    HW1 5414   5.930   0.274   5.644
 1505SOL    HW2 5415   6.063   0.216   5.719
 1506SOL     OW 5416   1.982   5.303   1.352
 1506SOL    HW1 5417   1.957   5.255   1.436
 1506SOL    HW2 5418   1.981   5.240   1.275
 1507SOL     OW 5419   0.845   1.995   5.506
 1507SOL    HW1 5420   0.753   1.957   5.495
 1507SOL    HW2 5421   0.911   1.920   5.509
 1508SOL     OW 5422   6.940   0.645   1.753
 1508SOL    HW1 5423   6.873   0.628   1.825
 1508SOL    HW2 5424   6.909   0.604   1.668
 1509SOL     OW 5425   4.478   2.226   6.114
 1509SOL    HW1 5426   4.512   2.261   6.027
 1509SOL    HW2 5427   4.481   2.300   6.182
 1510SOL     OW 5428   5.906   2.785   4.986
 1510SOL    HW1 5429   5.873   2.733   5.065
 1510SOL    HW2 5430   5.829   2.807   4.926
 1511SOL     OW 5431   3.083   2.906   1.429
 1511SOL    HW1 5432   3.101   2.831   1.365
 1511SOL    HW2 5433   3.094   2.874   1.523
 1512SOL     OW 5434   0.097   6.020   1.696
 1512SOL    HW1 5435   0.036   6.091   1.731
 1512SOL    HW2 5436   0.112   5.951   1.766
 1513SOL     OW 5437   3.396   0.567   4.132
 1513SOL    HW1 5438   3.433   0.644   4.184
 1513SOL    HW2 5439   3.355   0.601   4.047
 1514SOL     OW 5440   5.138   2.465   5.630
 1514SOL    HW1 5441   5.097   2.409   5.702
 1514SOL    HW2 5442   5.189   2.407   5.567
 1515SOL     OW 5443   5.914   3.084   4.989
 1515SOL    HW1 5444   5.900   2.986   4.978
 1515SOL    HW2 5445   5.923   3.106   5.086
 1516SOL     OW 5446   0.462   0.226   0.964
 1516SOL    HW1 5447   0.450   0.300   0.898
 1516SOL    HW2 5448   0.559   0.206   0.974
 1517SOL     OW 5449   3.694   6.029   3.410
 1517SOL    HW1 5450   3.732   6.002   3.499
 1517SOL    HW2 5451   3.617   5.970   3.388
 1518SOL     OW 5452   0.681   2.707   0.651
 1518SOL    HW1 5453   0.599   2.650   0.650
 1518SOL    HW2 5454   0.717   2.715   0.558
 1519SOL     OW 5455   6.394   5.052   1.993
 1519SOL    HW1 5456   6.410   4.961   1.955
 1519SOL    HW2 5457   6.468   5.113   1.965
 1520SOL     OW 5458   0.637   3.602   2.269
 1520SOL    HW1 5459   0.641   3.574   2.365
 1520SOL    HW2 5460   0.723   3.647   2.244
 1521SOL     OW 5461   2.330   4.317   6.911
 1521SOL    HW1 5462   2.310   4.253   6.837
 1521SOL    HW2 5463   2.388   4.391   6.877
 1522SOL     OW 5464   6.539   0.080   5.028
 1522SOL    HW1 5465   6.479   0.033   4.964
 1522SOL    HW2 5466   6.486   0.113   5.106
 1523SOL     OW 5467   5.112   4.066   6.978
 1523SOL    HW1 5468   5.162   4.102   6.900
 1523SOL    HW2 5469   5.025   4.027   6.947
 1524SOL     OW 5470   1.189   2.223   1.745
 1524SOL    HW1 5471   1.275   2.196   1.788
 1524SOL    HW2 5472   1.158   2.310   1.783
 1525SOL     OW 5473   6.704   2.204   0.230
 1525SOL    HW1 5474   6.780   2.149   0.195
 1525SOL    HW2 5475   6.719   2.225   0.327
 1526SOL     OW 5476   1.040   0.538   6.480
 1526SOL    HW1 5477   0.949   0.500   6.487
 1526SOL    HW2 5478   1.096   0.481   6.420
 1527SOL     OW 5479   3.556   0.889   5.752
 1527SOL    HW1 5480   3.603   0.954   5.692
 1527SOL    HW2 5481   3.493   0.938   5.812
 1528SOL     OW 5482   5.350   5.916   2.144
 1528SOL    HW1 5483   5.405   5.838   2.172
 1528SOL    HW2 5484   5.339   5.915   2.044
 1529SOL     OW 5485   3.781   0.114   0.467
 1529SOL    HW1 5486   3.761   0.074   0.557
 1529SOL    HW2 5487   3.699   0.159   0.432
 1530SOL     OW 5488   3.272   0.913   2.758
 1530SOL    HW1 5489   3.233   0.985   2.815
 1530SOL    HW2 5490   3.235   0.920   2.665
 1531SOL     OW 5491   5.522   0.920   4.583
 1531SOL    HW1 5492   5.438   0.890   4.538
 1531SOL    HW2 5493   5.533   0.871   4.670
 1532SOL     OW 5494   2.778   3.645   5.908
 1532SOL    HW1 5495   2.799   3.572   5.973
 1532SOL    HW2 5496   2.680   3.666   5.911
 1533SOL     OW 5497   0.320   2.896   0.294
 1533SOL    HW1 5498   0.331   2.972   0.358
 1533SOL    HW2 5499   0.383   2.907   0.217
 1534SOL     OW 5500   1.443   4.932   6.523
 1534SOL    HW1 5501   1.405   5.001   6.461
 1534SOL    HW2 5502   1.542   4.932   6.516
 1535SOL     OW 5503   4.866   6.123   4.156
 1535SOL    HW1 5504   4.883   6.146   4.252
 1535SOL    HW2 5505   4.776   6.159   4.128
 1536SOL     OW 5506   4.169   4.345   5.311
 1536SOL    HW1 5507   4.153   4.440   5.339
 1536SOL    HW2 5508   4.254   4.341   5.258
 1537SOL     OW 5509   3.318   5.971   2.981
 1537SOL    HW1 5510   3.282   5.991   2.889
 1537SOL    HW2 5511   3.414   5.999   2.986
 1538SOL     OW 5512   3.532   5.789   6.105
 1538SOL    HW1 5513   3.530   5.689   6.112
 1538SOL    HW2 5514   3.525   5.816   6.009
 1539SOL     OW 5515   4.390   4.049   1.517
 1539SOL    HW1 5516   4.424   4.093   1.435
 1539SOL    HW2 5517   4.432   4.090   1.598
 1540SOL     OW 5518   1.108   0.221   5.399
 1540SOL    HW1 5519   1.202   0.232   5.367
 1540SOL    HW2 5520   1.075   0.307   5.437
 1541SOL     OW 5521   3.552   2.796   2.081
 1541SOL    HW1 5522   3.567   2.853   2.161
 1541SOL    HW2 5523   3.579   2.701   2.101
 1542SOL     OW 5524   6.522   6.247   1.733
 1542SOL    HW1 5525   6.533   6.325   1.794
 1542SOL    HW2 5526   6.484   6.277   1.646
 1543SOL     OW 5527   3.153   3.919   4.012
 1543SOL    HW1 5528   3.200   3.916   4.101
 1543SOL    HW2 5529   3.082   3.849   4.009
 1544SOL     OW 5530   3.143   3.804   2.232
 1544SOL    HW1 5531   3.130   3.706   2.250
 1544SOL    HW2 5532   3.112   3.856   2.311
 1545SOL     OW 5533   5.500   0.755   4.790
 1545SOL    HW1 5534   5.508   0.744   4.889
 1545SOL    HW2 5535   5.471   0.668   4.749
 1546SOL     OW 5536   4.893   6.481   6.189
 1546SOL    HW1 5537   4.820   6.510   6.127
 1546SOL    HW2 5538   4.976   6.533   6.168
 1547SOL     OW 5539   1.809   4.235   3.104
 1547SOL    HW1 5540   1.796   4.136   3.113
 1547SOL    HW2 5541   1.720   4.280   3.099
 1548SOL     OW 5542   4.601   3.840   5.999
 1548SOL    HW1 5543   4.576   3.851   6.095
 1548SOL    HW2 5544   4.599   3.929   5.954
 1549SOL     OW 5545   4.696   1.460   2.434
 1549SOL    HW1 5546   4.687   1.490   2.339
 1549SOL    HW2 5547   4.737   1.369   2.436
 1550SOL     OW 5548   3.062   5.544   6.460
 1550SOL    HW1 5549   3.111   5.574   6.542
 1550SOL    HW2 5550   3.052   5.444   6.461
 1551SOL     OW 5551   2.737   3.686   0.352
 1551SOL    HW1 5552   2.792   3.714   0.431
 1551SOL    HW2 5553   2.675   3.612   0.379
 1552SOL     OW 5554   0.201   0.476   1.241
 1552SOL    HW1 5555   0.181   0.386   1.280
 1552SOL    HW2 5556   0.175   0.477   1.144
 1553SOL     OW 5557   6.251   0.594   5.583
 1553SOL    HW1 5558   6.258   0.666   5.652
 1553SOL    HW2 5559   6.219   0.633   5.497
 1554SOL     OW 5560   3.857   2.146   3.441
 1554SOL    HW1 5561   3.822   2.237   3.465
 1554SOL    HW2 5562   3.855   2.087   3.522
 1555SOL     OW 5563   4.908   1.862   6.231
 1555SOL    HW1 5564   4.994   1.848   6.281
 1555SOL    HW2 5565   4.851   1.780   6.239
 1556SOL     OW 5566   3.882   1.148   0.262
 1556SOL    HW1 5567   3.966   1.182   0.218
 1556SOL    HW2 5568   3.879   1.048   0.255
 1557SOL     OW 5569   2.082   1.548   6.655
 1557SOL    HW1 5570   2.041   1.499   6.732
 1557SOL    HW2 5571   2.032   1.526   6.571
 1558SOL     OW 5572   5.659   1.356   4.058
 1558SOL    HW1 5573   5.704   1.271   4.031
 1558SOL    HW2 5574   5.642   1.354   4.157
 1559SOL     OW 5575   0.131   2.616   0.387
 1559SOL    HW1 5576   0.155   2.680   0.314
 1559SOL    HW2 5577   0.065   2.549   0.352
 1560SOL     OW 5578   3.301   1.013   6.615
 1560SOL    HW1 5579   3.376   1.061   6.572
 1560SOL    HW2 5580   3.251   0.959   6.547
 1561SOL     OW 5581   5.973   6.713   2.982
 1561SOL    HW1 5582   5.968   6.618   2.950
 1561SOL    HW2 5583   5.959   6.775   2.905
 1562SOL     OW 5584   4.031   6.310   1.316
 1562SOL    HW1 5585   4.081   6.235   1.359
 1562SOL    HW2 5586   3.946   6.276   1.276
 1563SOL     OW 5587   2.432   1.391   6.358
 1563SOL    HW1 5588   2.487   1.384   6.275
 1563SOL    HW2 5589   2.428   1.487   6.387
 1564SOL     OW 5590   1.699   2.515   2.562
 1564SOL    HW1 5591   1.701   2.427   2.514
 1564SOL    HW2 5592   1.615   2.564   2.539
 1565SOL     OW 5593   4.148   5.448   4.314
 1565SOL    HW1 5594   4.158   5.364   4.261
 1565SOL    HW2 5595   4.234   5.499   4.313
 1566SOL     OW 5596   5.852   4.983   4.597
 1566SOL    HW1 5597   5.940   4.937   4.589
 1566SOL    HW2 5598   5.841   5.048   4.521
 1567SOL     OW 5599   6.682   5.887   0.247
 1567SOL    HW1 5600   6.759   5.944   0.218
 1567SOL    HW2 5601   6.606   5.899   0.183
 1568SOL     OW 5602   1.878   6.591   1.723
 1568SOL    HW1 5603   1.806   6.523   1.718
 1568SOL    HW2 5604   1.863   6.661   1.654
 1569SOL     OW 5605   2.979   6.768   3.736
 1569SOL    HW1 5606   2.985   6.867   3.750
 1569SOL    HW2 5607   2.912   6.749   3.664
 1570SOL     OW 5608   2.670   6.649   0.371
 1570SOL    HW1 5609   2.574   6.627   0.387
 1570SOL    HW2 5610   2.696   6.728   0.427
 1571SOL     OW 5611   6.340   1.802   3.122
 1571SOL    HW1 5612   6.328   1.892   3.163
 1571SOL    HW2 5613   6.314   1.732   3.188
 1572SOL     OW 5614   1.842   6.004   1.181
 1572SOL    HW1 5615   1.791   5.935   1.233
 1572SOL    HW2 5616   1.864   6.081   1.241
 1573SOL     OW 5617   6.462   3.794   1.371
 1573SOL    HW1 5618   6.547   3.769   1.325
 1573SOL    HW2 5619   6.384   3.753   1.323
 1574SOL     OW 5620   6.351   2.086   4.030
 1574SOL    HW1 5621   6.359   2.156   4.101
 1574SOL    HW2 5622   6.369   1.996   4.069
 1575SOL     OW 5623   2.585   1.723   1.298
 1575SOL    HW1 5624   2.509   1.704   1.235
 1575SOL    HW2 5625   2.669   1.738   1.245
 1576SOL     OW 5626   1.383   0.346   3.264
 1576SOL    HW1 5627   1.300   0.368   3.313
 1576SOL    HW2 5628   1.443   0.426   3.261
 1577SOL     OW 5629   2.589   0.461   5.635
 1577SOL    HW1 5630   2.565   0.374   5.593
 1577SOL    HW2 5631   2.558   0.536   5.576
 1578SOL     OW 5632   5.003   1.623   5.381
 1578SOL    HW1 5633   5.067   1.558   5.421
 1578SOL    HW2 5634   4.948   1.578   5.311
 1579SOL     OW 5635   7.008   1.869   1.995
 1579SOL    HW1 5636   0.076   1.872   2.041
 1579SOL    HW2 5637   7.003   1.788   1.936
 1580SOL     OW 5638   3.692   4.060   3.720
 1580SOL    HW1 5639   3.734   4.139   3.675
 1580SOL    HW2 5640   3.657   3.997   3.651
 1581SOL     OW 5641   6.327   5.033   4.889
 1581SOL    HW1 5642   6.306   5.130   4.879
 1581SOL    HW2 5643   6.243   4.980   4.895
 1582SOL     OW 5644   1.869   6.536   4.909
 1582SOL    HW1 5645   1.820   6.493   4.985
 1582SOL    HW2 5646   1.806   6.554   4.834
 1583SOL     OW 5647   0.549   6.245   3.314
 1583SOL    HW1 5648   0.629   6.186   3.306
 1583SOL    HW2 5649   0.483   6.221   3.242
 1584SOL     OW 5650   0.697   5.665   5.498
 1584SOL    HW1 5651   0.751   5.581   5.506
 1584SOL    HW2 5652   0.747   5.740   5.542
 1585SOL     OW 5653   4.669   2.140   3.145
 1585SOL    HW1 5654   4.598   2.153   3.214
 1585SOL    HW2 5655   4.690   2.043   3.137
 1586SOL     OW 5656   3.505   4.962   2.447
 1586SOL    HW1 5657   3.553   4.893   2.392
 1586SOL    HW2 5658   3.540   4.960   2.540
 1587SOL     OW 5659   2.324   5.799   5.726
 1587SOL    HW1 5660   2.422   5.812   5.741
 1587SOL    HW2 5661   2.296   5.849   5.644
 1588SOL     OW 5662   4.236   0.952   2.260
 1588SOL    HW1 5663   4.260   1.019   2.190
 1588SOL    HW2 5664   4.263   0.860   2.229
 1589SOL     OW 5665   0.038   3.046   1.953
 1589SOL    HW1 5666   0.085   2.961   1.928
 1589SOL    HW2 5667   0.022   3.048   2.052
 1590SOL     OW 5668   4.623   0.402   3.970
 1590SOL    HW1 5669   4.722   0.404   3.958
 1590SOL    HW2 5670   4.588   0.313   3.940
 1591SOL     OW 5671   6.849   5.703   1.518
 1591SOL    HW1 5672   6.848   5.618   1.465
 1591SOL    HW2 5673   6.874   5.779   1.458
 1592SOL     OW 5674   2.741   4.029   6.273
 1592SOL    HW1 5675   2.801   3.954   6.300
 1592SOL    HW2 5676   2.783   4.116   6.300
 1593SOL     OW 5677   0.998   7.006   5.359
 1593SOL    HW1 5678   0.997   6.969   5.451
 1593SOL    HW2 5679   1.047   0.073   5.358
 1594SOL     OW 5680   1.288   6.616   1.588
 1594SOL    HW1 5681   1.387   6.629   1.586
 1594SOL    HW2 5682   1.249   6.663   1.667
 1595SOL     OW 5683   1.313   5.225   0.636
 1595SOL    HW1 5684   1.387   5.236   0.569
 1595SOL    HW2 5685   1.246   5.298   0.624
 1596SOL     OW 5686   0.289   3.453   4.140
 1596SOL    HW1 5687   0.274   3.481   4.235
 1596SOL    HW2 5688   0.212   3.481   4.084
 1597SOL     OW 5689   1.285   6.185   0.379
 1597SOL    HW1 5690   1.192   6.179   0.344
 1597SOL    HW2 5691   1.296   6.270   0.431
 1598SOL     OW 5692   6.921   4.443   5.754
 1598SOL    HW1 5693   6.962   4.534   5.764
 1598SOL    HW2 5694   6.984   4.375   5.793
 1599SOL     OW 5695   4.571   5.552   4.633
 1599SOL    HW1 5696   4.566   5.635   4.690
 1599SOL    HW2 5697   4.508   5.484   4.668
 1600SOL     OW 5698   3.619   0.956   3.693
 1600SOL    HW1 5699   3.575   0.918   3.775
 1600SOL    HW2 5700   3.563   1.031   3.657
 1601SOL     OW 5701   0.175   6.432   4.119
 1601SOL    HW1 5702   0.078   6.407   4.124
 1601SOL    HW2 5703   0.227   6.375   4.183
 1602SOL     OW 5704   4.267   5.026   4.134
 1602SOL    HW1 5705   4.221   5.093   4.193
 1602SOL    HW2 5706   4.348   4.992   4.180
 1603SOL     OW 5707   1.532   6.818   3.013
 1603SOL    HW1 5708   1.505   6.874   3.091
 1603SOL    HW2 5709   1.488   6.853   2.930
 1604SOL     OW 5710   5.087   4.287   1.444
 1604SOL    HW1 5711   5.088   4.195   1.406
 1604SOL    HW2 5712   5.104   4.283   1.542
 1605SOL     OW 5713   6.712   5.611   1.969
 1605SOL    HW1 5714   6.669   5.530   1.930
 1605SOL    HW2 5715   6.661   5.641   2.050
 1606SOL     OW 5716   4.040   6.286   6.033
 1606SOL    HW1 5717   4.101   6.291   5.954
 1606SOL    HW2 5718   3.963   6.349   6.020
 1607SOL     OW 5719   4.131   0.562   0.808
 1607SOL    HW1 5720   4.160   0.481   0.758
 1607SOL    HW2 5721   4.054   0.540   0.867
 1608SOL     OW 5722   0.442   1.267   3.832
 1608SOL    HW1 5723   0.397   1.208   3.899
 1608SOL    HW2 5724   0.483   1.210   3.760
 1609SOL     OW 5725   4.607   0.083   0.130
 1609SOL    HW1 5726   4.686   0.022   0.134
 1609SOL    HW2 5727   4.524   0.028   0.121
 1610SOL     OW 5728   6.175   4.727   6.979
 1610SOL    HW1 5729   6.224   4.756   6.897
 1610SOL    HW2 5730   6.084   4.694   6.955
 1611SOL     OW 5731   2.629   4.149   0.590
 1611SOL    HW1 5732   2.565   4.106   0.525
 1611SOL    HW2 5733   2.672   4.228   0.547
 1612SOL     OW 5734   2.665   0.632   0.534
 1612SOL    HW1 5735   2.754   0.609   0.496
 1612SOL    HW2 5736   2.593   0.584   0.483
 1613SOL     OW 5737   1.632   5.748   2.235
 1613SOL    HW1 5738   1.557   5.730   2.171
 1613SOL    HW2 5739   1.637   5.675   2.303
 1614SOL     OW 5740   5.176   2.081   6.146
 1614SOL    HW1 5741   5.123   2.163   6.167
 1614SOL    HW2 5742   5.244   2.066   6.218
 1615SOL     OW 5743   6.120   5.760   0.911
 1615SOL    HW1 5744   6.207   5.776   0.865
 1615SOL    HW2 5745   6.059   5.709   0.850
 1616SOL     OW 5746   3.732   0.933   5.209
 1616SOL    HW1 5747   3.640   0.938   5.170
 1616SOL    HW2 5748   3.800   0.954   5.138
 1617SOL     OW 5749   5.370   6.771   3.051
 1617SOL    HW1 5750   5.417   6.688   3.022
 1617SOL    HW2 5751   5.404   6.849   2.999
 1618SOL     OW 5752   1.586   6.229   2.542
 1618SOL    HW1 5753   1.635   6.155   2.495
 1618SOL    HW2 5754   1.648   6.274   2.607
 1619SOL     OW 5755   0.594   4.285   1.621
 1619SOL    HW1 5756   0.576   4.289   1.719
 1619SOL    HW2 5757   0.511   4.258   1.572
 1620SOL     OW 5758   2.745   4.573   1.592
 1620SOL    HW1 5759   2.667   4.636   1.600
 1620SOL    HW2 5760   2.776   4.547   1.683
 1621SOL     OW 5761   6.684   1.219   0.372
 1621SOL    HW1 5762   6.736   1.305   0.376
 1621SOL    HW2 5763   6.609   1.229   0.307
 1622SOL     OW 5764   0.390   3.347   5.306
 1622SOL    HW1 5765   0.423   3.253   5.307
 1622SOL    HW2 5766   0.326   3.361   5.382
 1623SOL     OW 5767   1.430   2.921   5.135
 1623SOL    HW1 5768   1.496   2.996   5.123
 1623SOL    HW2 5769   1.342   2.947   5.097
 1624SOL     OW 5770   3.556   1.480   4.960
 1624SOL    HW1 5771   3.462   1.449   4.946
 1624SOL    HW2 5772   3.578   1.553   4.895
 1625SOL     OW 5773   1.324   4.535   0.304
 1625SOL    HW1 5774   1.288   4.492   0.221
 1625SOL    HW2 5775   1.400   4.595   0.280
 1626SOL     OW 5776   3.879   1.232   0.620
 1626SOL    HW1 5777   3.866   1.210   0.717
 1626SOL    HW2 5778   3.886   1.148   0.567
 1627SOL     OW 5779   6.313   3.348   3.902
 1627SOL    HW1 5780   6.374   3.334   3.824
 1627SOL    HW2 5781   6.218   3.337   3.872
 1628SOL     OW 5782   4.467   4.761   0.457
 1628SOL    HW1 5783   4.469   4.861   0.459
 1628SOL    HW2 5784   4.411   4.728   0.533
 1629SOL     OW 5785   2.684   1.455   3.908
 1629SOL    HW1 5786   2.727   1.449   3.817
 1629SOL    HW2 5787   2.698   1.547   3.945
 1630SOL     OW 5788   0.995   4.883   6.071
 1630SOL    HW1 5789   0.978   4.910   5.976
 1630SOL    HW2 5790   1.034   4.791   6.074
 1631SOL     OW 5791   1.374   2.948   0.521
 1631SOL    HW1 5792   1.362   2.875   0.453
 1631SOL    HW2 5793   1.285   2.977   0.555
 1632SOL     OW 5794   5.644   2.487   1.450
 1632SOL    HW1 5795   5.588   2.537   1.516
 1632SOL    HW2 5796   5.697   2.417   1.498
 1633SOL     OW 5797   5.360   4.037   4.336
 1633SOL    HW1 5798   5.396   4.126   4.308
 1633SOL    HW2 5799   5.430   3.967   4.325
 1634SOL     OW 5800   4.384   5.628   4.358
 1634SOL    HW1 5801   4.398   5.699   4.289
 1634SOL    HW2 5802   4.473   5.592   4.388
 1635SOL     OW 5803   0.264   5.067   6.857
 1635SOL    HW1 5804   0.362   5.057   6.842
 1635SOL    HW2 5805   0.214   5.027   6.780
 1636SOL     OW 5806   3.247   4.361   1.143
 1636SOL    HW1 5807   3.316   4.387   1.075
 1636SOL    HW2 5808   3.157   4.358   1.099
 1637SOL     OW 5809   6.952   0.636   2.974
 1637SOL    HW1 5810   6.902   0.683   3.046
 1637SOL    HW2 5811   6.983   0.547   3.007
 1638SOL     OW 5812   6.977   4.445   3.409
 1638SOL    HW1 5813   0.012   4.479   3.333
 1638SOL    HW2 5814   6.884   4.482   3.401
 1639SOL     OW 5815   5.443   6.226   1.591
 1639SOL    HW1 5816   5.422   6.293   1.662
 1639SOL    HW2 5817   5.500   6.153   1.630
 1640SOL     OW 5818   6.136   0.572   6.592
 1640SOL    HW1 5819   6.228   0.609   6.580
 1640SOL    HW2 5820   6.078   0.641   6.637
 1641SOL     OW 5821   4.380   2.437   2.494
 1641SOL    HW1 5822   4.289   2.446   2.533
 1641SOL    HW2 5823   4.399   2.341   2.474
 1642SOL     OW 5824   0.465   3.312   6.974
 1642SOL    HW1 5825   0.445   3.214   6.973
 1642SOL    HW2 5826   0.416   3.357   6.900
 1643SOL     OW 5827   2.365   5.095   4.209
 1643SOL    HW1 5828   2.443   5.097   4.272
 1643SOL    HW2 5829   2.294   5.158   4.241
 1644SOL     OW 5830   6.012   4.290   6.698
 1644SOL    HW1 5831   5.927   4.261   6.655
 1644SOL    HW2 5832   6.086   4.288   6.631
 1645SOL     OW 5833   3.437   5.751   6.415
 1645SOL    HW1 5834   3.512   5.730   6.352
 1645SOL    HW2 5835   3.463   5.724   6.507
 1646SOL     OW 5836   2.644   0.092   0.659
 1646SOL    HW1 5837   2.677   0.102   0.753
 1646SOL    HW2 5838   2.710   0.131   0.596
 1647SOL     OW 5839   5.974   3.581   4.681
 1647SOL    HW1 5840   6.025   3.640   4.744
 1647SOL    HW2 5841   6.024   3.496   4.666
 1648SOL     OW 5842   5.497   5.618   0.404
 1648SOL    HW1 5843   5.537   5.570   0.482
 1648SOL    HW2 5844   5.398   5.604   0.403
 1649SOL     OW 5845   3.750   1.237   3.533
 1649SOL    HW1 5846   3.834   1.282   3.563
 1649SOL    HW2 5847   3.703   1.296   3.467
 1650SOL     OW 5848   1.071   6.185   5.149
 1650SOL    HW1 5849   1.112   6.139   5.070
 1650SOL    HW2 5850   0.974   6.161   5.153
 1651SOL     OW 5851   0.247   1.812   1.647
 1651SOL    HW1 5852   0.157   1.839   1.613
 1651SOL    HW2 5853   0.252   1.712   1.650
 1652SOL     OW 5854   1.028   3.041   2.756
 1652SOL    HW1 5855   1.118   3.054   2.712
 1652SOL    HW2 5856   0.975   3.125   2.747
 1653SOL     OW 5857   1.423   0.008   6.944
 1653SOL    HW1 5858   1.391   0.098   6.972
 1653SOL    HW2 5859   1.345   6.967   6.933
 1654SOL     OW 5860   0.366   3.466   2.077
 1654SOL    HW1 5861   0.434   3.396   2.056
 1654SOL    HW2 5862   0.387   3.550   2.027
 1655SOL     OW 5863   0.266   2.224   5.081
 1655SOL    HW1 5864   0.332   2.292   5.048
 1655SOL    HW2 5865   0.179   2.236   5.034
 1656SOL     OW 5866   2.342   4.518   2.791
 1656SOL    HW1 5867   2.398   4.495   2.871
 1656SOL    HW2 5868   2.325   4.617   2.789
 1657SOL     OW 5869   7.001   1.052   4.581
 1657SOL    HW1 5870   0.038   1.047   4.499
 1657SOL    HW2 5871   0.001   1.136   4.631
 1658SOL     OW 5872   6.829   0.165   1.519
 1658SOL    HW1 5873   6.791   0.199   1.605
 1658SOL    HW2 5874   6.755   0.132   1.460
 1659SOL     OW 5875   3.528   0.164   0.087
 1659SOL    HW1 5876   3.603   0.227   0.067
 1659SOL    HW2 5877   3.451   0.185   0.026
 1660SOL     OW 5878   1.747   6.039   2.470
 1660SOL    HW1 5879   1.743   5.991   2.383
 1660SOL    HW2 5880   1.803   5.986   2.534
 1661SOL     OW 5881   2.675   6.692   1.319
 1661SOL    HW1 5882   2.661   6.622   1.389
 1661SOL    HW2 5883   2.765   6.681   1.277
 1662SOL     OW 5884   0.861   0.863   4.023
 1662SOL    HW1 5885   0.876   0.918   4.105
 1662SOL    HW2 5886   0.799   0.787   4.045
 1663SOL     OW 5887   3.885   6.231   3.379
 1663SOL    HW1 5888   3.832   6.145   3.379
 1663SOL    HW2 5889   3.882   6.271   3.471
 1664SOL     OW 5890   2.066   6.465   5.214
 1664SOL    HW1 5891   2.021   6.408   5.283
 1664SOL    HW2 5892   2.006   6.541   5.189
 1665SOL     OW 5893   6.733   2.654   2.401
 1665SOL    HW1 5894   6.793   2.597   2.457
 1665SOL    HW2 5895   6.708   2.605   2.317
 1666SOL     OW 5896   5.139   1.784   6.337
 1666SOL    HW1 5897   5.121   1.768   6.434
 1666SOL    HW2 5898   5.165   1.698   6.293
 1667SOL     OW 5899   0.349   6.592   0.729
 1667SOL    HW1 5900   0.437   6.599   0.682
 1667SOL    HW2 5901   0.351   6.513   0.791
 1668SOL     OW 5902   4.810   6.160   3.426
 1668SOL    HW1 5903   4.789   6.248   3.382
 1668SOL    HW2 5904   4.892   6.121   3.384
 1669SOL     OW 5905   6.399   4.994   6.505
 1669SOL    HW1 5906   6.471   4.958   6.446
 1669SOL    HW2 5907   6.406   5.094   6.508
 1670SOL     OW 5908   0.536   3.836   5.907
 1670SOL    HW1 5909   0.627   3.818   5.868
 1670SOL    HW2 5910   0.490   3.750   5.925
 1671SOL     OW 5911   5.462   1.174   2.933
 1671SOL    HW1 5912   5.507   1.122   3.006
 1671SOL    HW2 5913   5.379   1.217   2.970
 1672SOL     OW 5914   1.405   3.032   1.037
 1672SOL    HW1 5915   1.442   3.021   0.945
 1672SOL    HW2 5916   1.344   2.955   1.058
 1673SOL     OW 5917   0.371   1.529   4.761
 1673SOL    HW1 5918   0.399   1.563   4.671
 1673SOL    HW2 5919   0.393   1.597   4.831
 1674SOL     OW 5920   1.055   2.786   2.369
 1674SOL    HW1 5921   1.133   2.849   2.377
 1674SOL    HW2 5922   1.085   2.693   2.387
 1675SOL     OW 5923   5.271   6.798   0.435
 1675SOL    HW1 5924   5.173   6.782   0.443
 1675SOL    HW2 5925   5.302   6.771   0.344
 1676SOL     OW 5926   2.420   2.720   1.355
 1676SOL    HW1 5927   2.466   2.676   1.432
 1676SOL    HW2 5928   2.346   2.778   1.388
 1677SOL     OW 5929   3.344   3.302   4.133
 1677SOL    HW1 5930   3.278   3.244   4.085
 1677SOL    HW2 5931   3.425   3.314   4.077
 1678SOL     OW 5932   6.103   4.405   3.543
 1678SOL    HW1 5933   6.048   4.368   3.619
 1678SOL    HW2 5934   6.140   4.494   3.570
 1679SOL     OW 5935   2.319   2.695   4.481
 1679SOL    HW1 5936   2.311   2.717   4.579
 1679SOL    HW2 5937   2.228   2.678   4.444
 1680SOL     OW 5938   0.244   3.040   5.304
 1680SOL    HW1 5939   0.264   3.101   5.228
 1680SOL    HW2 5940   0.147   3.046   5.328
 1681SOL     OW 5941   0.165   5.420   6.811
 1681SOL    HW1 5942   0.069   5.397   6.827
 1681SOL    HW2 5943   0.197   5.374   6.728
 1682SOL     OW 5944   1.919   0.527   5.443
 1682SOL    HW1 5945   1.893   0.597   5.510
 1682SOL    HW2 5946   1.858   0.448   5.453
 1683SOL     OW 5947   4.909   4.651   2.135
 1683SOL    HW1 5948   4.816   4.664   2.101
 1683SOL    HW2 5949   4.907   4.606   2.224
 1684SOL     OW 5950   0.988   6.282   2.101
 1684SOL    HW1 5951   1.006   6.256   2.196
 1684SOL    HW2 5952   0.900   6.244   2.072
 1685SOL     OW 5953   2.195   0.938   5.091
 1685SOL    HW1 5954   2.114   0.902   5.137
 1685SOL    HW2 5955   2.209   0.890   5.005
 1686SOL     OW 5956   2.500   6.057   4.257
 1686SOL    HW1 5957   2.542   6.115   4.187
 1686SOL    HW2 5958   2.437   5.992   4.213
 1687SOL     OW 5959   2.045   3.043   2.074
 1687SOL    HW1 5960   2.100   3.100   2.012
 1687SOL    HW2 5961   2.018   3.098   2.154
 1688SOL     OW 5962   2.249   2.272   4.263
 1688SOL    HW1 5963   2.275   2.333   4.338
 1688SOL    HW2 5964   2.320   2.275   4.192
 1689SOL     OW 5965   6.310   1.187   2.860
 1689SOL    HW1 5966   6.396   1.190   2.809
 1689SOL    HW2 5967   6.327   1.144   2.949
 1690SOL     OW 5968   1.478   2.966   4.318
 1690SOL    HW1 5969   1.398   2.927   4.363
 1690SOL    HW2 5970   1.473   3.066   4.324
 1691SOL     OW 5971   5.507   3.470   3.691
 1691SOL    HW1 5972   5.523   3.451   3.595
 1691SOL    HW2 5973   5.552   3.401   3.747
 1692SOL     OW 5974   5.206   6.258   1.171
 1692SOL    HW1 5975   5.146   6.330   1.207
 1692SOL    HW2 5976   5.231   6.279   1.077
 1693SOL     OW 5977   6.572   1.816   2.279
 1693SOL    HW1 5978   6.580   1.894   2.217
 1693SOL    HW2 5979   6.650   1.755   2.266
 1694SOL     OW 5980   5.671   1.045   2.780
 1694SOL    HW1 5981   5.701   1.101   2.703
 1694SOL    HW2 5982   5.591   1.087   2.823
 1695SOL     OW 5983   4.270   0.871   6.344
 1695SOL    HW1 5984   4.184   0.916   6.320
 1695SOL    HW2 5985   4.284   0.878   6.443
 1696SOL     OW 5986   4.219   5.815   0.482
 1696SOL    HW1 5987   4.310   5.804   0.441
 1696SOL    HW2 5988   4.190   5.910   0.473
 1697SOL     OW 5989   6.231   0.984   0.374
 1697SOL    HW1 5990   6.257   1.048   0.446
 1697SOL    HW2 5991   6.212   1.034   0.290
 1698SOL     OW 5992   3.276   0.379   0.189
 1698SOL    HW1 5993   3.368   0.391   0.151
 1698SOL    HW2 5994   3.218   0.455   0.158
 1699SOL     OW 5995   2.586   1.399   6.976
 1699SOL    HW1 5996   2.654   1.436   6.913
 1699SOL    HW2 5997   2.505   1.371   6.925
 1700SOL     OW 5998   6.087   3.908   3.868
 1700SOL    HW1 5999   6.181   3.939   3.881
 1700SOL    HW2 6000   6.077   3.868   3.776
 1701SOL     OW 6001   5.016   4.585   5.408
 1701SOL    HW1 6002   4.962   4.637   5.474
 1701SOL    HW2 6003   5.112   4.587   5.434
 1702SOL     OW 6004   6.324   1.200   0.529
 1702SOL    HW1 6005   6.421   1.177   0.539
 1702SOL    HW2 6006   6.310   1.297   0.547
 1703SOL     OW 6007   3.359   2.451   0.743
 1703SOL    HW1 6008   3.319   2.467   0.653
 1703SOL    HW2 6009   3.290   2.469   0.813
 1704SOL     OW 6010   0.998   1.880   1.539
 1704SOL    HW1 6011   0.949   1.818   1.600
 1704SOL    HW2 6012   0.937   1.955   1.513
 1705SOL     OW 6013   3.363   2.121   2.608
 1705SOL    HW1 6014   3.320   2.167   2.685
 1705SOL    HW2 6015   3.457   2.096   2.632
 1706SOL     OW 6016   5.086   1.145   2.126
 1706SOL    HW1 6017   5.141   1.064   2.146
 1706SOL    HW2 6018   5.126   1.195   2.049
 1707SOL     OW 6019   5.164   2.151   1.646
 1707SOL    HW1 6020   5.162   2.062   1.691
 1707SOL    HW2 6021   5.245   2.202   1.675
 1708SOL     OW 6022   5.079   5.224   2.239
 1708SOL    HW1 6023   5.122   5.276   2.313
 1708SOL    HW2 6024   5.031   5.286   2.178
 1709SOL     OW 6025   3.545   6.283   2.197
 1709SOL    HW1 6026   3.475   6.346   2.163
 1709SOL    HW2 6027   3.531   6.267   2.295
 1710SOL     OW 6028   4.945   4.620   3.693
 1710SOL    HW1 6029   5.018   4.680   3.661
 1710SOL    HW2 6030   4.931   4.635   3.791
 1711SOL     OW 6031   1.446   4.429   4.615
 1711SOL    HW1 6032   1.416   4.514   4.658
 1711SOL    HW2 6033   1.473   4.364   4.686
 1712SOL     OW 6034   6.650   2.442   4.991
 1712SOL    HW1 6035   6.647   2.343   4.984
 1712SOL    HW2 6036   6.741   2.475   4.963
 1713SOL     OW 6037   4.942   2.389   2.193
 1713SOL    HW1 6038   4.996   2.318   2.148
 1713SOL    HW2 6039   4.962   2.478   2.151
 1714SOL     OW 6040   3.388   1.068   6.020
 1714SOL    HW1 6041   3.351   1.126   6.092
 1714SOL    HW2 6042   3.408   0.978   6.057
 1715SOL     OW 6043   1.788   5.362   2.760
 1715SOL    HW1 6044   1.808   5.355   2.858
 1715SOL    HW2 6045   1.693   5.392   2.747
 1716SOL     OW 6046   4.759   0.187   2.746
 1716SOL    HW1 6047   4.819   0.131   2.804
 1716SOL    HW2 6048   4.709   0.128   2.684
 1717SOL     OW 6049   2.911   5.863   5.900
 1717SOL    HW1 6050   2.905   5.806   5.819
 1717SOL    HW2 6051   2.982   5.827   5.961
 1718SOL     OW 6052   2.849   1.563   1.783
 1718SOL    HW1 6053   2.930   1.621   1.784
 1718SOL    HW2 6054   2.874   1.470   1.757
 1719SOL     OW 6055   2.124   3.099   1.208
 1719SOL    HW1 6056   2.105   3.166   1.279
 1719SOL    HW2 6057   2.038   3.073   1.163
 1720SOL     OW 6058   0.489   2.917   0.100
 1720SOL    HW1 6059   0.543   2.859   0.039
 1720SOL    HW2 6060   0.546   2.992   0.135
 1721SOL     OW 6061   2.135   6.908   1.587
 1721SOL    HW1 6062   2.156   6.998   1.626
 1721SOL    HW2 6063   2.219   6.867   1.550
 1722SOL     OW 6064   2.937   1.409   3.750
 1722SOL    HW1 6065   2.984   1.493   3.722
 1722SOL    HW2 6066   2.996   1.331   3.733
 1723SOL     OW 6067   6.021   2.210   1.234
 1723SOL    HW1 6068   6.108   2.165   1.216
 1723SOL    HW2 6069   6.038   2.308   1.250
 1724SOL     OW 6070   6.592   3.015   2.153
 1724SOL    HW1 6071   6.571   2.964   2.236
 1724SOL    HW2 6072   6.574   2.958   2.073
 1725SOL     OW 6073   2.011   4.696   6.147
 1725SOL    HW1 6074   1.956   4.637   6.087
 1725SOL    HW2 6075   2.096   4.648   6.171
 1726SOL     OW 6076   6.371   4.532   5.332
 1726SOL    HW1 6077   6.326   4.542   5.243
 1726SOL    HW2 6078   6.315   4.576   5.403
 1727SOL     OW 6079   3.325   2.955   3.758
 1727SOL    HW1 6080   3.245   3.016   3.762
 1727SOL    HW2 6081   3.344   2.920   3.850
 1728SOL     OW 6082   5.454   5.336   5.271
 1728SOL    HW1 6083   5.471   5.329   5.369
 1728SOL    HW2 6084   5.497   5.259   5.224
 1729SOL     OW 6085   2.054   4.231   3.228
 1729SOL    HW1 6086   2.075   4.311   3.284
 1729SOL    HW2 6087   1.964   4.244   3.185
 1730SOL     OW 6088   1.363   6.992   5.400
 1730SOL    HW1 6089   1.413   0.006   5.480
 1730SOL    HW2 6090   1.413   6.914   5.361
 1731SOL     OW 6091   0.418   4.454   3.806
 1731SOL    HW1 6092   0.455   4.388   3.871
 1731SOL    HW2 6093   0.399   4.409   3.719
 1732SOL     OW 6094   2.153   4.697   5.682
 1732SOL    HW1 6095   2.194   4.667   5.768
 1732SOL    HW2 6096   2.222   4.743   5.626
 1733SOL     OW 6097   1.767   4.336   1.779
 1733SOL    HW1 6098   1.733   4.426   1.753
 1733SOL    HW2 6099   1.744   4.270   1.708
 1734SOL     OW 6100   4.609   3.202   0.995
 1734SOL    HW1 6101   4.607   3.302   0.995
 1734SOL    HW2 6102   4.517   3.168   0.973
 1735SOL     OW 6103   4.741   4.947   6.767
 1735SOL    HW1 6104   4.682   4.979   6.841
 1735SOL    HW2 6105   4.832   4.927   6.803
 1736SOL     OW 6106   3.476   3.846   0.850
 1736SOL    HW1 6107   3.530   3.795   0.783
 1736SOL    HW2 6108   3.409   3.785   0.893
 1737SOL     OW 6109   4.069   1.213   4.240
 1737SOL    HW1 6110   4.103   1.163   4.160
 1737SOL    HW2 6111   3.996   1.275   4.212
 1738SOL     OW 6112   1.727   2.740   4.108
 1738SOL    HW1 6113   1.715   2.642   4.093
 1738SOL    HW2 6114   1.714   2.760   4.205
 1739SOL     OW 6115   6.845   1.487   5.743
 1739SOL    HW1 6116   6.858   1.559   5.674
 1739SOL    HW2 6117   6.752   1.451   5.736
 1740SOL     OW 6118   6.808   2.504   5.373
 1740SOL    HW1 6119   6.882   2.441   5.353
 1740SOL    HW2 6120   6.839   2.598   5.358
 1741SOL     OW 6121   2.161   0.627   3.838
 1741SOL    HW1 6122   2.233   0.655   3.901
 1741SOL    HW2 6123   2.176   0.533   3.809
 1742SOL     OW 6124   5.557   0.625   6.175
 1742SOL    HW1 6125   5.464   0.637   6.141
 1742SOL    HW2 6126   5.591   0.712   6.212
 1743SOL     OW 6127   0.698   2.406   2.554
 1743SOL    HW1 6128   0.730   2.490   2.597
 1743SOL    HW2 6129   0.742   2.327   2.598
 1744SOL     OW 6130   5.838   2.710   3.268
 1744SOL    HW1 6131   5.852   2.742   3.174
 1744SOL    HW2 6132   5.914   2.651   3.295
 1745SOL     OW 6133   5.450   5.632   2.233
 1745SOL    HW1 6134   5.531   5.591   2.190
 1745SOL    HW2 6135   5.377   5.564   2.237
 1746SOL     OW 6136   1.974   3.965   4.684
 1746SOL    HW1 6137   2.028   3.881   4.695
 1746SOL    HW2 6138   2.006   4.014   4.603
 1747SOL     OW 6139   4.690   1.791   2.916
 1747SOL    HW1 6140   4.767   1.761   2.859
 1747SOL    HW2 6141   4.643   1.867   2.871
 1748SOL     OW 6142   0.528   1.597   5.330
 1748SOL    HW1 6143   0.442   1.631   5.293
 1748SOL    HW2 6144   0.578   1.548   5.259
 1749SOL     OW 6145   2.278   6.841   5.309
 1749SOL    HW1 6146   2.241   6.892   5.387
 1749SOL    HW2 6147   2.209   6.776   5.276
 1750SOL     OW 6148   5.076   6.142   3.552
 1750SOL    HW1 6149   5.070   6.148   3.452
 1750SOL    HW2 6150   5.141   6.070   3.576
 1751SOL     OW 6151   4.054   0.630   3.880
 1751SOL    HW1 6152   3.986   0.688   3.925
 1751SOL    HW2 6153   4.027   0.615   3.785
 1752SOL     OW 6154   6.298   1.826   2.299
 1752SOL    HW1 6155   6.247   1.744   2.271
 1752SOL    HW2 6156   6.394   1.802   2.310
 1753SOL     OW 6157   6.702   1.156   1.096
 1753SOL    HW1 6158   6.695   1.249   1.134
 1753SOL    HW2 6159   6.788   1.115   1.124
 1754SOL     OW 6160   1.371   4.772   6.841
 1754SOL    HW1 6161   1.277   4.747   6.819
 1754SOL    HW2 6162   1.389   4.866   6.812
 1755SOL     OW 6163   0.393   6.406   0.910
 1755SOL    HW1 6164   0.459   6.407   0.986
 1755SOL    HW2 6165   0.335   6.326   0.918
 1756SOL     OW 6166   4.218   5.299   5.587
 1756SOL    HW1 6167   4.197   5.316   5.490
 1756SOL    HW2 6168   4.141   5.329   5.643
 1757SOL     OW 6169   2.200   5.294   4.329
 1757SOL    HW1 6170   2.144   5.235   4.386
 1757SOL    HW2 6171   2.250   5.359   4.386
 1758SOL     OW 6172   2.344   0.741   4.573
 1758SOL    HW1 6173   2.327   0.751   4.475
 1758SOL    HW2 6174   2.359   0.645   4.594
 1759SOL     OW 6175   1.922   6.703   5.279
 1759SOL    HW1 6176   1.959   6.759   5.354
 1759SOL    HW2 6177   1.826   6.727   5.265
 1760SOL     OW 6178   5.404   0.826   3.450
 1760SOL    HW1 6179   5.495   0.841   3.490
 1760SOL    HW2 6180   5.335   0.832   3.522
 1761SOL     OW 6181   0.085   0.865   1.319
 1761SOL    HW1 6182   7.011   0.884   1.291
 1761SOL    HW2 6183   0.089   0.778   1.367
 1762SOL     OW 6184   0.681   1.268   4.067
 1762SOL    HW1 6185   0.690   1.197   3.997
 1762SOL    HW2 6186   0.635   1.347   4.028
 1763SOL     OW 6187   0.985   4.639   3.972
 1763SOL    HW1 6188   1.050   4.608   3.903
 1763SOL    HW2 6189   0.891   4.623   3.941
 1764SOL     OW 6190   2.064   3.309   2.487
 1764SOL    HW1 6191   2.071   3.370   2.408
 1764SOL    HW2 6192   1.970   3.312   2.522
 1765SOL     OW 6193   3.746   1.036   1.685
 1765SOL    HW1 6194   3.733   1.069   1.778
 1765SOL    HW2 6195   3.675   0.970   1.662
 1766SOL     OW 6196   5.396   4.364   3.108
 1766SOL    HW1 6197   5.333   4.439   3.130
 1766SOL    HW2 6198   5.418   4.367   3.010
 1767SOL     OW 6199   0.826   3.951   2.634
 1767SOL    HW1 6200   0.814   3.970   2.536
 1767SOL    HW2 6201   0.740   3.965   2.681
 1768SOL     OW 6202   3.541   1.184   6.549
 1768SOL    HW1 6203   3.558   1.156   6.643
 1768SOL    HW2 6204   3.473   1.257   6.548
 1769SOL     OW 6205   4.554   1.489   6.644
 1769SOL    HW1 6206   4.543   1.570   6.701
 1769SOL    HW2 6207   4.573   1.516   6.550
 1770SOL     OW 6208   6.769   4.663   4.833
 1770SOL    HW1 6209   6.758   4.674   4.931
 1770SOL    HW2 6210   6.685   4.627   4.793
 1771SOL     OW 6211   1.605   5.561   0.894
 1771SOL    HW1 6212   1.704   5.559   0.878
 1771SOL    HW2 6213   1.579   5.651   0.928
 1772SOL     OW 6214   3.847   6.234   2.925
 1772SOL    HW1 6215   3.845   6.304   2.996
 1772SOL    HW2 6216   3.903   6.157   2.956
 1773SOL     OW 6217   2.826   3.026   6.273
 1773SOL    HW1 6218   2.856   3.119   6.296
 1773SOL    HW2 6219   2.874   2.995   6.191
 1774SOL     OW 6220   4.796   6.476   1.548
 1774SOL    HW1 6221   4.814   6.574   1.562
 1774SOL    HW2 6222   4.822   6.425   1.630
 1775SOL     OW 6223   2.178   4.582   5.419
 1775SOL    HW1 6224   2.275   4.560   5.432
 1775SOL    HW2 6225   2.139   4.608   5.508
 1776SOL     OW 6226   5.018   1.066   6.088
 1776SOL    HW1 6227   5.078   1.083   6.166
 1776SOL    HW2 6228   4.928   1.105   6.108
 1777SOL     OW 6229   3.491   6.200   6.021
 1777SOL    HW1 6230   3.400   6.184   5.981
 1777SOL    HW2 6231   3.498   6.151   6.108
 1778SOL     OW 6232   4.929   2.154   4.350
 1778SOL    HW1 6233   4.879   2.084   4.299
 1778SOL    HW2 6234   4.879   2.240   4.345
 1779SOL     OW 6235   4.200   0.924   4.989
 1779SOL    HW1 6236   4.164   0.908   5.081
 1779SOL    HW2 6237   4.180   1.018   4.962
 1780SOL     OW 6238   2.232   3.872   6.125
 1780SOL    HW1 6239   2.305   3.883   6.193
 1780SOL    HW2 6240   2.165   3.806   6.160
 1781SOL     OW 6241   5.278   5.342   3.826
 1781SOL    HW1 6242   5.240   5.433   3.815
 1781SOL    HW2 6243   5.327   5.337   3.913
 1782SOL     OW 6244   3.405   1.428   3.239
 1782SOL    HW1 6245   3.369   1.345   3.198
 1782SOL    HW2 6246   3.348   1.455   3.316
 1783SOL     OW 6247   2.562   3.198   6.010
 1783SOL    HW1 6248   2.565   3.295   6.036
 1783SOL    HW2 6249   2.650   3.155   6.032
 1784SOL     OW 6250   2.098   1.251   1.894
 1784SOL    HW1 6251   2.151   1.207   1.821
 1784SOL    HW2 6252   2.055   1.181   1.951
 1785SOL     OW 6253   6.061   6.053   3.868
 1785SOL    HW1 6254   6.050   6.091   3.960
 1785SOL    HW2 6255   6.117   5.971   3.872
 1786SOL     OW 6256   1.618   4.069   0.671
 1786SOL    HW1 6257   1.579   4.147   0.721
 1786SOL    HW2 6258   1.564   4.052   0.588
 1787SOL     OW 6259   2.547   1.604   5.601
 1787SOL    HW1 6260   2.560   1.681   5.539
 1787SOL    HW2 6261   2.456   1.608   5.641
 1788SOL     OW 6262   3.467   4.054   0.374
 1788SOL    HW1 6263   3.420   4.141   0.390
 1788SOL    HW2 6264   3.524   4.062   0.292
 1789SOL     OW 6265   5.677   2.718   2.008
 1789SOL    HW1 6266   5.637   2.678   2.091
 1789SOL    HW2 6267   5.706   2.812   2.027
 1790SOL     OW 6268   3.160   0.469   4.501
 1790SOL    HW1 6269   3.112   0.541   4.551
 1790SOL    HW2 6270   3.258   0.490   4.498
 1791SOL     OW 6271   6.389   1.153   4.204
 1791SOL    HW1 6272   6.417   1.058   4.197
 1791SOL    HW2 6273   6.358   1.172   4.297
 1792SOL     OW 6274   0.359   1.595   4.458
 1792SOL    HW1 6275   0.303   1.512   4.461
 1792SOL    HW2 6276   0.313   1.667   4.510
 1793SOL     OW 6277   6.425   0.889   4.200
 1793SOL    HW1 6278   6.524   0.874   4.204
 1793SOL    HW2 6279   6.381   0.841   4.276
 1794SOL     OW 6280   4.755   6.320   5.761
 1794SOL    HW1 6281   4.678   6.272   5.802
 1794SOL    HW2 6282   4.774   6.403   5.812
 1795SOL     OW 6283   6.390   5.249   2.336
 1795SOL    HW1 6284   6.475   5.278   2.292
 1795SOL    HW2 6285   6.409   5.175   2.400
 1796SOL     OW 6286   2.024   1.050   4.863
 1796SOL    HW1 6287   2.026   1.133   4.919
 1796SOL    HW2 6288   2.090   1.059   4.788
 1797SOL     OW 6289   1.743   6.771   5.662
 1797SOL    HW1 6290   1.720   6.686   5.709
 1797SOL    HW2 6291   1.670   6.838   5.676
 1798SOL     OW 6292   4.013   3.206   5.170
 1798SOL    HW1 6293   4.013   3.300   5.204
 1798SOL    HW2 6294   3.951   3.150   5.225
 1799SOL     OW 6295   5.610   2.920   6.349
 1799SOL    HW1 6296   5.660   2.940   6.265
 1799SOL    HW2 6297   5.524   2.873   6.327
 1800SOL     OW 6298   4.926   4.901   3.258
 1800SOL    HW1 6299   4.964   4.857   3.177
 1800SOL    HW2 6300   4.854   4.843   3.297
 1801SOL     OW 6301   1.217   1.641   3.061
 1801SOL    HW1 6302   1.299   1.680   3.018
 1801SOL    HW2 6303   1.185   1.563   3.007
 1802SOL     OW 6304   6.479   6.378   2.831
 1802SOL    HW1 6305   6.393   6.429   2.822
 1802SOL    HW2 6306   6.494   6.323   2.749
 1803SOL     OW 6307   6.603   6.833   2.478
 1803SOL    HW1 6308   6.645   6.882   2.554
 1803SOL    HW2 6309   6.527   6.886   2.442
 1804SOL     OW 6310   3.748   3.277   4.939
 1804SOL    HW1 6311   3.749   3.311   4.845
 1804SOL    HW2 6312   3.841   3.277   4.975
 1805SOL     OW 6313   1.214   4.677   5.844
 1805SOL    HW1 6314   1.158   4.687   5.927
 1805SOL    HW2 6315   1.285   4.747   5.843
 1806SOL     OW 6316   0.545   2.388   1.617
 1806SOL    HW1 6317   0.556   2.442   1.701
 1806SOL    HW2 6318   0.634   2.379   1.571
 1807SOL     OW 6319   6.843   2.134   6.369
 1807SOL    HW1 6320   6.804   2.072   6.437
 1807SOL    HW2 6321   6.817   2.104   6.277
 1808SOL     OW 6322   5.683   4.746   4.237
 1808SOL    HW1 6323   5.590   4.777   4.258
 1808SOL    HW2 6324   5.679   4.665   4.179
 1809SOL     OW 6325   2.921   1.866   5.088
 1809SOL    HW1 6326   3.003   1.921   5.103
 1809SOL    HW2 6327   2.840   1.917   5.119
 1810SOL     OW 6328   1.014   0.617   4.633
 1810SOL    HW1 6329   1.056   0.707   4.638
 1810SOL    HW2 6330   0.970   0.605   4.544
 1811SOL     OW 6331   5.193   4.525   2.797
 1811SOL    HW1 6332   5.227   4.568   2.713
 1811SOL    HW2 6333   5.223   4.430   2.800
 1812SOL     OW 6334   4.670   0.240   6.357
 1812SOL    HW1 6335   4.755   0.270   6.402
 1812SOL    HW2 6336   4.628   0.168   6.411
 1813SOL     OW 6337   5.062   4.740   1.599
 1813SOL    HW1 6338   5.054   4.656   1.653
 1813SOL    HW2 6339   5.129   4.800   1.642
 1814SOL     OW 6340   6.037   0.461   0.910
 1814SOL    HW1 6341   6.064   0.469   0.814
 1814SOL    HW2 6342   5.968   0.388   0.918
 1815SOL     OW 6343   6.224   0.405   2.773
 1815SOL    HW1 6344   6.212   0.329   2.709
 1815SOL    HW2 6345   6.297   0.383   2.837
 1816SOL     OW 6346   3.040   5.269   0.401
 1816SOL    HW1 6347   2.992   5.200   0.456
 1816SOL    HW2 6348   3.135   5.276   0.432
 1817SOL     OW 6349   4.580   0.400   2.800
 1817SOL    HW1 6350   4.535   0.421   2.887
 1817SOL    HW2 6351   4.649   0.329   2.815
 1818SOL     OW 6352   2.112   6.555   0.913
 1818SOL    HW1 6353   2.112   6.574   0.815
 1818SOL    HW2 6354   2.150   6.463   0.929
 1819SOL     OW 6355   1.665   6.715   1.958
 1819SOL    HW1 6356   1.640   6.682   2.049
 1819SOL    HW2 6357   1.633   6.809   1.947
 1820SOL     OW 6358   3.835   0.167   2.843
 1820SOL    HW1 6359   3.749   0.210   2.868
 1820SOL    HW2 6360   3.903   0.238   2.823
 1821SOL     OW 6361   2.670   1.475   1.447
 1821SOL    HW1 6362   2.656   1.395   1.506
 1821SOL    HW2 6363   2.603   1.545   1.470
 1822SOL     OW 6364   0.902   2.674   1.776
 1822SOL    HW1 6365   0.843   2.695   1.698
 1822SOL    HW2 6366   0.853   2.617   1.841
 1823SOL     OW 6367   3.156   6.291   3.274
 1823SOL    HW1 6368   3.218   6.234   3.329
 1823SOL    HW2 6369   3.098   6.233   3.218
 1824SOL     OW 6370   3.966   4.345   0.970
 1824SOL    HW1 6371   3.884   4.402   0.980
 1824SOL    HW2 6372   3.947   4.253   1.004
 1825SOL     OW 6373   0.760   2.650   4.444
 1825SOL    HW1 6374   0.773   2.559   4.485
 1825SOL    HW2 6375   0.807   2.654   4.356
 1826SOL     OW 6376   3.384   1.615   1.465
 1826SOL    HW1 6377   3.409   1.540   1.527
 1826SOL    HW2 6378   3.452   1.688   1.474
 1827SOL     OW 6379   6.106   5.373   1.198
 1827SOL    HW1 6380   6.165   5.293   1.199
 1827SOL    HW2 6381   6.010   5.345   1.199
 1828SOL     OW 6382   1.470   2.897   6.437
 1828SOL    HW1 6383   1.541   2.966   6.424
 1828SOL    HW2 6384   1.401   2.906   6.365
 1829SOL     OW 6385   4.194   0.556   2.898
 1829SOL    HW1 6386   4.168   0.618   2.972
 1829SOL    HW2 6387   4.114   0.504   2.870
 1830SOL     OW 6388   5.703   5.957   4.918
 1830SOL    HW1 6389   5.715   5.861   4.893
 1830SOL    HW2 6390   5.674   6.009   4.837
 1831SOL     OW 6391   5.670   6.777   2.621
 1831SOL    HW1 6392   5.577   6.800   2.653
 1831SOL    HW2 6393   5.697   6.689   2.659
 1832SOL     OW 6394   4.058   1.267   0.848
 1832SOL    HW1 6395   4.030   1.299   0.758
 1832SOL    HW2 6396   4.072   1.168   0.845
 1833SOL     OW 6397   5.813   0.623   1.685
 1833SOL    HW1 6398   5.849   0.579   1.768
 1833SOL    HW2 6399   5.874   0.697   1.658
 1834SOL     OW 6400   2.158   4.369   0.742
 1834SOL    HW1 6401   2.061   4.343   0.740
 1834SOL    HW2 6402   2.214   4.289   0.720
 1835SOL     OW 6403   0.533   4.688   1.826
 1835SOL    HW1 6404   0.543   4.778   1.782
 1835SOL    HW2 6405   0.614   4.669   1.882
 1836SOL     OW 6406   5.332   2.344   1.916
 1836SOL    HW1 6407   5.400   2.325   1.987
 1836SOL    HW2 6408   5.365   2.308   1.828
 1837SOL     OW 6409   1.432   6.696   5.302
 1837SOL    HW1 6410   1.382   6.637   5.365
 1837SOL    HW2 6411   1.389   6.694   5.212
 1838SOL     OW 6412   5.666   1.048   5.917
 1838SOL    HW1 6413   5.686   0.999   5.832
 1838SOL    HW2 6414   5.713   1.136   5.916
 1839SOL     OW 6415   0.164   0.946   5.540
 1839SOL    HW1 6416   0.111   1.010   5.484
 1839SOL    HW2 6417   0.230   0.899   5.482
 1840SOL     OW 6418   3.767   0.444   2.059
 1840SOL    HW1 6419   3.810   0.404   2.139
 1840SOL    HW2 6420   3.755   0.543   2.074
 1841SOL     OW 6421   2.487   0.561   3.247
 1841SOL    HW1 6422   2.406   0.619   3.234
 1841SOL    HW2 6423   2.521   0.571   3.341
 1842SOL     OW 6424   1.014   5.941   1.252
 1842SOL    HW1 6425   0.942   5.885   1.294
 1842SOL    HW2 6426   1.096   5.886   1.237
 1843SOL     OW 6427   5.692   0.380   4.846
 1843SOL    HW1 6428   5.791   0.392   4.838
 1843SOL    HW2 6429   5.670   0.353   4.939
 1844SOL     OW 6430   3.686   0.373   4.892
 1844SOL    HW1 6431   3.716   0.439   4.823
 1844SOL    HW2 6432   3.762   0.313   4.915
 1845SOL     OW 6433   2.376   6.570   4.539
 1845SOL    HW1 6434   2.355   6.476   4.565
 1845SOL    HW2 6435   2.475   6.580   4.527
 1846SOL     OW 6436   4.185   0.859   2.530
 1846SOL    HW1 6437   4.181   0.891   2.436
 1846SOL    HW2 6438   4.272   0.888   2.571
 1847SOL     OW 6439   1.543   6.943   5.755
 1847SOL    HW1 6440   1.475   7.015   5.768
 1847SOL    HW2 6441   1.583   6.919   5.843
 1848SOL     OW 6442   1.619   6.558   2.970
 1848SOL    HW1 6443   1.597   6.654   2.984
 1848SOL    HW2 6444   1.562   6.521   2.896
 1849SOL     OW 6445   4.575   2.603   1.321
 1849SOL    HW1 6446   4.481   2.576   1.300
 1849SOL    HW2 6447   4.628   2.521   1.346
 1850SOL     OW 6448   6.897   2.289   2.343
 1850SOL    HW1 6449   6.986   2.280   2.299
 1850SOL    HW2 6450   6.899   2.364   2.409
 1851SOL     OW 6451   0.935   3.258   0.402
 1851SOL    HW1 6452   1.012   3.299   0.353
 1851SOL    HW2 6453   0.947   3.159   0.405
 1852SOL     OW 6454   6.867   4.452   2.389
 1852SOL    HW1 6455   6.928   4.530   2.405
 1852SOL    HW2 6456   6.839   4.452   2.293
 1853SOL     OW 6457   6.420   2.901   2.951
 1853SOL    HW1 6458   6.480   2.908   3.031
 1853SOL    HW2 6459   6.324   2.905   2.981
 1854SOL     OW 6460   1.921   5.405   2.398
 1854SOL    HW1 6461   1.854   5.331   2.385
 1854SOL    HW2 6462   1.954   5.436   2.309
 1855SOL     OW 6463   5.687   3.517   5.229
 1855SOL    HW1 6464   5.731   3.442   5.181
 1855SOL    HW2 6465   5.755   3.586   5.252
 1856SOL     OW 6466   4.829   3.142   6.301
 1856SOL    HW1 6467   4.811   3.045   6.320
 1856SOL    HW2 6468   4.896   3.177   6.367
 1857SOL     OW 6469   3.855   1.740   0.294
 1857SOL    HW1 6470   3.793   1.749   0.217
 1857SOL    HW2 6471   3.897   1.649   0.293
 1858SOL     OW 6472   5.081   3.048   3.403
 1858SOL    HW1 6473   5.133   2.995   3.470
 1858SOL    HW2 6474   5.030   2.986   3.343
 1859SOL     OW 6475   4.249   1.583   3.603
 1859SOL    HW1 6476   4.251   1.608   3.506
 1859SOL    HW2 6477   4.277   1.661   3.658
 1860SOL     OW 6478   0.021   1.482   5.404
 1860SOL    HW1 6479   0.075   1.519   5.479
 1860SOL    HW2 6480   0.020   1.382   5.410
 1861SOL     OW 6481   5.352   0.280   2.733
 1861SOL    HW1 6482   5.307   0.225   2.662
 1861SOL    HW2 6483   5.403   0.355   2.690
 1862SOL     OW 6484   2.411   6.733   6.574
 1862SOL    HW1 6485   2.353   6.812   6.593
 1862SOL    HW2 6486   2.366   6.650   6.609
 1863SOL     OW 6487   0.001   3.052   3.329
 1863SOL    HW1 6488   0.021   2.966   3.280
 1863SOL    HW2 6489   0.062   3.123   3.296
 1864SOL     OW 6490   3.107   5.705   4.603
 1864SOL    HW1 6491   3.015   5.681   4.571
 1864SOL    HW2 6492   3.112   5.692   4.702
 1865SOL     OW 6493   3.658   0.510   0.323
 1865SOL    HW1 6494   3.619   0.562   0.399
 1865SOL    HW2 6495   3.739   0.461   0.354
 1866SOL     OW 6496   7.000   5.004   3.816
 1866SOL    HW1 6497   6.982   5.103   3.812
 1866SOL    HW2 6498   0.064   4.984   3.767
 1867SOL     OW 6499   1.696   4.454   1.358
 1867SOL    HW1 6500   1.691   4.484   1.454
 1867SOL    HW2 6501   1.787   4.418   1.339
 1868SOL     OW 6502   5.182   3.400   6.372
 1868SOL    HW1 6503   5.204   3.496   6.350
 1868SOL    HW2 6504   5.266   3.353   6.399
 1869SOL     OW 6505   6.097   3.492   4.958
 1869SOL    HW1 6506   6.171   3.438   4.917
 1869SOL    HW2 6507   6.135   3.555   5.025
 1870SOL     OW 6508   1.051   3.495   5.170
 1870SOL    HW1 6509   1.002   3.408   5.159
 1870SOL    HW2 6510   1.043   3.525   5.265
 1871SOL     OW 6511   0.242   0.188   0.570
 1871SOL    HW1 6512   0.204   0.176   0.662
 1871SOL    HW2 6513   0.342   0.192   0.576
 1872SOL     OW 6514   4.394   2.141   0.069
 1872SOL    HW1 6515   4.330   2.218   0.067
 1872SOL    HW2 6516   4.472   2.161   0.010
 1873SOL     OW 6517   6.015   0.664   5.781
 1873SOL    HW1 6518   6.113   0.677   5.769
 1873SOL    HW2 6519   5.969   0.753   5.782
 1874SOL     OW 6520   1.575   1.539   6.817
 1874SOL    HW1 6521   1.655   1.593   6.844
 1874SOL    HW2 6522   1.491   1.589   6.837
 1875SOL     OW 6523   6.439   0.562   0.486
 1875SOL    HW1 6524   6.460   0.576   0.583
 1875SOL    HW2 6525   6.502   0.615   0.430
 1876SOL     OW 6526   3.753   5.807   6.500
 1876SOL    HW1 6527   3.827   5.819   6.567
 1876SOL    HW2 6528   3.667   5.789   6.548
 1877SOL     OW 6529   1.167   1.725   3.705
 1877SOL    HW1 6530   1.105   1.682   3.771
 1877SOL    HW2 6531   1.118   1.796   3.655
 1878SOL     OW 6532   6.859   3.520   4.238
 1878SOL    HW1 6533   6.764   3.491   4.245
 1878SOL    HW2 6534   6.889   3.510   4.143
 1879SOL     OW 6535   2.922   6.630   3.968
 1879SOL    HW1 6536   2.974   6.679   3.898
 1879SOL    HW2 6537   2.914   6.533   3.942
 1880SOL     OW 6538   0.046   2.161   2.944
 1880SOL    HW1 6539   0.112   2.089   2.922
 1880SOL    HW2 6540   0.092   2.249   2.948
 1881SOL     OW 6541   1.350   2.296   3.849
 1881SOL    HW1 6542   1.312   2.215   3.804
 1881SOL    HW2 6543   1.358   2.371   3.783
 1882SOL     OW 6544   0.868   5.055   6.881
 1882SOL    HW1 6545   0.882   5.122   6.954
 1882SOL    HW2 6546   0.774   5.061   6.847
 1883SOL     OW 6547   1.249   3.465   4.092
 1883SOL    HW1 6548   1.338   3.510   4.092
 1883SOL    HW2 6549   1.184   3.520   4.041
 1884SOL     OW 6550   5.826   2.364   1.048
 1884SOL    HW1 6551   5.743   2.389   1.098
 1884SOL    HW2 6552   5.883   2.305   1.105
 1885SOL     OW 6553   0.081   2.335   0.445
 1885SOL    HW1 6554   0.002   2.359   0.502
 1885SOL    HW2 6555   0.148   2.285   0.500
 1886SOL     OW 6556   2.455   1.983   0.628
 1886SOL    HW1 6557   2.385   1.985   0.699
 1886SOL    HW2 6558   2.530   2.044   0.653
 1887SOL     OW 6559   0.770   4.728   5.082
 1887SOL    HW1 6560   0.768   4.746   5.180
 1887SOL    HW2 6561   0.784   4.630   5.066
 1888SOL     OW 6562   2.853   1.795   5.893
 1888SOL    HW1 6563   2.889   1.859   5.962
 1888SOL    HW2 6564   2.801   1.847   5.825
 1889SOL     OW 6565   5.552   2.608   6.416
 1889SOL    HW1 6566   5.517   2.674   6.483
 1889SOL    HW2 6567   5.521   2.633   6.325
 1890SOL     OW 6568   1.178   5.585   5.302
 1890SOL    HW1 6569   1.221   5.666   5.341
 1890SOL    HW2 6570   1.100   5.612   5.246
 1891SOL     OW 6571   5.510   3.200   4.359
 1891SOL    HW1 6572   5.553   3.263   4.423
 1891SOL    HW2 6573   5.498   3.111   4.403
 1892SOL     OW 6574   3.894   0.050   0.758
 1892SOL    HW1 6575   3.934   6.991   0.804
 1892SOL    HW2 6576   3.826   0.092   0.818
 1893SOL     OW 6577   3.037   1.341   5.485
 1893SOL    HW1 6578   3.115   1.396   5.514
 1893SOL    HW2 6579   2.970   1.399   5.439
 1894SOL     OW 6580   4.036   3.868   2.157
 1894SOL    HW1 6581   4.068   3.862   2.062
 1894SOL    HW2 6582   4.085   3.941   2.205
 1895SOL     OW 6583   5.089   1.022   2.577
 1895SOL    HW1 6584   5.014   1.017   2.643
 1895SOL    HW2 6585   5.152   1.096   2.603
 1896SOL     OW 6586   0.593   0.802   3.371
 1896SOL    HW1 6587   0.665   0.858   3.411
 1896SOL    HW2 6588   0.612   0.706   3.389
 1897SOL     OW 6589   0.849   4.996   2.321
 1897SOL    HW1 6590   0.808   4.978   2.232
 1897SOL    HW2 6591   0.849   4.912   2.376
 1898SOL     OW 6592   3.280   5.080   2.334
 1898SOL    HW1 6593   3.352   5.040   2.391
 1898SOL    HW2 6594   3.258   5.017   2.260
 1899SOL     OW 6595   0.791   2.650   2.651
 1899SOL    HW1 6596   0.748   2.718   2.591
 1899SOL    HW2 6597   0.887   2.673   2.664
 1900SOL     OW 6598   0.714   0.325   5.258
 1900SOL    HW1 6599   0.760   0.345   5.171
 1900SOL    HW2 6600   0.700   0.226   5.266
 1901SOL     OW 6601   2.432   1.438   1.683
 1901SOL    HW1 6602   2.508   1.376   1.663
 1901SOL    HW2 6603   2.453   1.529   1.645
 1902SOL     OW 6604   2.667   2.425   4.818
 1902SOL    HW1 6605   2.727   2.392   4.891
 1902SOL    HW2 6606   2.606   2.351   4.789
 1903SOL     OW 6607   6.609   4.021   3.734
 1903SOL    HW1 6608   6.629   3.982   3.824
 1903SOL    HW2 6609   6.694   4.029   3.682
 1904SOL     OW 6610   5.933   6.386   3.899
 1904SOL    HW1 6611   6.027   6.421   3.895
 1904SOL    HW2 6612   5.916   6.347   3.989
 1905SOL     OW 6613   1.638   1.547   4.510
 1905SOL    HW1 6614   1.639   1.448   4.519
 1905SOL    HW2 6615   1.566   1.574   4.446
 1906SOL     OW 6616   2.821   0.067   5.152
 1906SOL    HW1 6617   2.818   6.989   5.134
 1906SOL    HW2 6618   2.873   0.083   5.236
 1907SOL     OW 6619   3.540   6.809   3.239
 1907SOL    HW1 6620   3.595   6.795   3.157
 1907SOL    HW2 6621   3.478   6.886   3.225
 1908SOL     OW 6622   4.270   0.870   4.742
 1908SOL    HW1 6623   4.257   0.890   4.839
 1908SOL    HW2 6624   4.315   0.781   4.732
 1909SOL     OW 6625   1.418   4.009   2.777
 1909SOL    HW1 6626   1.494   4.049   2.828
 1909SOL    HW2 6627   1.377   3.935   2.831
 1910SOL     OW 6628   0.069   2.490   6.620
 1910SOL    HW1 6629   0.074   2.553   6.542
 1910SOL    HW2 6630   7.016   2.517   6.681
 1911SOL     OW 6631   6.033   2.306   5.608
 1911SOL    HW1 6632   6.008   2.403   5.610
 1911SOL    HW2 6633   6.133   2.298   5.608
 1912SOL     OW 6634   3.683   6.977   1.260
 1912SOL    HW1 6635   3.700   6.951   1.355
 1912SOL    HW2 6636   3.588   6.956   1.236
 1913SOL     OW 6637   1.272   5.662   5.634
 1913SOL    HW1 6638   1.369   5.649   5.655
 1913SOL    HW2 6639   1.231   5.721   5.703
 1914SOL     OW 6640   3.158   2.362   6.934
 1914SOL    HW1 6641   3.204   2.283   6.893
 1914SOL    HW2 6642   3.154   2.349   0.013
 1915SOL     OW 6643   3.767   1.684   5.338
 1915SOL    HW1 6644   3.734   1.613   5.277
 1915SOL    HW2 6645   3.725   1.771   5.314
 1916SOL     OW 6646   3.441   6.356   1.076
 1916SOL    HW1 6647   3.495   6.272   1.072
 1916SOL    HW2 6648   3.495   6.428   1.120
 1917SOL     OW 6649   3.141   3.095   4.072
 1917SOL    HW1 6650   3.095   3.109   3.984
 1917SOL    HW2 6651   3.212   3.025   4.061
 1918SOL     OW 6652   0.218   0.458   6.297
 1918SOL    HW1 6653   0.160   0.533   6.269
 1918SOL    HW2 6654   0.200   0.436   6.393
 1919SOL     OW 6655   1.933   0.013   1.456
 1919SOL    HW1 6656   2.006   6.991   1.509
 1919SOL    HW2 6657   1.946   0.112   1.455
 1920SOL     OW 6658   1.268   5.361   2.939
 1920SOL    HW1 6659   1.342   5.311   2.984
 1920SOL    HW2 6660   1.305   5.418   2.866
 1921SOL     OW 6661   1.562   4.666   0.223
 1921SOL    HW1 6662   1.644   4.694   0.272
 1921SOL    HW2 6663   1.581   4.664   0.124
 1922SOL     OW 6664   3.447   4.391   0.971
 1922SOL    HW1 6665   3.492   4.302   0.969
 1922SOL    HW2 6666   3.486   4.450   0.900
 1923SOL     OW 6667   3.137   0.950   5.972
 1923SOL    HW1 6668   3.210   0.883   5.960
 1923SOL    HW2 6669   3.177   1.042   5.969
 1924SOL     OW 6670   5.238   4.921   1.714
 1924SOL    HW1 6671   5.203   5.009   1.747
 1924SOL    HW2 6672   5.279   4.932   1.624
 1925SOL     OW 6673   2.637   3.980   1.524
 1925SOL    HW1 6674   2.670   3.969   1.431
 1925SOL    HW2 6675   2.614   3.891   1.563
 1926SOL     OW 6676   1.491   6.984   3.222
 1926SOL    HW1 6677   1.446   6.942   3.301
 1926SOL    HW2 6678   1.550   0.038   3.253
 1927SOL     OW 6679   3.341   5.310   6.398
 1927SOL    HW1 6680   3.341   5.407   6.370
 1927SOL    HW2 6681   3.361   5.253   6.318
 1928SOL     OW 6682   0.030   3.789   5.856
 1928SOL    HW1 6683   6.999   3.875   5.847
 1928SOL    HW2 6684   0.058   3.777   5.951
 1929SOL     OW 6685   0.715   6.329   1.598
 1929SOL    HW1 6686   0.665   6.405   1.556
 1929SOL    HW2 6687   0.759   6.274   1.527
 1930SOL     OW 6688   3.663   4.101   6.711
 1930SOL    HW1 6689   3.734   4.074   6.646
 1930SOL    HW2 6690   3.648   4.199   6.706
 1931SOL     OW 6691   7.001   2.966   2.576
 1931SOL    HW1 6692   7.005   2.870   2.547
 1931SOL    HW2 6693   6.965   2.970   2.669
 1932SOL     OW 6694   4.887   3.564   3.243
 1932SOL    HW1 6695   4.872   3.529   3.150
 1932SOL    HW2 6696   4.928   3.492   3.299
 1933SOL     OW 6697   2.448   4.589   0.723
 1933SOL    HW1 6698   2.438   4.490   0.726
 1933SOL    HW2 6699   2.359   4.631   0.708
 1934SOL     OW 6700   0.434   0.325   4.472
 1934SOL    HW1 6701   0.487   0.240   4.479
 1934SOL    HW2 6702   0.471   0.381   4.398
 1935SOL     OW 6703   3.658   6.740   4.511
 1935SOL    HW1 6704   3.570   6.721   4.468
 1935SOL    HW2 6705   3.657   6.833   4.548
 1936SOL     OW 6706   6.261   4.140   4.331
 1936SOL    HW1 6707   6.265   4.218   4.393
 1936SOL    HW2 6708   6.166   4.127   4.300
 1937SOL     OW 6709   5.237   0.613   0.723
 1937SOL    HW1 6710   5.215   0.606   0.821
 1937SOL    HW2 6711   5.197   0.696   0.686
 1938SOL     OW 6712   2.953   1.035   1.892
 1938SOL    HW1 6713   3.046   1.044   1.856
 1938SOL    HW2 6714   2.955   1.037   1.992
 1939SOL     OW 6715   0.397   6.923   4.323
 1939SOL    HW1 6716   0.312   6.969   4.297
 1939SOL    HW2 6717   0.383   6.824   4.320
 1940SOL     OW 6718   4.042   4.559   7.016
 1940SOL    HW1 6719   4.128   4.606   0.016
 1940SOL    HW2 6720   4.028   4.555   6.918
 1941SOL     OW 6721   0.169   4.612   3.180
 1941SOL    HW1 6722   0.252   4.567   3.212
 1941SOL    HW2 6723   0.135   4.567   3.098
 1942SOL     OW 6724   5.537   0.288   1.843
 1942SOL    HW1 6725   5.515   0.384   1.824
 1942SOL    HW2 6726   5.481   0.256   1.920
 1943SOL     OW 6727   2.498   6.415   2.385
 1943SOL    HW1 6728   2.409   6.422   2.339
 1943SOL    HW2 6729   2.571   6.423   2.318
 1944SOL     OW 6730   5.847   2.113   0.647
 1944SOL    HW1 6731   5.840   2.097   0.745
 1944SOL    HW2 6732   5.794   2.043   0.598
 1945SOL     OW 6733   3.383   5.442   2.053
 1945SOL    HW1 6734   3.443   5.505   2.102
 1945SOL    HW2 6735   3.421   5.350   2.057
 1946SOL     OW 6736   6.815   0.598   1.279
 1946SOL    HW1 6737   6.877   0.575   1.203
 1946SOL    HW2 6738   6.810   0.697   1.289
 1947SOL     OW 6739   4.607   6.885   4.406
 1947SOL    HW1 6740   4.697   6.871   4.365
 1947SOL    HW2 6741   4.617   6.926   4.497
 1948SOL     OW 6742   5.710   5.459   3.539
 1948SOL    HW1 6743   5.676   5.475   3.632
 1948SOL    HW2 6744   5.696   5.542   3.485
 1949SOL     OW 6745   3.388   4.421   6.501
 1949SOL    HW1 6746   3.300   4.448   6.539
 1949SOL    HW2 6747   3.375   4.383   6.410
 1950SOL     OW 6748   3.574   4.685   0.864
 1950SOL    HW1 6749   3.639   4.618   0.899
 1950SOL    HW2 6750   3.618   4.774   0.858
 1951SOL     OW 6751   6.005   4.288   6.964
 1951SOL    HW1 6752   5.999   4.263   6.867
 1951SOL    HW2 6753   5.913   4.295   7.002
 1952SOL     OW 6754   3.961   2.815   0.058
 1952SOL    HW1 6755   3.993   2.828   6.984
 1952SOL    HW2 6756   3.956   2.903   0.104
 1953SOL     OW 6757   5.822   1.811   0.222
 1953SOL    HW1 6758   5.868   1.847   0.303
 1953SOL    HW2 6759   5.889   1.772   0.160
 1954SOL     OW 6760   5.674   1.088   3.560
 1954SOL    HW1 6761   5.612   1.128   3.628
 1954SOL    HW2 6762   5.665   1.138   3.474
 1955SOL     OW 6763   1.133   1.388   2.230
 1955SOL    HW1 6764   1.211   1.451   2.226
 1955SOL    HW2 6765   1.149   1.312   2.166
 1956SOL     OW 6766   4.843   6.611   2.254
 1956SOL    HW1 6767   4.941   6.596   2.245
 1956SOL    HW2 6768   4.821   6.629   2.350
 1957SOL     OW 6769   6.039   5.215   4.775
 1957SOL    HW1 6770   6.094   5.287   4.733
 1957SOL    HW2 6771   5.971   5.183   4.709
 1958SOL     OW 6772   5.264   2.270   2.521
 1958SOL    HW1 6773   5.292   2.191   2.576
 1958SOL    HW2 6774   5.186   2.315   2.566
 1959SOL     OW 6775   0.329   1.013   4.700
 1959SOL    HW1 6776   0.377   1.101   4.691
 1959SOL    HW2 6777   0.308   0.978   4.609
 1960SOL     OW 6778   6.513   4.246   2.588
 1960SOL    HW1 6779   6.576   4.214   2.659
 1960SOL    HW2 6780   6.565   4.271   2.506
 1961SOL     OW 6781   6.030   4.429   4.215
 1961SOL    HW1 6782   6.096   4.502   4.233
 1961SOL    HW2 6783   5.943   4.470   4.189
 1962SOL     OW 6784   2.358   6.751   3.320
 1962SOL    HW1 6785   2.384   6.811   3.395
 1962SOL    HW2 6786   2.438   6.728   3.266
 1963SOL     OW 6787   0.825   1.101   1.867
 1963SOL    HW1 6788   0.773   1.142   1.942
 1963SOL    HW2 6789   0.873   1.020   1.900
 1964SOL     OW 6790   4.472   4.066   0.908
 1964SOL    HW1 6791   4.387   4.100   0.949
 1964SOL    HW2 6792   4.502   4.128   0.836
 1965SOL     OW 6793   1.058   3.517   4.558
 1965SOL    HW1 6794   1.132   3.463   4.519
 1965SOL    HW2 6795   1.037   3.593   4.497
 1966SOL     OW 6796   6.970   6.272   0.394
 1966SOL    HW1 6797   0.016   6.227   0.454
 1966SOL    HW2 6798   7.013   6.349   0.348
 1967SOL     OW 6799   5.335   2.491   5.157
 1967SOL    HW1 6800   5.415   2.543   5.186
 1967SOL    HW2 6801   5.288   2.540   5.083
 1968SOL     OW 6802   3.185   6.926   0.172
 1968SOL    HW1 6803   3.171   6.891   0.264
 1968SOL    HW2 6804   3.119   6.886   0.109
 1969SOL     OW 6805   1.374   1.846   1.894
 1969SOL    HW1 6806   1.330   1.782   1.831
 1969SOL    HW2 6807   1.394   1.798   1.980
 1970SOL     OW 6808   2.004   6.602   6.163
 1970SOL    HW1 6809   1.923   6.551   6.135
 1970SOL    HW2 6810   2.027   6.578   6.257
 1971SOL     OW 6811   0.329   6.882   5.700
 1971SOL    HW1 6812   0.296   6.868   5.607
 1971SOL    HW2 6813   0.322   6.796   5.751
 1972SOL     OW 6814   5.545   2.395   2.503
 1972SOL    HW1 6815   5.592   2.326   2.559
 1972SOL    HW2 6816   5.454   2.363   2.480
 1973SOL     OW 6817   2.917   2.599   0.223
 1973SOL    HW1 6818   2.945   2.535   0.294
 1973SOL    HW2 6819   2.998   2.632   0.175
 1974SOL     OW 6820   5.290   6.026   4.034
 1974SOL    HW1 6821   5.279   6.011   4.133
 1974SOL    HW2 6822   5.220   5.974   3.985
 1975SOL     OW 6823   2.503   1.878   3.944
 1975SOL    HW1 6824   2.407   1.894   3.922
 1975SOL    HW2 6825   2.530   1.936   4.022
 1976SOL     OW 6826   0.760   6.660   6.267
 1976SOL    HW1 6827   0.842   6.655   6.211
 1976SOL    HW2 6828   0.751   6.752   6.305
 1977SOL     OW 6829   0.706   3.669   4.415
 1977SOL    HW1 6830   0.742   3.758   4.385
 1977SOL    HW2 6831   0.714   3.604   4.339
 1978SOL     OW 6832   1.765   0.265   2.979
 1978SOL    HW1 6833   1.770   0.285   3.077
 1978SOL    HW2 6834   1.831   0.322   2.931
 1979SOL     OW 6835   6.283   4.365   5.913
 1979SOL    HW1 6836   6.302   4.295   5.982
 1979SOL    HW2 6837   6.367   4.385   5.862
 1980SOL     OW 6838   2.638   0.447   4.997
 1980SOL    HW1 6839   2.631   0.360   5.045
 1980SOL    HW2 6840   2.623   0.522   5.062
 1981SOL     OW 6841   6.584   1.961   2.778
 1981SOL    HW1 6842   6.488   1.932   2.783
 1981SOL    HW2 6843   6.617   1.951   2.684
 1982SOL     OW 6844   0.449   4.434   4.696
 1982SOL    HW1 6845   0.379   4.392   4.754
 1982SOL    HW2 6846   0.469   4.526   4.730
 1983SOL     OW 6847   0.601   1.533   2.797
 1983SOL    HW1 6848   0.610   1.476   2.715
 1983SOL    HW2 6849   0.690   1.541   2.842
 1984SOL     OW 6850   6.438   1.531   5.009
 1984SOL    HW1 6851   6.533   1.546   5.038
 1984SOL    HW2 6852   6.378   1.591   5.061
 1985SOL     OW 6853   1.093   6.243   2.378
 1985SOL    HW1 6854   1.103   6.195   2.466
 1985SOL    HW2 6855   1.180   6.244   2.330
 1986SOL     OW 6856   1.549   0.755   0.156
 1986SOL    HW1 6857   1.557   0.729   0.060
 1986SOL    HW2 6858   1.609   0.698   0.212
 1987SOL     OW 6859   2.051   2.510   2.193
 1987SOL    HW1 6860   2.094   2.501   2.282
 1987SOL    HW2 6861   2.032   2.419   2.155
 1988SOL     OW 6862   5.599   4.021   0.540
 1988SOL    HW1 6863   5.690   4.045   0.506
 1988SOL    HW2 6864   5.607   3.983   0.632
 1989SOL     OW 6865   2.188   6.291   4.391
 1989SOL    HW1 6866   2.230   6.311   4.479
 1989SOL    HW2 6867   2.190   6.193   4.374
 1990SOL     OW 6868   3.170   6.511   0.138
 1990SOL    HW1 6869   3.246   6.573   0.155
 1990SOL    HW2 6870   3.094   6.535   0.199
 1991SOL     OW 6871   4.107   4.464   6.046
 1991SOL    HW1 6872   4.022   4.484   5.995
 1991SOL    HW2 6873   4.127   4.540   6.108
 1992SOL     OW 6874   0.640   0.627   0.184
 1992SOL    HW1 6875   0.736   0.654   0.193
 1992SOL    HW2 6876   0.620   0.553   0.248
 1993SOL     OW 6877   3.647   3.008   4.674
 1993SOL    HW1 6878   3.557   2.973   4.700
 1993SOL    HW2 6879   3.704   3.017   4.755
 1994SOL     OW 6880   0.967   0.960   0.470
 1994SOL    HW1 6881   1.009   1.013   0.396
 1994SOL    HW2 6882   0.999   0.995   0.558
 1995SOL     OW 6883   5.602   2.126   3.345
 1995SOL    HW1 6884   5.621   2.205   3.287
 1995SOL    HW2 6885   5.581   2.046   3.288
 1996SOL     OW 6886   2.586   3.433   0.753
 1996SOL    HW1 6887   2.497   3.477   0.742
 1996SOL    HW2 6888   2.572   3.340   0.789
 1997SOL     OW 6889   4.263   1.350   4.780
 1997SOL    HW1 6890   4.335   1.311   4.837
 1997SOL    HW2 6891   4.300   1.367   4.688
 1998SOL     OW 6892   2.317   4.158   6.333
 1998SOL    HW1 6893   2.281   4.065   6.345
 1998SOL    HW2 6894   2.383   4.178   6.405
 1999SOL     OW 6895   3.459   6.905   1.106
 1999SOL    HW1 6896   3.363   6.898   1.080
 1999SOL    HW2 6897   3.513   6.840   1.052
 2000SOL     OW 6898   4.387   2.265   5.302
 2000SOL    HW1 6899   4.376   2.170   5.271
 2000SOL    HW2 6900   4.435   2.317   5.231
 2001SOL     OW 6901   2.829   1.684   2.035
 2001SOL    HW1 6902   2.815   1.619   1.960
 2001SOL    HW2 6903   2.831   1.777   1.998
 2002SOL     OW 6904   0.751   4.895   6.606
 2002SOL    HW1 6905   0.733   4.850   6.518
 2002SOL    HW2 6906   0.768   4.992   6.591
 2003SOL     OW 6907   6.071   6.045   1.913
 2003SOL    HW1 6908   6.094   6.115   1.981
 2003SOL    HW2 6909   6.148   5.981   1.904
 2004SOL     OW 6910   5.275   0.810   5.782
 2004SOL    HW1 6911   5.255   0.901   5.818
 2004SOL    HW2 6912   5.318   0.819   5.692
 2005SOL     OW 6913   1.068   5.282   7.013
 2005SOL    HW1 6914   1.099   5.193   6.980
 2005SOL    HW2 6915   1.071   5.349   6.939
 2006SOL     OW 6916   4.900   6.291   3.722
 2006SOL    HW1 6917   4.823   6.248   3.770
 2006SOL    HW2 6918   4.939   6.226   3.657
 2007SOL     OW 6919   4.225   4.684   1.011
 2007SOL    HW1 6920   4.250   4.764   0.957
 2007SOL    HW2 6921   4.154   4.709   1.076
 2008SOL     OW 6922   2.542   5.339   3.872
 2008SOL    HW1 6923   2.568   5.334   3.776
 2008SOL    HW2 6924   2.467   5.276   3.890
 2009SOL     OW 6925   5.772   0.736   2.493
 2009SOL    HW1 6926   5.795   0.770   2.584
 2009SOL    HW2 6927   5.676   0.709   2.490
 2010SOL     OW 6928   1.981   1.839   1.133
 2010SOL    HW1 6929   1.924   1.835   1.215
 2010SOL    HW2 6930   2.069   1.880   1.155
 2011SOL     OW 6931   6.733   0.737   4.709
 2011SOL    HW1 6932   6.746   0.705   4.616
 2011SOL    HW2 6933   6.818   0.780   4.742
 2012SOL     OW 6934   1.721   3.459   2.119
 2012SOL    HW1 6935   1.771   3.424   2.040
 2012SOL    HW2 6936   1.623   3.458   2.100
 2013SOL     OW 6937   6.433   2.487   3.368
 2013SOL    HW1 6938   6.420   2.388   3.357
 2013SOL    HW2 6939   6.526   2.511   3.341
 2014SOL     OW 6940   2.585   5.404   3.293
 2014SOL    HW1 6941   2.548   5.354   3.215
 2014SOL    HW2 6942   2.551   5.498   3.291
 2015SOL     OW 6943   1.816   1.251   0.553
 2015SOL    HW1 6944   1.852   1.314   0.622
 2015SOL    HW2 6945   1.858   1.271   0.465
 2016SOL     OW 6946   1.020   6.153   4.749
 2016SOL    HW1 6947   0.974   6.160   4.838
 2016SOL    HW2 6948   1.084   6.076   4.751
 2017SOL     OW 6949   3.121   7.002   4.081
 2017SOL    HW1 6950   3.035   6.973   4.038
 2017SOL    HW2 6951   3.162   0.055   4.027
 2018SOL     OW 6952   5.750   6.286   5.602
 2018SOL    HW1 6953   5.692   6.281   5.521
 2018SOL    HW2 6954   5.697   6.321   5.679
 2019SOL     OW 6955   5.360   3.056   0.388
 2019SOL    HW1 6956   5.301   3.136   0.385
 2019SOL    HW2 6957   5.355   3.014   0.479
 2020SOL     OW 6958   1.454   6.176   5.176
 2020SOL    HW1 6959   1.545   6.158   5.138
 2020SOL    HW2 6960   1.384   6.139   5.115
 2021SOL     OW 6961   1.517   5.815   3.334
 2021SOL    HW1 6962   1.466   5.891   3.294
 2021SOL    HW2 6963   1.457   5.760   3.392
 2022SOL     OW 6964   1.603   3.858   3.342
 2022SOL    HW1 6965   1.647   3.929   3.287
 2022SOL    HW2 6966   1.560   3.791   3.281
 2023SOL     OW 6967   6.275   0.874   6.149
 2023SOL    HW1 6968   6.225   0.788   6.163
 2023SOL    HW2 6969   6.222   0.950   6.185
 2024SOL     OW 6970   0.511   6.717   3.688
 2024SOL    HW1 6971   0.477   6.782   3.755
 2024SOL    HW2 6972   0.596   6.675   3.722
 2025SOL     OW 6973   2.471   2.054   3.252
 2025SOL    HW1 6974   2.425   2.137   3.222
 2025SOL    HW2 6975   2.515   2.070   3.341
 2026SOL     OW 6976   0.565   3.181   5.772
 2026SOL    HW1 6977   0.617   3.180   5.687
 2026SOL    HW2 6978   0.626   3.161   5.849
 2027SOL     OW 6979   0.533   0.998   0.371
 2027SOL    HW1 6980   0.571   0.933   0.436
 2027SOL    HW2 6981   0.560   1.091   0.398
 2028SOL     OW 6982   3.160   6.972   5.119
 2028SOL    HW1 6983   3.208   6.943   5.036
 2028SOL    HW2 6984   3.122   6.892   5.165
 2029SOL     OW 6985   6.261   0.479   0.123
 2029SOL    HW1 6986   6.222   0.442   0.207
 2029SOL    HW2 6987   6.261   0.578   0.127
 2030SOL     OW 6988   2.703   0.848   2.853
 2030SOL    HW1 6989   2.699   0.872   2.951
 2030SOL    HW2 6990   2.776   0.900   2.809
 2031SOL     OW 6991   6.313   6.008   1.341
 2031SOL    HW1 6992   6.283   6.063   1.420
 2031SOL    HW2 6993   6.385   6.056   1.292
 2032SOL     OW 6994   5.213   6.665   1.895
 2032SOL    HW1 6995   5.222   6.703   1.803
 2032SOL    HW2 6996   5.183   6.736   1.959
 2033SOL     OW 6997   3.367   4.077   6.565
 2033SOL    HW1 6998   3.451   4.064   6.513
 2033SOL    HW2 6999   3.327   3.988   6.587
 2034SOL     OW 7000   3.315   6.068   5.084
 2034SOL    HW1 7001   3.274   6.115   5.163
 2034SOL    HW2 7002   3.263   5.985   5.063
 2035SOL     OW 7003   0.738   0.363   2.984
 2035SOL    HW1 7004   0.654   0.417   2.987
 2035SOL    HW2 7005   0.717   0.268   3.009
 2036SOL     OW 7006   1.841   4.752   2.677
 2036SOL    HW1 7007   1.792   4.688   2.736
 2036SOL    HW2 7008   1.802   4.751   2.585
 2037SOL     OW 7009   6.765   3.042   5.445
 2037SOL    HW1 7010   6.864   3.053   5.449
 2037SOL    HW2 7011   6.739   2.953   5.483
 2038SOL     OW 7012   1.170   2.245   6.733
 2038SOL    HW1 7013   1.216   2.192   6.804
 2038SOL    HW2 7014   1.175   2.195   6.646
 2039SOL     OW 7015   0.906   5.897   3.182
 2039SOL    HW1 7016   0.959   5.921   3.100
 2039SOL    HW2 7017   0.855   5.813   3.165
 2040SOL     OW 7018   3.133   3.487   4.800
 2040SOL    HW1 7019   3.148   3.421   4.725
 2040SOL    HW2 7020   3.045   3.469   4.842
 2041SOL     OW 7021   0.398   6.182   5.251
 2041SOL    HW1 7022   0.402   6.178   5.152
 2041SOL    HW2 7023   0.480   6.227   5.287
 2042SOL     OW 7024   4.869   5.377   6.792
 2042SOL    HW1 7025   4.880   5.469   6.754
 2042SOL    HW2 7026   4.879   5.309   6.720
 2043SOL     OW 7027   6.882   3.605   3.779
 2043SOL    HW1 7028   6.883   3.513   3.740
 2043SOL    HW2 7029   6.798   3.618   3.832
 2044SOL     OW 7030   6.203   6.793   1.384
 2044SOL    HW1 7031   6.293   6.750   1.375
 2044SOL    HW2 7032   6.132   6.724   1.375
 2045SOL     OW 7033   2.834   4.866   3.984
 2045SOL    HW1 7034   2.914   4.844   3.928
 2045SOL    HW2 7035   2.780   4.937   3.938
 2046SOL     OW 7036   6.563   2.440   4.211
 2046SOL    HW1 7037   6.644   2.472   4.261
 2046SOL    HW2 7038   6.589   2.413   4.119
 2047SOL     OW 7039   6.524   1.617   6.791
 2047SOL    HW1 7040   6.563   1.557   6.862
 2047SOL    HW2 7041   6.489   1.561   6.716
 2048SOL     OW 7042   1.434   6.501   6.377
 2048SOL    HW1 7043   1.444   6.473   6.282
 2048SOL    HW2 7044   1.416   6.421   6.434
 2049SOL     OW 7045   5.788   1.661   5.629
 2049SOL    HW1 7046   5.707   1.660   5.571
 2049SOL    HW2 7047   5.853   1.592   5.599
 2050SOL     OW 7048   6.867   3.137   4.111
 2050SOL    HW1 7049   6.797   3.203   4.138
 2050SOL    HW2 7050   6.850   3.106   4.018
 2051SOL     OW 7051   0.973   5.645   0.395
 2051SOL    HW1 7052   0.889   5.699   0.400
 2051SOL    HW2 7053   0.951   5.547   0.403
 2052SOL     OW 7054   1.601   3.844   1.001
 2052SOL    HW1 7055   1.590   3.760   1.053
 2052SOL    HW2 7056   1.646   3.913   1.058
 2053SOL     OW 7057   5.564   6.433   4.584
 2053SOL    HW1 7058   5.589   6.384   4.500
 2053SOL    HW2 7059   5.495   6.380   4.634
 2054SOL     OW 7060   3.543   3.799   2.657
 2054SOL    HW1 7061   3.497   3.856   2.588
 2054SOL    HW2 7062   3.487   3.719   2.677
 2055SOL     OW 7063   5.874   3.466   3.200
 2055SOL    HW1 7064   5.815   3.527   3.148
 2055SOL    HW2 7065   5.843   3.465   3.296
 2056SOL     OW 7066   3.304   6.176   2.805
 2056SOL    HW1 7067   3.289   6.253   2.867
 2056SOL    HW2 7068   3.396   6.184   2.765
 2057SOL     OW 7069   5.529   4.078   5.001
 2057SOL    HW1 7070   5.613   4.025   4.987
 2057SOL    HW2 7071   5.476   4.038   5.076
 2058SOL     OW 7072   0.433   1.718   3.152
 2058SOL    HW1 7073   0.496   1.656   3.199
 2058SOL    HW2 7074   0.339   1.688   3.168
 2059SOL     OW 7075   1.609   5.805   6.499
 2059SOL    HW1 7076   1.676   5.877   6.487
 2059SOL    HW2 7077   1.537   5.836   6.562
 2060SOL     OW 7078   0.345   4.279   1.467
 2060SOL    HW1 7079   0.373   4.358   1.413
 2060SOL    HW2 7080   0.248   4.284   1.488
 2061SOL     OW 7081   0.155   1.935   3.666
 2061SOL    HW1 7082   0.136   1.868   3.595
 2061SOL    HW2 7083   0.095   2.015   3.654
 2062SOL     OW 7084   6.185   6.516   3.891
 2062SOL    HW1 7085   6.197   6.609   3.925
 2062SOL    HW2 7086   6.241   6.502   3.810
 2063SOL     OW 7087   1.973   0.336   6.465
 2063SOL    HW1 7088   2.054   0.306   6.413
 2063SOL    HW2 7089   1.892   0.326   6.407
 2064SOL     OW 7090   1.099   2.283   5.303
 2064SOL    HW1 7091   1.198   2.283   5.316
 2064SOL    HW2 7092   1.055   2.329   5.380
 2065SOL     OW 7093   6.412   2.520   5.280
 2065SOL    HW1 7094   6.439   2.572   5.200
 2065SOL    HW2 7095   6.351   2.575   5.337
 2066SOL     OW 7096   0.751   4.804   4.309
 2066SOL    HW1 7097   0.713   4.833   4.221
 2066SOL    HW2 7098   0.821   4.735   4.293
 2067SOL     OW 7099   6.424   4.818   1.235
 2067SOL    HW1 7100   6.397   4.735   1.186
 2067SOL    HW2 7101   6.350   4.846   1.297
 2068SOL     OW 7102   1.762   0.980   4.930
 2068SOL    HW1 7103   1.858   0.990   4.956
 2068SOL    HW2 7104   1.757   0.939   4.838
 2069SOL     OW 7105   0.127   2.660   3.879
 2069SOL    HW1 7106   0.052   2.657   3.813
 2069SOL    HW2 7107   0.168   2.569   3.887
 2070SOL     OW 7108   1.299   1.322   1.678
 2070SOL    HW1 7109   1.217   1.308   1.734
 2070SOL    HW2 7110   1.283   1.397   1.614
 2071SOL     OW 7111   6.536   6.149   6.019
 2071SOL    HW1 7112   6.492   6.238   6.034
 2071SOL    HW2 7113   6.617   6.142   6.078
 2072SOL     OW 7114   4.157   5.937   4.000
 2072SOL    HW1 7115   4.207   5.957   3.916
 2072SOL    HW2 7116   4.071   5.893   3.978
 2073SOL     OW 7117   3.961   6.913   4.733
 2073SOL    HW1 7118   3.939   6.862   4.816
 2073SOL    HW2 7119   3.900   6.883   4.659
 2074SOL     OW 7120   1.747   2.575   0.012
 2074SOL    HW1 7121   1.782   2.592   0.104
 2074SOL    HW2 7122   1.783   2.645   6.970
 2075SOL     OW 7123   6.220   3.307   2.553
 2075SOL    HW1 7124   6.250   3.320   2.458
 2075SOL    HW2 7125   6.252   3.383   2.609
 2076SOL     OW 7126   6.044   0.204   0.205
 2076SOL    HW1 7127   6.142   0.209   0.187
 2076SOL    HW2 7128   6.006   0.122   0.162
 2077SOL     OW 7129   5.473   2.685   3.009
 2077SOL    HW1 7130   5.477   2.586   3.021
 2077SOL    HW2 7131   5.479   2.730   3.098
 2078SOL     OW 7132   1.215   6.067   6.021
 2078SOL    HW1 7133   1.186   6.075   5.925
 2078SOL    HW2 7134   1.208   5.972   6.050
 2079SOL     OW 7135   5.624   2.302   3.624
 2079SOL    HW1 7136   5.714   2.344   3.624
 2079SOL    HW2 7137   5.617   2.236   3.549
 2080SOL     OW 7138   1.444   6.905   5.075
 2080SOL    HW1 7139   1.356   6.897   5.123
 2080SOL    HW2 7140   1.432   6.959   4.992
 2081SOL     OW 7141   1.518   5.063   4.378
 2081SOL    HW1 7142   1.524   5.022   4.286
 2081SOL    HW2 7143   1.592   5.029   4.435
 2082SOL     OW 7144   0.670   0.088   3.018
 2082SOL    HW1 7145   0.669   0.072   3.116
 2082SOL    HW2 7146   0.682   0.001   2.970
 2083SOL     OW 7147   6.702   4.687   6.234
 2083SOL    HW1 7148   6.697   4.587   6.235
 2083SOL    HW2 7149   6.778   4.717   6.292
 2084SOL     OW 7150   1.215   3.561   3.294
 2084SOL    HW1 7151   1.167   3.478   3.266
 2084SOL    HW2 7152   1.293   3.536   3.352
 2085SOL     OW 7153   4.534   0.232   6.844
 2085SOL    HW1 7154   4.544   0.248   6.942
 2085SOL    HW2 7155   4.439   0.252   6.817
 2086SOL     OW 7156   4.236   6.020   5.699
 2086SOL    HW1 7157   4.301   6.085   5.738
 2086SOL    HW2 7158   4.285   5.955   5.641
 2087SOL     OW 7159   5.148   0.541   1.559
 2087SOL    HW1 7160   5.177   0.446   1.565
 2087SOL    HW2 7161   5.215   0.592   1.505
 2088SOL     OW 7162   1.456   6.238   0.181
 2088SOL    HW1 7163   1.419   6.200   0.265
 2088SOL    HW2 7164   1.501   6.325   0.200
 2089SOL     OW 7165   5.314   2.001   6.711
 2089SOL    HW1 7166   5.355   2.087   6.681
 2089SOL    HW2 7167   5.312   1.997   6.810
 2090SOL     OW 7168   4.106   3.411   5.530
 2090SOL    HW1 7169   4.134   3.442   5.621
 2090SOL    HW2 7170   4.096   3.489   5.469
 2091SOL     OW 7171   6.917   5.490   1.104
 2091SOL    HW1 7172   6.840   5.430   1.127
 2091SOL    HW2 7173   6.885   5.584   1.099
 2092SOL     OW 7174   5.270   3.979   0.165
 2092SOL    HW1 7175   5.367   3.975   0.144
 2092SOL    HW2 7176   5.223   4.030   0.093
 2093SOL     OW 7177   2.788   2.237   1.564
 2093SOL    HW1 7178   2.773   2.321   1.616
 2093SOL    HW2 7179   2.854   2.179   1.611
 2094SOL     OW 7180   5.789   1.696   2.945
 2094SOL    HW1 7181   5.886   1.718   2.957
 2094SOL    HW2 7182   5.748   1.677   3.034
 2095SOL     OW 7183   5.891   6.488   5.355
 2095SOL    HW1 7184   5.816   6.473   5.291
 2095SOL    HW2 7185   5.936   6.401   5.375
 2096SOL     OW 7186   5.001   3.710   2.780
 2096SOL    HW1 7187   5.100   3.708   2.766
 2096SOL    HW2 7188   4.955   3.711   2.691
 2097SOL     OW 7189   2.997   3.915   6.586
 2097SOL    HW1 7190   3.025   4.007   6.610
 2097SOL    HW2 7191   3.069   3.850   6.611
 2098SOL     OW 7192   3.707   5.973   1.772
 2098SOL    HW1 7193   3.796   5.969   1.819
 2098SOL    HW2 7194   3.651   5.896   1.800
 2099SOL     OW 7195   3.174   2.773   6.410
 2099SOL    HW1 7196   3.125   2.696   6.371
 2099SOL    HW2 7197   3.225   2.744   6.491
 2100SOL     OW 7198   5.458   2.215   6.614
 2100SOL    HW1 7199   5.535   2.235   6.675
 2100SOL    HW2 7200   5.431   2.298   6.565
 2101SOL     OW 7201   1.424   6.906   1.550
 2101SOL    HW1 7202   1.513   6.944   1.522
 2101SOL    HW2 7203   1.385   6.962   1.622
 2102SOL     OW 7204   5.724   4.718   2.915
 2102SOL    HW1 7205   5.706   4.771   2.832
 2102SOL    HW2 7206   5.711   4.776   2.996
 2103SOL     OW 7207   3.671   4.363   6.221
 2103SOL    HW1 7208   3.696   4.390   6.127
 2103SOL    HW2 7209   3.574   4.341   6.225
 2104SOL     OW 7210   1.690   4.587   1.663
 2104SOL    HW1 7211   1.790   4.588   1.649
 2104SOL    HW2 7212   1.655   4.680   1.655
 2105SOL     OW 7213   5.664   5.456   5.166
 2105SOL    HW1 7214   5.701   5.394   5.096
 2105SOL    HW2 7215   5.587   5.413   5.212
 2106SOL     OW 7216   4.835   4.112   0.889
 2106SOL    HW1 7217   4.746   4.120   0.844
 2106SOL    HW2 7218   4.836   4.031   0.947
 2107SOL     OW 7219   5.643   2.851   5.667
 2107SOL    HW1 7220   5.582   2.814   5.597
 2107SOL    HW2 7221   5.622   2.948   5.682
 2108SOL     OW 7222   6.485   5.625   4.563
 2108SOL    HW1 7223   6.507   5.596   4.656
 2108SOL    HW2 7224   6.486   5.725   4.558
 2109SOL     OW 7225   4.341   5.820   2.285
 2109SOL    HW1 7226   4.364   5.899   2.228
 2109SOL    HW2 7227   4.348   5.846   2.381
 2110SOL     OW 7228   1.948   1.748   0.210
 2110SOL    HW1 7229   1.969   1.816   0.280
 2110SOL    HW2 7230   1.987   1.660   0.237
 2111SOL     OW 7231   1.887   2.488   6.661
 2111SOL    HW1 7232   1.800   2.464   6.618
 2111SOL    HW2 7233   1.890   2.587   6.675
 2112SOL     OW 7234   5.675   3.034   0.386
 2112SOL    HW1 7235   5.698   2.962   0.452
 2112SOL    HW2 7236   5.579   3.025   0.360
 2113SOL     OW 7237   2.652   1.776   4.511
 2113SOL    HW1 7238   2.574   1.812   4.561
 2113SOL    HW2 7239   2.717   1.849   4.491
 2114SOL     OW 7240   1.776   1.843   6.120
 2114SOL    HW1 7241   1.875   1.846   6.138
 2114SOL    HW2 7242   1.727   1.833   6.206
 2115SOL     OW 7243   1.856   3.961   3.218
 2115SOL    HW1 7244   1.944   3.915   3.232
 2115SOL    HW2 7245   1.829   4.008   3.302
 2116SOL     OW 7246   0.781   5.208   3.073
 2116SOL    HW1 7247   0.859   5.238   3.018
 2116SOL    HW2 7248   0.766   5.110   3.059
 2117SOL     OW 7249   7.014   4.535   1.952
 2117SOL    HW1 7250   7.006   4.578   1.862
 2117SOL    HW2 7251   0.029   4.442   1.942
 2118SOL     OW 7252   6.379   3.213   2.988
 2118SOL    HW1 7253   6.477   3.192   2.987
 2118SOL    HW2 7254   6.342   3.198   2.896
 2119SOL     OW 7255   1.010   0.299   1.261
 2119SOL    HW1 7256   1.106   0.318   1.281
 2119SOL    HW2 7257   0.970   0.377   1.214
 2120SOL     OW 7258   0.540   4.794   3.005
 2120SOL    HW1 7259   0.535   4.695   3.018
 2120SOL    HW2 7260   0.484   4.820   2.926
 2121SOL     OW 7261   1.682   4.079   6.632
 2121SOL    HW1 7262   1.724   4.168   6.613
 2121SOL    HW2 7263   1.734   4.007   6.585
 2122SOL     OW 7264   5.640   4.216   5.997
 2122SOL    HW1 7265   5.729   4.250   6.027
 2122SOL    HW2 7266   5.607   4.147   6.061
 2123SOL     OW 7267   6.867   5.143   2.535
 2123SOL    HW1 7268   6.830   5.069   2.590
 2123SOL    HW2 7269   6.882   5.223   2.592
 2124SOL     OW 7270   3.178   2.398   1.223
 2124SOL    HW1 7271   3.260   2.437   1.265
 2124SOL    HW2 7272   3.134   2.336   1.289
 2125SOL     OW 7273   1.943   0.857   2.483
 2125SOL    HW1 7274   2.005   0.809   2.421
 2125SOL    HW2 7275   1.850   0.856   2.445
 2126SOL     OW 7276   3.642   2.304   6.581
 2126SOL    HW1 7277   3.676   2.356   6.503
 2126SOL    HW2 7278   3.561   2.349   6.619
 2127SOL     OW 7279   0.976   2.394   5.512
 2127SOL    HW1 7280   1.000   2.477   5.563
 2127SOL    HW2 7281   0.950   2.322   5.576
 2128SOL     OW 7282   6.337   3.663   4.242
 2128SOL    HW1 7283   6.403   3.696   4.309
 2128SOL    HW2 7284   6.363   3.694   4.150
 2129SOL     OW 7285   4.506   3.144   5.340
 2129SOL    HW1 7286   4.413   3.182   5.334
 2129SOL    HW2 7287   4.537   3.149   5.435
 2130SOL     OW 7288   4.025   0.302   3.230
 2130SOL    HW1 7289   4.107   0.247   3.215
 2130SOL    HW2 7290   3.999   0.298   3.327
 2131SOL     OW 7291   4.605   1.650   6.860
 2131SOL    HW1 7292   4.554   1.736   6.860
 2131SOL    HW2 7293   4.687   1.659   6.917
 2132SOL     OW 7294   3.597   0.316   0.755
 2132SOL    HW1 7295   3.544   0.240   0.792
 2132SOL    HW2 7296   3.534   0.388   0.724
 2133SOL     OW 7297   3.443   3.154   0.617
 2133SOL    HW1 7298   3.406   3.213   0.689
 2133SOL    HW2 7299   3.542   3.145   0.629
 2134SOL     OW 7300   0.545   0.422   5.749
 2134SOL    HW1 7301   0.597   0.446   5.667
 2134SOL    HW2 7302   0.454   0.464   5.744
 2135SOL     OW 7303   1.550   3.175   5.439
 2135SOL    HW1 7304   1.606   3.225   5.505
 2135SOL    HW2 7305   1.523   3.236   5.365
 2136SOL     OW 7306   0.915   4.272   4.168
 2136SOL    HW1 7307   0.827   4.312   4.192
 2136SOL    HW2 7308   0.901   4.183   4.124
 2137SOL     OW 7309   1.671   5.486   4.382
 2137SOL    HW1 7310   1.605   5.560   4.397
 2137SOL    HW2 7311   1.635   5.423   4.314
 2138SOL     OW 7312   6.700   0.902   2.534
 2138SOL    HW1 7313   6.601   0.897   2.529
 2138SOL    HW2 7314   6.732   0.986   2.491
 2139SOL     OW 7315   3.478   0.614   3.132
 2139SOL    HW1 7316   3.430   0.527   3.138
 2139SOL    HW2 7317   3.553   0.616   3.198
 2140SOL     OW 7318   3.951   6.208   3.997
 2140SOL    HW1 7319   4.045   6.200   4.032
 2140SOL    HW2 7320   3.890   6.234   4.072
 2141SOL     OW 7321   6.127   4.229   2.486
 2141SOL    HW1 7322   6.111   4.190   2.577
 2141SOL    HW2 7323   6.175   4.316   2.494
 2142SOL     OW 7324   1.146   2.535   3.191
 2142SOL    HW1 7325   1.094   2.519   3.107
 2142SOL    HW2 7326   1.244   2.535   3.170
 2143SOL     OW 7327   3.164   4.417   1.384
 2143SOL    HW1 7328   3.064   4.410   1.381
 2143SOL    HW2 7329   3.202   4.382   1.298
 2144SOL     OW 7330   1.286   5.228   4.044
 2144SOL    HW1 7331   1.200   5.276   4.060
 2144SOL    HW2 7332   1.266   5.133   4.021
 2145SOL     OW 7333   4.371   5.825   4.158
 2145SOL    HW1 7334   4.304   5.836   4.085
 2145SOL    HW2 7335   4.439   5.897   4.152
 2146SOL     OW 7336   2.802   3.681   1.612
 2146SOL    HW1 7337   2.854   3.612   1.562
 2146SOL    HW2 7338   2.709   3.646   1.629
 2147SOL     OW 7339   6.881   1.773   6.150
 2147SOL    HW1 7340   6.846   1.693   6.102
 2147SOL    HW2 7341   6.823   1.852   6.131
 2148SOL     OW 7342   5.383   1.734   5.863
 2148SOL    HW1 7343   5.290   1.770   5.858
 2148SOL    HW2 7344   5.436   1.768   5.786
 2149SOL     OW 7345   3.430   2.511   1.272
 2149SOL    HW1 7346   3.492   2.589   1.275
 2149SOL    HW2 7347   3.475   2.434   1.227
 2150SOL     OW 7348   3.136   1.570   2.394
 2150SOL    HW1 7349   3.080   1.534   2.469
 2150SOL    HW2 7350   3.098   1.656   2.362
 2151SOL     OW 7351   1.682   0.682   4.902
 2151SOL    HW1 7352   1.690   0.685   4.803
 2151SOL    HW2 7353   1.701   0.772   4.940
 2152SOL     OW 7354   3.796   5.913   1.288
 2152SOL    HW1 7355   3.697   5.909   1.275
 2152SOL    HW2 7356   3.818   5.976   1.363
 2153SOL     OW 7357   3.719   0.403   3.426
 2153SOL    HW1 7358   3.792   0.339   3.451
 2153SOL    HW2 7359   3.645   0.353   3.381
 2154SOL     OW 7360   4.999   6.921   4.860
 2154SOL    HW1 7361   5.099   6.926   4.864
 2154SOL    HW2 7362   4.966   6.964   4.776
 2155SOL     OW 7363   1.863   6.142   0.172
 2155SOL    HW1 7364   1.930   6.167   0.242
 2155SOL    HW2 7365   1.859   6.214   0.103
 2156SOL     OW 7366   2.802   0.987   4.670
 2156SOL    HW1 7367   2.808   1.087   4.677
 2156SOL    HW2 7368   2.803   0.960   4.574
 2157SOL     OW 7369   6.146   1.147   3.670
 2157SOL    HW1 7370   6.100   1.066   3.707
 2157SOL    HW2 7371   6.108   1.168   3.580
 2158SOL     OW 7372   4.244   6.165   1.002
 2158SOL    HW1 7373   4.327   6.133   0.956
 2158SOL    HW2 7374   4.170   6.100   0.986
 2159SOL     OW 7375   1.816   6.501   5.664
 2159SOL    HW1 7376   1.899   6.546   5.697
 2159SOL    HW2 7377   1.816   6.405   5.693
 2160SOL     OW 7378   3.744   3.964   0.536
 2160SOL    HW1 7379   3.731   4.011   0.623
 2160SOL    HW2 7380   3.660   3.915   0.511
 2161SOL     OW 7381   5.099   4.397   3.297
 2161SOL    HW1 7382   5.107   4.312   3.246
 2161SOL    HW2 7383   5.175   4.458   3.275
 2162SOL     OW 7384   2.411   1.055   1.564
 2162SOL    HW1 7385   2.399   1.098   1.654
 2162SOL    HW2 7386   2.486   0.989   1.568
 2163SOL     OW 7387   0.636   4.466   6.481
 2163SOL    HW1 7388   0.705   4.396   6.500
 2163SOL    HW2 7389   0.570   4.468   6.556
 2164SOL     OW 7390   1.322   3.504   6.940
 2164SOL    HW1 7391   1.231   3.465   6.926
 2164SOL    HW2 7392   1.316   3.603   6.938
 2165SOL     OW 7393   0.192   2.414   2.911
 2165SOL    HW1 7394   0.240   2.340   2.865
 2165SOL    HW2 7395   0.236   2.501   2.892
 2166SOL     OW 7396   1.419   2.506   4.802
 2166SOL    HW1 7397   1.455   2.558   4.725
 2166SOL    HW2 7398   1.320   2.514   4.805
 2167SOL     OW 7399   1.641   1.699   3.786
 2167SOL    HW1 7400   1.636   1.662   3.879
 2167SOL    HW2 7401   1.563   1.760   3.771
 2168SOL     OW 7402   0.537   2.203   3.965
 2168SOL    HW1 7403   0.444   2.203   3.999
 2168SOL    HW2 7404   0.579   2.114   3.978
 2169SOL     OW 7405   5.398   1.699   6.130
 2169SOL    HW1 7406   5.316   1.642   6.131
 2169SOL    HW2 7407   5.418   1.727   6.036
 2170SOL     OW 7408   6.862   5.104   5.496
 2170SOL    HW1 7409   6.833   5.009   5.484
 2170SOL    HW2 7410   6.847   5.132   5.591
 2171SOL     OW 7411   0.431   3.661   1.743
 2171SOL    HW1 7412   0.432   3.710   1.830
 2171SOL    HW2 7413   0.349   3.686   1.692
 2172SOL     OW 7414   2.975   2.444   0.481
 2172SOL    HW1 7415   2.934   2.353   0.472
 2172SOL    HW2 7416   2.907   2.507   0.519
 2173SOL     OW 7417   3.775   0.560   4.704
 2173SOL    HW1 7418   3.726   0.643   4.677
 2173SOL    HW2 7419   3.870   0.583   4.724
 2174SOL     OW 7420   5.455   5.686   5.405
 2174SOL    HW1 7421   5.498   5.745   5.472
 2174SOL    HW2 7422   5.387   5.628   5.450
 2175SOL     OW 7423   2.041   2.808   4.274
 2175SOL    HW1 7424   2.019   2.711   4.274
 2175SOL    HW2 7425   1.980   2.857   4.336
 2176SOL     OW 7426   1.249   2.763   0.321
 2176SOL    HW1 7427   1.261   2.738   0.225
 2176SOL    HW2 7428   1.192   2.694   0.367
 2177SOL     OW 7429   5.902   1.316   3.692
 2177SOL    HW1 7430   5.920   1.295   3.596
 2177SOL    HW2 7431   5.920   1.235   3.747
 2178SOL     OW 7432   1.313   3.251   0.523
 2178SOL    HW1 7433   1.317   3.276   0.619
 2178SOL    HW2 7434   1.269   3.162   0.512
 2179SOL     OW 7435   1.607   5.599   4.749
 2179SOL    HW1 7436   1.677   5.586   4.679
 2179SOL    HW2 7437   1.610   5.692   4.784
 2180SOL     OW 7438   2.394   2.842   1.821
 2180SOL    HW1 7439   2.321   2.801   1.766
 2180SOL    HW2 7440   2.386   2.942   1.818
 2181SOL     OW 7441   4.232   4.971   5.203
 2181SOL    HW1 7442   4.212   4.993   5.298
 2181SOL    HW2 7443   4.168   4.902   5.169
 2182SOL     OW 7444   0.945   3.161   4.652
 2182SOL    HW1 7445   0.880   3.232   4.679
 2182SOL    HW2 7446   0.968   3.173   4.555
 2183SOL     OW 7447   2.617   4.298   6.061
 2183SOL    HW1 7448   2.520   4.320   6.063
 2183SOL    HW2 7449   2.633   4.213   6.111
 2184SOL     OW 7450   4.551   2.198   6.875
 2184SOL    HW1 7451   4.638   2.180   6.828
 2184SOL    HW2 7452   4.480   2.214   6.807
 2185SOL     OW 7453   1.488   2.337   1.061
 2185SOL    HW1 7454   1.551   2.263   1.039
 2185SOL    HW2 7455   1.398   2.318   1.022
 2186SOL     OW 7456   0.206   5.344   2.024
 2186SOL    HW1 7457   0.201   5.382   1.931
 2186SOL    HW2 7458   0.126   5.373   2.076
 2187SOL     OW 7459   6.550   1.192   2.726
 2187SOL    HW1 7460   6.639   1.186   2.681
 2187SOL    HW2 7461   6.558   1.252   2.806
 2188SOL     OW 7462   5.940   6.149   4.956
 2188SOL    HW1 7463   5.909   6.056   4.939
 2188SOL    HW2 7464   6.002   6.177   4.883
 2189SOL     OW 7465   2.062   0.290   0.585
 2189SOL    HW1 7466   2.129   0.342   0.533
 2189SOL    HW2 7467   2.005   0.353   0.639
 2190SOL     OW 7468   0.385   2.800   2.041
 2190SOL    HW1 7469   0.439   2.747   1.976
 2190SOL    HW2 7470   0.374   2.749   2.126
 2191SOL     OW 7471   2.847   2.041   6.508
 2191SOL    HW1 7472   2.816   1.981   6.582
 2191SOL    HW2 7473   2.891   1.986   6.437
 2192SOL     OW 7474   4.082   1.083   2.797
 2192SOL    HW1 7475   4.030   1.005   2.833
 2192SOL    HW2 7476   4.068   1.163   2.856
 2193SOL     OW 7477   6.782   5.431   5.852
 2193SOL    HW1 7478   6.815   5.422   5.759
 2193SOL    HW2 7479   6.821   5.512   5.894
 2194SOL     OW 7480   2.381   4.823   6.619
 2194SOL    HW1 7481   2.328   4.835   6.535
 2194SOL    HW2 7482   2.403   4.913   6.657
 2195SOL     OW 7483   6.973   0.528   3.761
 2195SOL    HW1 7484   6.926   0.605   3.719
 2195SOL    HW2 7485   6.986   0.456   3.693
 2196SOL     OW 7486   3.170   0.231   4.976
 2196SOL    HW1 7487   3.222   0.195   4.899
 2196SOL    HW2 7488   3.119   0.157   5.019
 2197SOL     OW 7489   3.364   3.591   0.932
 2197SOL    HW1 7490   3.382   3.540   0.848
 2197SOL    HW2 7491   3.279   3.559   0.974
 2198SOL     OW 7492   6.442   1.283   0.169
 2198SOL    HW1 7493   6.479   1.370   0.201
 2198SOL    HW2 7494   6.342   1.291   0.160
 2199SOL     OW 7495   5.302   1.123   3.237
 2199SOL    HW1 7496   5.331   1.059   3.166
 2199SOL    HW2 7497   5.231   1.080   3.293
 2200SOL     OW 7498   2.957   0.274   4.662
 2200SOL    HW1 7499   2.932   0.227   4.748
 2200SOL    HW2 7500   3.055   0.264   4.646
 2201SOL     OW 7501   6.146   2.833   3.625
 2201SOL    HW1 7502   6.207   2.861   3.700
 2201SOL    HW2 7503   6.121   2.914   3.572
 2202SOL     OW 7504   2.895   4.888   2.447
 2202SOL    HW1 7505   2.903   4.819   2.375
 2202SOL    HW2 7506   2.805   4.932   2.441
 2203SOL     OW 7507   2.156   2.821   1.407
 2203SOL    HW1 7508   2.161   2.919   1.389
 2203SOL    HW2 7509   2.066   2.787   1.377
 2204SOL     OW 7510   4.244   1.015   0.335
 2204SOL    HW1 7511   4.331   0.978   0.366
 2204SOL    HW2 7512   4.256   1.061   0.247
 2205SOL     OW 7513   1.377   0.143   5.697
 2205SOL    HW1 7514   1.357   0.185   5.786
 2205SOL    HW2 7515   1.389   0.215   5.629
 2206SOL     OW 7516   3.069   4.519   6.285
 2206SOL    HW1 7517   3.103   4.471   6.204
 2206SOL    HW2 7518   3.060   4.616   6.265
 2207SOL     OW 7519   3.319   4.574   0.014
 2207SOL    HW1 7520   3.243   4.521   0.051
 2207SOL    HW2 7521   3.405   4.536   0.046
 2208SOL     OW 7522   1.331   6.262   2.203
 2208SOL    HW1 7523   1.416   6.217   2.177
 2208SOL    HW2 7524   1.318   6.344   2.148
 2209SOL     OW 7525   1.596   5.978   5.679
 2209SOL    HW1 7526   1.619   5.975   5.776
 2209SOL    HW2 7527   1.662   6.036   5.631
 2210SOL     OW 7528   6.633   5.074   4.057
 2210SOL    HW1 7529   6.645   4.981   4.022
 2210SOL    HW2 7530   6.535   5.095   4.063
 2211SOL     OW 7531   5.173   0.425   0.132
 2211SOL    HW1 7532   5.251   0.485   0.115
 2211SOL    HW2 7533   5.118   0.461   0.207
 2212SOL     OW 7534   1.761   6.383   7.006
 2212SOL    HW1 7535   1.705   6.360   6.926
 2212SOL    HW2 7536   1.808   6.469   6.989
 2213SOL     OW 7537   3.659   2.760   5.204
 2213SOL    HW1 7538   3.573   2.792   5.243
 2213SOL    HW2 7539   3.676   2.666   5.233
 2214SOL     OW 7540   3.638   2.926   4.994
 2214SOL    HW1 7541   3.622   3.008   5.050
 2214SOL    HW2 7542   3.651   2.847   5.054
 2215SOL     OW 7543   6.751   1.980   6.969
 2215SOL    HW1 7544   6.693   1.953   0.025
 2215SOL    HW2 7545   6.842   2.005   7.003
 2216SOL     OW 7546   1.864   0.309   5.778
 2216SOL    HW1 7547   1.949   0.362   5.789
 2216SOL    HW2 7548   1.883   0.227   5.724
 2217SOL     OW 7549   3.671   6.892   1.519
 2217SOL    HW1 7550   3.747   6.841   1.559
 2217SOL    HW2 7551   3.585   6.847   1.543
 2218SOL     OW 7552   0.761   0.162   0.495
 2218SOL    HW1 7553   0.804   0.137   0.408
 2218SOL    HW2 7554   0.827   0.211   0.552
 2219SOL     OW 7555   6.236   1.993   2.095
 2219SOL    HW1 7556   6.269   1.949   2.178
 2219SOL    HW2 7557   6.292   1.964   2.017
 2220SOL     OW 7558   1.320   0.085   4.051
 2220SOL    HW1 7559   1.221   0.077   4.056
 2220SOL    HW2 7560   1.352   0.145   4.124
 2221SOL     OW 7561   5.984   0.882   5.217
 2221SOL    HW1 7562   6.046   0.959   5.234
 2221SOL    HW2 7563   6.026   0.819   5.152
 2222SOL     OW 7564   4.356   0.066   0.789
 2222SOL    HW1 7565   4.319   0.123   0.716
 2222SOL    HW2 7566   4.344   6.990   0.766
 2223SOL     OW 7567   6.030   0.535   4.544
 2223SOL    HW1 7568   6.122   0.560   4.515
 2223SOL    HW2 7569   5.983   0.490   4.468
 2224SOL     OW 7570   1.938   4.381   1.337
 2224SOL    HW1 7571   2.001   4.319   1.385
 2224SOL    HW2 7572   1.991   4.445   1.282
 2225SOL     OW 7573   6.229   6.472   2.828
 2225SOL    HW1 7574   6.209   6.397   2.891
 2225SOL    HW2 7575   6.144   6.518   2.803
 2226SOL     OW 7576   3.934   5.002   0.925
 2226SOL    HW1 7577   3.949   4.909   0.891
 2226SOL    HW2 7578   3.844   5.006   0.969
 2227SOL     OW 7579   5.613   3.647   0.858
 2227SOL    HW1 7580   5.568   3.560   0.880
 2227SOL    HW2 7581   5.650   3.688   0.942
 2228SOL     OW 7582   2.792   5.190   1.249
 2228SOL    HW1 7583   2.856   5.223   1.318
 2228SOL    HW2 7584   2.711   5.152   1.294
 2229SOL     OW 7585   4.261   1.610   4.368
 2229SOL    HW1 7586   4.312   1.595   4.283
 2229SOL    HW2 7587   4.283   1.537   4.433
 2230SOL     OW 7588   6.043   5.552   6.148
 2230SOL    HW1 7589   5.993   5.511   6.224
 2230SOL    HW2 7590   6.107   5.621   6.184
 2231SOL     OW 7591   0.510   0.484   2.335
 2231SOL    HW1 7592   0.594   0.526   2.369
 2231SOL    HW2 7593   0.488   0.521   2.245
 2232SOL     OW 7594   0.662   3.171   5.055
 2232SOL    HW1 7595   0.747   3.221   5.071
 2232SOL    HW2 7596   0.676   3.074   5.073
 2233SOL     OW 7597   2.592   4.445   1.031
 2233SOL    HW1 7598   2.642   4.520   0.988
 2233SOL    HW2 7599   2.578   4.371   0.965
 2234SOL     OW 7600   4.106   2.195   1.942
 2234SOL    HW1 7601   4.032   2.137   1.908
 2234SOL    HW2 7602   4.129   2.264   1.872
 2235SOL     OW 7603   2.254   0.732   1.501
 2235SOL    HW1 7604   2.156   0.754   1.501
 2235SOL    HW2 7605   2.294   0.760   1.414
 2236SOL     OW 7606   0.984   4.456   6.440
 2236SOL    HW1 7607   1.017   4.547   6.465
 2236SOL    HW2 7608   0.921   4.422   6.510
 2237SOL     OW 7609   5.294   5.002   4.030
 2237SOL    HW1 7610   5.235   4.962   4.100
 2237SOL    HW2 7611   5.241   5.015   3.946
 2238SOL     OW 7612   5.299   4.602   0.999
 2238SOL    HW1 7613   5.357   4.591   0.919
 2238SOL    HW2 7614   5.261   4.513   1.025
 2239SOL     OW 7615   3.272   5.049   3.084
 2239SOL    HW1 7616   3.207   4.992   3.033
 2239SOL    HW2 7617   3.280   5.015   3.177
 2240SOL     OW 7618   4.850   5.921   3.573
 2240SOL    HW1 7619   4.761   5.889   3.542
 2240SOL    HW2 7620   4.859   6.019   3.555
 2241SOL     OW 7621   0.152   6.858   2.609
 2241SOL    HW1 7622   0.247   6.855   2.640
 2241SOL    HW2 7623   0.091   6.839   2.686
 2242SOL     OW 7624   4.866   1.539   3.086
 2242SOL    HW1 7625   4.889   1.442   3.092
 2242SOL    HW2 7626   4.766   1.548   3.079
 2243SOL     OW 7627   2.882   6.156   5.420
 2243SOL    HW1 7628   2.888   6.072   5.366
 2243SOL    HW2 7629   2.794   6.200   5.403
 2244SOL     OW 7630   2.270   6.393   2.242
 2244SOL    HW1 7631   2.285   6.420   2.147
 2244SOL    HW2 7632   2.173   6.401   2.265
 2245SOL     OW 7633   0.580   2.102   2.323
 2245SOL    HW1 7634   0.656   2.129   2.264
 2245SOL    HW2 7635   0.494   2.106   2.271
 2246SOL     OW 7636   0.955   1.379   5.766
 2246SOL    HW1 7637   0.911   1.417   5.684
 2246SOL    HW2 7638   0.888   1.324   5.816
 2247SOL     OW 7639   2.963   3.274   5.128
 2247SOL    HW1 7640   2.990   3.355   5.180
 2247SOL    HW2 7641   2.891   3.225   5.177
 2248SOL     OW 7642   3.799   4.322   5.778
 2248SOL    HW1 7643   3.885   4.343   5.731
 2248SOL    HW2 7644   3.780   4.224   5.770
 2249SOL     OW 7645   6.171   6.759   2.636
 2249SOL    HW1 7646   6.096   6.698   2.662
 2249SOL    HW2 7647   6.249   6.705   2.604
 2250SOL     OW 7648   4.198   3.553   0.109
 2250SOL    HW1 7649   4.101   3.574   0.100
 2250SOL    HW2 7650   4.247   3.637   0.135
 2251SOL     OW 7651   5.201   0.937   0.322
 2251SOL    HW1 7652   5.134   0.959   0.393
 2251SOL    HW2 7653   5.176   0.851   0.278
 2252SOL     OW 7654   5.496   2.420   2.995
 2252SOL    HW1 7655   5.414   2.363   2.991
 2252SOL    HW2 7656   5.560   2.383   3.062
 2253SOL     OW 7657   1.276   3.574   6.642
 2253SOL    HW1 7658   1.197   3.574   6.581
 2253SOL    HW2 7659   1.256   3.517   6.722
 2254SOL     OW 7660   3.612   3.915   5.164
 2254SOL    HW1 7661   3.593   3.917   5.065
 2254SOL    HW2 7662   3.677   3.988   5.187
 2255SOL     OW 7663   5.026   2.444   6.686
 2255SOL    HW1 7664   5.072   2.494   6.613
 2255SOL    HW2 7665   5.093   2.412   6.753
 2256SOL     OW 7666   4.889   5.883   1.346
 2256SOL    HW1 7667   4.939   5.808   1.302
 2256SOL    HW2 7668   4.804   5.899   1.296
 2257SOL     OW 7669   0.359   1.959   4.239
 2257SOL    HW1 7670   0.313   1.894   4.179
 2257SOL    HW2 7671   0.369   1.918   4.330
 2258SOL     OW 7672   1.195   5.345   5.804
 2258SOL    HW1 7673   1.182   5.248   5.822
 2258SOL    HW2 7674   1.292   5.368   5.814
 2259SOL     OW 7675   5.142   4.147   6.711
 2259SOL    HW1 7676   5.080   4.210   6.663
 2259SOL    HW2 7677   5.109   4.054   6.700
 2260SOL     OW 7678   5.711   4.616   3.326
 2260SOL    HW1 7679   5.635   4.643   3.384
 2260SOL    HW2 7680   5.684   4.538   3.269
 2261SOL     OW 7681   6.782   5.743   0.678
 2261SOL    HW1 7682   6.714   5.787   0.619
 2261SOL    HW2 7683   6.812   5.808   0.748
 2262SOL     OW 7684   5.382   1.321   2.041
 2262SOL    HW1 7685   5.318   1.312   1.965
 2262SOL    HW2 7686   5.367   1.410   2.086
 2263SOL     OW 7687   2.596   5.892   6.893
 2263SOL    HW1 7688   2.695   5.889   6.907
 2263SOL    HW2 7689   2.552   5.824   6.951
 2264SOL     OW 7690   3.296   3.441   0.658
 2264SOL    HW1 7691   3.279   3.381   0.580
 2264SOL    HW2 7692   3.209   3.478   0.691
 2265SOL     OW 7693   0.930   1.015   4.269
 2265SOL    HW1 7694   0.985   1.099   4.275
 2265SOL    HW2 7695   0.896   0.991   4.359
 2266SOL     OW 7696   6.523   1.867   1.328
 2266SOL    HW1 7697   6.546   1.957   1.365
 2266SOL    HW2 7698   6.470   1.816   1.396
 2267SOL     OW 7699   5.174   2.643   4.962
 2267SOL    HW1 7700   5.122   2.576   4.910
 2267SOL    HW2 7701   5.116   2.722   4.982
 2268SOL     OW 7702   6.580   3.699   6.725
 2268SOL    HW1 7703   6.643   3.651   6.786
 2268SOL    HW2 7704   6.560   3.789   6.762
 2269SOL     OW 7705   5.988   5.792   5.125
 2269SOL    HW1 7706   5.963   5.855   5.198
 2269SOL    HW2 7707   5.914   5.726   5.111
 2270SOL     OW 7708   3.635   2.455   6.362
 2270SOL    HW1 7709   3.642   2.543   6.314
 2270SOL    HW2 7710   3.538   2.431   6.372
 2271SOL     OW 7711   6.247   4.564   0.525
 2271SOL    HW1 7712   6.174   4.555   0.457
 2271SOL    HW2 7713   6.315   4.629   0.492
 2272SOL     OW 7714   6.219   1.622   5.740
 2272SOL    HW1 7715   6.161   1.547   5.774
 2272SOL    HW2 7716   6.161   1.697   5.708
 2273SOL     OW 7717   1.786   0.345   2.009
 2273SOL    HW1 7718   1.847   0.351   2.088
 2273SOL    HW2 7719   1.755   0.436   1.984
 2274SOL     OW 7720   1.051   3.001   6.066
 2274SOL    HW1 7721   1.033   2.978   6.162
 2274SOL    HW2 7722   1.134   3.056   6.060
 2275SOL     OW 7723   5.859   0.651   4.050
 2275SOL    HW1 7724   5.833   0.555   4.043
 2275SOL    HW2 7725   5.956   0.657   4.073
 2276SOL     OW 7726   2.972   5.340   1.463
 2276SOL    HW1 7727   2.990   5.438   1.466
 2276SOL    HW2 7728   2.880   5.322   1.497
 2277SOL     OW 7729   3.250   3.498   5.429
 2277SOL    HW1 7730   3.205   3.489   5.518
 2277SOL    HW2 7731   3.181   3.498   5.357
 2278SOL     OW 7732   6.700   5.241   3.794
 2278SOL    HW1 7733   6.650   5.231   3.880
 2278SOL    HW2 7734   6.797   5.258   3.813
 2279SOL     OW 7735   4.565   6.044   4.694
 2279SOL    HW1 7736   4.516   6.118   4.647
 2279SOL    HW2 7737   4.636   6.008   4.633
 2280SOL     OW 7738   0.028   6.075   4.412
 2280SOL    HW1 7739   0.098   6.021   4.458
 2280SOL    HW2 7740   6.972   6.092   4.475
 2281SOL     OW 7741   3.421   1.368   1.260
 2281SOL    HW1 7742   3.464   1.383   1.349
 2281SOL    HW2 7743   3.482   1.399   1.187
 2282SOL     OW 7744   4.572   6.097   5.179
 2282SOL    HW1 7745   4.618   6.138   5.101
 2282SOL    HW2 7746   4.639   6.047   5.234
 2283SOL     OW 7747   6.549   4.179   2.055
 2283SOL    HW1 7748   6.473   4.214   2.109
 2283SOL    HW2 7749   6.535   4.202   1.959
 2284SOL     OW 7750   1.885   2.280   0.357
 2284SOL    HW1 7751   1.885   2.373   0.396
 2284SOL    HW2 7752   1.979   2.251   0.340
 2285SOL     OW 7753   1.815   2.361   0.679
 2285SOL    HW1 7754   1.798   2.424   0.604
 2285SOL    HW2 7755   1.905   2.377   0.718
 2286SOL     OW 7756   0.517   0.023   4.507
 2286SOL    HW1 7757   0.482   6.990   4.430
 2286SOL    HW2 7758   0.443   0.043   4.571
 2287SOL     OW 7759   1.934   1.621   2.887
 2287SOL    HW1 7760   1.896   1.568   2.962
 2287SOL    HW2 7761   1.904   1.716   2.895
 2288SOL     OW 7762   5.818   5.243   4.512
 2288SOL    HW1 7763   5.889   5.312   4.527
 2288SOL    HW2 7764   5.736   5.266   4.565
 2289SOL     OW 7765   6.730   4.488   2.611
 2289SOL    HW1 7766   6.707   4.407   2.665
 2289SOL    HW2 7767   6.772   4.460   2.524
 2290SOL     OW 7768   1.385   3.794   2.181
 2290SOL    HW1 7769   1.454   3.755   2.243
 2290SOL    HW2 7770   1.431   3.831   2.100
 2291SOL     OW 7771   2.304   2.408   6.638
 2291SOL    HW1 7772   2.283   2.488   6.694
 2291SOL    HW2 7773   2.385   2.361   6.674
 2292SOL     OW 7774   5.862   3.130   4.135
 2292SOL    HW1 7775   5.874   3.092   4.227
 2292SOL    HW2 7776   5.766   3.124   4.109
 2293SOL     OW 7777   5.638   6.601   1.041
 2293SOL    HW1 7778   5.710   6.554   0.989
 2293SOL    HW2 7779   5.670   6.618   1.134
 2294SOL     OW 7780   3.764   0.951   6.482
 2294SOL    HW1 7781   3.745   1.048   6.495
 2294SOL    HW2 7782   3.795   0.911   6.568
 2295SOL     OW 7783   0.373   1.691   2.875
 2295SOL    HW1 7784   0.397   1.733   2.963
 2295SOL    HW2 7785   0.443   1.623   2.851
 2296SOL     OW 7786   3.458   6.007   2.105
 2296SOL    HW1 7787   3.375   5.962   2.139
 2296SOL    HW2 7788   3.493   6.069   2.176
 2297SOL     OW 7789   5.181   4.309   4.852
 2297SOL    HW1 7790   5.170   4.326   4.950
 2297SOL    HW2 7791   5.169   4.211   4.834
 2298SOL     OW 7792   4.086   3.740   1.619
 2298SOL    HW1 7793   4.117   3.822   1.570
 2298SOL    HW2 7794   3.986   3.742   1.627
 2299SOL     OW 7795   4.663   4.523   4.962
 2299SOL    HW1 7796   4.745   4.471   4.987
 2299SOL    HW2 7797   4.619   4.479   4.883
 2300SOL     OW 7798   2.343   5.948   2.901
 2300SOL    HW1 7799   2.264   6.009   2.909
 2300SOL    HW2 7800   2.412   5.991   2.843
 2301SOL     OW 7801   3.490   2.876   2.979
 2301SOL    HW1 7802   3.512   2.884   3.076
 2301SOL    HW2 7803   3.463   2.782   2.958
 2302SOL     OW 7804   3.613   0.537   1.355
 2302SOL    HW1 7805   3.644   0.631   1.337
 2302SOL    HW2 7806   3.692   0.478   1.369
 2303SOL     OW 7807   2.440   3.061   6.973
 2303SOL    HW1 7808   2.473   3.119   0.027
 2303SOL    HW2 7809   2.422   2.969   7.007
 2304SOL     OW 7810   5.748   6.689   4.137
 2304SOL    HW1 7811   5.791   6.671   4.049
 2304SOL    HW2 7812   5.781   6.624   4.205
 2305SOL     OW 7813   2.816   6.959   2.383
 2305SOL    HW1 7814   2.869   6.903   2.446
 2305SOL    HW2 7815   2.719   6.938   2.394
 2306SOL     OW 7816   1.902   4.988   1.753
 2306SOL    HW1 7817   1.879   4.891   1.760
 2306SOL    HW2 7818   1.981   5.007   1.812
 2307SOL     OW 7819   0.068   3.401   4.337
 2307SOL    HW1 7820   0.068   3.386   4.436
 2307SOL    HW2 7821   6.995   3.415   4.306
 2308SOL     OW 7822   1.997   4.579   1.595
 2308SOL    HW1 7823   2.079   4.627   1.564
 2308SOL    HW2 7824   2.011   4.549   1.690
 2309SOL     OW 7825   1.561   0.717   5.932
 2309SOL    HW1 7826   1.510   0.671   6.004
 2309SOL    HW2 7827   1.585   0.651   5.861
 2310SOL     OW 7828   5.854   5.593   0.770
 2310SOL    HW1 7829   5.884   5.500   0.791
 2310SOL    HW2 7830   5.764   5.609   0.811
 2311SOL     OW 7831   2.197   0.149   1.375
 2311SOL    HW1 7832   2.125   0.210   1.406
 2311SOL    HW2 7833   2.283   0.171   1.423
 2312SOL     OW 7834   4.406   6.028   3.266
 2312SOL    HW1 7835   4.476   6.017   3.336
 2312SOL    HW2 7836   4.378   6.124   3.262
 2313SOL     OW 7837   5.478   5.628   1.515
 2313SOL    HW1 7838   5.439   5.605   1.604
 2313SOL    HW2 7839   5.405   5.630   1.447
 2314SOL     OW 7840   5.293   5.926   3.659
 2314SOL    HW1 7841   5.360   5.911   3.733
 2314SOL    HW2 7842   5.201   5.905   3.693
 2315SOL     OW 7843   5.258   3.092   6.698
 2315SOL    HW1 7844   5.208   3.006   6.685
 2315SOL    HW2 7845   5.306   3.089   6.786
 2316SOL     OW 7846   4.647   1.541   3.869
 2316SOL    HW1 7847   4.589   1.465   3.898
 2316SOL    HW2 7848   4.594   1.603   3.812
 2317SOL     OW 7849   0.938   6.535   3.253
 2317SOL    HW1 7850   0.995   6.453   3.240
 2317SOL    HW2 7851   0.886   6.527   3.338
 2318SOL     OW 7852   1.217   2.981   3.734
 2318SOL    HW1 7853   1.274   3.061   3.753
 2318SOL    HW2 7854   1.121   3.008   3.733
 2319SOL     OW 7855   1.692   4.697   3.784
 2319SOL    HW1 7856   1.696   4.706   3.883
 2319SOL    HW2 7857   1.597   4.691   3.755
 2320SOL     OW 7858   1.076   2.424   4.383
 2320SOL    HW1 7859   1.108   2.510   4.343
 2320SOL    HW2 7860   1.087   2.351   4.316
 2321SOL     OW 7861   2.826   6.971   6.504
 2321SOL    HW1 7862   2.735   7.014   6.511
 2321SOL    HW2 7863   2.879   6.992   6.586
 2322SOL     OW 7864   3.119   1.558   5.278
 2322SOL    HW1 7865   3.035   1.609   5.258
 2322SOL    HW2 7866   3.117   1.470   5.231
 2323SOL     OW 7867   2.370   5.138   1.913
 2323SOL    HW1 7868   2.394   5.120   2.008
 2323SOL    HW2 7869   2.425   5.214   1.879
 2324SOL     OW 7870   6.053   6.557   1.417
 2324SOL    HW1 7871   6.051   6.489   1.345
 2324SOL    HW2 7872   5.965   6.556   1.466
 2325SOL     OW 7873   1.320   4.529   2.339
 2325SOL    HW1 7874   1.321   4.450   2.400
 2325SOL    HW2 7875   1.274   4.505   2.253
 2326SOL     OW 7876   3.319   5.378   5.596
 2326SOL    HW1 7877   3.219   5.383   5.602
 2326SOL    HW2 7878   3.358   5.384   5.687
 2327SOL     OW 7879   6.110   3.252   5.408
 2327SOL    HW1 7880   6.209   3.265   5.408
 2327SOL    HW2 7881   6.065   3.338   5.432
 2328SOL     OW 7882   3.563   2.117   3.309
 2328SOL    HW1 7883   3.644   2.079   3.265
 2328SOL    HW2 7884   3.570   2.104   3.408
 2329SOL     OW 7885   1.471   3.539   4.918
 2329SOL    HW1 7886   1.498   3.594   4.839
 2329SOL    HW2 7887   1.411   3.593   4.977
 2330SOL     OW 7888   1.026   3.563   2.289
 2330SOL    HW1 7889   0.946   3.538   2.345
 2330SOL    HW2 7890   0.999   3.635   2.224
 2331SOL     OW 7891   6.200   4.150   0.759
 2331SOL    HW1 7892   6.176   4.247   0.769
 2331SOL    HW2 7893   6.174   4.118   0.668
 2332SOL     OW 7894   4.403   1.598   5.680
 2332SOL    HW1 7895   4.383   1.589   5.583
 2332SOL    HW2 7896   4.317   1.604   5.732
 2333SOL     OW 7897   0.215   5.857   3.144
 2333SOL    HW1 7898   0.183   5.874   3.051
 2333SOL    HW2 7899   0.138   5.862   3.208
 2334SOL     OW 7900   2.159   0.383   0.222
 2334SOL    HW1 7901   2.067   0.410   0.191
 2334SOL    HW2 7902   2.220   0.377   0.143
 2335SOL     OW 7903   6.167   1.154   3.263
 2335SOL    HW1 7904   6.196   1.084   3.198
 2335SOL    HW2 7905   6.136   1.235   3.213
 2336SOL     OW 7906   4.021   1.756   5.034
 2336SOL    HW1 7907   4.112   1.715   5.032
 2336SOL    HW2 7908   3.981   1.743   5.125
 2337SOL     OW 7909   4.327   0.747   3.337
 2337SOL    HW1 7910   4.318   0.846   3.331
 2337SOL    HW2 7911   4.412   0.718   3.293
 2338SOL     OW 7912   1.554   1.392   6.445
 2338SOL    HW1 7913   1.605   1.386   6.531
 2338SOL    HW2 7914   1.458   1.369   6.462
 2339SOL     OW 7915   3.278   4.015   5.277
 2339SOL    HW1 7916   3.318   3.924   5.278
 2339SOL    HW2 7917   3.241   4.035   5.186
 2340SOL     OW 7918   5.447   4.869   6.291
 2340SOL    HW1 7919   5.505   4.854   6.371
 2340SOL    HW2 7920   5.462   4.961   6.256
 2341SOL     OW 7921   5.695   4.429   1.394
 2341SOL    HW1 7922   5.676   4.437   1.492
 2341SOL    HW2 7923   5.785   4.466   1.374
 2342SOL     OW 7924   6.927   6.338   4.951
 2342SOL    HW1 7925   6.885   6.272   5.014
 2342SOL    HW2 7926   6.922   6.429   4.991
 2343SOL     OW 7927   1.579   6.683   2.221
 2343SOL    HW1 7928   1.589   6.595   2.266
 2343SOL    HW2 7929   1.484   6.714   2.229
 2344SOL     OW 7930   1.643   0.828   1.108
 2344SOL    HW1 7931   1.622   0.813   1.205
 2344SOL    HW2 7932   1.732   0.872   1.100
 2345SOL     OW 7933   2.290   5.304   5.318
 2345SOL    HW1 7934   2.380   5.316   5.274
 2345SOL    HW2 7935   2.226   5.266   5.251
 2346SOL     OW 7936   4.861   3.042   4.617
 2346SOL    HW1 7937   4.877   3.034   4.716
 2346SOL    HW2 7938   4.893   3.131   4.585
 2347SOL     OW 7939   2.274   3.704   1.674
 2347SOL    HW1 7940   2.176   3.695   1.655
 2347SOL    HW2 7941   2.301   3.636   1.741
 2348SOL     OW 7942   3.666   5.959   3.971
 2348SOL    HW1 7943   3.606   6.022   3.922
 2348SOL    HW2 7944   3.611   5.900   4.030
 2349SOL     OW 7945   0.798   5.172   6.279
 2349SOL    HW1 7946   0.896   5.154   6.267
 2349SOL    HW2 7947   0.746   5.109   6.221
 2350SOL     OW 7948   5.348   6.893   6.527
 2350SOL    HW1 7949   5.327   6.964   6.594
 2350SOL    HW2 7950   5.359   6.935   6.437
 2351SOL     OW 7951   4.056   5.243   2.214
 2351SOL    HW1 7952   4.116   5.318   2.243
 2351SOL    HW2 7953   3.970   5.281   2.179
 2352SOL     OW 7954   1.185   3.876   2.416
 2352SOL    HW1 7955   1.216   3.821   2.338
 2352SOL    HW2 7956   1.182   3.972   2.389
 2353SOL     OW 7957   2.779   4.866   4.944
 2353SOL    HW1 7958   2.812   4.781   4.986
 2353SOL    HW2 7959   2.753   4.847   4.849
 2354SOL     OW 7960   2.983   1.835   6.357
 2354SOL    HW1 7961   2.991   1.860   6.260
 2354SOL    HW2 7962   2.934   1.748   6.365
 2355SOL     OW 7963   1.372   5.472   6.818
 2355SOL    HW1 7964   1.402   5.510   6.730
 2355SOL    HW2 7965   1.415   5.383   6.832
 2356SOL     OW 7966   2.167   4.229   0.475
 2356SOL    HW1 7967   2.223   4.151   0.448
 2356SOL    HW2 7968   2.217   4.314   0.458
 2357SOL     OW 7969   4.075   5.323   3.659
 2357SOL    HW1 7970   3.989   5.373   3.669
 2357SOL    HW2 7971   4.057   5.229   3.634
 2358SOL     OW 7972   2.343   5.252   4.697
 2358SOL    HW1 7973   2.320   5.168   4.648
 2358SOL    HW2 7974   2.343   5.234   4.795
 2359SOL     OW 7975   0.021   0.834   5.745
 2359SOL    HW1 7976   0.104   0.872   5.703
 2359SOL    HW2 7977   0.020   0.857   5.842
 2360SOL     OW 7978   4.936   6.195   5.589
 2360SOL    HW1 7979   4.856   6.232   5.636
 2360SOL    HW2 7980   4.907   6.155   5.502
 2361SOL     OW 7981   3.050   6.763   4.696
 2361SOL    HW1 7982   2.960   6.801   4.720
 2361SOL    HW2 7983   3.100   6.829   4.640
 2362SOL     OW 7984   3.352   6.520   5.644
 2362SOL    HW1 7985   3.338   6.581   5.565
 2362SOL    HW2 7986   3.263   6.484   5.673
 2363SOL     OW 7987   4.514   2.678   5.549
 2363SOL    HW1 7988   4.577   2.714   5.480
 2363SOL    HW2 7989   4.556   2.686   5.639
 2364SOL     OW 7990   7.019   2.764   3.304
 2364SOL    HW1 7991   6.973   2.753   3.392
 2364SOL    HW2 7992   0.096   2.745   3.314
 2365SOL     OW 7993   5.707   2.295   6.304
 2365SOL    HW1 7994   5.611   2.320   6.290
 2365SOL    HW2 7995   5.753   2.291   6.215
 2366SOL     OW 7996   1.349   4.201   5.568
 2366SOL    HW1 7997   1.280   4.210   5.496
 2366SOL    HW2 7998   1.353   4.106   5.599
 2367SOL     OW 7999   2.860   3.679   6.897
 2367SOL    HW1 8000   2.802   3.645   6.971
 2367SOL    HW2 8001   2.802   3.707   6.820
 2368SOL     OW 8002   4.449   0.312   3.615
 2368SOL    HW1 8003   4.440   0.277   3.708
 2368SOL    HW2 8004   4.456   0.412   3.618
 2369SOL     OW 8005   2.064   2.602   4.555
 2369SOL    HW1 8006   2.069   2.653   4.641
 2369SOL    HW2 8007   1.969   2.603   4.522
 2370SOL     OW 8008   4.290   4.298   6.264
 2370SOL    HW1 8009   4.250   4.220   6.218
 2370SOL    HW2 8010   4.232   4.379   6.250
 2371SOL     OW 8011   1.175   6.385   1.687
 2371SOL    HW1 8012   1.171   6.456   1.616
 2371SOL    HW2 8013   1.263   6.338   1.682
 2372SOL     OW 8014   1.209   2.514   1.068
 2372SOL    HW1 8015   1.227   2.471   1.156
 2372SOL    HW2 8016   1.124   2.477   1.030
 2373SOL     OW 8017   5.834   0.475   6.815
 2373SOL    HW1 8018   5.905   0.475   6.744
 2373SOL    HW2 8019   5.877   0.469   6.905
 2374SOL     OW 8020   6.421   0.666   4.044
 2374SOL    HW1 8021   6.437   0.753   3.998
 2374SOL    HW2 8022   6.493   0.649   4.111
 2375SOL     OW 8023   1.615   6.867   4.468
 2375SOL    HW1 8024   1.592   6.939   4.534
 2375SOL    HW2 8025   1.711   6.841   4.478
 2376SOL     OW 8026   6.123   2.547   4.423
 2376SOL    HW1 8027   6.203   2.560   4.364
 2376SOL    HW2 8028   6.052   2.612   4.398
 2377SOL     OW 8029   3.243   4.099   3.573
 2377SOL    HW1 8030   3.264   4.075   3.667
 2377SOL    HW2 8031   3.221   4.197   3.567
 2378SOL     OW 8032   5.693   1.625   6.741
 2378SOL    HW1 8033   5.680   1.544   6.684
 2378SOL    HW2 8034   5.708   1.705   6.682
 2379SOL     OW 8035   0.106   1.278   6.223
 2379SOL    HW1 8036   0.088   1.201   6.283
 2379SOL    HW2 8037   0.190   1.325   6.251
 2380SOL     OW 8038   6.934   6.758   6.032
 2380SOL    HW1 8039   6.933   6.758   6.132
 2380SOL    HW2 8040   6.972   6.671   6.000
 2381SOL     OW 8041   2.186   4.226   4.229
 2381SOL    HW1 8042   2.180   4.128   4.214
 2381SOL    HW2 8043   2.214   4.272   4.144
 2382SOL     OW 8044   2.082   4.734   2.578
 2382SOL    HW1 8045   1.999   4.761   2.627
 2382SOL    HW2 8046   2.154   4.802   2.596
 2383SOL     OW 8047   5.422   5.981   6.827
 2383SOL    HW1 8048   5.337   5.960   6.779
 2383SOL    HW2 8049   5.438   6.080   6.825
 2384SOL     OW 8050   1.018   0.730   2.434
 2384SOL    HW1 8051   1.105   0.692   2.465
 2384SOL    HW2 8052   0.943   0.692   2.489
 2385SOL     OW 8053   6.371   0.199   0.927
 2385SOL    HW1 8054   6.298   0.246   0.977
 2385SOL    HW2 8055   6.333   0.123   0.876
 2386SOL     OW 8056   4.423   5.227   4.596
 2386SOL    HW1 8057   4.511   5.214   4.550
 2386SOL    HW2 8058   4.423   5.179   4.683
 2387SOL     OW 8059   6.766   2.792   4.391
 2387SOL    HW1 8060   6.832   2.796   4.466
 2387SOL    HW2 8061   6.769   2.701   4.349
 2388SOL     OW 8062   0.951   1.852   4.704
 2388SOL    HW1 8063   0.903   1.903   4.775
 2388SOL    HW2 8064   1.049   1.874   4.708
 2389SOL     OW 8065   5.051   4.098   3.830
 2389SOL    HW1 8066   5.089   4.006   3.822
 2389SOL    HW2 8067   5.095   4.158   3.764
 2390SOL     OW 8068   3.529   3.231   4.536
 2390SOL    HW1 8069   3.434   3.204   4.518
 2390SOL    HW2 8070   3.570   3.167   4.601
 2391SOL     OW 8071   4.197   4.188   5.728
 2391SOL    HW1 8072   4.243   4.253   5.789
 2391SOL    HW2 8073   4.191   4.099   5.773
 2392SOL     OW 8074   3.014   6.053   5.672
 2392SOL    HW1 8075   3.017   6.098   5.762
 2392SOL    HW2 8076   2.952   6.103   5.612
 2393SOL     OW 8077   3.523   5.569   0.921
 2393SOL    HW1 8078   3.489   5.663   0.922
 2393SOL    HW2 8079   3.514   5.529   1.012
 2394SOL     OW 8080   1.673   3.390   4.987
 2394SOL    HW1 8081   1.584   3.429   4.964
 2394SOL    HW2 8082   1.661   3.297   5.022
 2395SOL     OW 8083   6.580   2.303   7.002
 2395SOL    HW1 8084   6.621   2.312   6.911
 2395SOL    HW2 8085   6.638   2.245   0.038
 2396SOL     OW 8086   4.883   5.532   0.398
 2396SOL    HW1 8087   4.795   5.484   0.392
 2396SOL    HW2 8088   4.929   5.528   0.310
 2397SOL     OW 8089   6.900   4.776   0.501
 2397SOL    HW1 8090   6.963   4.701   0.518
 2397SOL    HW2 8091   6.848   4.758   0.417
 2398SOL     OW 8092   3.001   5.142   5.897
 2398SOL    HW1 8093   3.025   5.047   5.918
 2398SOL    HW2 8094   2.908   5.160   5.929
 2399SOL     OW 8095   4.519   1.534   1.927
 2399SOL    HW1 8096   4.460   1.537   2.008
 2399SOL    HW2 8097   4.463   1.542   1.845
 2400SOL     OW 8098   3.865   4.745   0.795
 2400SOL    HW1 8099   3.863   4.649   0.765
 2400SOL    HW2 8100   3.807   4.799   0.734
 2401SOL     OW 8101   3.914   0.547   5.824
 2401SOL    HW1 8102   3.946   0.461   5.862
 2401SOL    HW2 8103   3.935   0.622   5.888
 2402SOL     OW 8104   6.949   2.857   4.153
 2402SOL    HW1 8105   6.971   2.936   4.095
 2402SOL    HW2 8106   6.890   2.886   4.228
 2403SOL     OW 8107   2.632   2.796   6.735
 2403SOL    HW1 8108   2.695   2.730   6.695
 2403SOL    HW2 8109   2.679   2.846   6.808
 2404SOL     OW 8110   5.699   1.250   2.622
 2404SOL    HW1 8111   5.697   1.326   2.688
 2404SOL    HW2 8112   5.693   1.286   2.529
 2405SOL     OW 8113   3.832   3.846   4.698
 2405SOL    HW1 8114   3.796   3.807   4.614
 2405SOL    HW2 8115   3.894   3.921   4.676
 2406SOL     OW 8116   1.816   0.422   3.572
 2406SOL    HW1 8117   1.804   0.512   3.613
 2406SOL    HW2 8118   1.831   0.431   3.474
 2407SOL     OW 8119   4.907   2.178   3.287
 2407SOL    HW1 8120   4.881   2.126   3.369
 2407SOL    HW2 8121   4.840   2.162   3.215
 2408SOL     OW 8122   3.734   5.265   2.788
 2408SOL    HW1 8123   3.701   5.343   2.735
 2408SOL    HW2 8124   3.667   5.241   2.859
 2409SOL     OW 8125   2.018   2.935   1.808
 2409SOL    HW1 8126   2.026   2.957   1.905
 2409SOL    HW2 8127   1.948   2.864   1.795
 2410SOL     OW 8128   6.584   2.581   5.681
 2410SOL    HW1 8129   6.578   2.509   5.611
 2410SOL    HW2 8130   6.603   2.669   5.637
 2411SOL     OW 8131   4.001   4.904   5.742
 2411SOL    HW1 8132   4.023   4.807   5.752
 2411SOL    HW2 8133   3.932   4.917   5.671
 2412SOL     OW 8134   2.681   4.383   6.690
 2412SOL    HW1 8135   2.690   4.457   6.757
 2412SOL    HW2 8136   2.749   4.312   6.709
 2413SOL     OW 8137   6.619   3.077   7.000
 2413SOL    HW1 8138   6.679   3.131   0.039
 2413SOL    HW2 8139   6.548   3.033   0.035
 2414SOL     OW 8140   5.649   3.817   2.740
 2414SOL    HW1 8141   5.675   3.788   2.648
 2414SOL    HW2 8142   5.567   3.873   2.735
 2415SOL     OW 8143   1.387   0.232   0.860
 2415SOL    HW1 8144   1.403   0.216   0.958
 2415SOL    HW2 8145   1.369   0.145   0.815
 2416SOL     OW 8146   2.746   1.266   5.128
 2416SOL    HW1 8147   2.703   1.301   5.045
 2416SOL    HW2 8148   2.679   1.215   5.182
 2417SOL     OW 8149   4.332   2.853   0.506
 2417SOL    HW1 8150   4.284   2.886   0.426
 2417SOL    HW2 8151   4.337   2.925   0.575
 2418SOL     OW 8152   3.251   3.512   4.355
 2418SOL    HW1 8153   3.276   3.439   4.291
 2418SOL    HW2 8154   3.189   3.475   4.424
 2419SOL     OW 8155   0.458   6.857   3.911
 2419SOL    HW1 8156   0.463   6.955   3.933
 2419SOL    HW2 8157   0.374   6.819   3.948
 2420SOL     OW 8158   4.106   6.977   2.353
 2420SOL    HW1 8159   4.192   0.008   2.346
 2420SOL    HW2 8160   4.052   6.993   2.271
 2421SOL     OW 8161   2.709   0.412   4.523
 2421SOL    HW1 8162   2.804   0.385   4.536
 2421SOL    HW2 8163   2.705   0.489   4.459
 2422SOL     OW 8164   5.429   0.585   1.150
 2422SOL    HW1 8165   5.398   0.493   1.129
 2422SOL    HW2 8166   5.528   0.592   1.134
 2423SOL     OW 8167   1.074   6.299   3.263
 2423SOL    HW1 8168   1.102   6.275   3.356
 2423SOL    HW2 8169   1.145   6.270   3.198
 2424SOL     OW 8170   5.613   5.428   6.174
 2424SOL    HW1 8171   5.622   5.509   6.232
 2424SOL    HW2 8172   5.681   5.431   6.101
 2425SOL     OW 8173   6.393   0.021   4.488
 2425SOL    HW1 8174   6.313   0.035   4.429
 2425SOL    HW2 8175   6.399   0.096   4.554
 2426SOL     OW 8176   1.101   4.765   4.434
 2426SOL    HW1 8177   1.034   4.707   4.389
 2426SOL    HW2 8178   1.131   4.836   4.370
 2427SOL     OW 8179   6.749   5.612   0.062
 2427SOL    HW1 8180   6.692   5.650   7.010
 2427SOL    HW2 8181   6.709   5.526   0.095
 2428SOL     OW 8182   0.980   0.057   3.433
 2428SOL    HW1 8183   0.920   0.068   3.513
 2428SOL    HW2 8184   1.036   6.995   3.445
 2429SOL     OW 8185   6.481   5.858   3.390
 2429SOL    HW1 8186   6.465   5.847   3.291
 2429SOL    HW2 8187   6.516   5.949   3.408
 2430SOL     OW 8188   6.262   2.280   1.489
 2430SOL    HW1 8189   6.179   2.238   1.523
 2430SOL    HW2 8190   6.279   2.365   1.539
 2431SOL     OW 8191   4.184   0.484   1.940
 2431SOL    HW1 8192   4.231   0.569   1.960
 2431SOL    HW2 8193   4.175   0.473   1.841
 2432SOL     OW 8194   4.240   6.164   2.855
 2432SOL    HW1 8195   4.257   6.150   2.758
 2432SOL    HW2 8196   4.242   6.262   2.875
 2433SOL     OW 8197   3.352   6.841   0.519
 2433SOL    HW1 8198   3.265   6.820   0.475
 2433SOL    HW2 8199   3.361   6.940   0.528
 2434SOL     OW 8200   4.987   1.584   3.486
 2434SOL    HW1 8201   5.035   1.507   3.528
 2434SOL    HW2 8202   4.908   1.609   3.543
 2435SOL     OW 8203   4.611   5.413   6.845
 2435SOL    HW1 8204   4.568   5.445   6.760
 2435SOL    HW2 8205   4.709   5.401   6.830
 2436SOL     OW 8206   2.158   0.615   0.775
 2436SOL    HW1 8207   2.228   0.555   0.735
 2436SOL    HW2 8208   2.131   0.684   0.707
 2437SOL     OW 8209   5.197   5.539   0.418
 2437SOL    HW1 8210   5.164   5.488   0.498
 2437SOL    HW2 8211   5.212   5.476   0.342
 2438SOL     OW 8212   3.820   0.913   5.479
 2438SOL    HW1 8213   3.842   1.005   5.447
 2438SOL    HW2 8214   3.873   0.846   5.427
 2439SOL     OW 8215   1.343   4.123   0.250
 2439SOL    HW1 8216   1.293   4.112   0.336
 2439SOL    HW2 8217   1.358   4.033   0.208
 2440SOL     OW 8218   3.540   6.276   4.908
 2440SOL    HW1 8219   3.563   6.261   5.004
 2440SOL    HW2 8220   3.515   6.188   4.866
 2441SOL     OW 8221   6.438   1.439   6.583
 2441SOL    HW1 8222   6.361   1.376   6.581
 2441SOL    HW2 8223   6.517   1.398   6.538
 2442SOL     OW 8224   6.388   5.912   3.839
 2442SOL    HW1 8225   6.355   5.832   3.789
 2442SOL    HW2 8226   6.442   5.881   3.918
 2443SOL     OW 8227   2.936   0.001   6.744
 2443SOL    HW1 8228   2.979   0.081   6.785
 2443SOL    HW2 8229   2.983   6.939   6.775
 2444SOL     OW 8230   3.822   4.207   6.376
 2444SOL    HW1 8231   3.832   4.116   6.336
 2444SOL    HW2 8232   3.767   4.265   6.315
 2445SOL     OW 8233   6.988   1.334   2.291
 2445SOL    HW1 8234   6.993   1.433   2.305
 2445SOL    HW2 8235   0.038   1.289   2.347
 2446SOL     OW 8236   0.851   2.923   4.246
 2446SOL    HW1 8237   0.777   2.869   4.205
 2446SOL    HW2 8238   0.864   2.895   4.341
 2447SOL     OW 8239   2.902   0.908   1.085
 2447SOL    HW1 8240   2.979   0.941   1.139
 2447SOL    HW2 8241   2.864   0.984   1.032
 2448SOL     OW 8242   0.610   0.766   4.075
 2448SOL    HW1 8243   0.560   0.724   4.000
 2448SOL    HW2 8244   0.548   0.823   4.129
 2449SOL     OW 8245   6.278   4.483   2.959
 2449SOL    HW1 8246   6.266   4.401   2.904
 2449SOL    HW2 8247   6.282   4.564   2.900
 2450SOL     OW 8248   3.015   5.411   4.922
 2450SOL    HW1 8249   2.952   5.435   4.849
 2450SOL    HW2 8250   2.999   5.317   4.950
 2451SOL     OW 8251   0.739   0.466   3.819
 2451SOL    HW1 8252   0.780   0.408   3.749
 2451SOL    HW2 8253   0.641   0.447   3.825
 2452SOL     OW 8254   2.942   2.196   3.367
 2452SOL    HW1 8255   3.026   2.232   3.408
 2452SOL    HW2 8256   2.930   2.100   3.394
 2453SOL     OW 8257   6.386   3.225   0.796
 2453SOL    HW1 8258   6.433   3.311   0.819
 2453SOL    HW2 8259   6.295   3.226   0.837
 2454SOL     OW 8260   3.244   0.807   0.115
 2454SOL    HW1 8261   3.341   0.816   0.092
 2454SOL    HW2 8262   3.214   0.887   0.166
 2455SOL     OW 8263   4.930   0.716   1.118
 2455SOL    HW1 8264   4.956   0.712   1.215
 2455SOL    HW2 8265   4.874   0.635   1.096
 2456SOL     OW 8266   5.731   1.418   0.366
 2456SOL    HW1 8267   5.634   1.408   0.344
 2456SOL    HW2 8268   5.745   1.498   0.423
 2457SOL     OW 8269   6.804   5.927   6.297
 2457SOL    HW1 8270   6.808   5.892   6.204
 2457SOL    HW2 8271   6.864   5.872   6.356
 2458SOL     OW 8272   2.389   5.974   3.814
 2458SOL    HW1 8273   2.301   5.994   3.858
 2458SOL    HW2 8274   2.424   6.057   3.771
 2459SOL     OW 8275   2.673   6.067   5.827
 2459SOL    HW1 8276   2.619   6.000   5.776
 2459SOL    HW2 8277   2.758   6.024   5.858
 2460SOL     OW 8278   1.609   1.610   1.850
 2460SOL    HW1 8279   1.599   1.537   1.783
 2460SOL    HW2 8280   1.643   1.693   1.805
 2461SOL     OW 8281   4.897   7.004   2.944
 2461SOL    HW1 8282   4.995   7.016   2.926
 2461SOL    HW2 8283   4.872   6.909   2.924
 2462SOL     OW 8284   1.686   5.746   0.590
 2462SOL    HW1 8285   1.600   5.777   0.631
 2462SOL    HW2 8286   1.754   5.731   0.662
 2463SOL     OW 8287   6.504   2.678   5.043
 2463SOL    HW1 8288   6.567   2.603   5.023
 2463SOL    HW2 8289   6.486   2.729   4.959
 2464SOL     OW 8290   2.042   4.154   1.753
 2464SOL    HW1 8291   2.073   4.244   1.722
 2464SOL    HW2 8292   2.042   4.091   1.676
 2465SOL     OW 8293   0.820   0.377   2.026
 2465SOL    HW1 8294   0.874   0.424   1.957
 2465SOL    HW2 8295   0.873   0.303   2.066
 2466SOL     OW 8296   2.781   1.616   2.858
 2466SOL    HW1 8297   2.844   1.689   2.884
 2466SOL    HW2 8298   2.689   1.652   2.851
 2467SOL     OW 8299   5.274   1.380   4.301
 2467SOL    HW1 8300   5.329   1.350   4.378
 2467SOL    HW2 8301   5.233   1.469   4.322
 2468SOL     OW 8302   5.074   6.348   1.752
 2468SOL    HW1 8303   4.981   6.375   1.777
 2468SOL    HW2 8304   5.116   6.298   1.828
 2469SOL     OW 8305   4.170   4.093   5.435
 2469SOL    HW1 8306   4.194   4.077   5.531
 2469SOL    HW2 8307   4.205   4.182   5.406
 2470SOL     OW 8308   3.630   4.998   5.971
 2470SOL    HW1 8309   3.701   5.017   5.903
 2470SOL    HW2 8310   3.673   4.980   6.060
 2471SOL     OW 8311   2.598   5.826   1.148
 2471SOL    HW1 8312   2.696   5.842   1.163
 2471SOL    HW2 8313   2.568   5.749   1.205
 2472SOL     OW 8314   5.367   2.454   4.554
 2472SOL    HW1 8315   5.316   2.374   4.588
 2472SOL    HW2 8316   5.447   2.423   4.503
 2473SOL     OW 8317   2.147   3.782   5.042
 2473SOL    HW1 8318   2.061   3.825   5.068
 2473SOL    HW2 8319   2.212   3.852   5.014
 2474SOL     OW 8320   0.529   6.204   0.564
 2474SOL    HW1 8321   0.472   6.176   0.642
 2474SOL    HW2 8322   0.481   6.184   0.479
 2475SOL     OW 8323   5.238   0.934   1.373
 2475SOL    HW1 8324   5.284   0.845   1.366
 2475SOL    HW2 8325   5.285   1.001   1.316
 2476SOL     OW 8326   7.020   2.183   3.635
 2476SOL    HW1 8327   0.068   2.245   3.595
 2476SOL    HW2 8328   6.945   2.171   3.571
 2477SOL     OW 8329   4.793   1.760   2.647
 2477SOL    HW1 8330   4.889   1.738   2.626
 2477SOL    HW2 8331   4.763   1.834   2.586
 2478SOL     OW 8332   6.389   0.855   1.966
 2478SOL    HW1 8333   6.440   0.809   2.039
 2478SOL    HW2 8334   6.335   0.787   1.917
 2479SOL     OW 8335   1.630   3.935   1.279
 2479SOL    HW1 8336   1.722   3.946   1.317
 2479SOL    HW2 8337   1.564   3.927   1.354
 2480SOL     OW 8338   6.114   3.949   0.950
 2480SOL    HW1 8339   6.163   4.020   0.900
 2480SOL    HW2 8340   6.145   3.859   0.919
 2481SOL     OW 8341   2.977   1.198   0.268
 2481SOL    HW1 8342   3.026   1.284   0.255
 2481SOL    HW2 8343   2.887   1.205   0.225
 2482SOL     OW 8344   4.481   3.165   5.941
 2482SOL    HW1 8345   4.524   3.145   6.029
 2482SOL    HW2 8346   4.385   3.189   5.956
 2483SOL     OW 8347   2.397   2.199   0.059
 2483SOL    HW1 8348   2.299   2.218   0.072
 2483SOL    HW2 8349   2.450   2.282   0.077
 2484SOL     OW 8350   2.436   0.731   0.259
 2484SOL    HW1 8351   2.404   0.707   0.351
 2484SOL    HW2 8352   2.484   0.653   0.219
 2485SOL     OW 8353   5.534   3.752   1.914
 2485SOL    HW1 8354   5.504   3.838   1.956
 2485SOL    HW2 8355   5.582   3.771   1.829
 2486SOL     OW 8356   2.251   4.845   4.107
 2486SOL    HW1 8357   2.318   4.914   4.136
 2486SOL    HW2 8358   2.168   4.892   4.075
 2487SOL     OW 8359   4.090   6.016   0.229
 2487SOL    HW1 8360   4.139   6.083   0.285
 2487SOL    HW2 8361   4.019   6.062   0.177
 2488SOL     OW 8362   1.903   4.362   2.372
 2488SOL    HW1 8363   1.929   4.294   2.304
 2488SOL    HW2 8364   1.865   4.316   2.452
 2489SOL     OW 8365   1.834   5.617   3.269
 2489SOL    HW1 8366   1.837   5.716   3.282
 2489SOL    HW2 8367   1.844   5.596   3.172
 2490SOL     OW 8368   6.698   5.120   1.720
 2490SOL    HW1 8369   6.619   5.152   1.668
 2490SOL    HW2 8370   6.683   5.140   1.817
 2491SOL     OW 8371   2.757   5.590   0.977
 2491SOL    HW1 8372   2.659   5.569   0.986
 2491SOL    HW2 8373   2.767   5.685   0.948
 2492SOL     OW 8374   4.473   2.989   6.766
 2492SOL    HW1 8375   4.529   2.920   6.811
 2492SOL    HW2 8376   4.491   2.987   6.667
 2493SOL     OW 8377   6.316   0.137   2.335
 2493SOL    HW1 8378   6.306   0.231   2.303
 2493SOL    HW2 8379   6.404   0.126   2.380
 2494SOL     OW 8380   5.920   4.292   2.052
 2494SOL    HW1 8381   5.963   4.205   2.073
 2494SOL    HW2 8382   5.887   4.291   1.957
 2495SOL     OW 8383   5.498   0.501   4.671
 2495SOL    HW1 8384   5.550   0.450   4.740
 2495SOL    HW2 8385   5.414   0.452   4.650
 2496SOL     OW 8386   0.291   4.124   6.543
 2496SOL    HW1 8387   0.236   4.169   6.613
 2496SOL    HW2 8388   0.357   4.063   6.586
 2497SOL     OW 8389   0.196   1.536   0.675
 2497SOL    HW1 8390   0.242   1.464   0.623
 2497SOL    HW2 8391   0.130   1.495   0.738
 2498SOL     OW 8392   3.428   2.131   3.944
 2498SOL    HW1 8393   3.514   2.097   3.906
 2498SOL    HW2 8394   3.397   2.210   3.892
 2499SOL     OW 8395   4.953   2.467   4.450
 2499SOL    HW1 8396   4.864   2.457   4.495
 2499SOL    HW2 8397   5.003   2.381   4.458
 2500SOL     OW 8398   4.290   2.819   6.574
 2500SOL    HW1 8399   4.303   2.743   6.638
 2500SOL    HW2 8400   4.209   2.802   6.519
 2501SOL     OW 8401   6.893   5.910   6.862
 2501SOL    HW1 8402   6.847   5.824   6.840
 2501SOL    HW2 8403   6.866   5.939   6.954
 2502SOL     OW 8404   2.384   5.878   3.190
 2502SOL    HW1 8405   2.345   5.942   3.257
 2502SOL    HW2 8406   2.389   5.922   3.100
 2503SOL     OW 8407   3.195   5.112   5.286
 2503SOL    HW1 8408   3.117   5.175   5.282
 2503SOL    HW2 8409   3.174   5.037   5.350
 2504SOL     OW 8410   2.509   5.019   5.231
 2504SOL    HW1 8411   2.539   5.091   5.169
 2504SOL    HW2 8412   2.443   4.960   5.185
 2505SOL     OW 8413   1.788   5.957   4.042
 2505SOL    HW1 8414   1.703   5.954   4.094
 2505SOL    HW2 8415   1.768   5.943   3.945
 2506SOL     OW 8416   5.836   3.410   6.518
 2506SOL    HW1 8417   5.886   3.354   6.452
 2506SOL    HW2 8418   5.808   3.495   6.474
 2507SOL     OW 8419   1.024   3.933   0.617
 2507SOL    HW1 8420   0.932   3.971   0.608
 2507SOL    HW2 8421   1.054   3.939   0.713
 2508SOL     OW 8422   2.728   1.494   2.223
 2508SOL    HW1 8423   2.789   1.415   2.214
 2508SOL    HW2 8424   2.762   1.569   2.167
 2509SOL     OW 8425   5.908   2.378   2.534
 2509SOL    HW1 8426   5.832   2.345   2.590
 2509SOL    HW2 8427   5.892   2.353   2.438
 2510SOL     OW 8428   3.461   4.293   1.450
 2510SOL    HW1 8429   3.522   4.235   1.504
 2510SOL    HW2 8430   3.436   4.246   1.366
 2511SOL     OW 8431   2.493   2.015   4.196
 2511SOL    HW1 8432   2.572   1.990   4.252
 2511SOL    HW2 8433   2.426   1.941   4.198
 2512SOL     OW 8434   4.814   5.253   5.326
 2512SOL    HW1 8435   4.812   5.153   5.320
 2512SOL    HW2 8436   4.858   5.290   5.244
 2513SOL     OW 8437   1.287   3.150   5.381
 2513SOL    HW1 8438   1.346   3.092   5.438
 2513SOL    HW2 8439   1.299   3.125   5.285
 2514SOL     OW 8440   6.122   3.886   4.147
 2514SOL    HW1 8441   6.141   3.849   4.056
 2514SOL    HW2 8442   6.182   3.842   4.214
 2515SOL     OW 8443   1.618   6.706   0.123
 2515SOL    HW1 8444   1.687   6.696   0.051
 2515SOL    HW2 8445   1.592   6.802   0.132
 2516SOL     OW 8446   6.139   0.460   3.539
 2516SOL    HW1 8447   6.208   0.532   3.537
 2516SOL    HW2 8448   6.125   0.424   3.447
 2517SOL     OW 8449   1.164   5.800   6.075
 2517SOL    HW1 8450   1.145   5.704   6.055
 2517SOL    HW2 8451   1.221   5.806   6.157
 2518SOL     OW 8452   2.696   3.593   0.093
 2518SOL    HW1 8453   2.748   3.601   0.178
 2518SOL    HW2 8454   2.607   3.552   0.112
 2519SOL     OW 8455   4.364   5.951   3.798
 2519SOL    HW1 8456   4.383   6.019   3.727
 2519SOL    HW2 8457   4.448   5.904   3.823
 2520SOL     OW 8458   0.878   3.020   0.172
 2520SOL    HW1 8459   0.883   2.980   0.081
 2520SOL    HW2 8460   0.959   2.996   0.224
 2521SOL     OW 8461   0.944   6.246   5.686
 2521SOL    HW1 8462   0.981   6.324   5.636
 2521SOL    HW2 8463   0.869   6.277   5.745
 2522SOL     OW 8464   7.015   3.086   5.938
 2522SOL    HW1 8465   7.002   2.987   5.935
 2522SOL    HW2 8466   6.925   3.131   5.931
 2523SOL     OW 8467   0.143   3.040   1.456
 2523SOL    HW1 8468   0.079   3.113   1.479
 2523SOL    HW2 8469   0.094   2.953   1.451
 2524SOL     OW 8470   0.702   5.331   4.622
 2524SOL    HW1 8471   0.736   5.384   4.545
 2524SOL    HW2 8472   0.672   5.241   4.589
 2525SOL     OW 8473   1.119   2.652   4.241
 2525SOL    HW1 8474   1.173   2.655   4.157
 2525SOL    HW2 8475   1.022   2.644   4.219
 2526SOL     OW 8476   1.633   4.265   5.598
 2526SOL    HW1 8477   1.549   4.246   5.547
 2526SOL    HW2 8478   1.705   4.203   5.568
 2527SOL     OW 8479   5.255   6.731   5.361
 2527SOL    HW1 8480   5.245   6.663   5.434
 2527SOL    HW2 8481   5.340   6.714   5.311
 2528SOL     OW 8482   6.401   4.351   1.081
 2528SOL    HW1 8483   6.358   4.437   1.054
 2528SOL    HW2 8484   6.430   4.301   0.999
 2529SOL     OW 8485   6.903   5.808   6.518
 2529SOL    HW1 8486   6.835   5.791   6.590
 2529SOL    HW2 8487   6.973   5.737   6.521
 2530SOL     OW 8488   1.093   6.072   4.425
 2530SOL    HW1 8489   1.148   6.153   4.443
 2530SOL    HW2 8490   1.023   6.063   4.496
 2531SOL     OW 8491   5.150   5.743   4.072
 2531SOL    HW1 8492   5.187   5.709   3.986
 2531SOL    HW2 8493   5.119   5.666   4.128
 2532SOL     OW 8494   1.071   6.147   0.782
 2532SOL    HW1 8495   1.149   6.139   0.720
 2532SOL    HW2 8496   0.988   6.161   0.728
 2533SOL     OW 8497   4.384   7.003   3.249
 2533SOL    HW1 8498   4.404   6.997   3.151
 2533SOL    HW2 8499   4.440   0.054   3.291
 2534SOL     OW 8500   2.355   0.437   3.030
 2534SOL    HW1 8501   2.378   0.340   3.034
 2534SOL    HW2 8502   2.414   0.487   3.094
 2535SOL     OW 8503   2.423   2.909   6.571
 2535SOL    HW1 8504   2.496   2.887   6.635
 2535SOL    HW2 8505   2.437   2.860   6.485
 2536SOL     OW 8506   6.924   2.461   3.798
 2536SOL    HW1 8507   6.999   2.415   3.751
 2536SOL    HW2 8508   6.838   2.413   3.779
 2537SOL     OW 8509   5.258   6.610   6.442
 2537SOL    HW1 8510   5.289   6.706   6.438
 2537SOL    HW2 8511   5.168   6.606   6.485
 2538SOL     OW 8512   1.620   4.252   4.769
 2538SOL    HW1 8513   1.699   4.263   4.830
 2538SOL    HW2 8514   1.628   4.164   4.721
 2539SOL     OW 8515   4.400   0.079   5.727
 2539SOL    HW1 8516   4.409   0.161   5.784
 2539SOL    HW2 8517   4.303   0.052   5.723
 2540SOL     OW 8518   4.823   1.107   2.175
 2540SOL    HW1 8519   4.772   1.145   2.099
 2540SOL    HW2 8520   4.921   1.109   2.154
 2541SOL     OW 8521   1.645   6.820   5.397
 2541SOL    HW1 8522   1.692   6.774   5.473
 2541SOL    HW2 8523   1.573   6.761   5.362
 2542SOL     OW 8524   4.670   1.763   5.672
 2542SOL    HW1 8525   4.609   1.686   5.688
 2542SOL    HW2 8526   4.625   1.848   5.701
 2543SOL     OW 8527   1.777   1.541   3.099
 2543SOL    HW1 8528   1.821   1.495   3.176
 2543SOL    HW2 8529   1.685   1.504   3.086
 2544SOL     OW 8530   0.015   5.250   2.311
 2544SOL    HW1 8531   0.015   5.346   2.340
 2544SOL    HW2 8532   0.018   5.191   2.391
 2545SOL     OW 8533   2.141   1.056   0.971
 2545SOL    HW1 8534   2.217   1.116   0.947
 2545SOL    HW2 8535   2.176   0.972   1.013
 2546SOL     OW 8536   0.149   2.299   2.274
 2546SOL    HW1 8537   0.216   2.235   2.237
 2546SOL    HW2 8538   0.168   2.316   2.371
 2547SOL     OW 8539   5.923   5.097   0.194
 2547SOL    HW1 8540   5.946   5.152   0.274
 2547SOL    HW2 8541   5.824   5.105   0.176
 2548SOL     OW 8542   2.772   6.577   5.405
 2548SOL    HW1 8543   2.817   6.617   5.485
 2548SOL    HW2 8544   2.674   6.592   5.411
 2549SOL     OW 8545   2.142   1.728   1.405
 2549SOL    HW1 8546   2.195   1.643   1.413
 2549SOL    HW2 8547   2.184   1.799   1.461
 2550SOL     OW 8548   6.423   0.464   6.408
 2550SOL    HW1 8549   6.432   0.449   6.507
 2550SOL    HW2 8550   6.342   0.417   6.374
 2551SOL     OW 8551   2.543   5.533   0.478
 2551SOL    HW1 8552   2.473   5.560   0.412
 2551SOL    HW2 8553   2.631   5.524   0.432
 2552SOL     OW 8554   1.019   6.069   5.446
 2552SOL    HW1 8555   1.002   6.142   5.512
 2552SOL    HW2 8556   1.007   6.105   5.353
 2553SOL     OW 8557   3.082   3.556   0.024
 2553SOL    HW1 8558   3.023   3.597   6.975
 2553SOL    HW2 8559   3.112   3.466   7.015
 2554SOL     OW 8560   1.603   5.777   6.844
 2554SOL    HW1 8561   1.609   5.859   6.900
 2554SOL    HW2 8562   1.520   5.781   6.788
 2555SOL     OW 8563   5.965   6.068   6.022
 2555SOL    HW1 8564   6.004   6.152   6.060
 2555SOL    HW2 8565   5.975   6.069   5.922
 2556SOL     OW 8566   4.156   6.223   0.419
 2556SOL    HW1 8567   4.143   6.314   0.381
 2556SOL    HW2 8568   4.252   6.196   0.408
 2557SOL     OW 8569   2.355   1.958   6.536
 2557SOL    HW1 8570   2.295   2.019   6.588
 2557SOL    HW2 8571   2.321   1.864   6.544
 2558SOL     OW 8572   3.561   3.321   6.134
 2558SOL    HW1 8573   3.483   3.332   6.073
 2558SOL    HW2 8574   3.563   3.228   6.171
 2559SOL     OW 8575   6.248   2.947   4.688
 2559SOL    HW1 8576   6.347   2.958   4.696
 2559SOL    HW2 8577   6.225   2.850   4.683
 2560SOL     OW 8578   5.112   3.373   4.344
 2560SOL    HW1 8579   5.050   3.445   4.313
 2560SOL    HW2 8580   5.111   3.298   4.278
 2561SOL     OW 8581   3.531   0.149   3.881
 2561SOL    HW1 8582   3.586   0.232   3.871
 2561SOL    HW2 8583   3.580   0.084   3.939
 2562SOL     OW 8584   1.993   5.554   2.179
 2562SOL    HW1 8585   1.919   5.590   2.122
 2562SOL    HW2 8586   2.078   5.603   2.160
 2563SOL     OW 8587   4.232   1.897   6.792
 2563SOL    HW1 8588   4.170   1.967   6.826
 2563SOL    HW2 8589   4.192   1.807   6.807
 2564SOL     OW 8590   1.193   0.304   6.300
 2564SOL    HW1 8591   1.146   0.288   6.213
 2564SOL    HW2 8592   1.243   0.390   6.294
 2565SOL     OW 8593   6.902   0.863   0.396
 2565SOL    HW1 8594   6.943   0.950   0.424
 2565SOL    HW2 8595   6.857   0.821   0.475
 2566SOL     OW 8596   1.669   0.359   0.890
 2566SOL    HW1 8597   1.659   0.459   0.889
 2566SOL    HW2 8598   1.596   0.318   0.835
 2567SOL     OW 8599   1.138   1.806   2.097
 2567SOL    HW1 8600   1.168   1.767   2.010
 2567SOL    HW2 8601   1.069   1.876   2.080
 2568SOL     OW 8602   2.822   1.040   6.574
 2568SOL    HW1 8603   2.831   0.947   6.609
 2568SOL    HW2 8604   2.906   1.067   6.528
 2569SOL     OW 8605   2.767   0.668   2.030
 2569SOL    HW1 8606   2.741   0.708   2.118
 2569SOL    HW2 8607   2.685   0.635   1.983
 2570SOL     OW 8608   5.670   0.810   6.538
 2570SOL    HW1 8609   5.710   0.848   6.622
 2570SOL    HW2 8610   5.584   0.764   6.560
 2571SOL     OW 8611   2.615   3.696   5.497
 2571SOL    HW1 8612   2.658   3.777   5.538
 2571SOL    HW2 8613   2.684   3.626   5.482
 2572SOL     OW 8614   1.988   6.694   1.108
 2572SOL    HW1 8615   1.919   6.636   1.150
 2572SOL    HW2 8616   2.036   6.642   1.037
 2573SOL     OW 8617   6.276   1.747   2.565
 2573SOL    HW1 8618   6.324   1.780   2.646
 2573SOL    HW2 8619   6.253   1.825   2.506
 2574SOL     OW 8620   0.329   3.087   0.520
 2574SOL    HW1 8621   0.429   3.090   0.530
 2574SOL    HW2 8622   0.293   3.015   0.579
 2575SOL     OW 8623   5.113   4.317   0.059
 2575SOL    HW1 8624   5.095   4.220   0.040
 2575SOL    HW2 8625   5.033   4.358   0.102
 2576SOL     OW 8626   3.874   0.050   3.732
 2576SOL    HW1 8627   3.792   0.022   3.681
 2576SOL    HW2 8628   3.952   0.051   3.670
 2577SOL     OW 8629   4.202   6.191   2.251
 2577SOL    HW1 8630   4.171   6.250   2.177
 2577SOL    HW2 8631   4.165   6.225   2.338
 2578SOL     OW 8632   4.557   2.911   5.212
 2578SOL    HW1 8633   4.545   3.003   5.247
 2578SOL    HW2 8634   4.485   2.852   5.248
 2579SOL     OW 8635   1.119   0.755   3.781
 2579SOL    HW1 8636   1.160   0.751   3.871
 2579SOL    HW2 8637   1.144   0.673   3.729
 2580SOL     OW 8638   2.230   2.511   0.070
 2580SOL    HW1 8639   2.146   2.469   0.104
 2580SOL    HW2 8640   2.274   2.561   0.143
 2581SOL     OW 8641   6.663   4.597   1.839
 2581SOL    HW1 8642   6.760   4.583   1.824
 2581SOL    HW2 8643   6.626   4.657   1.768
 2582SOL     OW 8644   1.183   4.375   2.777
 2582SOL    HW1 8645   1.100   4.431   2.772
 2582SOL    HW2 8646   1.171   4.292   2.722
 2583SOL     OW 8647   0.650   1.958   0.945
 2583SOL    HW1 8648   0.674   1.896   1.019
 2583SOL    HW2 8649   0.618   1.905   0.866
 2584SOL     OW 8650   3.859   5.886   0.356
 2584SOL    HW1 8651   3.928   5.924   0.293
 2584SOL    HW2 8652   3.905   5.844   0.434
 2585SOL     OW 8653   3.494   1.123   0.012
 2585SOL    HW1 8654   3.566   1.184   0.044
 2585SOL    HW2 8655   3.414   1.176   7.005
 2586SOL     OW 8656   4.102   1.946   3.292
 2586SOL    HW1 8657   4.053   2.029   3.266
 2586SOL    HW2 8658   4.039   1.881   3.335
 2587SOL     OW 8659   6.834   0.722   3.647
 2587SOL    HW1 8660   6.740   0.719   3.681
 2587SOL    HW2 8661   6.851   0.809   3.602
 2588SOL     OW 8662   4.867   0.036   6.680
 2588SOL    HW1 8663   4.784   7.018   6.719
 2588SOL    HW2 8664   4.877   0.132   6.709
 2589SOL     OW 8665   0.445   5.709   5.558
 2589SOL    HW1 8666   0.541   5.682   5.551
 2589SOL    HW2 8667   0.419   5.765   5.479
 2590SOL     OW 8668   3.325   6.150   1.587
 2590SOL    HW1 8669   3.366   6.166   1.677
 2590SOL    HW2 8670   3.230   6.181   1.588
 2591SOL     OW 8671   6.879   5.924   2.152
 2591SOL    HW1 8672   6.871   5.857   2.226
 2591SOL    HW2 8673   6.791   5.932   2.104
 2592SOL     OW 8674   3.054   6.870   1.410
 2592SOL    HW1 8675   2.999   6.952   1.396
 2592SOL    HW2 8676   3.057   6.848   1.507
 2593SOL     OW 8677   2.828   6.423   1.307
 2593SOL    HW1 8678   2.758   6.397   1.239
 2593SOL    HW2 8679   2.887   6.494   1.269
 2594SOL     OW 8680   6.978   5.668   5.911
 2594SOL    HW1 8681   0.014   5.728   5.967
 2594SOL    HW2 8682   7.006   5.675   5.815
 2595SOL     OW 8683   6.368   1.159   5.155
 2595SOL    HW1 8684   6.395   1.173   5.060
 2595SOL    HW2 8685   6.427   1.214   5.215
 2596SOL     OW 8686   3.819   1.978   1.962
 2596SOL    HW1 8687   3.768   1.894   1.981
 2596SOL    HW2 8688   3.772   2.056   2.003
 2597SOL     OW 8689   2.335   3.687   6.801
 2597SOL    HW1 8690   2.375   3.747   6.732
 2597SOL    HW2 8691   2.246   3.654   6.769
 2598SOL     OW 8692   5.719   0.775   4.280
 2598SOL    HW1 8693   5.787   0.760   4.208
 2598SOL    HW2 8694   5.697   0.688   4.324
 2599SOL     OW 8695   3.075   0.621   0.653
 2599SOL    HW1 8696   3.055   0.523   0.651
 2599SOL    HW2 8697   3.020   0.664   0.725
 2600SOL     OW 8698   4.980   3.292   4.611
 2600SOL    HW1 8699   5.019   3.348   4.539
 2600SOL    HW2 8700   4.906   3.342   4.656
 2601SOL     OW 8701   2.648   1.799   6.425
 2601SOL    HW1 8702   2.671   1.773   6.519
 2601SOL    HW2 8703   2.707   1.748   6.361
 2602SOL     OW 8704   6.583   4.829   3.781
 2602SOL    HW1 8705   6.571   4.788   3.871
 2602SOL    HW2 8706   6.681   4.832   3.758
 2603SOL     OW 8707   2.320   2.016   2.424
 2603SOL    HW1 8708   2.392   2.055   2.367
 2603SOL    HW2 8709   2.358   1.941   2.479
 2604SOL     OW 8710   4.876   1.087   3.385
 2604SOL    HW1 8711   4.875   1.006   3.325
 2604SOL    HW2 8712   4.808   1.153   3.352
 2605SOL     OW 8713   2.439   4.359   3.011
 2605SOL    HW1 8714   2.450   4.409   3.097
 2605SOL    HW2 8715   2.366   4.292   3.021
 2606SOL     OW 8716   6.682   4.629   1.021
 2606SOL    HW1 8717   6.611   4.700   1.023
 2606SOL    HW2 8718   6.767   4.667   1.056
 2607SOL     OW 8719   0.301   1.071   6.189
 2607SOL    HW1 8720   0.343   1.112   6.108
 2607SOL    HW2 8721   0.345   1.109   6.271
 2608SOL     OW 8722   4.249   4.999   2.170
 2608SOL    HW1 8723   4.153   5.022   2.187
 2608SOL    HW2 8724   4.305   5.081   2.181
 2609SOL     OW 8725   0.305   1.526   1.643
 2609SOL    HW1 8726   0.295   1.485   1.734
 2609SOL    HW2 8727   0.274   1.461   1.574
 2610SOL     OW 8728   6.997   5.150   4.226
 2610SOL    HW1 8729   6.973   5.245   4.244
 2610SOL    HW2 8730   7.005   5.135   4.128
 2611SOL     OW 8731   4.397   6.329   0.808
 2611SOL    HW1 8732   4.299   6.320   0.791
 2611SOL    HW2 8733   4.441   6.241   0.793
 2612SOL     OW 8734   6.529   6.590   5.844
 2612SOL    HW1 8735   6.625   6.583   5.816
 2612SOL    HW2 8736   6.512   6.679   5.885
 2613SOL     OW 8737   2.519   6.540   0.848
 2613SOL    HW1 8738   2.530   6.580   0.939
 2613SOL    HW2 8739   2.446   6.472   0.850
 2614SOL     OW 8740   6.393   0.411   6.025
 2614SOL    HW1 8741   6.371   0.468   5.946
 2614SOL    HW2 8742   6.488   0.427   6.053
 2615SOL     OW 8743   6.344   3.604   3.704
 2615SOL    HW1 8744   6.418   3.538   3.691
 2615SOL    HW2 8745   6.338   3.664   3.624
 2616SOL     OW 8746   3.666   3.376   4.291
 2616SOL    HW1 8747   3.709   3.430   4.364
 2616SOL    HW2 8748   3.619   3.298   4.332
 2617SOL     OW 8749   3.883   6.758   0.631
 2617SOL    HW1 8750   3.784   6.757   0.615
 2617SOL    HW2 8751   3.916   6.853   0.630
 2618SOL     OW 8752   0.316   6.669   4.306
 2618SOL    HW1 8753   0.233   6.664   4.362
 2618SOL    HW2 8754   0.289   6.682   4.210
 2619SOL     OW 8755   4.025   1.394   2.894
 2619SOL    HW1 8756   3.934   1.427   2.918
 2619SOL    HW2 8757   4.032   1.383   2.795
 2620SOL     OW 8758   6.973   6.471   2.810
 2620SOL    HW1 8759   0.031   6.534   2.821
 2620SOL    HW2 8760   6.972   6.435   2.717
 2621SOL     OW 8761   1.271   5.706   2.494
 2621SOL    HW1 8762   1.350   5.765   2.507
 2621SOL    HW2 8763   1.210   5.714   2.573
 2622SOL     OW 8764   2.303   2.550   5.788
 2622SOL    HW1 8765   2.307   2.553   5.888
 2622SOL    HW2 8766   2.344   2.465   5.755
 2623SOL     OW 8767   2.316   1.325   5.508
 2623SOL    HW1 8768   2.255   1.368   5.441
 2623SOL    HW2 8769   2.411   1.343   5.484
 2624SOL     OW 8770   6.403   2.139   5.176
 2624SOL    HW1 8771   6.358   2.210   5.230
 2624SOL    HW2 8772   6.389   2.158   5.079
 2625SOL     OW 8773   2.662   1.963   5.713
 2625SOL    HW1 8774   2.568   1.930   5.705
 2625SOL    HW2 8775   2.666   2.034   5.784
 2626SOL     OW 8776   0.197   0.149   5.283
 2626SOL    HW1 8777   0.227   0.233   5.328
 2626SOL    HW2 8778   0.141   0.095   5.346
 2627SOL     OW 8779   1.436   1.558   5.191
 2627SOL    HW1 8780   1.404   1.473   5.233
 2627SOL    HW2 8781   1.387   1.574   5.105
 2628SOL     OW 8782   2.052   4.956   6.135
 2628SOL    HW1 8783   2.132   4.969   6.077
 2628SOL    HW2 8784   2.025   4.859   6.133
 2629SOL     OW 8785   3.106   4.009   2.021
 2629SOL    HW1 8786   3.016   4.032   2.057
 2629SOL    HW2 8787   3.144   3.931   2.071
 2630SOL     OW 8788   2.948   1.526   3.363
 2630SOL    HW1 8789   2.880   1.573   3.419
 2630SOL    HW2 8790   2.959   1.574   3.276
 2631SOL     OW 8791   4.943   0.378   4.980
 2631SOL    HW1 8792   5.032   0.381   4.935
 2631SOL    HW2 8793   4.918   0.282   4.997
 2632SOL     OW 8794   3.236   1.960   6.105
 2632SOL    HW1 8795   3.283   1.888   6.053
 2632SOL    HW2 8796   3.278   2.049   6.084
 2633SOL     OW 8797   6.502   1.026   4.601
 2633SOL    HW1 8798   6.576   1.013   4.536
 2633SOL    HW2 8799   6.493   1.124   4.622
 2634SOL     OW 8800   1.148   3.783   3.120
 2634SOL    HW1 8801   1.181   3.754   3.030
 2634SOL    HW2 8802   1.171   3.713   3.188
 2635SOL     OW 8803   6.340   5.777   5.742
 2635SOL    HW1 8804   6.256   5.738   5.782
 2635SOL    HW2 8805   6.321   5.808   5.649
 2636SOL     OW 8806   4.920   0.102   5.147
 2636SOL    HW1 8807   5.012   0.067   5.129
 2636SOL    HW2 8808   4.915   0.137   5.241
 2637SOL     OW 8809   5.453   1.458   3.490
 2637SOL    HW1 8810   5.391   1.536   3.501
 2637SOL    HW2 8811   5.417   1.379   3.540
 2638SOL     OW 8812   6.630   0.291   3.413
 2638SOL    HW1 8813   6.558   0.223   3.404
 2638SOL    HW2 8814   6.656   0.325   3.322
 2639SOL     OW 8815   0.660   6.980   1.322
 2639SOL    HW1 8816   0.747   7.004   1.277
 2639SOL    HW2 8817   0.604   0.042   1.331
 2640SOL     OW 8818   0.200   5.944   4.572
 2640SOL    HW1 8819   0.165   5.854   4.598
 2640SOL    HW2 8820   0.298   5.937   4.553
 2641SOL     OW 8821   4.923   3.167   2.101
 2641SOL    HW1 8822   4.838   3.118   2.124
 2641SOL    HW2 8823   4.931   3.248   2.160
 2642SOL     OW 8824   4.249   0.183   4.179
 2642SOL    HW1 8825   4.258   0.278   4.206
 2642SOL    HW2 8826   4.339   0.142   4.167
 2643SOL     OW 8827   0.169   3.445   2.472
 2643SOL    HW1 8828   0.113   3.503   2.413
 2643SOL    HW2 8829   0.113   3.409   2.546
 2644SOL     OW 8830   6.275   5.168   5.928
 2644SOL    HW1 8831   6.246   5.131   5.839
 2644SOL    HW2 8832   6.374   5.161   5.936
 2645SOL     OW 8833   4.324   5.548   5.173
 2645SOL    HW1 8834   4.345   5.646   5.170
 2645SOL    HW2 8835   4.399   5.499   5.219
 2646SOL     OW 8836   6.033   0.829   6.729
 2646SOL    HW1 8837   5.938   0.859   6.741
 2646SOL    HW2 8838   6.086   0.850   6.811
 2647SOL     OW 8839   6.454   0.359   1.640
 2647SOL    HW1 8840   6.364   0.330   1.609
 2647SOL    HW2 8841   6.494   0.288   1.698
 2648SOL     OW 8842   0.237   0.403   3.999
 2648SOL    HW1 8843   0.250   0.368   4.092
 2648SOL    HW2 8844   0.195   0.332   3.942
 2649SOL     OW 8845   5.938   3.071   6.676
 2649SOL    HW1 8846   6.011   3.005   6.696
 2649SOL    HW2 8847   5.928   3.134   6.754
 2650SOL     OW 8848   0.630   4.354   4.196
 2650SOL    HW1 8849   0.582   4.337   4.110
 2650SOL    HW2 8850   0.643   4.268   4.245
 2651SOL     OW 8851   0.755   1.305   0.118
 2651SOL    HW1 8852   0.711   1.244   0.183
 2651SOL    HW2 8853   0.850   1.275   0.103
 2652SOL     OW 8854   3.523   4.006   3.951
 2652SOL    HW1 8855   3.428   4.015   3.922
 2652SOL    HW2 8856   3.583   4.034   3.876
 2653SOL     OW 8857   5.170   6.615   5.606
 2653SOL    HW1 8858   5.102   6.612   5.533
 2653SOL    HW2 8859   5.156   6.538   5.668
 2654SOL     OW 8860   5.103   5.271   1.071
 2654SOL    HW1 8861   5.086   5.234   1.163
 2654SOL    HW2 8862   5.020   5.263   1.016
 2655SOL     OW 8863   4.631   5.640   4.024
 2655SOL    HW1 8864   4.653   5.654   3.928
 2655SOL    HW2 8865   4.538   5.605   4.033
 2656SOL     OW 8866   3.274   4.942   3.861
 2656SOL    HW1 8867   3.296   4.957   3.957
 2656SOL    HW2 8868   3.350   4.975   3.804
 2657SOL     OW 8869   1.457   3.713   6.470
 2657SOL    HW1 8870   1.401   3.682   6.547
 2657SOL    HW2 8871   1.527   3.776   6.503
 2658SOL     OW 8872   4.952   4.608   0.308
 2658SOL    HW1 8873   4.917   4.518   0.333
 2658SOL    HW2 8874   4.952   4.618   0.209
 2659SOL     OW 8875   5.922   3.126   4.684
 2659SOL    HW1 8876   5.926   3.187   4.763
 2659SOL    HW2 8877   5.896   3.035   4.714
 2660SOL     OW 8878   1.027   1.070   1.061
 2660SOL    HW1 8879   0.986   1.024   1.139
 2660SOL    HW2 8880   1.013   1.015   0.979
 2661SOL     OW 8881   2.394   0.083   0.977
 2661SOL    HW1 8882   2.395   0.100   1.075
 2661SOL    HW2 8883   2.348   7.016   0.958
 2662SOL     OW 8884   4.574   6.585   5.745
 2662SOL    HW1 8885   4.483   6.600   5.784
 2662SOL    HW2 8886   4.627   6.669   5.753
 2663SOL     OW 8887   2.742   3.931   0.786
 2663SOL    HW1 8888   2.678   4.003   0.813
 2663SOL    HW2 8889   2.711   3.844   0.822
 2664SOL     OW 8890   3.897   4.283   5.439
 2664SOL    HW1 8891   3.977   4.283   5.379
 2664SOL    HW2 8892   3.814   4.278   5.383
 2665SOL     OW 8893   2.649   2.851   5.363
 2665SOL    HW1 8894   2.644   2.883   5.457
 2665SOL    HW2 8895   2.590   2.908   5.305
 2666SOL     OW 8896   5.787   4.274   1.037
 2666SOL    HW1 8897   5.748   4.276   0.945
 2666SOL    HW2 8898   5.821   4.182   1.056
 2667SOL     OW 8899   1.447   6.269   4.278
 2667SOL    HW1 8900   1.409   6.231   4.194
 2667SOL    HW2 8901   1.458   6.368   4.269
 2668SOL     OW 8902   6.560   3.673   4.435
 2668SOL    HW1 8903   6.622   3.747   4.407
 2668SOL    HW2 8904   6.610   3.608   4.493
 2669SOL     OW 8905   2.669   4.432   5.279
 2669SOL    HW1 8906   2.591   4.460   5.223
 2669SOL    HW2 8907   2.754   4.463   5.235
 2670SOL     OW 8908   6.006   2.701   6.630
 2670SOL    HW1 8909   6.061   2.668   6.552
 2670SOL    HW2 8910   5.931   2.756   6.596
 2671SOL     OW 8911   3.753   5.308   6.264
 2671SOL    HW1 8912   3.734   5.351   6.352
 2671SOL    HW2 8913   3.851   5.314   6.245
 2672SOL     OW 8914   0.422   5.405   0.760
 2672SOL    HW1 8915   0.386   5.324   0.806
 2672SOL    HW2 8916   0.492   5.448   0.816
 2673SOL     OW 8917   6.285   1.326   3.820
 2673SOL    HW1 8918   6.233   1.265   3.760
 2673SOL    HW2 8919   6.268   1.302   3.915
 2674SOL     OW 8920   1.101   4.342   3.387
 2674SOL    HW1 8921   1.147   4.429   3.406
 2674SOL    HW2 8922   1.134   4.273   3.451
 2675SOL     OW 8923   6.652   5.363   3.436
 2675SOL    HW1 8924   6.605   5.289   3.484
 2675SOL    HW2 8925   6.620   5.366   3.341
 2676SOL     OW 8926   4.203   1.749   0.586
 2676SOL    HW1 8927   4.300   1.748   0.613
 2676SOL    HW2 8928   4.177   1.843   0.561
 2677SOL     OW 8929   2.993   3.408   0.464
 2677SOL    HW1 8930   3.075   3.353   0.479
 2677SOL    HW2 8931   3.002   3.459   0.378
 2678SOL     OW 8932   0.394   2.800   1.339
 2678SOL    HW1 8933   0.388   2.811   1.438
 2678SOL    HW2 8934   0.479   2.753   1.315
 2679SOL     OW 8935   3.240   4.928   1.026
 2679SOL    HW1 8936   3.208   4.887   0.940
 2679SOL    HW2 8937   3.326   4.884   1.052
 2680SOL     OW 8938   1.270   1.249   0.584
 2680SOL    HW1 8939   1.370   1.243   0.586
 2680SOL    HW2 8940   1.243   1.335   0.541
 2681SOL     OW 8941   1.153   2.756   4.814
 2681SOL    HW1 8942   1.176   2.695   4.890
 2681SOL    HW2 8943   1.221   2.829   4.808
 2682SOL     OW 8944   5.132   4.597   2.322
 2682SOL    HW1 8945   5.064   4.596   2.395
 2682SOL    HW2 8946   5.129   4.510   2.273
 2683SOL     OW 8947   2.926   4.722   1.210
 2683SOL    HW1 8948   3.025   4.728   1.222
 2683SOL    HW2 8949   2.893   4.638   1.253
 2684SOL     OW 8950   4.325   5.588   1.087
 2684SOL    HW1 8951   4.264   5.515   1.055
 2684SOL    HW2 8952   4.292   5.623   1.175
 2685SOL     OW 8953   6.435   6.253   6.732
 2685SOL    HW1 8954   6.384   6.170   6.754
 2685SOL    HW2 8955   6.474   6.245   6.641
 2686SOL     OW 8956   1.850   2.024   5.569
 2686SOL    HW1 8957   1.877   1.981   5.483
 2686SOL    HW2 8958   1.880   2.119   5.569
 2687SOL     OW 8959   4.772   4.124   2.008
 2687SOL    HW1 8960   4.684   4.172   2.010
 2687SOL    HW2 8961   4.807   4.122   1.914
 2688SOL     OW 8962   4.216   4.286   0.243
 2688SOL    HW1 8963   4.214   4.386   0.250
 2688SOL    HW2 8964   4.176   4.258   0.156
 2689SOL     OW 8965   1.690   3.409   3.598
 2689SOL    HW1 8966   1.650   3.472   3.664
 2689SOL    HW2 8967   1.694   3.317   3.638
 2690SOL     OW 8968   3.536   3.546   3.459
 2690SOL    HW1 8969   3.613   3.583   3.512
 2690SOL    HW2 8970   3.532   3.447   3.470
 2691SOL     OW 8971   0.966   5.645   1.958
 2691SOL    HW1 8972   0.963   5.594   2.044
 2691SOL    HW2 8973   0.992   5.740   1.976
 2692SOL     OW 8974   3.382   5.511   2.525
 2692SOL    HW1 8975   3.313   5.539   2.458
 2692SOL    HW2 8976   3.342   5.444   2.588
 2693SOL     OW 8977   1.930   5.167   2.650
 2693SOL    HW1 8978   1.899   5.259   2.674
 2693SOL    HW2 8979   1.984   5.171   2.566
 2694SOL     OW 8980   4.219   6.446   2.886
 2694SOL    HW1 8981   4.210   6.463   2.788
 2694SOL    HW2 8982   4.148   6.496   2.935
 2695SOL     OW 8983   5.140   0.237   2.419
 2695SOL    HW1 8984   5.104   0.302   2.486
 2695SOL    HW2 8985   5.183   0.286   2.344
 2696SOL     OW 8986   3.741   3.544   5.422
 2696SOL    HW1 8987   3.819   3.507   5.372
 2696SOL    HW2 8988   3.734   3.642   5.406
 2697SOL     OW 8989   3.544   1.896   3.023
 2697SOL    HW1 8990   3.628   1.848   3.048
 2697SOL    HW2 8991   3.466   1.855   3.071
 2698SOL     OW 8992   2.383   6.557   0.408
 2698SOL    HW1 8993   2.399   6.461   0.432
 2698SOL    HW2 8994   2.341   6.562   0.317
 2699SOL     OW 8995   2.877   6.859   0.562
 2699SOL    HW1 8996   2.900   6.955   0.580
 2699SOL    HW2 8997   2.789   6.837   0.602
 2700SOL     OW 8998   2.236   3.884   0.779
 2700SOL    HW1 8999   2.223   3.829   0.697
 2700SOL    HW2 9000   2.151   3.930   0.803
 2701SOL     OW 9001   5.162   1.297   6.562
 2701SOL    HW1 9002   5.139   1.307   6.659
 2701SOL    HW2 9003   5.250   1.340   6.544
 2702SOL     OW 9004   0.800   3.219   3.843
 2702SOL    HW1 9005   0.774   3.204   3.938
 2702SOL    HW2 9006   0.755   3.301   3.808
 2703SOL     OW 9007   1.688   0.598   1.947
 2703SOL    HW1 9008   1.589   0.585   1.952
 2703SOL    HW2 9009   1.710   0.694   1.961
 2704SOL     OW 9010   6.978   6.643   1.398
 2704SOL    HW1 9011   6.933   6.605   1.479
 2704SOL    HW2 9012   0.015   6.720   1.426
 2705SOL     OW 9013   6.916   5.407   4.371
 2705SOL    HW1 9014   6.945   5.483   4.429
 2705SOL    HW2 9015   6.924   5.321   4.421
 2706SOL     OW 9016   0.212   0.023   1.617
 2706SOL    HW1 9017   0.279   0.035   1.544
 2706SOL    HW2 9018   0.171   0.112   1.640
 2707SOL     OW 9019   3.072   0.065   4.322
 2707SOL    HW1 9020   2.997   0.120   4.285
 2707SOL    HW2 9021   3.128   0.029   4.247
 2708SOL     OW 9022   0.441   2.421   6.556
 2708SOL    HW1 9023   0.446   2.383   6.649
 2708SOL    HW2 9024   0.408   2.351   6.494
 2709SOL     OW 9025   6.680   6.731   0.176
 2709SOL    HW1 9026   6.753   6.691   0.121
 2709SOL    HW2 9027   6.712   6.818   0.216
 2710SOL     OW 9028   0.977   3.736   3.713
 2710SOL    HW1 9029   0.931   3.713   3.798
 2710SOL    HW2 9030   1.067   3.776   3.733
 2711SOL     OW 9031   2.348   1.303   4.133
 2711SOL    HW1 9032   2.443   1.295   4.102
 2711SOL    HW2 9033   2.298   1.219   4.110
 2712SOL     OW 9034   2.983   4.316   0.990
 2712SOL    HW1 9035   2.897   4.347   0.951
 2712SOL    HW2 9036   2.982   4.216   1.000
 2713SOL     OW 9037   2.420   2.442   4.436
 2713SOL    HW1 9038   2.391   2.533   4.405
 2713SOL    HW2 9039   2.513   2.424   4.405
 2714SOL     OW 9040   4.325   2.240   0.368
 2714SOL    HW1 9041   4.330   2.301   0.289
 2714SOL    HW2 9042   4.266   2.281   0.438
 2715SOL     OW 9043   5.168   1.653   1.245
 2715SOL    HW1 9044   5.097   1.722   1.229
 2715SOL    HW2 9045   5.163   1.583   1.175
 2716SOL     OW 9046   5.286   4.232   2.759
 2716SOL    HW1 9047   5.238   4.170   2.822
 2716SOL    HW2 9048   5.384   4.228   2.776
 2717SOL     OW 9049   1.215   5.685   2.227
 2717SOL    HW1 9050   1.297   5.712   2.177
 2717SOL    HW2 9051   1.229   5.700   2.325
 2718SOL     OW 9052   2.181   1.866   5.273
 2718SOL    HW1 9053   2.152   1.782   5.227
 2718SOL    HW2 9054   2.112   1.892   5.340
 2719SOL     OW 9055   6.772   5.754   1.118
 2719SOL    HW1 9056   6.728   5.776   1.204
 2719SOL    HW2 9057   6.854   5.811   1.106
 2720SOL     OW 9058   2.055   5.884   2.195
 2720SOL    HW1 9059   1.957   5.873   2.178
 2720SOL    HW2 9060   2.104   5.801   2.166
 2721SOL     OW 9061   2.778   0.364   4.005
 2721SOL    HW1 9062   2.749   0.433   4.071
 2721SOL    HW2 9063   2.831   0.407   3.932
 2722SOL     OW 9064   6.570   5.505   1.463
 2722SOL    HW1 9065   6.513   5.425   1.446
 2722SOL    HW2 9066   6.656   5.496   1.413
 2723SOL     OW 9067   0.962   6.995   6.029
 2723SOL    HW1 9068   1.021   6.968   5.953
 2723SOL    HW2 9069   0.873   6.950   6.019
 2724SOL     OW 9070   2.092   6.893   6.745
 2724SOL    HW1 9071   2.010   6.943   6.720
 2724SOL    HW2 9072   2.169   6.923   6.689
 2725SOL     OW 9073   5.296   5.120   4.619
 2725SOL    HW1 9074   5.239   5.181   4.674
 2725SOL    HW2 9075   5.333   5.047   4.677
 2726SOL     OW 9076   7.009   2.949   1.125
 2726SOL    HW1 9077   6.959   2.935   1.039
 2726SOL    HW2 9078   0.000   3.048   1.140
 2727SOL     OW 9079   0.510   5.122   2.917
 2727SOL    HW1 9080   0.597   5.076   2.937
 2727SOL    HW2 9081   0.510   5.153   2.822
 2728SOL     OW 9082   4.040   6.506   5.750
 2728SOL    HW1 9083   4.114   6.446   5.779
 2728SOL    HW2 9084   4.078   6.586   5.704
 2729SOL     OW 9085   6.686   6.409   1.220
 2729SOL    HW1 9086   6.778   6.403   1.182
 2729SOL    HW2 9087   6.627   6.458   1.156
 2730SOL     OW 9088   1.613   5.536   1.562
 2730SOL    HW1 9089   1.709   5.530   1.535
 2730SOL    HW2 9090   1.586   5.632   1.570
 2731SOL     OW 9091   4.063   3.169   2.567
 2731SOL    HW1 9092   4.097   3.097   2.627
 2731SOL    HW2 9093   3.965   3.184   2.584
 2732SOL     OW 9094   5.547   2.044   1.822
 2732SOL    HW1 9095   5.586   2.020   1.733
 2732SOL    HW2 9096   5.578   2.136   1.847
 2733SOL     OW 9097   6.978   6.895   4.148
 2733SOL    HW1 9098   6.898   6.935   4.193
 2733SOL    HW2 9099   0.034   6.959   4.151
 2734SOL     OW 9100   2.253   6.043   1.616
 2734SOL    HW1 9101   2.317   6.102   1.567
 2734SOL    HW2 9102   2.176   6.021   1.557
 2735SOL     OW 9103   1.043   3.558   2.677
 2735SOL    HW1 9104   0.996   3.506   2.748
 2735SOL    HW2 9105   1.035   3.656   2.695
 2736SOL     OW 9106   4.897   6.804   5.097
 2736SOL    HW1 9107   4.937   6.858   5.172
 2736SOL    HW2 9108   4.926   6.842   5.009
 2737SOL     OW 9109   3.614   3.272   5.446
 2737SOL    HW1 9110   3.698   3.322   5.467
 2737SOL    HW2 9111   3.552   3.276   5.524
 2738SOL     OW 9112   5.296   5.379   3.230
 2738SOL    HW1 9113   5.331   5.374   3.324
 2738SOL    HW2 9114   5.197   5.390   3.232
 2739SOL     OW 9115   0.088   5.171   1.225
 2739SOL    HW1 9116   7.019   5.180   1.181
 2739SOL    HW2 9117   0.152   5.237   1.185
 2740SOL     OW 9118   6.887   3.776   2.739
 2740SOL    HW1 9119   6.868   3.701   2.803
 2740SOL    HW2 9120   6.800   3.808   2.699
 2741SOL     OW 9121   6.331   0.317   5.581
 2741SOL    HW1 9122   6.317   0.272   5.670
 2741SOL    HW2 9123   6.290   0.408   5.583
 2742SOL     OW 9124   1.786   5.302   6.388
 2742SOL    HW1 9125   1.882   5.324   6.370
 2742SOL    HW2 9126   1.735   5.387   6.405
 2743SOL     OW 9127   6.765   5.176   2.204
 2743SOL    HW1 9128   6.695   5.247   2.214
 2743SOL    HW2 9129   6.845   5.202   2.258
 2744SOL     OW 9130   5.117   1.751   6.598
 2744SOL    HW1 9131   5.052   1.794   6.660
 2744SOL    HW2 9132   5.210   1.766   6.632
 2745SOL     OW 9133   0.306   6.672   5.894
 2745SOL    HW1 9134   0.334   6.705   5.985
 2745SOL    HW2 9135   0.212   6.638   5.899
 2746SOL     OW 9136   2.459   2.267   4.080
 2746SOL    HW1 9137   2.493   2.192   4.138
 2746SOL    HW2 9138   2.457   2.237   3.985
 2747SOL     OW 9139   5.945   3.849   6.285
 2747SOL    HW1 9140   5.855   3.887   6.307
 2747SOL    HW2 9141   6.014   3.891   6.344
 2748SOL     OW 9142   5.668   1.580   1.464
 2748SOL    HW1 9143   5.668   1.626   1.376
 2748SOL    HW2 9144   5.761   1.579   1.502
 2749SOL     OW 9145   6.504   4.906   2.956
 2749SOL    HW1 9146   6.503   4.903   3.055
 2749SOL    HW2 9147   6.599   4.919   2.924
 2750SOL     OW 9148   0.409   5.347   1.276
 2750SOL    HW1 9149   0.425   5.249   1.262
 2750SOL    HW2 9150   0.314   5.362   1.304
 2751SOL     OW 9151   0.440   6.592   1.271
 2751SOL    HW1 9152   0.363   6.561   1.326
 2751SOL    HW2 9153   0.432   6.691   1.256
 2752SOL     OW 9154   4.395   4.673   5.877
 2752SOL    HW1 9155   4.452   4.595   5.903
 2752SOL    HW2 9156   4.451   4.742   5.832
 2753SOL     OW 9157   0.183   6.569   5.375
 2753SOL    HW1 9158   0.124   6.489   5.367
 2753SOL    HW2 9159   0.258   6.562   5.309
 2754SOL     OW 9160   0.244   0.593   3.116
 2754SOL    HW1 9161   0.205   0.667   3.171
 2754SOL    HW2 9162   0.248   0.621   3.020
 2755SOL     OW 9163   2.025   6.822   3.495
 2755SOL    HW1 9164   1.936   6.863   3.477
 2755SOL    HW2 9165   2.096   6.892   3.494
 2756SOL     OW 9166   5.833   4.350   6.366
 2756SOL    HW1 9167   5.839   4.275   6.301
 2756SOL    HW2 9168   5.897   4.422   6.340
 2757SOL     OW 9169   2.243   1.040   6.183
 2757SOL    HW1 9170   2.327   1.022   6.132
 2757SOL    HW2 9171   2.219   1.137   6.175
 2758SOL     OW 9172   4.942   6.122   2.990
 2758SOL    HW1 9173   4.844   6.111   3.009
 2758SOL    HW2 9174   4.976   6.205   3.035
 2759SOL     OW 9175   5.053   5.639   5.528
 2759SOL    HW1 9176   4.972   5.583   5.509
 2759SOL    HW2 9177   5.054   5.662   5.626
 2760SOL     OW 9178   0.095   5.902   2.866
 2760SOL    HW1 9179   0.012   5.847   2.864
 2760SOL    HW2 9180   0.082   5.985   2.811
 2761SOL     OW 9181   2.099   4.135   5.092
 2761SOL    HW1 9182   2.176   4.092   5.045
 2761SOL    HW2 9183   2.132   4.184   5.173
 2762SOL     OW 9184   2.096   0.817   6.126
 2762SOL    HW1 9185   2.151   0.755   6.182
 2762SOL    HW2 9186   2.138   0.908   6.128
 2763SOL     OW 9187   4.639   2.299   5.034
 2763SOL    HW1 9188   4.736   2.319   5.044
 2763SOL    HW2 9189   4.586   2.380   5.058
 2764SOL     OW 9190   0.121   1.069   1.541
 2764SOL    HW1 9191   0.151   0.994   1.482
 2764SOL    HW2 9192   0.028   1.050   1.574
 2765SOL     OW 9193   6.551   6.700   0.644
 2765SOL    HW1 9194   6.594   6.610   0.642
 2765SOL    HW2 9195   6.494   6.711   0.562
 2766SOL     OW 9196   4.724   2.670   0.430
 2766SOL    HW1 9197   4.685   2.578   0.438
 2766SOL    HW2 9198   4.686   2.729   0.501
 2767SOL     OW 9199   6.666   5.465   0.543
 2767SOL    HW1 9200   6.716   5.533   0.490
 2767SOL    HW2 9201   6.661   5.379   0.492
 2768SOL     OW 9202   4.618   0.262   1.287
 2768SOL    HW1 9203   4.648   0.310   1.369
 2768SOL    HW2 9204   4.692   0.205   1.253
 2769SOL     OW 9205   1.595   4.671   6.422
 2769SOL    HW1 9206   1.544   4.756   6.413
 2769SOL    HW2 9207   1.555   4.616   6.495
 2770SOL     OW 9208   4.420   5.305   5.800
 2770SOL    HW1 9209   4.335   5.288   5.749
 2770SOL    HW2 9210   4.446   5.222   5.849
 2771SOL     OW 9211   5.860   1.169   4.571
 2771SOL    HW1 9212   5.891   1.171   4.666
 2771SOL    HW2 9213   5.809   1.085   4.554
 2772SOL     OW 9214   3.792   1.106   0.894
 2772SOL    HW1 9215   3.783   1.169   0.971
 2772SOL    HW2 9216   3.843   1.025   0.924
 2773SOL     OW 9217   6.506   2.099   4.583
 2773SOL    HW1 9218   6.444   2.140   4.516
 2773SOL    HW2 9219   6.467   2.014   4.617
 2774SOL     OW 9220   5.494   2.474   3.429
 2774SOL    HW1 9221   5.511   2.421   3.512
 2774SOL    HW2 9222   5.411   2.441   3.385
 2775SOL     OW 9223   6.952   3.936   5.565
 2775SOL    HW1 9224   6.882   3.923   5.495
 2775SOL    HW2 9225   6.927   3.885   5.647
 2776SOL     OW 9226   4.740   4.223   5.880
 2776SOL    HW1 9227   4.756   4.276   5.797
 2776SOL    HW2 9228   4.650   4.178   5.874
 2777SOL     OW 9229   2.862   1.983   1.356
 2777SOL    HW1 9230   2.861   2.083   1.355
 2777SOL    HW2 9231   2.934   1.950   1.294
 2778SOL     OW 9232   1.621   6.903   6.035
 2778SOL    HW1 9233   1.660   6.811   6.037
 2778SOL    HW2 9234   1.542   6.907   6.096
 2779SOL     OW 9235   5.467   6.151   2.612
 2779SOL    HW1 9236   5.410   6.171   2.692
 2779SOL    HW2 9237   5.423   6.187   2.530
 2780SOL     OW 9238   0.716   6.879   5.957
 2780SOL    HW1 9239   0.684   6.786   5.971
 2780SOL    HW2 9240   0.726   6.897   5.859
 2781SOL     OW 9241   6.016   0.337   1.800
 2781SOL    HW1 9242   5.929   0.293   1.778
 2781SOL    HW2 9243   5.999   0.427   1.840
 2782SOL     OW 9244   4.535   1.021   4.975
 2782SOL    HW1 9245   4.627   0.986   4.995
 2782SOL    HW2 9246   4.468   0.972   5.030
 2783SOL     OW 9247   5.347   4.185   2.325
 2783SOL    HW1 9248   5.295   4.147   2.401
 2783SOL    HW2 9249   5.438   4.143   2.323
 2784SOL     OW 9250   3.652   0.997   2.148
 2784SOL    HW1 9251   3.582   1.038   2.091
 2784SOL    HW2 9252   3.612   0.924   2.203
 2785SOL     OW 9253   5.824   2.120   0.905
 2785SOL    HW1 9254   5.820   2.214   0.937
 2785SOL    HW2 9255   5.801   2.058   0.981
 2786SOL     OW 9256   5.401   6.710   2.486
 2786SOL    HW1 9257   5.311   6.668   2.487
 2786SOL    HW2 9258   5.410   6.767   2.404
 2787SOL     OW 9259   5.501   6.636   5.574
 2787SOL    HW1 9260   5.425   6.688   5.614
 2787SOL    HW2 9261   5.523   6.558   5.634
 2788SOL     OW 9262   2.289   6.405   5.843
 2788SOL    HW1 9263   2.351   6.386   5.919
 2788SOL    HW2 9264   2.336   6.463   5.776
 2789SOL     OW 9265   1.815   2.207   4.058
 2789SOL    HW1 9266   1.893   2.161   4.014
 2789SOL    HW2 9267   1.737   2.145   4.060
 2790SOL     OW 9268   3.542   5.753   1.820
 2790SOL    HW1 9269   3.453   5.716   1.793
 2790SOL    HW2 9270   3.597   5.680   1.861
 2791SOL     OW 9271   0.422   2.925   2.406
 2791SOL    HW1 9272   0.472   2.991   2.348
 2791SOL    HW2 9273   0.363   2.975   2.469
 2792SOL     OW 9274   1.888   0.651   3.924
 2792SOL    HW1 9275   1.897   0.554   3.946
 2792SOL    HW2 9276   1.970   0.682   3.875
 2793SOL     OW 9277   5.281   3.601   1.288
 2793SOL    HW1 9278   5.194   3.576   1.246
 2793SOL    HW2 9279   5.266   3.636   1.380
 2794SOL     OW 9280   6.648   1.939   6.143
 2794SOL    HW1 9281   6.614   1.851   6.108
 2794SOL    HW2 9282   6.596   1.964   6.225
 2795SOL     OW 9283   0.912   3.403   1.035
 2795SOL    HW1 9284   0.916   3.328   1.102
 2795SOL    HW2 9285   0.958   3.483   1.073
 2796SOL     OW 9286   0.266   6.394   3.370
 2796SOL    HW1 9287   0.225   6.303   3.375
 2796SOL    HW2 9288   0.238   6.438   3.284
 2797SOL     OW 9289   5.186   5.259   5.261
 2797SOL    HW1 9290   5.209   5.170   5.223
 2797SOL    HW2 9291   5.265   5.319   5.257
 2798SOL     OW 9292   6.298   5.477   2.579
 2798SOL    HW1 9293   6.247   5.417   2.641
 2798SOL    HW2 9294   6.316   5.429   2.493
 2799SOL     OW 9295   5.708   5.270   5.848
 2799SOL    HW1 9296   5.624   5.276   5.901
 2799SOL    HW2 9297   5.705   5.335   5.772
 2800SOL     OW 9298   4.599   6.204   5.979
 2800SOL    HW1 9299   4.522   6.254   6.019
 2800SOL    HW2 9300   4.632   6.136   6.045
 2801SOL     OW 9301   0.120   5.124   5.651
 2801SOL    HW1 9302   0.101   5.221   5.634
 2801SOL    HW2 9303   0.061   5.068   5.592
 2802SOL     OW 9304   5.194   6.380   5.347
 2802SOL    HW1 9305   5.283   6.408   5.311
 2802SOL    HW2 9306   5.206   6.342   5.439
 2803SOL     OW 9307   4.023   5.364   6.283
 2803SOL    HW1 9308   3.991   5.457   6.299
 2803SOL    HW2 9309   4.109   5.348   6.332
 2804SOL     OW 9310   1.091   4.226   5.418
 2804SOL    HW1 9311   1.048   4.312   5.444
 2804SOL    HW2 9312   1.105   4.225   5.319
 2805SOL     OW 9313   5.886   3.613   2.829
 2805SOL    HW1 9314   5.933   3.669   2.760
 2805SOL    HW2 9315   5.813   3.560   2.784
 2806SOL     OW 9316   1.774   3.978   6.040
 2806SOL    HW1 9317   1.787   3.975   5.941
 2806SOL    HW2 9318   1.683   3.943   6.063
 2807SOL     OW 9319   3.768   6.770   3.964
 2807SOL    HW1 9320   3.773   6.702   4.036
 2807SOL    HW2 9321   3.858   6.783   3.923
 2808SOL     OW 9322   6.263   5.289   1.924
 2808SOL    HW1 9323   6.304   5.210   1.969
 2808SOL    HW2 9324   6.173   5.308   1.964
 2809SOL     OW 9325   5.170   2.647   0.748
 2809SOL    HW1 9326   5.230   2.677   0.673
 2809SOL    HW2 9327   5.215   2.665   0.836
 2810SOL     OW 9328   2.167   5.648   2.882
 2810SOL    HW1 9329   2.252   5.638   2.934
 2810SOL    HW2 9330   2.189   5.678   2.789
 2811SOL     OW 9331   1.665   1.976   3.880
 2811SOL    HW1 9332   1.617   2.010   3.961
 2811SOL    HW2 9333   1.600   1.925   3.823
 2812SOL     OW 9334   5.833   3.048   0.121
 2812SOL    HW1 9335   5.932   3.063   0.128
 2812SOL    HW2 9336   5.790   3.062   0.210
 2813SOL     OW 9337   1.215   0.924   6.610
 2813SOL    HW1 9338   1.250   0.937   6.702
 2813SOL    HW2 9339   1.115   0.917   6.613
 2814SOL     OW 9340   3.399   4.209   5.627
 2814SOL    HW1 9341   3.471   4.179   5.564
 2814SOL    HW2 9342   3.419   4.302   5.657
 2815SOL     OW 9343   0.059   5.241   6.235
 2815SOL    HW1 9344   7.004   5.257   6.170
 2815SOL    HW2 9345   0.059   5.144   6.261
 2816SOL     OW 9346   6.530   5.750   3.652
 2816SOL    HW1 9347   6.506   5.786   3.562
 2816SOL    HW2 9348   6.593   5.813   3.697
 2817SOL     OW 9349   3.239   0.204   1.961
 2817SOL    HW1 9350   3.146   0.222   1.994
 2817SOL    HW2 9351   3.301   0.197   2.039
 2818SOL     OW 9352   0.422   0.793   2.539
 2818SOL    HW1 9353   0.410   0.852   2.619
 2818SOL    HW2 9354   0.333   0.773   2.499
 2819SOL     OW 9355   2.300   0.469   1.565
 2819SOL    HW1 9356   2.236   0.415   1.621
 2819SOL    HW2 9357   2.273   0.565   1.567
 2820SOL     OW 9358   1.258   2.090   3.663
 2820SOL    HW1 9359   1.161   2.086   3.641
 2820SOL    HW2 9360   1.302   2.162   3.610
 2821SOL     OW 9361   3.965   4.996   5.996
 2821SOL    HW1 9362   3.991   4.976   5.901
 2821SOL    HW2 9363   4.008   5.081   6.026
 2822SOL     OW 9364   4.124   1.800   0.105
 2822SOL    HW1 9365   4.038   1.767   0.066
 2822SOL    HW2 9366   4.146   1.748   0.187
 2823SOL     OW 9367   5.044   1.063   0.918
 2823SOL    HW1 9368   5.036   1.078   1.016
 2823SOL    HW2 9369   5.133   1.096   0.886
 2824SOL     OW 9370   2.271   1.891   4.662
 2824SOL    HW1 9371   2.203   1.956   4.630
 2824SOL    HW2 9372   2.255   1.802   4.619
 2825SOL     OW 9373   5.449   6.454   6.509
 2825SOL    HW1 9374   5.377   6.523   6.499
 2825SOL    HW2 9375   5.417   6.367   6.473
 2826SOL     OW 9376   4.719   2.354   0.005
 2826SOL    HW1 9377   4.628   2.326   6.994
 2826SOL    HW2 9378   4.755   2.424   6.963
 2827SOL     OW 9379   0.387   1.051   6.495
 2827SOL    HW1 9380   0.449   1.011   6.429
 2827SOL    HW2 9381   0.421   1.035   6.587
 2828SOL     OW 9382   2.171   2.479   0.498
 2828SOL    HW1 9383   2.264   2.494   0.533
 2828SOL    HW2 9384   2.171   2.399   0.438
 2829SOL     OW 9385   3.395   2.911   3.456
 2829SOL    HW1 9386   3.301   2.877   3.453
 2829SOL    HW2 9387   3.398   2.997   3.506
 2830SOL     OW 9388   3.176   4.441   5.319
 2830SOL    HW1 9389   3.090   4.481   5.286
 2830SOL    HW2 9390   3.159   4.394   5.406
 2831SOL     OW 9391   0.733   3.443   3.166
 2831SOL    HW1 9392   0.804   3.376   3.184
 2831SOL    HW2 9393   0.646   3.396   3.148
 2832SOL     OW 9394   0.743   2.931   1.874
 2832SOL    HW1 9395   0.664   2.992   1.886
 2832SOL    HW2 9396   0.751   2.904   1.779
 2833SOL     OW 9397   2.975   1.501   2.637
 2833SOL    HW1 9398   2.949   1.442   2.561
 2833SOL    HW2 9399   2.904   1.571   2.650
 2834SOL     OW 9400   3.706   6.294   5.716
 2834SOL    HW1 9401   3.624   6.299   5.660
 2834SOL    HW2 9402   3.723   6.199   5.742
 2835SOL     OW 9403   0.384   6.860   1.151
 2835SOL    HW1 9404   0.463   6.899   1.198
 2835SOL    HW2 9405   0.399   6.866   1.052
 2836SOL     OW 9406   0.722   6.478   1.889
 2836SOL    HW1 9407   0.636   6.448   1.930
 2836SOL    HW2 9408   0.713   6.477   1.789
 2837SOL     OW 9409   4.962   4.593   2.555
 2837SOL    HW1 9410   4.918   4.680   2.534
 2837SOL    HW2 9411   4.893   4.527   2.585
 2838SOL     OW 9412   4.173   3.789   0.814
 2838SOL    HW1 9413   4.120   3.734   0.749
 2838SOL    HW2 9414   4.171   3.885   0.787
 2839SOL     OW 9415   6.870   2.238   3.101
 2839SOL    HW1 9416   6.946   2.201   3.046
 2839SOL    HW2 9417   6.783   2.206   3.062
 2840SOL     OW 9418   1.964   6.859   2.050
 2840SOL    HW1 9419   2.054   6.844   2.007
 2840SOL    HW2 9420   1.901   6.894   1.981
 2841SOL     OW 9421   6.282   2.313   6.329
 2841SOL    HW1 9422   6.237   2.226   6.308
 2841SOL    HW2 9423   6.225   2.365   6.392
 2842SOL     OW 9424   6.981   4.794   3.983
 2842SOL    HW1 9425   0.058   4.786   4.005
 2842SOL    HW2 9426   6.967   4.874   3.925
 2843SOL     OW 9427   2.783   2.326   3.083
 2843SOL    HW1 9428   2.835   2.287   3.159
 2843SOL    HW2 9429   2.704   2.376   3.118
 2844SOL     OW 9430   6.234   5.578   0.402
 2844SOL    HW1 9431   6.305   5.641   0.371
 2844SOL    HW2 9432   6.272   5.517   0.472
 2845SOL     OW 9433   5.549   3.131   2.120
 2845SOL    HW1 9434   5.483   3.144   2.046
 2845SOL    HW2 9435   5.511   3.169   2.205
 2846SOL     OW 9436   4.274   0.228   0.605
 2846SOL    HW1 9437   4.178   0.249   0.626
 2846SOL    HW2 9438   4.307   0.290   0.534
 2847SOL     OW 9439   5.158   4.019   2.914
 2847SOL    HW1 9440   5.157   3.939   2.975
 2847SOL    HW2 9441   5.066   4.056   2.906
 2848SOL     OW 9442   2.577   2.521   5.216
 2848SOL    HW1 9443   2.495   2.535   5.271
 2848SOL    HW2 9444   2.571   2.576   5.133
 2849SOL     OW 9445   3.780   0.243   0.947
 2849SOL    HW1 9446   3.720   0.277   0.874
 2849SOL    HW2 9447   3.733   0.252   1.035
 2850SOL     OW 9448   1.995   0.398   2.894
 2850SOL    HW1 9449   2.057   0.408   2.972
 2850SOL    HW2 9450   2.032   0.448   2.815
 2851SOL     OW 9451   6.000   2.246   6.527
 2851SOL    HW1 9452   6.006   2.331   6.473
 2851SOL    HW2 9453   5.940   2.181   6.481
 2852SOL     OW 9454   6.765   4.133   6.831
 2852SOL    HW1 9455   6.839   4.176   6.883
 2852SOL    HW2 9456   6.705   4.082   6.894
 2853SOL     OW 9457   1.765   2.384   6.019
 2853SOL    HW1 9458   1.797   2.468   6.061
 2853SOL    HW2 9459   1.838   2.315   6.020
 2854SOL     OW 9460   3.833   1.012   5.739
 2854SOL    HW1 9461   3.829   0.969   5.649
 2854SOL    HW2 9462   3.842   0.941   5.809
 2855SOL     OW 9463   1.734   1.744   5.495
 2855SOL    HW1 9464   1.781   1.822   5.535
 2855SOL    HW2 9465   1.698   1.769   5.405
 2856SOL     OW 9466   0.682   3.671   5.139
 2856SOL    HW1 9467   0.688   3.573   5.154
 2856SOL    HW2 9468   0.589   3.695   5.109
 2857SOL     OW 9469   0.938   2.466   0.988
 2857SOL    HW1 9470   0.946   2.535   0.916
 2857SOL    HW2 9471   0.843   2.439   0.998
 2858SOL     OW 9472   4.294   5.111   2.468
 2858SOL    HW1 9473   4.231   5.042   2.433
 2858SOL    HW2 9474   4.250   5.201   2.465
 2859SOL     OW 9475   6.713   0.206   6.444
 2859SOL    HW1 9476   6.698   0.211   6.543
 2859SOL    HW2 9477   6.644   0.261   6.397
 2860SOL     OW 9478   2.146   1.530   2.408
 2860SOL    HW1 9479   2.184   1.563   2.321
 2860SOL    HW2 9480   2.150   1.602   2.476
 2861SOL     OW 9481   2.964   5.559   5.166
 2861SOL    HW1 9482   3.010   5.519   5.087
 2861SOL    HW2 9483   2.908   5.636   5.136
 2862SOL     OW 9484   4.348   2.191   1.330
 2862SOL    HW1 9485   4.359   2.166   1.426
 2862SOL    HW2 9486   4.434   2.228   1.295
 2863SOL     OW 9487   4.784   1.303   6.667
 2863SOL    HW1 9488   4.724   1.378   6.696
 2863SOL    HW2 9489   4.741   1.215   6.690
 2864SOL     OW 9490   4.850   2.213   1.041
 2864SOL    HW1 9491   4.907   2.262   1.107
 2864SOL    HW2 9492   4.813   2.131   1.084
 2865SOL     OW 9493   4.192   6.192   4.135
 2865SOL    HW1 9494   4.168   6.097   4.112
 2865SOL    HW2 9495   4.257   6.192   4.210
 2866SOL     OW 9496   5.616   4.845   6.495
 2866SOL    HW1 9497   5.712   4.837   6.466
 2866SOL    HW2 9498   5.612   4.891   6.583
 2867SOL     OW 9499   5.982   6.584   2.694
 2867SOL    HW1 9500   5.914   6.538   2.752
 2867SOL    HW2 9501   5.940   6.608   2.607
 2868SOL     OW 9502   1.545   1.180   5.925
 2868SOL    HW1 9503   1.587   1.093   5.899
 2868SOL    HW2 9504   1.613   1.253   5.921
 2869SOL     OW 9505   6.799   1.049   3.036
 2869SOL    HW1 9506   6.739   1.023   2.961
 2869SOL    HW2 9507   6.746   1.097   3.106
 2870SOL     OW 9508   0.874   1.536   5.561
 2870SOL    HW1 9509   0.775   1.547   5.569
 2870SOL    HW2 9510   0.904   1.566   5.471
 2871SOL     OW 9511   5.915   0.988   0.154
 2871SOL    HW1 9512   5.830   0.971   0.105
 2871SOL    HW2 9513   5.897   1.051   0.231
 2872SOL     OW 9514   2.466   2.244   1.530
 2872SOL    HW1 9515   2.558   2.228   1.497
 2872SOL    HW2 9516   2.457   2.207   1.623
 2873SOL     OW 9517   6.169   6.726   2.102
 2873SOL    HW1 9518   6.166   6.641   2.048
 2873SOL    HW2 9519   6.216   6.797   2.049
 2874SOL     OW 9520   4.229   6.477   2.564
 2874SOL    HW1 9521   4.278   6.495   2.479
 2874SOL    HW2 9522   4.154   6.413   2.546
 2875SOL     OW 9523   5.625   6.797   0.860
 2875SOL    HW1 9524   5.584   6.743   0.934
 2875SOL    HW2 9525   5.561   6.803   0.784
 2876SOL     OW 9526   1.945   0.726   2.769
 2876SOL    HW1 9527   2.026   0.700   2.821
 2876SOL    HW2 9528   1.971   0.754   2.677
 2877SOL     OW 9529   2.547   1.237   5.710
 2877SOL    HW1 9530   2.600   1.209   5.790
 2877SOL    HW2 9531   2.456   1.196   5.714
 2878SOL     OW 9532   3.144   4.224   5.478
 2878SOL    HW1 9533   3.168   4.169   5.399
 2878SOL    HW2 9534   3.217   4.220   5.546
 2879SOL     OW 9535   5.080   5.458   6.022
 2879SOL    HW1 9536   5.103   5.550   6.056
 2879SOL    HW2 9537   5.060   5.398   6.099
 2880SOL     OW 9538   0.249   2.010   2.860
 2880SOL    HW1 9539   0.243   1.954   2.777
 2880SOL    HW2 9540   0.344   2.039   2.873
 2881SOL     OW 9541   4.276   5.808   0.131
 2881SOL    HW1 9542   4.237   5.718   0.112
 2881SOL    HW2 9543   4.206   5.866   0.173
 2882SOL     OW 9544   6.874   5.722   1.797
 2882SOL    HW1 9545   6.861   5.713   1.698
 2882SOL    HW2 9546   6.802   5.672   1.845
 2883SOL     OW 9547   6.063   0.055   4.067
 2883SOL    HW1 9548   6.130   0.018   4.132
 2883SOL    HW2 9549   6.110   0.081   3.982
 2884SOL     OW 9550   1.133   6.857   2.806
 2884SOL    HW1 9551   1.038   6.827   2.805
 2884SOL    HW2 9552   1.184   6.807   2.735
 2885SOL     OW 9553   1.730   3.155   3.671
 2885SOL    HW1 9554   1.678   3.069   3.677
 2885SOL    HW2 9555   1.827   3.136   3.684
 2886SOL     OW 9556   1.903   3.482   6.412
 2886SOL    HW1 9557   1.856   3.426   6.480
 2886SOL    HW2 9558   2.001   3.462   6.413
 2887SOL     OW 9559   0.618   6.799   5.142
 2887SOL    HW1 9560   0.570   6.794   5.229
 2887SOL    HW2 9561   0.568   6.748   5.073
 2888SOL     OW 9562   0.174   3.964   6.891
 2888SOL    HW1 9563   0.220   3.962   6.980
 2888SOL    HW2 9564   0.211   3.891   6.833
 2889SOL     OW 9565   2.937   6.117   2.326
 2889SOL    HW1 9566   2.988   6.106   2.241
 2889SOL    HW2 9567   2.842   6.142   2.305
 2890SOL     OW 9568   1.945   6.483   0.264
 2890SOL    HW1 9569   1.989   6.405   0.309
 2890SOL    HW2 9570   1.845   6.471   0.269
 2891SOL     OW 9571   0.399   4.440   3.499
 2891SOL    HW1 9572   0.414   4.421   3.402
 2891SOL    HW2 9573   0.484   4.474   3.540
 2892SOL     OW 9574   6.439   2.966   0.892
 2892SOL    HW1 9575   6.429   3.053   0.844
 2892SOL    HW2 9576   6.444   2.891   0.826
 2893SOL     OW 9577   0.746   5.516   4.137
 2893SOL    HW1 9578   0.667   5.519   4.075
 2893SOL    HW2 9579   0.746   5.428   4.186
 2894SOL     OW 9580   0.059   2.979   2.275
 2894SOL    HW1 9581   7.020   2.904   2.244
 2894SOL    HW2 9582   0.062   2.980   2.375
 2895SOL     OW 9583   4.904   0.888   5.291
 2895SOL    HW1 9584   4.907   0.983   5.322
 2895SOL    HW2 9585   4.868   0.885   5.198
 2896SOL     OW 9586   4.481   6.640   5.430
 2896SOL    HW1 9587   4.547   6.676   5.495
 2896SOL    HW2 9588   4.521   6.641   5.338
 2897SOL     OW 9589   4.115   4.774   2.961
 2897SOL    HW1 9590   4.023   4.772   2.921
 2897SOL    HW2 9591   4.163   4.856   2.929
 2898SOL     OW 9592   4.477   4.603   4.331
 2898SOL    HW1 9593   4.541   4.599   4.408
 2898SOL    HW2 9594   4.521   4.563   4.250
 2899SOL     OW 9595   0.644   1.628   0.527
 2899SOL    HW1 9596   0.719   1.579   0.482
 2899SOL    HW2 9597   0.633   1.718   0.485
 2900SOL     OW 9598   2.777   4.611   6.832
 2900SOL    HW1 9599   2.876   4.618   6.823
 2900SOL    HW2 9600   2.753   4.603   6.929
 2901SOL     OW 9601   2.351   4.701   3.119
 2901SOL    HW1 9602   2.273   4.749   3.080
 2901SOL    HW2 9603   2.355   4.716   3.217
 2902SOL     OW 9604   5.921   5.089   3.216
 2902SOL    HW1 9605   6.005   5.086   3.162
 2902SOL    HW2 9606   5.943   5.097   3.313
 2903SOL     OW 9607   4.564   6.637   0.545
 2903SOL    HW1 9608   4.559   6.552   0.492
 2903SOL    HW2 9609   4.658   6.650   0.577
 2904SOL     OW 9610   2.365   5.021   4.531
 2904SOL    HW1 9611   2.416   4.974   4.459
 2904SOL    HW2 9612   2.326   4.953   4.593
 2905SOL     OW 9613   1.725   3.943   4.235
 2905SOL    HW1 9614   1.719   3.868   4.301
 2905SOL    HW2 9615   1.748   3.907   4.145
 2906SOL     OW 9616   4.573   4.784   2.490
 2906SOL    HW1 9617   4.519   4.776   2.574
 2906SOL    HW2 9618   4.656   4.837   2.508
 2907SOL     OW 9619   0.397   1.842   3.798
 2907SOL    HW1 9620   0.433   1.800   3.715
 2907SOL    HW2 9621   0.301   1.868   3.783
 2908SOL     OW 9622   5.241   6.320   3.694
 2908SOL    HW1 9623   5.178   6.315   3.771
 2908SOL    HW2 9624   5.198   6.279   3.613
 2909SOL     OW 9625   1.722   5.983   3.734
 2909SOL    HW1 9626   1.812   6.012   3.703
 2909SOL    HW2 9627   1.693   5.902   3.682
 2910SOL     OW 9628   5.639   0.476   4.438
 2910SOL    HW1 9629   5.616   0.379   4.425
 2910SOL    HW2 9630   5.618   0.502   4.532
 2911SOL     OW 9631   1.560   6.216   3.181
 2911SOL    HW1 9632   1.648   6.255   3.209
 2911SOL    HW2 9633   1.489   6.286   3.184
 2912SOL     OW 9634   5.866   6.548   0.523
 2912SOL    HW1 9635   5.892   6.459   0.486
 2912SOL    HW2 9636   5.791   6.587   0.469
 2913SOL     OW 9637   3.824   4.917   1.909
 2913SOL    HW1 9638   3.840   4.949   1.816
 2913SOL    HW2 9639   3.740   4.864   1.913
 2914SOL     OW 9640   6.631   6.003   6.518
 2914SOL    HW1 9641   6.644   5.960   6.607
 2914SOL    HW2 9642   6.700   5.968   6.454
 2915SOL     OW 9643   3.295   2.073   3.549
 2915SOL    HW1 9644   3.226   2.133   3.591
 2915SOL    HW2 9645   3.289   2.080   3.450
 2916SOL     OW 9646   1.174   5.862   0.461
 2916SOL    HW1 9647   1.240   5.790   0.439
 2916SOL    HW2 9648   1.086   5.821   0.482
 2917SOL     OW 9649   2.536   6.963   3.518
 2917SOL    HW1 9650   2.530   0.043   3.515
 2917SOL    HW2 9651   2.469   6.928   3.584
 2918SOL     OW 9652   6.204   4.219   5.347
 2918SOL    HW1 9653   6.303   4.231   5.336
 2918SOL    HW2 9654   6.165   4.301   5.390
 2919SOL     OW 9655   5.861   0.551   2.330
 2919SOL    HW1 9656   5.847   0.628   2.393
 2919SOL    HW2 9657   5.952   0.558   2.289
 2920SOL     OW 9658   2.842   1.223   1.242
 2920SOL    HW1 9659   2.911   1.210   1.171
 2920SOL    HW2 9660   2.830   1.321   1.260
 2921SOL     OW 9661   0.608   6.422   4.557
 2921SOL    HW1 9662   0.584   6.443   4.462
 2921SOL    HW2 9663   0.687   6.360   4.558
 2922SOL     OW 9664   5.083   6.997   1.384
 2922SOL    HW1 9665   4.983   7.006   1.379
 2922SOL    HW2 9666   5.121   7.010   1.292
 2923SOL     OW 9667   6.122   5.298   2.989
 2923SOL    HW1 9668   6.074   5.354   3.057
 2923SOL    HW2 9669   6.146   5.210   3.030
 2924SOL     OW 9670   6.603   2.219   5.684
 2924SOL    HW1 9671   6.635   2.279   5.611
 2924SOL    HW2 9672   6.623   2.261   5.772
 2925SOL     OW 9673   5.814   1.879   0.517
 2925SOL    HW1 9674   5.726   1.839   0.493
 2925SOL    HW2 9675   5.840   1.850   0.609
 2926SOL     OW 9676   6.020   1.500   6.330
 2926SOL    HW1 9677   5.950   1.434   6.356
 2926SOL    HW2 9678   6.110   1.469   6.362
 2927SOL     OW 9679   1.482   4.266   1.460
 2927SOL    HW1 9680   1.510   4.331   1.390
 2927SOL    HW2 9681   1.382   4.265   1.467
 2928SOL     OW 9682   0.447   0.597   6.512
 2928SOL    HW1 9683   0.388   0.675   6.490
 2928SOL    HW2 9684   0.390   0.520   6.540
 2929SOL     OW 9685   1.313   2.520   6.304
 2929SOL    HW1 9686   1.375   2.593   6.275
 2929SOL    HW2 9687   1.219   2.544   6.280
 2930SOL     OW 9688   5.220   6.866   5.861
 2930SOL    HW1 9689   5.167   6.951   5.861
 2930SOL    HW2 9690   5.220   6.827   5.769
 2931SOL     OW 9691   5.205   4.725   6.840
 2931SOL    HW1 9692   5.174   4.631   6.826
 2931SOL    HW2 9693   5.258   4.755   6.760
 2932SOL     OW 9694   0.974   6.011   1.924
 2932SOL    HW1 9695   1.054   6.064   1.899
 2932SOL    HW2 9696   0.995   5.956   2.005
 2933SOL     OW 9697   1.662   5.578   2.448
 2933SOL    HW1 9698   1.574   5.532   2.439
 2933SOL    HW2 9699   1.734   5.517   2.416
 2934SOL     OW 9700   5.122   1.563   0.045
 2934SOL    HW1 9701   5.190   1.533   0.112
 2934SOL    HW2 9702   5.032   1.526   0.070
 2935SOL     OW 9703   6.866   2.404   6.343
 2935SOL    HW1 9704   6.863   2.304   6.350
 2935SOL    HW2 9705   6.831   2.445   6.427
 2936SOL     OW 9706   4.814   6.250   0.303
 2936SOL    HW1 9707   4.756   6.252   0.385
 2936SOL    HW2 9708   4.849   6.157   0.289
 2937SOL     OW 9709   5.633   4.710   1.673
 2937SOL    HW1 9710   5.534   4.716   1.688
 2937SOL    HW2 9711   5.665   4.793   1.627
 2938SOL     OW 9712   5.020   5.027   6.441
 2938SOL    HW1 9713   4.957   5.084   6.494
 2938SOL    HW2 9714   5.089   4.988   6.502
 2939SOL     OW 9715   2.423   0.799   2.233
 2939SOL    HW1 9716   2.401   0.784   2.329
 2939SOL    HW2 9717   2.390   0.722   2.178
 2940SOL     OW 9718   5.699   4.984   5.422
 2940SOL    HW1 9719   5.750   5.042   5.359
 2940SOL    HW2 9720   5.618   5.033   5.455
 2941SOL     OW 9721   1.810   2.567   4.374
 2941SOL    HW1 9722   1.768   2.657   4.362
 2941SOL    HW2 9723   1.775   2.524   4.457
 2942SOL     OW 9724   4.116   2.065   0.620
 2942SOL    HW1 9725   4.175   2.146   0.624
 2942SOL    HW2 9726   4.033   2.086   0.569
 2943SOL     OW 9727   5.450   3.959   3.727
 2943SOL    HW1 9728   5.531   4.017   3.740
 2943SOL    HW2 9729   5.474   3.863   3.742
 2944SOL     OW 9730   2.849   6.078   4.514
 2944SOL    HW1 9731   2.944   6.048   4.524
 2944SOL    HW2 9732   2.789   6.008   4.553
 2945SOL     OW 9733   3.541   3.611   2.400
 2945SOL    HW1 9734   3.583   3.523   2.378
 2945SOL    HW2 9735   3.478   3.600   2.476
 2946SOL     OW 9736   1.432   5.116   6.072
 2946SOL    HW1 9737   1.379   5.035   6.099
 2946SOL    HW2 9738   1.518   5.087   6.031
 2947SOL     OW 9739   0.166   5.184   1.479
 2947SOL    HW1 9740   0.135   5.175   1.385
 2947SOL    HW2 9741   0.165   5.280   1.506
 2948SOL     OW 9742   0.301   4.102   4.169
 2948SOL    HW1 9743   0.385   4.049   4.178
 2948SOL    HW2 9744   0.271   4.132   4.260
 2949SOL     OW 9745   1.167   5.393   0.925
 2949SOL    HW1 9746   1.157   5.365   0.830
 2949SOL    HW2 9747   1.203   5.486   0.929
 2950SOL     OW 9748   5.380   5.452   4.502
 2950SOL    HW1 9749   5.319   5.503   4.563
 2950SOL    HW2 9750   5.327   5.382   4.453
 2951SOL     OW 9751   5.162   1.644   2.465
 2951SOL    HW1 9752   5.214   1.662   2.549
 2951SOL    HW2 9753   5.108   1.561   2.477
 2952SOL     OW 9754   0.198   5.573   5.266
 2952SOL    HW1 9755   0.136   5.651   5.275
 2952SOL    HW2 9756   0.193   5.517   5.349
 2953SOL     OW 9757   5.985   4.035   2.340
 2953SOL    HW1 9758   6.026   4.115   2.385
 2953SOL    HW2 9759   5.995   4.043   2.241
 2954SOL     OW 9760   1.022   5.406   1.830
 2954SOL    HW1 9761   0.926   5.383   1.845
 2954SOL    HW2 9762   1.034   5.504   1.843
 2955SOL     OW 9763   0.802   4.161   1.562
 2955SOL    HW1 9764   0.723   4.207   1.601
 2955SOL    HW2 9765   0.779   4.065   1.544
 2956SOL     OW 9766   5.885   6.243   2.562
 2956SOL    HW1 9767   5.844   6.328   2.596
 2956SOL    HW2 9768   5.924   6.191   2.639
 2957SOL     OW 9769   5.412   4.311   1.448
 2957SOL    HW1 9770   5.431   4.343   1.541
 2957SOL    HW2 9771   5.322   4.345   1.419
 2958SOL     OW 9772   2.324   4.286   3.450
 2958SOL    HW1 9773   2.372   4.334   3.376
 2958SOL    HW2 9774   2.252   4.229   3.410
 2959SOL     OW 9775   4.790   3.802   0.842
 2959SOL    HW1 9776   4.884   3.786   0.811
 2959SOL    HW2 9777   4.788   3.804   0.942
 2960SOL     OW 9778   3.274   0.773   0.487
 2960SOL    HW1 9779   3.291   0.701   0.419
 2960SOL    HW2 9780   3.184   0.759   0.528
 2961SOL     OW 9781   6.117   4.688   3.281
 2961SOL    HW1 9782   6.029   4.640   3.282
 2961SOL    HW2 9783   6.167   4.665   3.198
 2962SOL     OW 9784   4.542   6.615   3.291
 2962SOL    HW1 9785   4.626   6.581   3.334
 2962SOL    HW2 9786   4.481   6.650   3.361
 2963SOL     OW 9787   1.440   1.093   6.194
 2963SOL    HW1 9788   1.464   1.139   6.108
 2963SOL    HW2 9789   1.517   1.096   6.257
 2964SOL     OW 9790   0.406   1.219   5.254
 2964SOL    HW1 9791   0.322   1.171   5.280
 2964SOL    HW2 9792   0.424   1.202   5.157
 2965SOL     OW 9793   0.598   1.038   4.241
 2965SOL    HW1 9794   0.603   1.121   4.185
 2965SOL    HW2 9795   0.690   1.014   4.273
 2966SOL     OW 9796   4.423   4.713   3.694
 2966SOL    HW1 9797   4.517   4.743   3.682
 2966SOL    HW2 9798   4.392   4.664   3.613
 2967SOL     OW 9799   6.118   0.984   4.836
 2967SOL    HW1 9800   6.024   0.951   4.833
 2967SOL    HW2 9801   6.119   1.082   4.857
 2968SOL     OW 9802   1.139   2.996   0.622
 2968SOL    HW1 9803   1.080   2.947   0.687
 2968SOL    HW2 9804   1.083   3.042   0.554
 2969SOL     OW 9805   5.022   2.685   4.636
 2969SOL    HW1 9806   4.985   2.646   4.552
 2969SOL    HW2 9807   4.949   2.732   4.686
 2970SOL     OW 9808   2.792   2.626   5.374
 2970SOL    HW1 9809   2.737   2.567   5.315
 2970SOL    HW2 9810   2.743   2.711   5.391
 2971SOL     OW 9811   5.117   4.137   0.363
 2971SOL    HW1 9812   5.031   4.090   0.344
 2971SOL    HW2 9813   5.192   4.092   0.313
 2972SOL     OW 9814   0.170   4.858   6.440
 2972SOL    HW1 9815   0.206   4.765   6.441
 2972SOL    HW2 9816   0.215   4.910   6.367
 2973SOL     OW 9817   5.076   5.808   1.573
 2973SOL    HW1 9818   5.105   5.894   1.613
 2973SOL    HW2 9819   4.991   5.822   1.522
 2974SOL     OW 9820   0.728   4.601   3.871
 2974SOL    HW1 9821   0.672   4.651   3.938
 2974SOL    HW2 9822   0.669   4.566   3.798
 2975SOL     OW 9823   5.152   3.804   4.050
 2975SOL    HW1 9824   5.068   3.749   4.056
 2975SOL    HW2 9825   5.131   3.898   4.076
 2976SOL     OW 9826   4.112   2.276   2.796
 2976SOL    HW1 9827   4.196   2.292   2.848
 2976SOL    HW2 9828   4.038   2.253   2.859
 2977SOL     OW 9829   1.904   0.454   2.491
 2977SOL    HW1 9830   1.868   0.361   2.482
 2977SOL    HW2 9831   2.004   0.451   2.491
 2978SOL     OW 9832   3.895   4.874   6.944
 2978SOL    HW1 9833   3.875   4.777   6.955
 2978SOL    HW2 9834   3.909   4.915   0.013
 2979SOL     OW 9835   3.944   1.370   3.657
 2979SOL    HW1 9836   3.927   1.395   3.753
 2979SOL    HW2 9837   4.034   1.327   3.650
 2980SOL     OW 9838   1.480   5.169   5.102
 2980SOL    HW1 9839   1.487   5.251   5.045
 2980SOL    HW2 9840   1.485   5.087   5.044
 2981SOL     OW 9841   3.062   0.926   6.239
 2981SOL    HW1 9842   3.146   0.882   6.270
 2981SOL    HW2 9843   3.076   0.964   6.147
 2982SOL     OW 9844   3.077   5.948   1.780
 2982SOL    HW1 9845   3.130   5.884   1.835
 2982SOL    HW2 9846   2.980   5.941   1.805
 2983SOL     OW 9847   6.120   2.313   2.672
 2983SOL    HW1 9848   6.042   2.344   2.618
 2983SOL    HW2 9849   6.205   2.341   2.627
 2984SOL     OW 9850   6.228   4.459   6.954
 2984SOL    HW1 9851   6.153   4.399   6.982
 2984SOL    HW2 9852   6.212   4.551   6.989
 2985SOL     OW 9853   2.065   2.735   4.790
 2985SOL    HW1 9854   1.965   2.731   4.790
 2985SOL    HW2 9855   2.095   2.826   4.821
 2986SOL     OW 9856   3.614   4.163   3.025
 2986SOL    HW1 9857   3.547   4.203   3.087
 2986SOL    HW2 9858   3.703   4.158   3.071
 2987SOL     OW 9859   1.024   1.912   4.049
 2987SOL    HW1 9860   1.021   1.941   4.145
 2987SOL    HW2 9861   0.948   1.953   4.000
 2988SOL     OW 9862   1.730   6.313   2.736
 2988SOL    HW1 9863   1.769   6.257   2.808
 2988SOL    HW2 9864   1.778   6.401   2.732
 2989SOL     OW 9865   5.299   5.505   5.545
 2989SOL    HW1 9866   5.215   5.554   5.521
 2989SOL    HW2 9867   5.297   5.483   5.643
 2990SOL     OW 9868   3.473   1.634   4.476
 2990SOL    HW1 9869   3.551   1.684   4.513
 2990SOL    HW2 9870   3.453   1.666   4.383
 2991SOL     OW 9871   6.605   3.651   5.966
 2991SOL    HW1 9872   6.534   3.581   5.965
 2991SOL    HW2 9873   6.604   3.701   5.879
 2992SOL     OW 9874   1.421   5.200   4.702
 2992SOL    HW1 9875   1.481   5.226   4.626
 2992SOL    HW2 9876   1.443   5.256   4.782
 2993SOL     OW 9877   0.089   4.893   1.232
 2993SOL    HW1 9878   0.150   4.904   1.311
 2993SOL    HW2 9879   0.037   4.977   1.219
 2994SOL     OW 9880   3.707   6.548   6.851
 2994SOL    HW1 9881   3.779   6.596   6.900
 2994SOL    HW2 9882   3.692   6.592   6.762
 2995SOL     OW 9883   3.312   1.360   6.489
 2995SOL    HW1 9884   3.366   1.443   6.500
 2995SOL    HW2 9885   3.226   1.369   6.539
 2996SOL     OW 9886   0.582   1.388   4.876
 2996SOL    HW1 9887   0.670   1.428   4.850
 2996SOL    HW2 9888   0.509   1.425   4.818
 2997SOL     OW 9889   5.145   7.006   3.111
 2997SOL    HW1 9890   5.203   7.012   3.030
 2997SOL    HW2 9891   5.135   6.910   3.137
 2998SOL     OW 9892   5.474   6.405   3.419
 2998SOL    HW1 9893   5.417   6.470   3.369
 2998SOL    HW2 9894   5.432   6.314   3.416
 2999SOL     OW 9895   2.349   5.030   4.935
 2999SOL    HW1 9896   2.395   4.957   4.884
 2999SOL    HW2 9897   2.255   5.001   4.956
 3000SOL     OW 9898   3.328   3.954   6.263
 3000SOL    HW1 9899   3.391   3.964   6.186
 3000SOL    HW2 9900   3.364   3.887   6.328
 3001SOL     OW 9901   6.678   1.019   6.097
 3001SOL    HW1 9902   6.737   1.072   6.036
 3001SOL    HW2 9903   6.713   0.925   6.103
 3002SOL     OW 9904   3.224   1.888   6.630
 3002SOL    HW1 9905   3.130   1.894   6.663
 3002SOL    HW2 9906   3.228   1.918   6.534
 3003SOL     OW 9907   1.328   6.636   0.917
 3003SOL    HW1 9908   1.265   6.653   0.993
 3003SOL    HW2 9909   1.412   6.688   0.930
 3004SOL     OW 9910   0.423   3.807   2.885
 3004SOL    HW1 9911   0.410   3.737   2.814
 3004SOL    HW2 9912   0.386   3.774   2.972
 3005SOL     OW 9913   1.620   3.054   6.926
 3005SOL    HW1 9914   1.633   3.043   6.827
 3005SOL    HW2 9915   1.554   3.128   6.943
 3006SOL     OW 9916   5.375   2.085   4.329
 3006SOL    HW1 9917   5.388   2.092   4.231
 3006SOL    HW2 9918   5.464   2.075   4.374
 3007SOL     OW 9919   5.649   3.932   0.775
 3007SOL    HW1 9920   5.656   3.842   0.818
 3007SOL    HW2 9921   5.657   4.003   0.845
 3008SOL     OW 9922   3.282   2.234   6.019
 3008SOL    HW1 9923   3.232   2.306   5.970
 3008SOL    HW2 9924   3.380   2.254   6.016
 3009SOL     OW 9925   6.625   2.424   2.764
 3009SOL    HW1 9926   6.631   2.502   2.826
 3009SOL    HW2 9927   6.599   2.342   2.816
 3010SOL     OW 9928   2.968   5.518   3.324
 3010SOL    HW1 9929   2.919   5.437   3.291
 3010SOL    HW2 9930   3.027   5.552   3.251
 3011SOL     OW 9931   6.074   1.229   2.743
 3011SOL    HW1 9932   6.004   1.225   2.815
 3011SOL    HW2 9933   6.165   1.219   2.784
 3012SOL     OW 9934   2.131   3.562   6.642
 3012SOL    HW1 9935   2.162   3.566   6.547
 3012SOL    HW2 9936   2.148   3.471   6.679
 3013SOL     OW 9937   5.040   5.877   3.753
 3013SOL    HW1 9938   5.001   5.899   3.842
 3013SOL    HW2 9939   4.969   5.887   3.682
 3014SOL     OW 9940   4.701   2.433   5.338
 3014SOL    HW1 9941   4.692   2.529   5.364
 3014SOL    HW2 9942   4.788   2.420   5.289
 3015SOL     OW 9943   2.622   1.771   0.070
 3015SOL    HW1 9944   2.573   1.687   0.095
 3015SOL    HW2 9945   2.644   1.769   6.993
 3016SOL     OW 9946   3.021   6.202   4.157
 3016SOL    HW1 9947   3.000   6.283   4.213
 3016SOL    HW2 9948   3.067   6.134   4.214
 3017SOL     OW 9949   6.347   5.575   1.927
 3017SOL    HW1 9950   6.298   5.489   1.937
 3017SOL    HW2 9951   6.371   5.589   1.831
 3018SOL     OW 9952   2.581   6.881   6.011
 3018SOL    HW1 9953   2.517   6.812   5.977
 3018SOL    HW2 9954   2.617   6.935   5.935
 3019SOL     OW 9955   0.380   6.693   6.835
 3019SOL    HW1 9956   0.289   6.695   6.794
 3019SOL    HW2 9957   0.449   6.692   6.762
 3020SOL     OW 9958   3.852   2.636   0.970
 3020SOL    HW1 9959   3.862   2.537   0.980
 3020SOL    HW2 9960   3.755   2.659   0.962
 3021SOL     OW 9961   3.371   0.092   5.657
 3021SOL    HW1 9962   3.322   0.099   5.744
 3021SOL    HW2 9963   3.456   0.042   5.671
 3022SOL     OW 9964   4.109   5.668   5.322
 3022SOL    HW1 9965   4.173   5.615   5.267
 3022SOL    HW2 9966   4.085   5.753   5.274
 3023SOL     OW 9967   4.295   6.609   3.440
 3023SOL    HW1 9968   4.241   6.562   3.511
 3023SOL    HW2 9969   4.235   6.636   3.365
 3024SOL     OW 9970   5.071   6.564   5.111
 3024SOL    HW1 9971   5.082   6.512   5.196
 3024SOL    HW2 9972   5.005   6.638   5.125
 3025SOL     OW 9973   4.447   6.592   0.786
 3025SOL    HW1 9974   4.512   6.616   0.713
 3025SOL    HW2 9975   4.425   6.495   0.780
 3026SOL     OW 9976   1.272   1.015   5.929
 3026SOL    HW1 9977   1.359   1.065   5.931
 3026SOL    HW2 9978   1.198   1.076   5.954
 3027SOL     OW 9979   4.501   1.553   2.976
 3027SOL    HW1 9980   4.406   1.576   2.997
 3027SOL    HW2 9981   4.540   1.624   2.918
 3028SOL     OW 9982   1.561   3.647   5.886
 3028SOL    HW1 9983   1.519   3.728   5.926
 3028SOL    HW2 9984   1.539   3.567   5.943
 3029SOL     OW 9985   0.498   3.103   5.315
 3029SOL    HW1 9986   0.416   3.054   5.344
 3029SOL    HW2 9987   0.533   3.063   5.230
 3030SOL     OW 9988   0.564   3.576   0.509
 3030SOL    HW1 9989   0.628   3.499   0.518
 3030SOL    HW2 9990   0.473   3.542   0.485
 3031SOL     OW 9991   7.009   4.869   1.680
 3031SOL    HW1 9992   6.995   4.865   1.779
 3031SOL    HW2 9993   0.048   4.794   1.651
 3032SOL     OW 9994   2.395   6.833   1.479
 3032SOL    HW1 9995   2.426   6.832   1.384
 3032SOL    HW2 9996   2.473   6.841   1.540
 3033SOL     OW 9997   5.644   1.259   1.565
 3033SOL    HW1 9998   5.634   1.318   1.645
 3033SOL    HW2 9999   5.639   1.163   1.594
 3034SOL     OW10000   1.077   0.286   2.913
 3034SOL    HW110001   1.099   0.274   3.010
 3034SOL    HW210002   1.082   0.384   2.891
 3035SOL     OW10003   0.258   2.829   5.890
 3035SOL    HW110004   0.355   2.840   5.908
 3035SOL    HW210005   0.242   2.740   5.846
 3036SOL     OW10006   1.778   1.299   5.807
 3036SOL    HW110007   1.867   1.313   5.851
 3036SOL    HW210008   1.789   1.307   5.708
 3037SOL     OW10009   6.252   5.604   6.591
 3037SOL    HW110010   6.335   5.618   6.644
 3037SOL    HW210011   6.266   5.636   6.497
 3038SOL     OW10012   5.069   5.703   5.805
 3038SOL    HW110013   5.138   5.694   5.878
 3038SOL    HW210014   5.079   5.791   5.760
 3039SOL     OW10015   0.668   3.391   1.290
 3039SOL    HW110016   0.706   3.476   1.255
 3039SOL    HW210017   0.586   3.411   1.344
 3040SOL     OW10018   3.131   4.111   5.892
 3040SOL    HW110019   3.086   4.034   5.847
 3040SOL    HW210020   3.095   4.197   5.855
 3041SOL     OW10021   2.393   3.239   5.346
 3041SOL    HW110022   2.445   3.317   5.312
 3041SOL    HW210023   2.436   3.154   5.316
 3042SOL     OW10024   5.950   6.076   2.770
 3042SOL    HW110025   5.977   6.027   2.853
 3042SOL    HW210026   5.899   6.014   2.711
 3043SOL     OW10027   2.757   4.303   1.202
 3043SOL    HW110028   2.689   4.352   1.147
 3043SOL    HW210029   2.747   4.204   1.188
 3044SOL     OW10030   3.436   5.206   6.175
 3044SOL    HW110031   3.519   5.227   6.123
 3044SOL    HW210032   3.415   5.109   6.165
 3045SOL     OW10033   4.818   6.768   3.429
 3045SOL    HW110034   4.773   6.835   3.488
 3045SOL    HW210035   4.816   6.800   3.335
 3046SOL     OW10036   2.767   0.868   5.641
 3046SOL    HW110037   2.781   0.775   5.606
 3046SOL    HW210038   2.851   0.921   5.627
 3047SOL     OW10039   5.947   0.518   1.427
 3047SOL    HW110040   5.890   0.544   1.505
 3047SOL    HW210041   5.941   0.419   1.413
 3048SOL     OW10042   3.955   2.169   1.575
 3048SOL    HW110043   3.930   2.258   1.613
 3048SOL    HW210044   3.907   2.154   1.489
 3049SOL     OW10045   1.323   0.205   3.030
 3049SOL    HW110046   1.280   0.115   3.042
 3049SOL    HW210047   1.337   0.247   3.119
 3050SOL     OW10048   2.966   1.758   2.257
 3050SOL    HW110049   2.909   1.801   2.327
 3050SOL    HW210050   2.908   1.719   2.186
 3051SOL     OW10051   1.863   5.973   6.253
 3051SOL    HW110052   1.912   5.940   6.334
 3051SOL    HW210053   1.922   5.962   6.173
 3052SOL     OW10054   4.908   5.537   1.857
 3052SOL    HW110055   4.829   5.478   1.841
 3052SOL    HW210056   4.978   5.521   1.788
 3053SOL     OW10057   0.143   2.539   0.970
 3053SOL    HW110058   0.048   2.570   0.963
 3053SOL    HW210059   0.183   2.575   1.055
 3054SOL     OW10060   6.476   2.137   1.383
 3054SOL    HW110061   6.545   2.207   1.366
 3054SOL    HW210062   6.392   2.180   1.415
 3055SOL     OW10063   5.191   0.120   5.052
 3055SOL    HW110064   5.219   0.049   4.987
 3055SOL    HW210065   5.225   0.097   5.143
 3056SOL     OW10066   5.720   0.962   5.668
 3056SOL    HW110067   5.686   1.043   5.620
 3056SOL    HW210068   5.815   0.946   5.643
 3057SOL     OW10069   4.163   5.565   3.798
 3057SOL    HW110070   4.179   5.645   3.739
 3057SOL    HW210071   4.156   5.483   3.741
 3058SOL     OW10072   0.138   4.588   1.519
 3058SOL    HW110073   0.220   4.549   1.561
 3058SOL    HW210074   0.127   4.553   1.426
 3059SOL     OW10075   3.043   2.234   4.448
 3059SOL    HW110076   3.062   2.164   4.516
 3059SOL    HW210077   3.059   2.325   4.487
 3060SOL     OW10078   1.175   5.306   0.250
 3060SOL    HW110079   1.138   5.319   0.158
 3060SOL    HW210080   1.177   5.208   0.271
 3061SOL     OW10081   6.755   5.851   5.677
 3061SOL    HW110082   6.720   5.759   5.694
 3061SOL    HW210083   6.752   5.904   5.761
 3062SOL     OW10084   2.302   0.544   1.168
 3062SOL    HW110085   2.208   0.513   1.154
 3062SOL    HW210086   2.346   0.486   1.237
 3063SOL     OW10087   1.838   5.303   2.084
 3063SOL    HW110088   1.899   5.372   2.124
 3063SOL    HW210089   1.743   5.336   2.088
 3064SOL     OW10090   5.203   3.466   0.602
 3064SOL    HW110091   5.267   3.535   0.636
 3064SOL    HW210092   5.201   3.388   0.665
 3065SOL     OW10093   1.550   1.980   6.365
 3065SOL    HW110094   1.571   2.065   6.414
 3065SOL    HW210095   1.500   2.002   6.281
 3066SOL     OW10096   5.182   4.596   0.444
 3066SOL    HW110097   5.100   4.629   0.397
 3066SOL    HW210098   5.179   4.496   0.450
 3067SOL     OW10099   4.155   1.052   5.776
 3067SOL    HW110100   4.212   1.107   5.715
 3067SOL    HW210101   4.065   1.038   5.734
 3068SOL     OW10102   0.163   6.814   0.874
 3068SOL    HW110103   0.195   6.825   0.780
 3068SOL    HW210104   0.190   6.725   0.909
 3069SOL     OW10105   6.801   6.876   2.210
 3069SOL    HW110106   6.897   6.866   2.186
 3069SOL    HW210107   6.763   6.786   2.232
 3070SOL     OW10108   3.009   1.383   6.648
 3070SOL    HW110109   2.991   1.378   6.549
 3070SOL    HW210110   3.046   1.296   6.679
 3071SOL     OW10111   6.951   6.260   3.854
 3071SOL    HW110112   7.009   6.304   3.785
 3071SOL    HW210113   6.941   6.321   3.932
 3072SOL     OW10114   2.250   5.737   6.404
 3072SOL    HW110115   2.321   5.805   6.384
 3072SOL    HW210116   2.293   5.655   6.442
 3073SOL     OW10117   6.662   3.955   4.413
 3073SOL    HW110118   6.699   4.047   4.403
 3073SOL    HW210119   6.596   3.938   4.340
 3074SOL     OW10120   0.060   4.285   1.572
 3074SOL    HW110121   6.991   4.327   1.553
 3074SOL    HW210122   0.070   4.274   1.671
 3075SOL     OW10123   2.617   5.531   1.663
 3075SOL    HW110124   2.664   5.453   1.622
 3075SOL    HW210125   2.680   5.609   1.668
 3076SOL     OW10126   6.114   0.710   3.290
 3076SOL    HW110127   6.161   0.739   3.373
 3076SOL    HW210128   6.147   0.620   3.262
 3077SOL     OW10129   5.857   4.336   1.747
 3077SOL    HW110130   5.797   4.380   1.680
 3077SOL    HW210131   5.943   4.387   1.752
 3078SOL     OW10132   0.088   3.386   3.259
 3078SOL    HW110133   7.011   3.366   3.271
 3078SOL    HW210134   0.140   3.300   3.267
 3079SOL     OW10135   2.856   2.281   2.824
 3079SOL    HW110136   2.860   2.316   2.918
 3079SOL    HW210137   2.775   2.224   2.814
 3080SOL     OW10138   5.389   5.351   2.264
 3080SOL    HW110139   5.473   5.298   2.265
 3080SOL    HW210140   5.338   5.334   2.348
 3081SOL     OW10141   1.287   3.076   6.213
 3081SOL    HW110142   1.327   3.107   6.126
 3081SOL    HW210143   1.303   3.145   6.284
 3082SOL     OW10144   1.847   6.057   4.341
 3082SOL    HW110145   1.946   6.055   4.326
 3082SOL    HW210146   1.807   5.973   4.306
 3083SOL     OW10147   3.167   5.861   4.031
 3083SOL    HW110148   3.102   5.896   4.099
 3083SOL    HW210149   3.234   5.803   4.077
 3084SOL     OW10150   6.922   4.016   4.746
 3084SOL    HW110151   6.861   3.949   4.703
 3084SOL    HW210152   6.952   4.083   4.679
 3085SOL     OW10153   5.854   4.029   0.453
 3085SOL    HW110154   5.880   3.967   0.527
 3085SOL    HW210155   5.869   3.985   0.365
 3086SOL     OW10156   5.506   1.357   1.218
 3086SOL    HW110157   5.563   1.381   1.297
 3086SOL    HW210158   5.501   1.435   1.156
 3087SOL     OW10159   1.911   6.194   3.946
 3087SOL    HW110160   1.872   6.115   3.993
 3087SOL    HW210161   1.953   6.255   4.014
 3088SOL     OW10162   2.066   5.051   4.440
 3088SOL    HW110163   1.967   5.044   4.430
 3088SOL    HW210164   2.108   4.961   4.427
 3089SOL     OW10165   3.336   1.780   5.114
 3089SOL    HW110166   3.284   1.717   5.171
 3089SOL    HW210167   3.301   1.873   5.125
 3090SOL     OW10168   2.216   1.905   2.169
 3090SOL    HW110169   2.242   1.965   2.094
 3090SOL    HW210170   2.244   1.946   2.256
 3091SOL     OW10171   1.613   1.362   1.059
 3091SOL    HW110172   1.579   1.271   1.079
 3091SOL    HW210173   1.713   1.361   1.059
 3092SOL     OW10174   5.756   1.044   0.793
 3092SOL    HW110175   5.731   1.076   0.884
 3092SOL    HW210176   5.837   1.093   0.762
 3093SOL     OW10177   6.009   6.249   6.833
 3093SOL    HW110178   6.010   6.180   6.761
 3093SOL    HW210179   6.065   6.327   6.806
 3094SOL     OW10180   2.042   0.270   4.011
 3094SOL    HW110181   2.092   0.185   3.999
 3094SOL    HW210182   1.997   0.295   3.925
 3095SOL     OW10183   2.183   4.349   5.912
 3095SOL    HW110184   2.231   4.436   5.917
 3095SOL    HW210185   2.231   4.281   5.967
 3096SOL     OW10186   0.770   4.978   5.596
 3096SOL    HW110187   0.722   5.011   5.515
 3096SOL    HW210188   0.869   4.981   5.579
 3097SOL     OW10189   5.364   3.148   6.946
 3097SOL    HW110190   5.457   3.118   6.922
 3097SOL    HW210191   5.367   3.244   6.975
 3098SOL     OW10192   2.066   2.413   0.776
 3098SOL    HW110193   2.119   2.416   0.861
 3098SOL    HW210194   2.116   2.461   0.704
 3099SOL     OW10195   0.898   6.644   4.186
 3099SOL    HW110196   0.977   6.679   4.136
 3099SOL    HW210197   0.929   6.583   4.259
 3100SOL     OW10198   0.135   6.865   3.633
 3100SOL    HW110199   0.131   6.797   3.559
 3100SOL    HW210200   0.067   6.937   3.615
 3101SOL     OW10201   6.341   5.816   6.789
 3101SOL    HW110202   6.252   5.774   6.807
 3101SOL    HW210203   6.351   5.899   6.845
 3102SOL     OW10204   6.643   6.515   1.995
 3102SOL    HW110205   6.599   6.532   1.907
 3102SOL    HW210206   6.715   6.583   2.010
 3103SOL     OW10207   4.344   1.098   2.077
 3103SOL    HW110208   4.301   1.175   2.031
 3103SOL    HW210209   4.444   1.104   2.066
 3104SOL     OW10210   4.507   0.569   5.828
 3104SOL    HW110211   4.546   0.627   5.899
 3104SOL    HW210212   4.480   0.624   5.750
 3105SOL     OW10213   6.042   4.166   1.349
 3105SOL    HW110214   6.105   4.233   1.387
 3105SOL    HW210215   6.089   4.078   1.340
 3106SOL     OW10216   5.355   0.109   4.058
 3106SOL    HW110217   5.400   0.030   4.015
 3106SOL    HW210218   5.331   0.085   4.152
 3107SOL     OW10219   4.089   1.232   5.067
 3107SOL    HW110220   4.124   1.218   5.159
 3107SOL    HW210221   4.035   1.317   5.064
 3108SOL     OW10222   1.765   5.796   4.297
 3108SOL    HW110223   1.814   5.720   4.341
 3108SOL    HW210224   1.668   5.772   4.291
 3109SOL     OW10225   5.694   6.091   3.539
 3109SOL    HW110226   5.721   6.173   3.588
 3109SOL    HW210227   5.748   6.013   3.572
 3110SOL     OW10228   1.104   3.320   3.231
 3110SOL    HW110229   1.168   3.246   3.207
 3110SOL    HW210230   1.020   3.280   3.267
 3111SOL     OW10231   0.051   4.426   2.959
 3111SOL    HW110232   7.013   4.470   2.891
 3111SOL    HW210233   0.076   4.335   2.926
 3112SOL     OW10234   3.619   2.938   6.726
 3112SOL    HW110235   3.576   2.946   6.636
 3112SOL    HW210236   3.649   2.843   6.740
 3113SOL     OW10237   2.872   4.805   3.541
 3113SOL    HW110238   2.936   4.825   3.616
 3113SOL    HW210239   2.871   4.880   3.476
 3114SOL     OW10240   3.663   1.907   0.516
 3114SOL    HW110241   3.682   1.810   0.534
 3114SOL    HW210242   3.744   1.961   0.539
 3115SOL     OW10243   4.274   4.669   6.141
 3115SOL    HW110244   4.306   4.684   6.047
 3115SOL    HW210245   4.349   4.688   6.205
 3116SOL     OW10246   6.850   2.835   0.469
 3116SOL    HW110247   6.798   2.785   0.399
 3116SOL    HW210248   6.930   2.877   0.426
 3117SOL     OW10249   4.770   3.775   5.308
 3117SOL    HW110250   4.727   3.697   5.263
 3117SOL    HW210251   4.867   3.777   5.285
 3118SOL     OW10252   0.422   5.211   2.145
 3118SOL    HW110253   0.346   5.244   2.089
 3118SOL    HW210254   0.482   5.287   2.168
 3119SOL     OW10255   1.983   2.902   0.097
 3119SOL    HW110256   1.945   2.958   0.172
 3119SOL    HW210257   2.082   2.902   0.102
 3120SOL     OW10258   2.858   0.342   6.288
 3120SOL    HW110259   2.872   0.432   6.249
 3120SOL    HW210260   2.903   0.337   6.377
 3121SOL     OW10261   0.085   1.300   4.105
 3121SOL    HW110262   0.120   1.320   4.197
 3121SOL    HW210263   7.018   1.252   4.113
 3122SOL     OW10264   4.305   5.767   6.375
 3122SOL    HW110265   4.246   5.767   6.456
 3122SOL    HW210266   4.317   5.673   6.342
 3123SOL     OW10267   2.231   2.007   2.806
 3123SOL    HW110268   2.199   1.912   2.816
 3123SOL    HW210269   2.227   2.033   2.709
 3124SOL     OW10270   4.988   6.295   4.769
 3124SOL    HW110271   4.918   6.365   4.752
 3124SOL    HW210272   5.079   6.337   4.765
 3125SOL     OW10273   0.840   3.229   5.269
 3125SOL    HW110274   0.859   3.273   5.357
 3125SOL    HW210275   0.910   3.160   5.250
 3126SOL     OW10276   5.763   4.238   5.405
 3126SOL    HW110277   5.743   4.140   5.413
 3126SOL    HW210278   5.840   4.251   5.342
 3127SOL     OW10279   1.969   2.570   6.326
 3127SOL    HW110280   2.036   2.644   6.319
 3127SOL    HW210281   2.016   2.483   6.336
 3128SOL     OW10282   2.627   0.382   6.449
 3128SOL    HW110283   2.708   0.374   6.391
 3128SOL    HW210284   2.654   0.375   6.545
 3129SOL     OW10285   6.058   3.497   0.033
 3129SOL    HW110286   6.140   3.442   0.022
 3129SOL    HW210287   5.999   3.485   6.973
 3130SOL     OW10288   2.124   4.521   2.387
 3130SOL    HW110289   2.043   4.462   2.390
 3130SOL    HW210290   2.126   4.579   2.469
 3131SOL     OW10291   0.320   3.019   1.676
 3131SOL    HW110292   0.303   3.062   1.765
 3131SOL    HW210293   0.260   3.060   1.608
 3132SOL     OW10294   4.371   5.523   6.261
 3132SOL    HW110295   4.360   5.445   6.322
 3132SOL    HW210296   4.465   5.526   6.227
 3133SOL     OW10297   3.154   0.971   3.194
 3133SOL    HW110298   3.202   0.920   3.122
 3133SOL    HW210299   3.112   0.906   3.258
 3134SOL     OW10300   4.641   3.771   1.668
 3134SOL    HW110301   4.683   3.847   1.618
 3134SOL    HW210302   4.549   3.754   1.632
 3135SOL     OW10303   4.463   0.306   5.863
 3135SOL    HW110304   4.503   0.397   5.848
 3135SOL    HW210305   4.484   0.275   5.956
 3136SOL     OW10306   5.350   0.666   2.218
 3136SOL    HW110307   5.402   0.718   2.285
 3136SOL    HW210308   5.252   0.676   2.236
 3137SOL     OW10309   6.459   0.545   2.482
 3137SOL    HW110310   6.372   0.514   2.444
 3137SOL    HW210311   6.506   0.468   2.525
 3138SOL     OW10312   0.049   5.149   3.086
 3138SOL    HW110313   0.109   5.218   3.126
 3138SOL    HW210314   6.995   5.129   3.150
 3139SOL     OW10315   4.439   5.499   0.279
 3139SOL    HW110316   4.352   5.452   0.297
 3139SOL    HW210317   4.473   5.471   0.189
 3140SOL     OW10318   0.010   6.455   0.204
 3140SOL    HW110319   7.000   6.528   0.265
 3140SOL    HW210320   0.053   6.495   0.123
 3141SOL     OW10321   0.812   0.167   6.784
 3141SOL    HW110322   0.713   0.159   6.795
 3141SOL    HW210323   0.838   0.132   6.694
 3142SOL     OW10324   3.595   0.149   2.656
 3142SOL    HW110325   3.528   0.142   2.730
 3142SOL    HW210326   3.548   0.142   2.568
 3143SOL     OW10327   6.523   2.069   0.492
 3143SOL    HW110328   6.615   2.105   0.510
 3143SOL    HW210329   6.498   2.085   0.397
 3144SOL     OW10330   4.117   3.625   1.026
 3144SOL    HW110331   4.108   3.687   0.949
 3144SOL    HW210332   4.049   3.649   1.096
 3145SOL     OW10333   2.428   6.150   2.243
 3145SOL    HW110334   2.372   6.079   2.285
 3145SOL    HW210335   2.373   6.232   2.230
 3146SOL     OW10336   0.869   1.649   4.545
 3146SOL    HW110337   0.912   1.727   4.589
 3146SOL    HW210338   0.927   1.616   4.470
 3147SOL     OW10339   3.127   5.781   0.837
 3147SOL    HW110340   3.167   5.847   0.901
 3147SOL    HW210341   3.155   5.688   0.864
 3148SOL     OW10342   6.438   0.187   3.679
 3148SOL    HW110343   6.477   0.162   3.591
 3148SOL    HW210344   6.422   0.104   3.733
 3149SOL     OW10345   3.410   0.573   5.716
 3149SOL    HW110346   3.503   0.603   5.736
 3149SOL    HW210347   3.412   0.507   5.641
 3150SOL     OW10348   6.495   5.487   4.812
 3150SOL    HW110349   6.583   5.451   4.843
 3150SOL    HW210350   6.468   5.564   4.869
 3151SOL     OW10351   6.981   0.822   4.737
 3151SOL    HW110352   0.027   0.828   4.812
 3151SOL    HW210353   6.987   0.905   4.682
 3152SOL     OW10354   0.701   5.358   1.324
 3152SOL    HW110355   0.604   5.342   1.304
 3152SOL    HW210356   0.753   5.354   1.239
 3153SOL     OW10357   6.175   5.470   0.857
 3153SOL    HW110358   6.195   5.372   0.856
 3153SOL    HW210359   6.131   5.496   0.771
 3154SOL     OW10360   0.340   1.340   6.345
 3154SOL    HW110361   0.336   1.348   6.445
 3154SOL    HW210362   0.434   1.319   6.317
 3155SOL     OW10363   6.452   4.094   0.480
 3155SOL    HW110364   6.511   4.156   0.428
 3155SOL    HW210365   6.356   4.114   0.459
 3156SOL     OW10366   3.621   2.943   2.738
 3156SOL    HW110367   3.576   2.904   2.818
 3156SOL    HW210368   3.623   3.042   2.745
 3157SOL     OW10369   2.493   1.503   4.949
 3157SOL    HW110370   2.538   1.537   5.031
 3157SOL    HW210371   2.541   1.537   4.868
 3158SOL     OW10372   3.333   1.400   3.714
 3158SOL    HW110373   3.269   1.338   3.759
 3158SOL    HW210374   3.348   1.481   3.772
 3159SOL     OW10375   6.135   0.731   0.214
 3159SOL    HW110376   6.091   0.821   0.204
 3159SOL    HW210377   6.117   0.695   0.305
 3160SOL     OW10378   0.676   6.015   5.638
 3160SOL    HW110379   0.659   5.966   5.724
 3160SOL    HW210380   0.743   5.965   5.584
 3161SOL     OW10381   2.416   2.673   2.867
 3161SOL    HW110382   2.441   2.764   2.835
 3161SOL    HW210383   2.316   2.664   2.866
 3162SOL     OW10384   1.182   5.863   1.595
 3162SOL    HW110385   1.144   5.941   1.545
 3162SOL    HW210386   1.128   5.781   1.576
 3163SOL     OW10387   4.610   3.259   6.536
 3163SOL    HW110388   4.578   3.182   6.481
 3163SOL    HW210389   4.533   3.298   6.586
 3164SOL     OW10390   4.076   5.887   1.211
 3164SOL    HW110391   3.982   5.919   1.218
 3164SOL    HW210392   4.101   5.874   1.115
 3165SOL     OW10393   1.154   6.993   1.208
 3165SOL    HW110394   1.059   7.001   1.177
 3165SOL    HW210395   1.185   6.899   1.196
 3166SOL     OW10396   4.043   1.771   4.222
 3166SOL    HW110397   4.113   1.739   4.286
 3166SOL    HW210398   3.970   1.702   4.215
 3167SOL     OW10399   6.567   4.562   0.580
 3167SOL    HW110400   6.595   4.480   0.630
 3167SOL    HW210401   6.566   4.640   0.642
 3168SOL     OW10402   5.052   2.998   0.485
 3168SOL    HW110403   4.990   3.077   0.492
 3168SOL    HW210404   4.998   2.916   0.467
 3169SOL     OW10405   1.561   4.147   4.279
 3169SOL    HW110406   1.618   4.066   4.268
 3169SOL    HW210407   1.541   4.186   4.189
 3170SOL     OW10408   4.465   6.092   1.345
 3170SOL    HW110409   4.545   6.053   1.299
 3170SOL    HW210410   4.459   6.189   1.324
 3171SOL     OW10411   0.001   1.037   2.490
 3171SOL    HW110412   0.022   0.939   2.494
 3171SOL    HW210413   6.945   1.057   2.552
 3172SOL     OW10414   0.229   5.611   0.797
 3172SOL    HW110415   0.156   5.544   0.789
 3172SOL    HW210416   0.316   5.569   0.772
 3173SOL     OW10417   3.226   2.156   0.505
 3173SOL    HW110418   3.247   2.253   0.494
 3173SOL    HW210419   3.291   2.101   0.453
 3174SOL     OW10420   3.249   2.437   0.485
 3174SOL    HW110421   3.151   2.456   0.487
 3174SOL    HW210422   3.298   2.516   0.448
 3175SOL     OW10423   6.412   0.570   1.471
 3175SOL    HW110424   6.409   0.662   1.509
 3175SOL    HW210425   6.444   0.506   1.541
 3176SOL     OW10426   1.571   3.791   6.135
 3176SOL    HW110427   1.484   3.743   6.118
 3176SOL    HW210428   1.632   3.731   6.187
 3177SOL     OW10429   4.818   3.885   3.963
 3177SOL    HW110430   4.805   3.928   4.052
 3177SOL    HW210431   4.828   3.786   3.975
 3178SOL     OW10432   6.334   2.337   0.476
 3178SOL    HW110433   6.281   2.281   0.539
 3178SOL    HW210434   6.297   2.327   0.384
 3179SOL     OW10435   0.854   2.950   2.261
 3179SOL    HW110436   0.895   3.033   2.222
 3179SOL    HW210437   0.926   2.891   2.298
 3180SOL     OW10438   5.256   0.730   6.850
 3180SOL    HW110439   5.162   0.763   6.851
 3180SOL    HW210440   5.263   0.648   6.793
 3181SOL     OW10441   0.039   2.126   3.338
 3181SOL    HW110442   0.098   2.201   3.310
 3181SOL    HW210443   6.985   2.115   3.273
 3182SOL     OW10444   2.670   0.322   6.722
 3182SOL    HW110445   2.627   0.404   6.760
 3182SOL    HW210446   2.732   0.282   6.790
 3183SOL     OW10447   5.163   3.866   2.119
 3183SOL    HW110448   5.154   3.934   2.046
 3183SOL    HW210449   5.073   3.847   2.159
 3184SOL     OW10450   0.898   3.537   2.936
 3184SOL    HW110451   0.989   3.497   2.946
 3184SOL    HW210452   0.882   3.601   3.011
 3185SOL     OW10453   5.296   5.744   6.495
 3185SOL    HW110454   5.383   5.710   6.531
 3185SOL    HW210455   5.239   5.775   6.570
 3186SOL     OW10456   3.692   2.019   1.335
 3186SOL    HW110457   3.719   2.072   1.416
 3186SOL    HW210458   3.654   1.931   1.364
 3187SOL     OW10459   4.537   4.523   0.822
 3187SOL    HW110460   4.511   4.493   0.914
 3187SOL    HW210461   4.461   4.573   0.780
 3188SOL     OW10462   1.572   0.444   4.223
 3188SOL    HW110463   1.539   0.429   4.129
 3188SOL    HW210464   1.661   0.489   4.220
 3189SOL     OW10465   1.625   1.375   1.444
 3189SOL    HW110466   1.548   1.421   1.398
 3189SOL    HW210467   1.626   1.401   1.540
 3190SOL     OW10468   0.356   5.656   0.453
 3190SOL    HW110469   0.281   5.590   0.445
 3190SOL    HW210470   0.440   5.616   0.416
 3191SOL     OW10471   4.898   5.659   0.959
 3191SOL    HW110472   4.835   5.581   0.959
 3191SOL    HW210473   4.944   5.664   1.048
 3192SOL     OW10474   0.548   2.678   1.830
 3192SOL    HW110475   0.599   2.763   1.818
 3192SOL    HW210476   0.610   2.605   1.859
 3193SOL     OW10477   3.832   1.220   6.906
 3193SOL    HW110478   3.796   1.307   6.873
 3193SOL    HW210479   3.782   1.145   6.863
 3194SOL     OW10480   1.552   2.198   6.541
 3194SOL    HW110481   1.591   2.159   6.625
 3194SOL    HW210482   1.599   2.282   6.518
 3195SOL     OW10483   3.466   1.011   3.356
 3195SOL    HW110484   3.452   1.062   3.441
 3195SOL    HW210485   3.431   1.064   3.279
 3196SOL     OW10486   0.673   0.445   6.240
 3196SOL    HW110487   0.588   0.393   6.244
 3196SOL    HW210488   0.687   0.480   6.147
 3197SOL     OW10489   2.525   6.547   3.627
 3197SOL    HW110490   2.494   6.552   3.722
 3197SOL    HW210491   2.624   6.561   3.623
 3198SOL     OW10492   6.091   2.647   4.722
 3198SOL    HW110493   6.045   2.565   4.688
 3198SOL    HW210494   6.033   2.690   4.792
 3199SOL     OW10495   4.965   3.958   2.380
 3199SOL    HW110496   5.054   3.996   2.405
 3199SOL    HW210497   4.900   4.032   2.368
 3200SOL     OW10498   6.271   3.090   1.980
 3200SOL    HW110499   6.256   3.026   2.055
 3200SOL    HW210500   6.191   3.151   1.973
 3201SOL     OW10501   5.938   4.853   4.321
 3201SOL    HW110502   5.950   4.946   4.287
 3201SOL    HW210503   5.842   4.826   4.310
 3202SOL     OW10504   0.753   4.585   1.943
 3202SOL    HW110505   0.847   4.592   1.911
 3202SOL    HW210506   0.751   4.582   2.043
 3203SOL     OW10507   6.426   2.131   0.219
 3203SOL    HW110508   6.416   2.044   0.171
 3203SOL    HW210509   6.504   2.181   0.181
 3204SOL     OW10510   4.341   6.311   3.109
 3204SOL    HW110511   4.331   6.361   3.023
 3204SOL    HW210512   4.250   6.287   3.144
 3205SOL     OW10513   6.417   2.592   6.473
 3205SOL    HW110514   6.356   2.520   6.507
 3205SOL    HW210515   6.426   2.585   6.374
 3206SOL     OW10516   1.484   5.253   6.485
 3206SOL    HW110517   1.566   5.228   6.433
 3206SOL    HW210518   1.404   5.213   6.441
 3207SOL     OW10519   0.910   0.675   5.997
 3207SOL    HW110520   0.838   0.611   5.971
 3207SOL    HW210521   0.970   0.631   6.065
 3208SOL     OW10522   4.711   5.389   5.835
 3208SOL    HW110523   4.762   5.473   5.851
 3208SOL    HW210524   4.613   5.409   5.834
 3209SOL     OW10525   4.238   5.763   3.589
 3209SOL    HW110526   4.215   5.848   3.637
 3209SOL    HW210527   4.217   5.772   3.492
 3210SOL     OW10528   0.890   4.678   1.417
 3210SOL    HW110529   0.817   4.736   1.453
 3210SOL    HW210530   0.863   4.582   1.426
 3211SOL     OW10531   1.708   3.561   0.976
 3211SOL    HW110532   1.697   3.606   1.065
 3211SOL    HW210533   1.784   3.603   0.927
 3212SOL     OW10534   3.092   0.547   0.973
 3212SOL    HW110535   3.029   0.604   0.921
 3212SOL    HW210536   3.185   0.557   0.937
 3213SOL     OW10537   0.964   6.429   1.108
 3213SOL    HW110538   1.005   6.495   1.045
 3213SOL    HW210539   0.972   6.337   1.070
 3214SOL     OW10540   4.428   5.108   0.498
 3214SOL    HW110541   4.407   5.206   0.502
 3214SOL    HW210542   4.520   5.091   0.533
 3215SOL     OW10543   0.001   2.817   1.380
 3215SOL    HW110544   6.949   2.854   1.438
 3215SOL    HW210545   7.016   2.860   1.289
 3216SOL     OW10546   6.164   5.077   0.428
 3216SOL    HW110547   6.130   5.154   0.376
 3216SOL    HW210548   6.125   4.992   0.392
 3217SOL     OW10549   6.793   5.484   2.438
 3217SOL    HW110550   6.870   5.520   2.385
 3217SOL    HW210551   6.827   5.440   2.521
 3218SOL     OW10552   4.439   2.059   3.593
 3218SOL    HW110553   4.526   2.025   3.558
 3218SOL    HW210554   4.450   2.154   3.623
 3219SOL     OW10555   0.200   2.368   3.567
 3219SOL    HW110556   0.240   2.342   3.480
 3219SOL    HW210557   0.268   2.358   3.640
 3220SOL     OW10558   6.668   5.451   6.605
 3220SOL    HW110559   6.588   5.396   6.625
 3220SOL    HW210560   6.695   5.437   6.510
 3221SOL     OW10561   3.594   0.845   1.563
 3221SOL    HW110562   3.587   0.820   1.466
 3221SOL    HW210563   3.512   0.816   1.611
 3222SOL     OW10564   3.544   1.665   2.361
 3222SOL    HW110565   3.454   1.637   2.394
 3222SOL    HW210566   3.541   1.679   2.262
 3223SOL     OW10567   1.947   6.832   6.441
 3223SOL    HW110568   1.848   6.823   6.433
 3223SOL    HW210569   1.989   6.741   6.438
 3224SOL     OW10570   4.259   3.966   6.302
 3224SOL    HW110571   4.293   3.881   6.341
 3224SOL    HW210572   4.172   3.948   6.254
 3225SOL     OW10573   5.194   2.813   6.631
 3225SOL    HW110574   5.147   2.756   6.562
 3225SOL    HW210575   5.244   2.754   6.694
 3226SOL     OW10576   2.372   1.422   3.293
 3226SOL    HW110577   2.463   1.388   3.272
 3226SOL    HW210578   2.378   1.489   3.368
 3227SOL     OW10579   3.314   2.614   6.964
 3227SOL    HW110580   3.260   2.534   6.938
 3227SOL    HW210581   3.400   2.583   7.005
 3228SOL     OW10582   6.956   4.073   2.710
 3228SOL    HW110583   6.916   4.042   2.623
 3228SOL    HW210584   7.006   3.997   2.752
 3229SOL     OW10585   4.250   0.032   4.527
 3229SOL    HW110586   4.203   6.965   4.537
 3229SOL    HW210587   4.205   0.086   4.456
 3230SOL     OW10588   1.921   3.640   5.324
 3230SOL    HW110589   2.017   3.664   5.313
 3230SOL    HW210590   1.909   3.542   5.311
 3231SOL     OW10591   2.894   1.510   1.290
 3231SOL    HW110592   2.820   1.513   1.358
 3231SOL    HW210593   2.981   1.504   1.338
 3232SOL     OW10594   4.643   5.501   5.102
 3232SOL    HW110595   4.684   5.570   5.161
 3232SOL    HW210596   4.600   5.430   5.159
 3233SOL     OW10597   1.061   3.042   1.525
 3233SOL    HW110598   1.031   3.087   1.609
 3233SOL    HW210599   1.019   2.951   1.520
 3234SOL     OW10600   6.994   1.804   0.067
 3234SOL    HW110601   0.037   1.727   0.059
 3234SOL    HW210602   0.023   1.889   0.048
 3235SOL     OW10603   5.762   0.864   2.043
 3235SOL    HW110604   5.709   0.781   2.025
 3235SOL    HW210605   5.724   0.911   2.123
 3236SOL     OW10606   1.869   3.395   0.086
 3236SOL    HW110607   1.771   3.415   0.089
 3236SOL    HW210608   1.904   3.385   0.180
 3237SOL     OW10609   4.972   1.429   4.070
 3237SOL    HW110610   4.984   1.357   4.139
 3237SOL    HW210611   5.029   1.410   3.991
 3238SOL     OW10612   6.633   5.380   0.967
 3238SOL    HW110613   6.596   5.454   0.910
 3238SOL    HW210614   6.650   5.299   0.910
 3239SOL     OW10615   6.971   1.640   1.868
 3239SOL    HW110616   6.998   1.638   1.772
 3239SOL    HW210617   6.964   1.546   1.903
 3240SOL     OW10618   6.996   6.931   6.607
 3240SOL    HW110619   0.000   7.016   6.655
 3240SOL    HW210620   6.897   6.930   6.590
 3241SOL     OW10621   4.245   1.787   5.309
 3241SOL    HW110622   4.307   1.709   5.313
 3241SOL    HW210623   4.151   1.755   5.319
 3242SOL     OW10624   3.857   4.250   6.919
 3242SOL    HW110625   3.855   4.169   6.861
 3242SOL    HW210626   3.764   4.285   6.931
 3243SOL     OW10627   4.330   4.316   0.548
 3243SOL    HW110628   4.260   4.253   0.515
 3243SOL    HW210629   4.291   4.377   0.618
 3244SOL     OW10630   4.952   5.260   0.224
 3244SOL    HW110631   5.048   5.254   0.253
 3244SOL    HW210632   4.948   5.257   0.124
 3245SOL     OW10633   5.194   3.066   4.984
 3245SOL    HW110634   5.227   2.984   5.029
 3245SOL    HW210635   5.098   3.055   4.959
 3246SOL     OW10636   5.576   0.186   2.245
 3246SOL    HW110637   5.645   0.198   2.316
 3246SOL    HW210638   5.531   0.274   2.227
 3247SOL     OW10639   5.694   4.890   2.713
 3247SOL    HW110640   5.649   4.900   2.624
 3247SOL    HW210641   5.768   4.957   2.720
 3248SOL     OW10642   6.219   3.655   0.965
 3248SOL    HW110643   6.227   3.594   0.887
 3248SOL    HW210644   6.142   3.625   1.023
 3249SOL     OW10645   3.880   3.168   4.270
 3249SOL    HW110646   3.835   3.252   4.299
 3249SOL    HW210647   3.854   3.093   4.332
 3250SOL     OW10648   5.457   6.521   2.028
 3250SOL    HW110649   5.506   6.496   2.111
 3250SOL    HW210650   5.371   6.566   2.052
 3251SOL     OW10651   3.016   0.565   3.569
 3251SOL    HW110652   3.024   0.663   3.587
 3251SOL    HW210653   3.099   0.533   3.522
 3252SOL     OW10654   2.381   1.553   3.031
 3252SOL    HW110655   2.380   1.533   3.129
 3252SOL    HW210656   2.311   1.498   2.986
 3253SOL     OW10657   5.175   4.226   2.101
 3253SOL    HW110658   5.224   4.205   2.186
 3253SOL    HW210659   5.172   4.144   2.043
 3254SOL     OW10660   4.730   5.731   5.234
 3254SOL    HW110661   4.691   5.812   5.278
 3254SOL    HW210662   4.830   5.738   5.234
 3255SOL     OW10663   5.601   5.942   0.040
 3255SOL    HW110664   5.577   5.991   0.124
 3255SOL    HW210665   5.546   5.978   6.984
 3256SOL     OW10666   3.049   1.141   0.704
 3256SOL    HW110667   2.958   1.164   0.669
 3256SOL    HW210668   3.109   1.221   0.698
 3257SOL     OW10669   1.789   1.906   2.058
 3257SOL    HW110670   1.809   1.810   2.040
 3257SOL    HW210671   1.729   1.913   2.138
 3258SOL     OW10672   4.164   4.657   1.800
 3258SOL    HW110673   4.149   4.632   1.895
 3258SOL    HW210674   4.078   4.653   1.749
 3259SOL     OW10675   4.809   5.456   4.143
 3259SOL    HW110676   4.772   5.363   4.140
 3259SOL    HW210677   4.744   5.519   4.100
 3260SOL     OW10678   1.684   2.133   1.008
 3260SOL    HW110679   1.747   2.115   0.933
 3260SOL    HW210680   1.734   2.132   1.095
 3261SOL     OW10681   5.853   0.257   0.893
 3261SOL    HW110682   5.866   0.286   0.798
 3261SOL    HW210683   5.809   0.168   0.895
 3262SOL     OW10684   3.271   1.806   2.872
 3262SOL    HW110685   3.298   1.765   2.785
 3262SOL    HW210686   3.294   1.744   2.947
 3263SOL     OW10687   2.552   0.591   3.532
 3263SOL    HW110688   2.524   0.685   3.551
 3263SOL    HW210689   2.536   0.535   3.613
 3264SOL     OW10690   1.388   4.280   1.075
 3264SOL    HW110691   1.383   4.200   1.134
 3264SOL    HW210692   1.324   4.350   1.106
 3265SOL     OW10693   5.765   0.534   6.400
 3265SOL    HW110694   5.752   0.590   6.319
 3265SOL    HW210695   5.768   0.593   6.481
 3266SOL     OW10696   2.050   4.074   0.857
 3266SOL    HW110697   2.056   4.155   0.915
 3266SOL    HW210698   1.976   4.086   0.791
 3267SOL     OW10699   3.622   6.788   0.601
 3267SOL    HW110700   3.548   6.793   0.534
 3267SOL    HW210701   3.611   6.862   0.668
 3268SOL     OW10702   1.332   3.617   1.005
 3268SOL    HW110703   1.301   3.619   0.910
 3268SOL    HW210704   1.256   3.641   1.066
 3269SOL     OW10705   4.706   5.944   2.394
 3269SOL    HW110706   4.673   5.889   2.317
 3269SOL    HW210707   4.762   5.887   2.454
 3270SOL     OW10708   0.983   4.260   6.261
 3270SOL    HW110709   0.997   4.173   6.309
 3270SOL    HW210710   0.998   4.336   6.324
 3271SOL     OW10711   5.852   3.866   2.904
 3271SOL    HW110712   5.899   3.778   2.906
 3271SOL    HW210713   5.769   3.859   2.849
 3272SOL     OW10714   3.292   4.684   6.197
 3272SOL    HW110715   3.340   4.623   6.259
 3272SOL    HW210716   3.219   4.730   6.246
 3273SOL     OW10717   0.830   6.499   0.661
 3273SOL    HW110718   0.867   6.458   0.744
 3273SOL    HW210719   0.829   6.431   0.588
 3274SOL     OW10720   4.752   0.508   1.057
 3274SOL    HW110721   4.678   0.566   1.021
 3274SOL    HW210722   4.732   0.412   1.036
 3275SOL     OW10723   6.625   1.688   6.424
 3275SOL    HW110724   6.605   1.677   6.522
 3275SOL    HW210725   6.667   1.777   6.408
 3276SOL     OW10726   2.150   5.869   0.506
 3276SOL    HW110727   2.143   5.912   0.596
 3276SOL    HW210728   2.166   5.770   0.517
 3277SOL     OW10729   4.018   6.638   6.919
 3277SOL    HW110730   4.090   6.626   6.987
 3277SOL    HW210731   4.056   6.621   6.827
 3278SOL     OW10732   0.926   1.016   5.411
 3278SOL    HW110733   0.981   1.035   5.492
 3278SOL    HW210734   0.833   1.051   5.425
 3279SOL     OW10735   5.549   0.392   6.803
 3279SOL    HW110736   5.507   0.427   6.887
 3279SOL    HW210737   5.640   0.432   6.791
 3280SOL     OW10738   3.954   5.009   4.461
 3280SOL    HW110739   4.008   5.074   4.409
 3280SOL    HW210740   3.886   5.059   4.516
 3281SOL     OW10741   2.453   5.704   2.015
 3281SOL    HW110742   2.464   5.648   1.932
 3281SOL    HW210743   2.486   5.797   1.996
 3282SOL     OW10744   0.189   4.662   5.421
 3282SOL    HW110745   0.148   4.571   5.418
 3282SOL    HW210746   0.122   4.728   5.456
 3283SOL     OW10747   3.943   0.895   0.986
 3283SOL    HW110748   3.895   0.812   0.958
 3283SOL    HW210749   4.038   0.892   0.954
 3284SOL     OW10750   0.010   5.265   0.164
 3284SOL    HW110751   0.063   5.347   0.187
 3284SOL    HW210752   6.958   5.252   0.232
 3285SOL     OW10753   4.693   2.739   3.360
 3285SOL    HW110754   4.680   2.804   3.285
 3285SOL    HW210755   4.743   2.659   3.328
 3286SOL     OW10756   3.734   3.201   2.776
 3286SOL    HW110757   3.807   3.137   2.801
 3286SOL    HW210758   3.774   3.282   2.733
 3287SOL     OW10759   0.416   0.748   6.786
 3287SOL    HW110760   0.379   0.671   6.734
 3287SOL    HW210761   0.358   0.766   6.864
 3288SOL     OW10762   0.457   5.504   6.475
 3288SOL    HW110763   0.407   5.447   6.540
 3288SOL    HW210764   0.393   5.561   6.424
 3289SOL     OW10765   2.663   6.613   5.974
 3289SOL    HW110766   2.664   6.710   6.000
 3289SOL    HW210767   2.689   6.557   6.053
 3290SOL     OW10768   0.690   0.026   1.799
 3290SOL    HW110769   0.632   0.107   1.803
 3290SOL    HW210770   0.768   0.038   1.861
 3291SOL     OW10771   1.930   6.907   0.880
 3291SOL    HW110772   1.952   6.916   0.978
 3291SOL    HW210773   1.983   6.974   0.828
 3292SOL     OW10774   0.670   1.024   0.849
 3292SOL    HW110775   0.709   0.964   0.919
 3292SOL    HW210776   0.707   1.116   0.861
 3293SOL     OW10777   0.418   3.405   2.367
 3293SOL    HW110778   0.334   3.419   2.420
 3293SOL    HW210779   0.401   3.431   2.272
 3294SOL     OW10780   6.291   1.659   6.539
 3294SOL    HW110781   6.256   1.658   6.445
 3294SOL    HW210782   6.356   1.584   6.551
 3295SOL     OW10783   1.511   3.134   2.297
 3295SOL    HW110784   1.596   3.082   2.302
 3295SOL    HW210785   1.445   3.096   2.362
 3296SOL     OW10786   1.698   7.005   2.197
 3296SOL    HW110787   1.640   0.051   2.243
 3296SOL    HW210788   1.766   0.032   2.141
 3297SOL     OW10789   2.789   0.636   4.388
 3297SOL    HW110790   2.801   0.733   4.409
 3297SOL    HW210791   2.867   0.603   4.336
 3298SOL     OW10792   5.762   1.451   4.999
 3298SOL    HW110793   5.839   1.477   5.057
 3298SOL    HW210794   5.691   1.522   5.004
 3299SOL     OW10795   2.828   5.300   3.224
 3299SOL    HW110796   2.747   5.310   3.282
 3299SOL    HW210797   2.799   5.297   3.128
 3300SOL     OW10798   6.541   0.553   5.458
 3300SOL    HW110799   6.458   0.527   5.508
 3300SOL    HW210800   6.569   0.645   5.487
 3301SOL     OW10801   1.893   3.114   3.401
 3301SOL    HW110802   1.869   3.209   3.381
 3301SOL    HW210803   1.815   3.055   3.381
 3302SOL     OW10804   6.830   4.508   5.484
 3302SOL    HW110805   6.865   4.493   5.576
 3302SOL    HW210806   6.752   4.572   5.488
 3303SOL     OW10807   3.223   3.527   1.428
 3303SOL    HW110808   3.184   3.469   1.357
 3303SOL    HW210809   3.247   3.471   1.507
 3304SOL     OW10810   0.618   5.879   4.192
 3304SOL    HW110811   0.578   5.821   4.263
 3304SOL    HW210812   0.554   5.889   4.116
 3305SOL     OW10813   2.208   1.390   2.896
 3305SOL    HW110814   2.111   1.392   2.918
 3305SOL    HW210815   2.220   1.372   2.798
 3306SOL     OW10816   1.666   5.571   5.173
 3306SOL    HW110817   1.577   5.553   5.130
 3306SOL    HW210818   1.653   5.589   5.270
 3307SOL     OW10819   0.007   5.664   0.164
 3307SOL    HW110820   6.935   5.652   0.126
 3307SOL    HW210821   0.008   5.741   0.227
 3308SOL     OW10822   3.015   6.454   0.450
 3308SOL    HW110823   3.069   6.370   0.456
 3308SOL    HW210824   2.926   6.439   0.492
 3309SOL     OW10825   7.003   6.295   2.544
 3309SOL    HW110826   0.027   6.368   2.492
 3309SOL    HW210827   0.051   6.246   2.598
 3310SOL     OW10828   0.194   3.072   6.124
 3310SOL    HW110829   0.275   3.030   6.084
 3310SOL    HW210830   0.128   3.093   6.052
 3311SOL     OW10831   2.189   4.398   1.720
 3311SOL    HW110832   2.202   4.425   1.624
 3311SOL    HW210833   2.279   4.377   1.760
 3312SOL     OW10834   4.333   4.363   5.916
 3312SOL    HW110835   4.428   4.387   5.932
 3312SOL    HW210836   4.275   4.407   5.984
 3313SOL     OW10837   0.581   5.413   3.183
 3313SOL    HW110838   0.656   5.349   3.164
 3313SOL    HW210839   0.618   5.494   3.229
 3314SOL     OW10840   2.951   1.258   3.426
 3314SOL    HW110841   2.914   1.348   3.406
 3314SOL    HW210842   3.003   1.225   3.347
 3315SOL     OW10843   6.737   3.468   5.176
 3315SOL    HW110844   6.639   3.446   5.174
 3315SOL    HW210845   6.751   3.561   5.144
 3316SOL     OW10846   4.856   1.302   6.383
 3316SOL    HW110847   4.924   1.375   6.377
 3316SOL    HW210848   4.856   1.264   6.476
 3317SOL     OW10849   4.458   3.122   1.686
 3317SOL    HW110850   4.440   3.218   1.708
 3317SOL    HW210851   4.490   3.075   1.768
 3318SOL     OW10852   2.524   1.181   1.010
 3318SOL    HW110853   2.605   1.215   0.962
 3318SOL    HW210854   2.530   1.082   1.020
 3319SOL     OW10855   6.692   1.010   3.837
 3319SOL    HW110856   6.651   1.092   3.876
 3319SOL    HW210857   6.771   1.035   3.782
 3320SOL     OW10858   5.659   6.871   4.746
 3320SOL    HW110859   5.738   6.814   4.725
 3320SOL    HW210860   5.680   6.966   4.721
 3321SOL     OW10861   4.598   1.563   0.453
 3321SOL    HW110862   4.629   1.468   0.463
 3321SOL    HW210863   4.605   1.590   0.357
 3322SOL     OW10864   5.579   3.115   0.684
 3322SOL    HW110865   5.577   3.173   0.602
 3322SOL    HW210866   5.590   3.020   0.657
 3323SOL     OW10867   2.985   3.033   0.681
 3323SOL    HW110868   2.931   3.054   0.763
 3323SOL    HW210869   2.923   3.015   0.604
 3324SOL     OW10870   3.053   5.601   0.109
 3324SOL    HW110871   2.962   5.593   0.069
 3324SOL    HW210872   3.053   5.673   0.178
 3325SOL     OW10873   1.424   3.253   6.965
 3325SOL    HW110874   1.434   3.240   0.044
 3325SOL    HW210875   1.406   3.350   6.946
 3326SOL     OW10876   5.085   2.191   2.044
 3326SOL    HW110877   5.034   2.119   1.997
 3326SOL    HW210878   5.167   2.212   1.991
 3327SOL     OW10879   2.787   6.248   1.703
 3327SOL    HW110880   2.778   6.344   1.732
 3327SOL    HW210881   2.705   6.198   1.728
 3328SOL     OW10882   4.177   1.493   0.953
 3328SOL    HW110883   4.253   1.531   0.901
 3328SOL    HW210884   4.144   1.410   0.908
 3329SOL     OW10885   4.987   7.007   4.143
 3329SOL    HW110886   5.027   6.972   4.058
 3329SOL    HW210887   4.908   0.044   4.121
 3330SOL     OW10888   6.338   4.728   1.602
 3330SOL    HW110889   6.408   4.691   1.542
 3330SOL    HW210890   6.248   4.698   1.570
 3331SOL     OW10891   2.039   3.353   0.905
 3331SOL    HW110892   1.962   3.293   0.926
 3331SOL    HW210893   2.123   3.300   0.901
 3332SOL     OW10894   6.542   4.994   0.256
 3332SOL    HW110895   6.473   5.040   0.200
 3332SOL    HW210896   6.597   4.933   0.199
 3333SOL     OW10897   3.622   4.069   0.145
 3333SOL    HW110898   3.593   4.124   0.067
 3333SOL    HW210899   3.716   4.093   0.170
 3334SOL     OW10900   2.903   3.666   1.061
 3334SOL    HW110901   2.863   3.610   1.134
 3334SOL    HW210902   2.839   3.671   0.984
 3335SOL     OW10903   4.966   6.540   5.406
 3335SOL    HW110904   5.036   6.477   5.371
 3335SOL    HW210905   4.875   6.500   5.392
 3336SOL     OW10906   1.710   6.376   4.585
 3336SOL    HW110907   1.762   6.337   4.661
 3336SOL    HW210908   1.764   6.370   4.501
 3337SOL     OW10909   2.955   3.819   2.495
 3337SOL    HW110910   2.884   3.872   2.541
 3337SOL    HW210911   3.041   3.826   2.546
 3338SOL     OW10912   5.756   3.331   2.314
 3338SOL    HW110913   5.671   3.362   2.357
 3338SOL    HW210914   5.765   3.232   2.326
 3339SOL     OW10915   0.351   0.155   6.589
 3339SOL    HW110916   0.428   0.161   6.652
 3339SOL    HW210917   0.308   0.065   6.598
 3340SOL     OW10918   3.977   1.810   2.971
 3340SOL    HW110919   3.903   1.796   3.036
 3340SOL    HW210920   4.058   1.844   3.019
 3341SOL     OW10921   0.830   5.635   3.105
 3341SOL    HW110922   0.822   5.655   3.007
 3341SOL    HW210923   0.923   5.604   3.126
 3342SOL     OW10924   1.732   6.507   3.907
 3342SOL    HW110925   1.756   6.412   3.929
 3342SOL    HW210926   1.785   6.537   3.828
 3343SOL     OW10927   5.393   3.422   0.009
 3343SOL    HW110928   5.492   3.434   0.007
 3343SOL    HW210929   5.351   3.500   0.057
 3344SOL     OW10930   5.955   3.097   3.783
 3344SOL    HW110931   5.931   3.004   3.809
 3344SOL    HW210932   5.990   3.146   3.863
 3345SOL     OW10933   2.035   3.158   5.760
 3345SOL    HW110934   2.095   3.200   5.828
 3345SOL    HW210935   2.085   3.145   5.675
 3346SOL     OW10936   1.681   1.098   0.303
 3346SOL    HW110937   1.775   1.111   0.335
 3346SOL    HW210938   1.664   1.153   0.222
 3347SOL     OW10939   0.717   3.514   5.843
 3347SOL    HW110940   0.742   3.520   5.747
 3347SOL    HW210941   0.739   3.424   5.879
 3348SOL     OW10942   3.546   3.753   4.314
 3348SOL    HW110943   3.566   3.843   4.274
 3348SOL    HW210944   3.460   3.757   4.363
 3349SOL     OW10945   1.453   5.198   3.022
 3349SOL    HW110946   1.466   5.150   3.108
 3349SOL    HW210947   1.513   5.159   2.952
 3350SOL     OW10948   0.673   2.595   5.863
 3350SOL    HW110949   0.708   2.668   5.804
 3350SOL    HW210950   0.743   2.523   5.871
 3351SOL     OW10951   4.485   0.990   2.410
 3351SOL    HW110952   4.395   0.979   2.367
 3351SOL    HW210953   4.485   0.946   2.500
 3352SOL     OW10954   0.065   2.575   0.636
 3352SOL    HW110955   0.088   2.593   0.540
 3352SOL    HW210956   0.002   2.646   0.668
 3353SOL     OW10957   2.783   5.749   1.680
 3353SOL    HW110958   2.794   5.766   1.778
 3353SOL    HW210959   2.753   5.833   1.635
 3354SOL     OW10960   4.733   2.508   5.965
 3354SOL    HW110961   4.746   2.489   5.868
 3354SOL    HW210962   4.806   2.567   5.998
 3355SOL     OW10963   2.246   2.111   6.290
 3355SOL    HW110964   2.237   2.209   6.275
 3355SOL    HW210965   2.319   2.094   6.356
 3356SOL     OW10966   0.441   5.021   5.550
 3356SOL    HW110967   0.386   4.992   5.472
 3356SOL    HW210968   0.452   5.120   5.548
 3357SOL     OW10969   2.179   3.908   2.141
 3357SOL    HW110970   2.190   3.890   2.239
 3357SOL    HW210971   2.174   3.820   2.092
 3358SOL     OW10972   4.969   1.432   1.098
 3358SOL    HW110973   4.970   1.477   1.009
 3358SOL    HW210974   4.907   1.481   1.160
 3359SOL     OW10975   0.414   6.783   2.682
 3359SOL    HW110976   0.481   6.851   2.652
 3359SOL    HW210977   0.458   6.693   2.688
 3360SOL     OW10978   1.763   1.637   0.018
 3360SOL    HW110979   1.818   1.710   0.059
 3360SOL    HW210980   1.678   1.627   0.069
 3361SOL     OW10981   0.749   5.238   4.245
 3361SOL    HW110982   0.782   5.195   4.161
 3361SOL    HW210983   0.827   5.271   4.298
 3362SOL     OW10984   3.583   1.164   3.073
 3362SOL    HW110985   3.603   1.087   3.012
 3362SOL    HW210986   3.532   1.234   3.023
 3363SOL     OW10987   6.202   0.231   1.951
 3363SOL    HW110988   6.155   0.237   1.863
 3363SOL    HW210989   6.137   0.206   2.023
 3364SOL     OW10990   1.026   4.984   3.904
 3364SOL    HW110991   0.981   5.073   3.914
 3364SOL    HW210992   1.124   4.998   3.885
 3365SOL     OW10993   6.578   2.391   5.478
 3365SOL    HW110994   6.663   2.422   5.437
 3365SOL    HW210995   6.501   2.421   5.422
 3366SOL     OW10996   6.299   5.752   5.138
 3366SOL    HW110997   6.314   5.836   5.190
 3366SOL    HW210998   6.259   5.683   5.198
 3367SOL     OW10999   3.707   2.834   2.324
 3367SOL    HW111000   3.787   2.891   2.304
 3367SOL    HW211001   3.737   2.741   2.345
 3368SOL     OW11002   0.795   5.476   6.253
 3368SOL    HW111003   0.753   5.466   6.343
 3368SOL    HW211004   0.808   5.386   6.212
 3369SOL     OW11005   3.860   2.097   0.510
 3369SOL    HW111006   3.835   2.193   0.525
 3369SOL    HW211007   3.857   2.076   0.412
 3370SOL     OW11008   0.330   5.979   0.550
 3370SOL    HW111009   0.350   6.010   0.643
 3370SOL    HW211010   0.408   5.926   0.516
 3371SOL     OW11011   2.563   2.644   1.836
 3371SOL    HW111012   2.505   2.725   1.845
 3371SOL    HW211013   2.537   2.576   1.904
 3372SOL     OW11014   0.428   2.116   1.846
 3372SOL    HW111015   0.438   2.059   1.765
 3372SOL    HW211016   0.334   2.151   1.852
 3373SOL     OW11017   6.874   1.445   3.543
 3373SOL    HW111018   6.951   1.412   3.488
 3373SOL    HW211019   6.804   1.483   3.482
 3374SOL     OW11020   1.598   6.064   4.712
 3374SOL    HW111021   1.570   5.975   4.750
 3374SOL    HW211022   1.602   6.058   4.613
 3375SOL     OW11023   0.011   4.453   6.606
 3375SOL    HW111024   6.991   4.524   6.663
 3375SOL    HW211025   0.108   4.443   6.630
 3376SOL     OW11026   4.136   3.620   4.115
 3376SOL    HW111027   4.041   3.636   4.087
 3376SOL    HW211028   4.141   3.538   4.171
 3377SOL     OW11029   0.105   5.881   6.366
 3377SOL    HW111030   0.018   5.880   6.416
 3377SOL    HW211031   0.165   5.951   6.406
 3378SOL     OW11032   0.663   1.250   0.437
 3378SOL    HW111033   0.760   1.230   0.428
 3378SOL    HW211034   0.651   1.333   0.491
 3379SOL     OW11035   6.833   0.127   6.004
 3379SOL    HW111036   6.798   0.112   5.912
 3379SOL    HW211037   6.799   0.056   6.065
 3380SOL     OW11038   5.384   6.222   4.690
 3380SOL    HW111039   5.325   6.145   4.668
 3380SOL    HW211040   5.398   6.225   4.789
 3381SOL     OW11041   0.727   2.847   1.610
 3381SOL    HW111042   0.797   2.858   1.539
 3381SOL    HW211043   0.637   2.839   1.568
 3382SOL     OW11044   1.001   2.447   0.676
 3382SOL    HW111045   0.967   2.357   0.702
 3382SOL    HW211046   1.101   2.448   0.680
 3383SOL     OW11047   4.672   5.961   1.199
 3383SOL    HW111048   4.735   6.007   1.137
 3383SOL    HW211049   4.616   5.895   1.149
 3384SOL     OW11050   2.852   3.294   6.322
 3384SOL    HW111051   2.916   3.338   6.386
 3384SOL    HW211052   2.759   3.305   6.356
 3385SOL     OW11053   6.613   3.187   4.759
 3385SOL    HW111054   6.571   3.155   4.674
 3385SOL    HW211055   6.546   3.182   4.833
 3386SOL     OW11056   5.758   4.272   0.059
 3386SOL    HW111057   5.695   4.194   0.057
 3386SOL    HW211058   5.724   4.342   0.121
 3387SOL     OW11059   3.137   0.225   2.885
 3387SOL    HW111060   3.099   0.171   2.960
 3387SOL    HW211061   3.063   0.272   2.837
 3388SOL     OW11062   5.324   2.833   1.635
 3388SOL    HW111063   5.307   2.932   1.631
 3388SOL    HW211064   5.240   2.787   1.666
 3389SOL     OW11065   5.782   5.093   6.312
 3389SOL    HW111066   5.694   5.127   6.344
 3389SOL    HW211067   5.795   5.119   6.216
 3390SOL     OW11068   5.862   5.902   6.599
 3390SOL    HW111069   5.923   5.981   6.597
 3390SOL    HW211070   5.915   5.819   6.581
 3391SOL     OW11071   4.917   3.036   4.907
 3391SOL    HW111072   4.856   2.964   4.939
 3391SOL    HW211073   4.904   3.119   4.962
 3392SOL     OW11074   2.515   0.491   3.794
 3392SOL    HW111075   2.524   0.569   3.857
 3392SOL    HW211076   2.575   0.417   3.824
 3393SOL     OW11077   0.418   6.189   0.313
 3393SOL    HW111078   0.403   6.090   0.305
 3393SOL    HW211079   0.502   6.214   0.264
 3394SOL     OW11080   5.472   3.457   1.570
 3394SOL    HW111081   5.560   3.497   1.596
 3394SOL    HW211082   5.408   3.464   1.646
 3395SOL     OW11083   5.297   3.551   3.422
 3395SOL    HW111084   5.364   3.478   3.411
 3395SOL    HW211085   5.204   3.513   3.422
 3396SOL     OW11086   5.622   1.973   3.093
 3396SOL    HW111087   5.586   2.043   3.032
 3396SOL    HW211088   5.717   1.954   3.070
 3397SOL     OW11089   2.859   6.514   5.842
 3397SOL    HW111090   2.825   6.437   5.788
 3397SOL    HW211091   2.782   6.563   5.883
 3398SOL     OW11092   1.164   6.617   4.834
 3398SOL    HW111093   1.258   6.604   4.866
 3398SOL    HW211094   1.134   6.535   4.785
 3399SOL     OW11095   5.585   3.889   3.338
 3399SOL    HW111096   5.535   3.803   3.343
 3399SOL    HW211097   5.541   3.956   3.397
 3400SOL     OW11098   4.199   3.240   5.945
 3400SOL    HW111099   4.166   3.186   5.868
 3400SOL    HW211100   4.207   3.336   5.918
 3401SOL     OW11101   0.959   2.776   1.425
 3401SOL    HW111102   0.977   2.831   1.343
 3401SOL    HW211103   0.957   2.679   1.399
 3402SOL     OW11104   4.265   5.919   6.902
 3402SOL    HW111105   4.284   5.854   6.975
 3402SOL    HW211106   4.341   5.921   6.838
 3403SOL     OW11107   2.966   5.722   5.661
 3403SOL    HW111108   2.949   5.667   5.579
 3403SOL    HW211109   3.033   5.793   5.640
 3404SOL     OW11110   5.289   1.321   0.037
 3404SOL    HW111111   5.232   1.361   6.985
 3404SOL    HW211112   5.379   1.364   0.037
 3405SOL     OW11113   6.653   3.828   5.731
 3405SOL    HW111114   6.726   3.841   5.799
 3405SOL    HW211115   6.693   3.830   5.639
 3406SOL     OW11116   0.934   3.723   2.098
 3406SOL    HW111117   0.877   3.686   2.024
 3406SOL    HW211118   0.961   3.817   2.075
 3407SOL     OW11119   1.357   4.816   6.115
 3407SOL    HW111120   1.324   4.724   6.138
 3407SOL    HW211121   1.456   4.816   6.112
 3408SOL     OW11122   4.966   3.858   4.622
 3408SOL    HW111123   4.926   3.948   4.601
 3408SOL    HW211124   5.066   3.866   4.625
 3409SOL     OW11125   3.271   6.863   6.591
 3409SOL    HW111126   3.326   6.925   6.647
 3409SOL    HW211127   3.310   6.771   6.595
 3410SOL     OW11128   6.554   6.927   1.120
 3410SOL    HW111129   6.575   0.002   1.141
 3410SOL    HW211130   6.597   6.903   1.032
 3411SOL     OW11131   0.735   3.353   2.236
 3411SOL    HW111132   0.812   3.363   2.300
 3411SOL    HW211133   0.674   3.431   2.245
 3412SOL     OW11134   4.659   2.906   0.624
 3412SOL    HW111135   4.682   2.980   0.687
 3412SOL    HW211136   4.644   2.944   0.533
 3413SOL     OW11137   5.794   1.369   0.813
 3413SOL    HW111138   5.866   1.415   0.864
 3413SOL    HW211139   5.834   1.318   0.737
 3414SOL     OW11140   3.621   1.318   6.325
 3414SOL    HW111141   3.608   1.238   6.384
 3414SOL    HW211142   3.644   1.397   6.381
 3415SOL     OW11143   1.919   3.550   4.394
 3415SOL    HW111144   1.960   3.524   4.482
 3415SOL    HW211145   1.974   3.622   4.351
 3416SOL     OW11146   6.379   5.937   0.602
 3416SOL    HW111147   6.466   5.954   0.555
 3416SOL    HW211148   6.383   5.850   0.650
 3417SOL     OW11149   0.734   6.574   3.082
 3417SOL    HW111150   0.814   6.557   3.139
 3417SOL    HW211151   0.747   6.532   2.992
 3418SOL     OW11152   3.119   6.195   3.748
 3418SOL    HW111153   3.182   6.120   3.771
 3418SOL    HW211154   3.154   6.245   3.668
 3419SOL     OW11155   2.799   5.872   5.509
 3419SOL    HW111156   2.817   5.865   5.411
 3419SOL    HW211157   2.886   5.872   5.559
 3420SOL     OW11158   5.742   3.437   4.284
 3420SOL    HW111159   5.774   3.353   4.241
 3420SOL    HW211160   5.782   3.517   4.238
 3421SOL     OW11161   4.788   1.262   5.073
 3421SOL    HW111162   4.690   1.264   5.050
 3421SOL    HW211163   4.839   1.220   4.998
 3422SOL     OW11164   2.531   0.518   1.000
 3422SOL    HW111165   2.440   0.498   1.036
 3422SOL    HW211166   2.593   0.539   1.076
 3423SOL     OW11167   0.292   4.711   6.743
 3423SOL    HW111168   0.227   4.786   6.732
 3423SOL    HW211169   0.302   4.662   6.656
 3424SOL     OW11170   2.792   6.798   0.953
 3424SOL    HW111171   2.722   6.775   0.885
 3424SOL    HW211172   2.879   6.758   0.926
 3425SOL     OW11173   5.257   5.282   2.484
 3425SOL    HW111174   5.267   5.374   2.521
 3425SOL    HW211175   5.312   5.218   2.537
 3426SOL     OW11176   3.949   2.629   0.380
 3426SOL    HW111177   4.012   2.622   0.303
 3426SOL    HW211178   3.877   2.695   0.359
 3427SOL     OW11179   0.027   0.883   6.983
 3427SOL    HW111180   6.965   0.923   0.002
 3427SOL    HW211181   0.006   0.793   6.946
 3428SOL     OW11182   2.132   5.460   0.260
 3428SOL    HW111183   2.156   5.535   0.199
 3428SOL    HW211184   2.132   5.493   0.355
 3429SOL     OW11185   0.920   1.832   0.932
 3429SOL    HW111186   0.849   1.762   0.935
 3429SOL    HW211187   0.887   1.911   0.880
 3430SOL     OW11188   1.588   6.418   5.245
 3430SOL    HW111189   1.495   6.430   5.212
 3430SOL    HW211190   1.598   6.461   5.335
 3431SOL     OW11191   1.598   0.328   1.165
 3431SOL    HW111192   1.592   0.329   1.065
 3431SOL    HW211193   1.690   0.356   1.193
 3432SOL     OW11194   2.000   2.735   6.758
 3432SOL    HW111195   2.019   2.781   6.672
 3432SOL    HW211196   1.929   2.784   6.808
 3433SOL     OW11197   1.357   0.198   5.264
 3433SOL    HW111198   1.419   0.254   5.317
 3433SOL    HW211199   1.352   0.106   5.303
 3434SOL     OW11200   4.360   1.218   1.517
 3434SOL    HW111201   4.368   1.181   1.424
 3434SOL    HW211202   4.263   1.220   1.544
 3435SOL     OW11203   1.122   1.725   1.338
 3435SOL    HW111204   1.066   1.789   1.390
 3435SOL    HW211205   1.137   1.761   1.246
 3436SOL     OW11206   4.386   6.730   6.793
 3436SOL    HW111207   4.375   6.827   6.813
 3436SOL    HW211208   4.483   6.710   6.780
 3437SOL     OW11209   2.096   0.269   5.449
 3437SOL    HW111210   2.136   0.340   5.391
 3437SOL    HW211211   2.000   0.291   5.466
 3438SOL     OW11212   1.268   3.015   0.116
 3438SOL    HW111213   1.246   3.021   0.018
 3438SOL    HW211214   1.334   2.942   0.130
 3439SOL     OW11215   2.234   5.868   4.590
 3439SOL    HW111216   2.229   5.791   4.654
 3439SOL    HW211217   2.157   5.930   4.607
 3440SOL     OW11218   3.133   3.520   1.049
 3440SOL    HW111219   3.063   3.590   1.060
 3440SOL    HW211220   3.132   3.458   1.127
 3441SOL     OW11221   5.798   5.707   5.746
 3441SOL    HW111222   5.874   5.661   5.701
 3441SOL    HW211223   5.824   5.733   5.839
 3442SOL     OW11224   2.132   4.611   2.135
 3442SOL    HW111225   2.109   4.522   2.098
 3442SOL    HW211226   2.127   4.609   2.234
 3443SOL     OW11227   4.196   6.075   1.386
 3443SOL    HW111228   4.174   5.992   1.335
 3443SOL    HW211229   4.293   6.098   1.372
 3444SOL     OW11230   5.242   5.179   6.952
 3444SOL    HW111231   5.272   5.273   6.969
 3444SOL    HW211232   5.153   5.165   6.993
 3445SOL     OW11233   6.376   5.558   3.192
 3445SOL    HW111234   6.322   5.562   3.108
 3445SOL    HW211235   6.417   5.467   3.200
 3446SOL     OW11236   6.745   1.219   2.515
 3446SOL    HW111237   6.740   1.261   2.424
 3446SOL    HW211238   6.784   1.285   2.580
 3447SOL     OW11239   5.845   5.319   0.723
 3447SOL    HW111240   5.883   5.239   0.677
 3447SOL    HW211241   5.805   5.291   0.811
 3448SOL     OW11242   3.513   0.799   7.016
 3448SOL    HW111243   3.504   0.785   6.917
 3448SOL    HW211244   3.608   0.781   0.023
 3449SOL     OW11245   5.477   5.918   4.464
 3449SOL    HW111246   5.558   5.977   4.466
 3449SOL    HW211247   5.458   5.884   4.556
 3450SOL     OW11248   6.997   2.661   6.378
 3450SOL    HW111249   7.004   2.758   6.354
 3450SOL    HW211250   6.954   2.611   6.303
 3451SOL     OW11251   2.476   5.938   0.702
 3451SOL    HW111252   2.496   5.948   0.605
 3451SOL    HW211253   2.524   5.858   0.738
 3452SOL     OW11254   5.985   0.819   6.338
 3452SOL    HW111255   5.899   0.869   6.327
 3452SOL    HW211256   6.047   0.873   6.394
 3453SOL     OW11257   7.003   6.080   6.682
 3453SOL    HW111258   6.954   6.019   6.745
 3453SOL    HW211259   6.943   6.156   6.657
 3454SOL     OW11260   1.179   2.602   5.043
 3454SOL    HW111261   1.184   2.670   5.116
 3454SOL    HW211262   1.211   2.514   5.077
 3455SOL     OW11263   2.792   2.088   4.803
 3455SOL    HW111264   2.829   2.120   4.716
 3455SOL    HW211265   2.730   2.012   4.787
 3456SOL     OW11266   5.332   5.345   1.961
 3456SOL    HW111267   5.421   5.299   1.954
 3456SOL    HW211268   5.306   5.354   2.057
 3457SOL     OW11269   2.757   5.279   2.887
 3457SOL    HW111270   2.737   5.202   2.826
 3457SOL    HW211271   2.854   5.303   2.881
 3458SOL     OW11272   4.646   0.797   2.292
 3458SOL    HW111273   4.725   0.842   2.252
 3458SOL    HW211274   4.579   0.866   2.319
 3459SOL     OW11275   5.524   3.149   2.960
 3459SOL    HW111276   5.605   3.119   3.010
 3459SOL    HW211277   5.444   3.098   2.993
 3460SOL     OW11278   2.409   3.117   0.639
 3460SOL    HW111279   2.474   3.138   0.712
 3460SOL    HW211280   2.339   3.189   0.635
 3461SOL     OW11281   4.834   4.749   4.977
 3461SOL    HW111282   4.797   4.840   4.997
 3461SOL    HW211283   4.769   4.679   5.007
 3462SOL     OW11284   0.238   4.828   3.305
 3462SOL    HW111285   0.188   4.759   3.253
 3462SOL    HW211286   0.246   4.800   3.400
 3463SOL     OW11287   1.157   4.127   2.297
 3463SOL    HW111288   1.174   4.126   2.199
 3463SOL    HW211289   1.092   4.200   2.319
 3464SOL     OW11290   6.842   3.985   5.830
 3464SOL    HW111291   6.844   4.068   5.774
 3464SOL    HW211292   6.829   4.010   5.926
 3465SOL     OW11293   1.591   1.922   2.263
 3465SOL    HW111294   1.644   1.969   2.333
 3465SOL    HW211295   1.495   1.919   2.290
 3466SOL     OW11296   6.965   4.676   0.196
 3466SOL    HW111297   7.017   4.735   0.134
 3466SOL    HW211298   0.001   4.652   0.275
 3467SOL     OW11299   1.900   2.624   0.225
 3467SOL    HW111300   1.924   2.604   0.320
 3467SOL    HW211301   1.982   2.652   0.175
 3468SOL     OW11302   4.804   6.494   2.691
 3468SOL    HW111303   4.836   6.406   2.726
 3468SOL    HW211304   4.705   6.493   2.683
 3469SOL     OW11305   5.511   0.702   2.494
 3469SOL    HW111306   5.441   0.758   2.539
 3469SOL    HW211307   5.489   0.605   2.509
 3470SOL     OW11308   5.934   4.058   1.089
 3470SOL    HW111309   6.007   4.006   1.045
 3470SOL    HW211310   5.973   4.110   1.166
 3471SOL     OW11311   4.218   5.128   4.416
 3471SOL    HW111312   4.177   5.076   4.490
 3471SOL    HW211313   4.300   5.175   4.449
 3472SOL     OW11314   2.573   0.980   2.072
 3472SOL    HW111315   2.536   0.904   2.126
 3472SOL    HW211316   2.515   1.061   2.085
 3473SOL     OW11317   0.479   2.550   1.036
 3473SOL    HW111318   0.422   2.563   1.118
 3473SOL    HW211319   0.466   2.628   0.975
 3474SOL     OW11320   1.403   5.132   2.208
 3474SOL    HW111321   1.330   5.139   2.275
 3474SOL    HW211322   1.474   5.070   2.241
 3475SOL     OW11323   0.268   5.333   3.771
 3475SOL    HW111324   0.302   5.423   3.744
 3475SOL    HW211325   0.338   5.264   3.753
 3476SOL     OW11326   3.251   1.500   3.472
 3476SOL    HW111327   3.159   1.479   3.439
 3476SOL    HW211328   3.259   1.472   3.568
 3477SOL     OW11329   2.873   5.121   1.005
 3477SOL    HW111330   2.894   5.209   0.963
 3477SOL    HW211331   2.829   5.135   1.094
 3478SOL     OW11332   2.150   6.074   4.832
 3478SOL    HW111333   2.125   6.147   4.895
 3478SOL    HW211334   2.087   6.074   4.755
 3479SOL     OW11335   1.883   0.983   3.002
 3479SOL    HW111336   1.821   0.925   2.950
 3479SOL    HW211337   1.854   1.079   2.993
 3480SOL     OW11338   0.219   6.925   5.143
 3480SOL    HW111339   0.305   6.965   5.172
 3480SOL    HW211340   0.145   6.956   5.204
 3481SOL     OW11341   4.638   0.332   0.699
 3481SOL    HW111342   4.734   0.356   0.707
 3481SOL    HW211343   4.595   0.332   0.790
 3482SOL     OW11344   6.065   1.498   1.878
 3482SOL    HW111345   5.965   1.503   1.883
 3482SOL    HW211346   6.100   1.450   1.959
 3483SOL     OW11347   4.584   1.846   1.603
 3483SOL    HW111348   4.499   1.807   1.637
 3483SOL    HW211349   4.594   1.940   1.637
 3484SOL     OW11350   1.585   3.509   0.707
 3484SOL    HW111351   1.613   3.599   0.740
 3484SOL    HW211352   1.494   3.488   0.743
 3485SOL     OW11353   1.907   1.077   4.347
 3485SOL    HW111354   1.884   1.034   4.260
 3485SOL    HW211355   1.946   1.168   4.330
 3486SOL     OW11356   2.936   1.255   2.884
 3486SOL    HW111357   2.901   1.201   2.961
 3486SOL    HW211358   2.859   1.294   2.833
 3487SOL     OW11359   5.509   2.593   6.026
 3487SOL    HW111360   5.585   2.657   6.020
 3487SOL    HW211361   5.475   2.573   5.934
 3488SOL     OW11362   6.051   1.739   4.798
 3488SOL    HW111363   6.063   1.640   4.797
 3488SOL    HW211364   6.131   1.782   4.841
 3489SOL     OW11365   3.124   0.019   0.816
 3489SOL    HW111366   3.032   0.055   0.830
 3489SOL    HW211367   3.154   6.990   0.898
 3490SOL     OW11368   3.996   4.630   0.334
 3490SOL    HW111369   3.922   4.567   0.309
 3490SOL    HW211370   4.084   4.584   0.324
 3491SOL     OW11371   5.358   2.857   5.111
 3491SOL    HW111372   5.302   2.850   5.194
 3491SOL    HW211373   5.444   2.904   5.134
 3492SOL     OW11374   0.292   5.770   1.337
 3492SOL    HW111375   0.213   5.708   1.334
 3492SOL    HW211376   0.319   5.794   1.243
 3493SOL     OW11377   5.388   4.110   6.377
 3493SOL    HW111378   5.384   4.210   6.385
 3493SOL    HW211379   5.394   4.085   6.280
 3494SOL     OW11380   3.834   0.680   1.659
 3494SOL    HW111381   3.919   0.665   1.609
 3494SOL    HW211382   3.780   0.750   1.613
 3495SOL     OW11383   5.260   5.544   2.579
 3495SOL    HW111384   5.192   5.580   2.515
 3495SOL    HW211385   5.262   5.600   2.661
 3496SOL     OW11386   6.739   4.048   0.660
 3496SOL    HW111387   6.686   4.131   0.679
 3496SOL    HW211388   6.676   3.972   0.643
 3497SOL     OW11389   3.342   0.655   3.689
 3497SOL    HW111390   3.331   0.692   3.597
 3497SOL    HW211391   3.391   0.568   3.684
 3498SOL     OW11392   2.605   2.073   1.107
 3498SOL    HW111393   2.698   2.094   1.137
 3498SOL    HW211394   2.604   2.062   1.007
 3499SOL     OW11395   4.716   2.662   4.483
 3499SOL    HW111396   4.641   2.621   4.432
 3499SOL    HW211397   4.704   2.643   4.581
 3500SOL     OW11398   1.445   3.512   4.544
 3500SOL    HW111399   1.417   3.608   4.548
 3500SOL    HW211400   1.544   3.505   4.557
 3501SOL     OW11401   1.793   5.162   4.148
 3501SOL    HW111402   1.792   5.065   4.173
 3501SOL    HW211403   1.711   5.206   4.185
 3502SOL     OW11404   5.743   2.505   2.242
 3502SOL    HW111405   5.743   2.406   2.259
 3502SOL    HW211406   5.649   2.536   2.226
 3503SOL     OW11407   6.643   6.446   4.796
 3503SOL    HW111408   6.718   6.380   4.793
 3503SOL    HW211409   6.658   6.509   4.873
 3504SOL     OW11410   2.107   2.077   1.249
 3504SOL    HW111411   2.185   2.017   1.233
 3504SOL    HW211412   2.136   2.156   1.304
 3505SOL     OW11413   5.517   4.906   5.028
 3505SOL    HW111414   5.480   4.898   4.936
 3505SOL    HW211415   5.471   4.841   5.088
 3506SOL     OW11416   4.742   5.235   6.117
 3506SOL    HW111417   4.757   5.239   6.018
 3506SOL    HW211418   4.830   5.234   6.164
 3507SOL     OW11419   1.952   1.291   0.304
 3507SOL    HW111420   1.993   1.380   0.324
 3507SOL    HW211421   1.929   1.286   0.207
 3508SOL     OW11422   3.128   2.442   5.920
 3508SOL    HW111423   3.169   2.487   5.999
 3508SOL    HW211424   3.168   2.478   5.836
 3509SOL     OW11425   6.026   0.002   5.486
 3509SOL    HW111426   5.968   6.943   5.470
 3509SOL    HW211427   5.992   0.052   5.566
 3510SOL     OW11428   1.930   2.733   1.273
 3510SOL    HW111429   1.862   2.739   1.346
 3510SOL    HW211430   1.889   2.765   1.187
 3511SOL     OW11431   1.852   4.954   0.540
 3511SOL    HW111432   1.819   5.027   0.600
 3511SOL    HW211433   1.815   4.967   0.448
 3512SOL     OW11434   0.279   5.131   0.773
 3512SOL    HW111435   0.294   5.177   0.685
 3512SOL    HW211436   0.181   5.111   0.783
 3513SOL     OW11437   6.148   3.787   0.571
 3513SOL    HW111438   6.071   3.842   0.602
 3513SOL    HW211439   6.158   3.707   0.631
 3514SOL     OW11440   0.880   1.500   2.189
 3514SOL    HW111441   0.854   1.596   2.177
 3514SOL    HW211442   0.978   1.494   2.208
 3515SOL     OW11443   4.103   6.232   3.229
 3515SOL    HW111444   4.014   6.226   3.275
 3515SOL    HW211445   4.111   6.157   3.163
 3516SOL     OW11446   4.706   6.851   0.757
 3516SOL    HW111447   4.674   6.913   0.686
 3516SOL    HW211448   4.768   6.783   0.717
 3517SOL     OW11449   0.851   2.084   0.803
 3517SOL    HW111450   0.751   2.083   0.811
 3517SOL    HW211451   0.876   2.080   0.706
 3518SOL     OW11452   5.743   3.957   4.933
 3518SOL    HW111453   5.705   3.937   4.843
 3518SOL    HW211454   5.772   3.872   4.977
 3519SOL     OW11455   0.880   0.904   6.229
 3519SOL    HW111456   0.897   0.907   6.130
 3519SOL    HW211457   0.896   0.811   6.262
 3520SOL     OW11458   2.849   5.587   6.944
 3520SOL    HW111459   2.918   5.654   6.917
 3520SOL    HW211460   2.853   5.508   6.884
 3521SOL     OW11461   5.667   3.435   0.003
 3521SOL    HW111462   5.722   3.463   0.081
 3521SOL    HW211463   5.673   3.336   7.012
 3522SOL     OW11464   6.378   4.509   2.020
 3522SOL    HW111465   6.301   4.465   2.067
 3522SOL    HW211466   6.427   4.442   1.966
 3523SOL     OW11467   2.692   4.919   5.748
 3523SOL    HW111468   2.782   4.951   5.717
 3523SOL    HW211469   2.623   4.939   5.678
 3524SOL     OW11470   3.115   0.985   1.237
 3524SOL    HW111471   3.148   1.070   1.278
 3524SOL    HW211472   3.189   0.918   1.238
 3525SOL     OW11473   0.838   4.074   2.372
 3525SOL    HW111474   0.876   4.030   2.291
 3525SOL    HW211475   0.887   4.160   2.389
 3526SOL     OW11476   2.792   6.254   3.676
 3526SOL    HW111477   2.873   6.269   3.619
 3526SOL    HW211478   2.812   6.281   3.770
 3527SOL     OW11479   6.309   3.097   6.433
 3527SOL    HW111480   6.391   3.108   6.376
 3527SOL    HW211481   6.308   3.005   6.472
 3528SOL     OW11482   0.904   5.232   3.986
 3528SOL    HW111483   0.901   5.240   3.887
 3528SOL    HW211484   0.956   5.308   4.024
 3529SOL     OW11485   4.880   0.263   6.018
 3529SOL    HW111486   4.784   0.237   6.024
 3529SOL    HW211487   4.900   0.295   5.925
 3530SOL     OW11488   1.797   5.070   3.621
 3530SOL    HW111489   1.868   5.107   3.561
 3530SOL    HW211490   1.808   5.107   3.713
 3531SOL     OW11491   4.462   3.597   0.681
 3531SOL    HW111492   4.543   3.615   0.625
 3531SOL    HW211493   4.449   3.671   0.747
 3532SOL     OW11494   2.658   1.036   1.283
 3532SOL    HW111495   2.611   1.080   1.359
 3532SOL    HW211496   2.725   1.099   1.244
 3533SOL     OW11497   1.566   1.898   2.643
 3533SOL    HW111498   1.649   1.857   2.606
 3533SOL    HW211499   1.586   1.991   2.673
 3534SOL     OW11500   5.418   0.795   5.088
 3534SOL    HW111501   5.333   0.780   5.138
 3534SOL    HW211502   5.491   0.742   5.130
 3535SOL     OW11503   0.722   5.772   0.435
 3535SOL    HW111504   0.649   5.706   0.449
 3535SOL    HW211505   0.687   5.850   0.384
 3536SOL     OW11506   2.140   2.030   4.298
 3536SOL    HW111507   2.200   2.106   4.275
 3536SOL    HW211508   2.194   1.946   4.305
 3537SOL     OW11509   2.490   5.164   0.797
 3537SOL    HW111510   2.550   5.172   0.717
 3537SOL    HW211511   2.430   5.244   0.801
 3538SOL     OW11512   1.283   0.782   5.237
 3538SOL    HW111513   1.264   0.689   5.207
 3538SOL    HW211514   1.218   0.845   5.194
 3539SOL     OW11515   5.995   3.712   6.546
 3539SOL    HW111516   6.074   3.727   6.606
 3539SOL    HW211517   5.940   3.795   6.542
 3540SOL     OW11518   1.930   2.283   5.587
 3540SOL    HW111519   2.021   2.278   5.545
 3540SOL    HW211520   1.937   2.332   5.674
 3541SOL     OW11521   2.201   2.348   6.163
 3541SOL    HW111522   2.133   2.332   6.092
 3541SOL    HW211523   2.288   2.375   6.121
 3542SOL     OW11524   0.646   3.936   1.703
 3542SOL    HW111525   0.729   3.903   1.747
 3542SOL    HW211526   0.608   4.012   1.755
 3543SOL     OW11527   0.766   3.779   5.765
 3543SOL    HW111528   0.789   3.683   5.780
 3543SOL    HW211529   0.772   3.800   5.667
 3544SOL     OW11530   2.179   5.103   6.540
 3544SOL    HW111531   2.249   5.150   6.594
 3544SOL    HW211532   2.143   5.167   6.471
 3545SOL     OW11533   3.744   5.250   0.362
 3545SOL    HW111534   3.655   5.214   0.334
 3545SOL    HW211535   3.816   5.193   0.324
 3546SOL     OW11536   0.009   4.894   2.650
 3546SOL    HW111537   6.992   4.967   2.707
 3546SOL    HW211538   0.053   4.825   2.708
 3547SOL     OW11539   6.116   4.934   4.643
 3547SOL    HW111540   6.196   4.957   4.587
 3547SOL    HW211541   6.142   4.866   4.711
 3548SOL     OW11542   4.596   0.187   5.557
 3548SOL    HW111543   4.534   0.168   5.633
 3548SOL    HW211544   4.626   0.282   5.562
 3549SOL     OW11545   0.681   4.579   6.151
 3549SOL    HW111546   0.771   4.538   6.138
 3549SOL    HW211547   0.611   4.508   6.150
 3550SOL     OW11548   6.039   2.496   4.096
 3550SOL    HW111549   6.047   2.448   4.183
 3550SOL    HW211550   6.002   2.433   4.027
 3551SOL     OW11551   3.558   2.046   3.602
 3551SOL    HW111552   3.459   2.057   3.594
 3551SOL    HW211553   3.596   2.122   3.655
 3552SOL     OW11554   6.297   0.174   1.364
 3552SOL    HW111555   6.246   0.236   1.423
 3552SOL    HW211556   6.248   0.164   1.277
 3553SOL     OW11557   3.876   5.482   0.465
 3553SOL    HW111558   3.833   5.397   0.435
 3553SOL    HW211559   3.965   5.491   0.421
 3554SOL     OW11560   4.682   2.026   1.164
 3554SOL    HW111561   4.669   1.986   1.255
 3554SOL    HW211562   4.656   1.959   1.094
 3555SOL     OW11563   0.666   3.867   4.855
 3555SOL    HW111564   0.688   3.859   4.953
 3555SOL    HW211565   0.568   3.883   4.844
 3556SOL     OW11566   4.312   0.787   4.285
 3556SOL    HW111567   4.389   0.732   4.253
 3556SOL    HW211568   4.344   0.851   4.355
 3557SOL     OW11569   1.054   0.565   4.108
 3557SOL    HW111570   0.972   0.514   4.080
 3557SOL    HW211571   1.090   0.526   4.192
 3558SOL     OW11572   1.470   5.878   2.495
 3558SOL    HW111573   1.480   5.949   2.565
 3558SOL    HW211574   1.560   5.849   2.464
 3559SOL     OW11575   0.634   6.336   5.172
 3559SOL    HW111576   0.671   6.424   5.202
 3559SOL    HW211577   0.691   6.261   5.208
 3560SOL     OW11578   2.405   5.262   2.397
 3560SOL    HW111579   2.376   5.269   2.492
 3560SOL    HW211580   2.332   5.296   2.337
 3561SOL     OW11581   4.698   4.037   5.199
 3561SOL    HW111582   4.733   4.060   5.108
 3561SOL    HW211583   4.729   3.946   5.224
 3562SOL     OW11584   4.077   0.836   3.166
 3562SOL    HW111585   4.078   0.740   3.196
 3562SOL    HW211586   4.067   0.895   3.246
 3563SOL     OW11587   6.343   1.857   0.600
 3563SOL    HW111588   6.387   1.942   0.571
 3563SOL    HW211589   6.265   1.879   0.659
 3564SOL     OW11590   1.043   4.333   3.072
 3564SOL    HW111591   0.974   4.263   3.088
 3564SOL    HW211592   1.098   4.345   3.154
 3565SOL     OW11593   3.104   6.028   4.583
 3565SOL    HW111594   3.048   5.992   4.657
 3565SOL    HW211595   3.197   5.990   4.589
 3566SOL     OW11596   6.602   3.133   6.542
 3566SOL    HW111597   6.659   3.111   6.622
 3566SOL    HW211598   6.632   3.220   6.503
 3567SOL     OW11599   0.506   1.840   6.345
 3567SOL    HW111600   0.439   1.777   6.306
 3567SOL    HW211601   0.574   1.789   6.398
 3568SOL     OW11602   4.793   4.018   4.197
 3568SOL    HW111603   4.731   4.053   4.268
 3568SOL    HW211604   4.855   4.090   4.168
 3569SOL     OW11605   2.133   1.802   5.944
 3569SOL    HW111606   2.228   1.829   5.964
 3569SOL    HW211607   2.073   1.840   6.015
 3570SOL     OW11608   4.924   0.399   5.769
 3570SOL    HW111609   4.958   0.450   5.691
 3570SOL    HW211610   4.881   0.314   5.737
 3571SOL     OW11611   1.029   5.512   5.679
 3571SOL    HW111612   1.090   5.580   5.640
 3571SOL    HW211613   1.082   5.446   5.733
 3572SOL     OW11614   6.384   3.860   2.668
 3572SOL    HW111615   6.348   3.796   2.735
 3572SOL    HW211616   6.325   3.861   2.587
 3573SOL     OW11617   0.447   5.174   3.220
 3573SOL    HW111618   0.436   5.136   3.128
 3573SOL    HW211619   0.499   5.260   3.214
 3574SOL     OW11620   0.423   3.809   1.200
 3574SOL    HW111621   0.388   3.718   1.219
 3574SOL    HW211622   0.473   3.843   1.280
 3575SOL     OW11623   4.932   4.843   2.795
 3575SOL    HW111624   5.020   4.859   2.750
 3575SOL    HW211625   4.921   4.746   2.813
 3576SOL     OW11626   0.329   1.938   5.866
 3576SOL    HW111627   0.270   1.922   5.945
 3576SOL    HW211628   0.424   1.917   5.890
 3577SOL     OW11629   1.882   2.006   5.846
 3577SOL    HW111630   1.806   1.966   5.897
 3577SOL    HW211631   1.854   2.018   5.750
 3578SOL     OW11632   3.519   2.327   0.566
 3578SOL    HW111633   3.592   2.393   0.546
 3578SOL    HW211634   3.451   2.370   0.625
 3579SOL     OW11635   6.332   2.594   4.231
 3579SOL    HW111636   6.303   2.619   4.139
 3579SOL    HW211637   6.425   2.556   4.228
 3580SOL     OW11638   5.390   3.089   1.867
 3580SOL    HW111639   5.346   3.157   1.926
 3580SOL    HW211640   5.328   3.064   1.792
 3581SOL     OW11641   1.119   5.982   3.350
 3581SOL    HW111642   1.213   5.991   3.314
 3581SOL    HW211643   1.064   5.931   3.285
 3582SOL     OW11644   1.065   2.582   5.697
 3582SOL    HW111645   1.043   2.534   5.782
 3582SOL    HW211646   1.156   2.554   5.667
 3583SOL     OW11647   0.753   3.937   6.829
 3583SOL    HW111648   0.686   3.916   6.900
 3583SOL    HW211649   0.764   3.858   6.768
 3584SOL     OW11650   5.634   5.401   0.019
 3584SOL    HW111651   5.651   5.468   0.091
 3584SOL    HW211652   5.711   5.398   6.977
 3585SOL     OW11653   3.423   0.549   4.593
 3585SOL    HW111654   3.412   0.493   4.675
 3585SOL    HW211655   3.516   0.583   4.588
 3586SOL     OW11656   6.628   1.810   4.780
 3586SOL    HW111657   6.587   1.852   4.861
 3586SOL    HW211658   6.693   1.739   4.808
 3587SOL     OW11659   2.585   5.167   6.464
 3587SOL    HW111660   2.564   5.101   6.537
 3587SOL    HW211661   2.661   5.134   6.409
 3588SOL     OW11662   1.293   2.299   5.886
 3588SOL    HW111663   1.357   2.315   5.811
 3588SOL    HW211664   1.335   2.323   5.973
 3589SOL     OW11665   3.990   1.247   4.780
 3589SOL    HW111666   4.083   1.261   4.815
 3589SOL    HW211667   3.993   1.234   4.681
 3590SOL     OW11668   1.261   3.077   6.841
 3590SOL    HW111669   1.316   3.006   6.796
 3590SOL    HW211670   1.322   3.145   6.883
 3591SOL     OW11671   5.138   3.980   6.417
 3591SOL    HW111672   5.231   4.015   6.425
 3591SOL    HW211673   5.105   3.952   6.507
 3592SOL     OW11674   0.072   4.795   1.960
 3592SOL    HW111675   0.036   4.704   1.980
 3592SOL    HW211676   0.044   4.859   2.031
 3593SOL     OW11677   0.898   5.832   4.952
 3593SOL    HW111678   0.818   5.804   4.900
 3593SOL    HW211679   0.877   5.826   5.050
 3594SOL     OW11680   4.579   0.219   3.079
 3594SOL    HW111681   4.558   0.150   3.009
 3594SOL    HW211682   4.677   0.239   3.078
 3595SOL     OW11683   3.286   5.736   0.035
 3595SOL    HW111684   3.246   5.658   0.082
 3595SOL    HW211685   3.349   5.783   0.096
 3596SOL     OW11686   6.203   3.097   3.444
 3596SOL    HW111687   6.231   3.088   3.348
 3596SOL    HW211688   6.159   3.186   3.457
 3597SOL     OW11689   1.592   2.007   4.956
 3597SOL    HW111690   1.534   2.070   4.904
 3597SOL    HW211691   1.545   1.979   5.039
 3598SOL     OW11692   1.047   5.139   6.170
 3598SOL    HW111693   1.031   5.059   6.113
 3598SOL    HW211694   1.034   5.222   6.116
 3599SOL     OW11695   0.091   2.228   6.654
 3599SOL    HW111696   0.130   2.207   6.565
 3599SOL    HW211697   0.072   2.326   6.660
 3600SOL     OW11698   0.849   3.438   1.572
 3600SOL    HW111699   0.766   3.492   1.559
 3600SOL    HW211700   0.829   3.342   1.552
 3601SOL     OW11701   5.624   4.516   6.421
 3601SOL    HW111702   5.586   4.543   6.333
 3601SOL    HW211703   5.712   4.471   6.408
 3602SOL     OW11704   2.081   2.819   0.429
 3602SOL    HW111705   2.056   2.787   0.521
 3602SOL    HW211706   2.024   2.897   0.404
 3603SOL     OW11707   3.775   0.298   3.806
 3603SOL    HW111708   3.822   0.342   3.882
 3603SOL    HW211709   3.823   0.214   3.780
 3604SOL     OW11710   6.301   5.140   3.367
 3604SOL    HW111711   6.312   5.180   3.458
 3604SOL    HW211712   6.377   5.078   3.349
 3605SOL     OW11713   6.478   3.386   5.165
 3605SOL    HW111714   6.452   3.350   5.254
 3605SOL    HW211715   6.415   3.459   5.138
 3606SOL     OW11716   6.885   0.350   4.581
 3606SOL    HW111717   6.890   0.378   4.485
 3606SOL    HW211718   6.928   0.420   4.638
 3607SOL     OW11719   5.848   5.570   1.781
 3607SOL    HW111720   5.820   5.663   1.756
 3607SOL    HW211721   5.914   5.536   1.714
 3608SOL     OW11722   5.774   2.590   3.909
 3608SOL    HW111723   5.837   2.617   3.835
 3608SOL    HW211724   5.783   2.492   3.926
 3609SOL     OW11725   1.219   6.733   4.390
 3609SOL    HW111726   1.255   6.800   4.325
 3609SOL    HW211727   1.292   6.703   4.451
 3610SOL     OW11728   1.701   0.105   5.613
 3610SOL    HW111729   1.792   0.070   5.636
 3610SOL    HW211730   1.632   0.042   5.648
 3611SOL     OW11731   3.872   5.923   5.398
 3611SOL    HW111732   3.923   5.872   5.468
 3611SOL    HW211733   3.893   5.886   5.308
 3612SOL     OW11734   6.848   6.951   0.036
 3612SOL    HW111735   6.772   7.014   0.015
 3612SOL    HW211736   6.851   6.933   0.134
 3613SOL     OW11737   4.328   4.763   2.351
 3613SOL    HW111738   4.387   4.763   2.432
 3613SOL    HW211739   4.364   4.827   2.283
 3614SOL     OW11740   3.852   3.106   1.499
 3614SOL    HW111741   3.917   3.139   1.431
 3614SOL    HW211742   3.821   3.183   1.555
 3615SOL     OW11743   4.991   5.619   6.685
 3615SOL    HW111744   5.061   5.604   6.755
 3615SOL    HW211745   4.949   5.709   6.698
 3616SOL     OW11746   0.708   2.261   6.951
 3616SOL    HW111747   0.616   2.269   6.991
 3616SOL    HW211748   0.775   2.291   7.018
 3617SOL     OW11749   3.630   1.413   6.900
 3617SOL    HW111750   3.534   1.388   6.886
 3617SOL    HW211751   3.636   1.510   6.925
 3618SOL     OW11752   2.071   2.634   5.144
 3618SOL    HW111753   2.160   2.671   5.117
 3618SOL    HW211754   1.999   2.674   5.087
 3619SOL     OW11755   5.813   2.544   4.758
 3619SOL    HW111756   5.788   2.616   4.694
 3619SOL    HW211757   5.842   2.463   4.708
 3620SOL     OW11758   6.182   6.367   6.345
 3620SOL    HW111759   6.105   6.349   6.408
 3620SOL    HW211760   6.240   6.286   6.340
 3621SOL     OW11761   3.396   3.036   5.132
 3621SOL    HW111762   3.418   2.958   5.191
 3621SOL    HW211763   3.302   3.028   5.100
 3622SOL     OW11764   1.670   1.729   5.229
 3622SOL    HW111765   1.628   1.793   5.165
 3622SOL    HW211766   1.604   1.658   5.253
 3623SOL     OW11767   6.115   5.750   4.329
 3623SOL    HW111768   6.018   5.758   4.307
 3623SOL    HW211769   6.169   5.769   4.247
 3624SOL     OW11770   1.518   6.959   1.978
 3624SOL    HW111771   1.548   6.953   2.073
 3624SOL    HW211772   1.506   0.035   1.953
 3625SOL     OW11773   6.429   2.698   6.812
 3625SOL    HW111774   6.416   2.603   6.783
 3625SOL    HW211775   6.409   2.759   6.736
 3626SOL     OW11776   1.596   2.293   5.808
 3626SOL    HW111777   1.642   2.309   5.895
 3626SOL    HW211778   1.599   2.376   5.753
 3627SOL     OW11779   3.317   3.309   2.429
 3627SOL    HW111780   3.345   3.366   2.506
 3627SOL    HW211781   3.282   3.222   2.462
 3628SOL     OW11782   1.711   1.259   2.127
 3628SOL    HW111783   1.617   1.267   2.160
 3628SOL    HW211784   1.769   1.325   2.173
 3629SOL     OW11785   6.548   0.818   5.575
 3629SOL    HW111786   6.487   0.839   5.499
 3629SOL    HW211787   6.573   0.902   5.623
 3630SOL     OW11788   5.183   2.875   4.068
 3630SOL    HW111789   5.108   2.811   4.051
 3630SOL    HW211790   5.217   2.863   4.161
 3631SOL     OW11791   2.454   1.153   3.507
 3631SOL    HW111792   2.453   1.154   3.407
 3631SOL    HW211793   2.524   1.217   3.540
 3632SOL     OW11794   5.307   5.485   1.167
 3632SOL    HW111795   5.293   5.556   1.236
 3632SOL    HW211796   5.240   5.411   1.181
 3633SOL     OW11797   3.926   1.730   5.905
 3633SOL    HW111798   3.935   1.786   5.987
 3633SOL    HW211799   3.849   1.667   5.916
 3634SOL     OW11800   1.767   4.544   4.887
 3634SOL    HW111801   1.799   4.451   4.901
 3634SOL    HW211802   1.674   4.554   4.921
 3635SOL     OW11803   3.542   0.244   0.387
 3635SOL    HW111804   3.474   0.199   0.330
 3635SOL    HW211805   3.534   0.343   0.376
 3636SOL     OW11806   0.045   5.880   1.084
 3636SOL    HW111807   0.015   5.930   1.003
 3636SOL    HW211808   0.130   5.833   1.064
 3637SOL     OW11809   0.223   1.858   2.126
 3637SOL    HW111810   0.283   1.788   2.087
 3637SOL    HW211811   0.187   1.825   2.213
 3638SOL     OW11812   0.641   4.541   3.106
 3638SOL    HW111813   0.679   4.543   3.014
 3638SOL    HW211814   0.703   4.588   3.169
 3639SOL     OW11815   3.673   4.997   0.991
 3639SOL    HW111816   3.614   4.987   1.071
 3639SOL    HW211817   3.617   5.000   0.908
 3640SOL     OW11818   4.395   0.586   0.447
 3640SOL    HW111819   4.435   0.659   0.391
 3640SOL    HW211820   4.437   0.499   0.423
 3641SOL     OW11821   4.889   3.523   2.240
 3641SOL    HW111822   4.890   3.498   2.143
 3641SOL    HW211823   4.874   3.621   2.249
 3642SOL     OW11824   5.580   1.221   0.169
 3642SOL    HW111825   5.506   1.189   0.228
 3642SOL    HW211826   5.555   1.309   0.129
 3643SOL     OW11827   3.608   5.652   4.511
 3643SOL    HW111828   3.560   5.613   4.590
 3643SOL    HW211829   3.638   5.578   4.451
 3644SOL     OW11830   0.356   0.975   1.745
 3644SOL    HW111831   0.267   0.934   1.765
 3644SOL    HW211832   0.382   0.954   1.651
 3645SOL     OW11833   0.595   2.833   3.857
 3645SOL    HW111834   0.538   2.764   3.899
 3645SOL    HW211835   0.680   2.843   3.909
 3646SOL     OW11836   1.061   4.134   6.486
 3646SOL    HW111837   1.084   4.040   6.511
 3646SOL    HW211838   1.145   4.189   6.486
 3647SOL     OW11839   2.703   5.364   6.191
 3647SOL    HW111840   2.615   5.387   6.230
 3647SOL    HW211841   2.690   5.297   6.117
 3648SOL     OW11842   4.106   4.927   1.922
 3648SOL    HW111843   4.007   4.936   1.915
 3648SOL    HW211844   4.130   4.888   2.011
 3649SOL     OW11845   5.097   3.108   1.342
 3649SOL    HW111846   5.011   3.064   1.316
 3649SOL    HW211847   5.145   3.140   1.260
 3650SOL     OW11848   6.659   6.028   1.444
 3650SOL    HW111849   6.593   6.077   1.387
 3650SOL    HW211850   6.746   6.076   1.443
 3651SOL     OW11851   0.714   6.630   4.683
 3651SOL    HW111852   0.663   6.558   4.637
 3651SOL    HW211853   0.804   6.595   4.711
 3652SOL     OW11854   5.923   6.362   3.424
 3652SOL    HW111855   6.017   6.336   3.403
 3652SOL    HW211856   5.892   6.313   3.505
 3653SOL     OW11857   0.857   1.913   3.836
 3653SOL    HW111858   0.767   1.935   3.797
 3653SOL    HW211859   0.859   1.817   3.862
 3654SOL     OW11860   3.100   4.366   0.705
 3654SOL    HW111861   3.132   4.388   0.796
 3654SOL    HW211862   3.001   4.348   0.708
 3655SOL     OW11863   2.317   6.454   4.188
 3655SOL    HW111864   2.254   6.410   4.252
 3655SOL    HW211865   2.406   6.464   4.232
 3656SOL     OW11866   0.068   4.413   1.290
 3656SOL    HW111867   0.010   4.332   1.295
 3656SOL    HW211868   0.129   4.406   1.211
 3657SOL     OW11869   5.224   5.717   6.019
 3657SOL    HW111870   5.264   5.680   6.103
 3657SOL    HW211871   5.231   5.817   6.019
 3658SOL     OW11872   1.800   5.300   6.051
 3658SOL    HW111873   1.889   5.258   6.071
 3658SOL    HW211874   1.770   5.272   5.959
 3659SOL     OW11875   2.506   3.897   6.283
 3659SOL    HW111876   2.544   3.827   6.343
 3659SOL    HW211877   2.572   3.971   6.272
 3660SOL     OW11878   5.428   6.061   3.472
 3660SOL    HW111879   5.366   6.038   3.546
 3660SOL    HW211880   5.521   6.071   3.507
 3661SOL     OW11881   5.827   0.697   5.491
 3661SOL    HW111882   5.851   0.642   5.412
 3661SOL    HW211883   5.905   0.753   5.518
 3662SOL     OW11884   3.686   0.615   3.897
 3662SOL    HW111885   3.632   0.590   3.817
 3662SOL    HW211886   3.631   0.672   3.958
 3663SOL     OW11887   1.964   1.869   6.984
 3663SOL    HW111888   1.960   1.819   0.051
 3663SOL    HW211889   2.047   1.843   6.935
 3664SOL     OW11890   4.813   2.422   1.394
 3664SOL    HW111891   4.855   2.482   1.326
 3664SOL    HW211892   4.880   2.400   1.464
 3665SOL     OW11893   1.369   6.443   5.075
 3665SOL    HW111894   1.353   6.353   5.034
 3665SOL    HW211895   1.401   6.506   5.005
 3666SOL     OW11896   0.500   3.336   3.354
 3666SOL    HW111897   0.542   3.299   3.437
 3666SOL    HW211898   0.524   3.432   3.344
 3667SOL     OW11899   1.000   1.613   3.485
 3667SOL    HW111900   0.912   1.622   3.530
 3667SOL    HW211901   1.039   1.523   3.506
 3668SOL     OW11902   1.410   1.063   0.856
 3668SOL    HW111903   1.456   1.129   0.797
 3668SOL    HW211904   1.395   1.103   0.946
 3669SOL     OW11905   5.301   1.258   3.571
 3669SOL    HW111906   5.223   1.248   3.633
 3669SOL    HW211907   5.279   1.216   3.483
 3670SOL     OW11908   1.720   5.767   0.317
 3670SOL    HW111909   1.624   5.777   0.290
 3670SOL    HW211910   1.727   5.770   0.417
 3671SOL     OW11911   6.987   2.140   4.264
 3671SOL    HW111912   6.899   2.093   4.255
 3671SOL    HW211913   6.988   2.222   4.207
 3672SOL     OW11914   4.865   1.603   1.504
 3672SOL    HW111915   4.934   1.643   1.564
 3672SOL    HW211916   4.854   1.662   1.423
 3673SOL     OW11917   3.524   6.082   0.045
 3673SOL    HW111918   3.424   6.077   0.038
 3673SOL    HW211919   3.554   6.037   0.129
 3674SOL     OW11920   1.200   5.353   5.456
 3674SOL    HW111921   1.171   5.431   5.401
 3674SOL    HW211922   1.230   5.385   5.546
 3675SOL     OW11923   2.142   2.859   3.735
 3675SOL    HW111924   2.153   2.806   3.651
 3675SOL    HW211925   2.067   2.821   3.789
 3676SOL     OW11926   5.873   4.525   3.044
 3676SOL    HW111927   5.832   4.596   2.986
 3676SOL    HW211928   5.800   4.468   3.081
 3677SOL     OW11929   2.478   6.244   3.808
 3677SOL    HW111930   2.504   6.277   3.718
 3677SOL    HW211931   2.388   6.282   3.833
 3678SOL     OW11932   0.402   1.595   4.186
 3678SOL    HW111933   0.313   1.584   4.143
 3678SOL    HW211934   0.396   1.568   4.283
 3679SOL     OW11935   0.800   0.905   3.503
 3679SOL    HW111936   0.808   0.827   3.566
 3679SOL    HW211937   0.874   0.970   3.520
 3680SOL     OW11938   5.069   3.136   4.037
 3680SOL    HW111939   5.127   3.179   4.106
 3680SOL    HW211940   5.054   3.040   4.061
 3681SOL     OW11941   0.032   0.679   6.219
 3681SOL    HW111942   6.977   0.670   6.154
 3681SOL    HW211943   0.057   0.775   6.229
 3682SOL     OW11944   5.163   2.356   6.901
 3682SOL    HW111945   5.236   2.294   6.928
 3682SOL    HW211946   5.152   2.427   6.970
 3683SOL     OW11947   6.539   1.667   3.849
 3683SOL    HW111948   6.449   1.640   3.814
 3683SOL    HW211949   6.606   1.597   3.826
 3684SOL     OW11950   1.163   4.596   6.710
 3684SOL    HW111951   1.192   4.637   6.623
 3684SOL    HW211952   1.218   4.514   6.728
 3685SOL     OW11953   1.852   6.325   6.509
 3685SOL    HW111954   1.807   6.287   6.428
 3685SOL    HW211955   1.791   6.391   6.554
 3686SOL     OW11956   5.081   5.482   4.209
 3686SOL    HW111957   4.988   5.492   4.173
 3686SOL    HW211958   5.079   5.419   4.287
 3687SOL     OW11959   3.828   5.854   4.506
 3687SOL    HW111960   3.742   5.814   4.539
 3687SOL    HW211961   3.895   5.782   4.492
 3688SOL     OW11962   0.584   3.430   6.485
 3688SOL    HW111963   0.491   3.458   6.509
 3688SOL    HW211964   0.649   3.482   6.540
 3689SOL     OW11965   2.349   6.930   5.721
 3689SOL    HW111966   2.314   6.890   5.806
 3689SOL    HW211967   2.427   6.877   5.688
 3690SOL     OW11968   4.489   5.980   0.149
 3690SOL    HW111969   4.570   5.926   0.127
 3690SOL    HW211970   4.408   5.921   0.147
 3691SOL     OW11971   1.987   1.489   5.888
 3691SOL    HW111972   2.067   1.451   5.841
 3691SOL    HW211973   2.009   1.581   5.921
 3692SOL     OW11974   6.853   5.459   5.584
 3692SOL    HW111975   6.778   5.402   5.550
 3692SOL    HW211976   6.877   5.527   5.515
 3693SOL     OW11977   2.105   3.806   3.200
 3693SOL    HW111978   2.148   3.717   3.211
 3693SOL    HW211979   2.135   3.847   3.113
 3694SOL     OW11980   0.923   6.611   2.199
 3694SOL    HW111981   1.000   6.573   2.148
 3694SOL    HW211982   0.957   6.657   2.281
 3695SOL     OW11983   5.282   3.214   2.065
 3695SOL    HW111984   5.344   3.288   2.089
 3695SOL    HW211985   5.187   3.245   2.076
 3696SOL     OW11986   3.949   6.694   4.450
 3696SOL    HW111987   3.852   6.715   4.465
 3696SOL    HW211988   3.957   6.608   4.400
 3697SOL     OW11989   0.232   6.584   2.750
 3697SOL    HW111990   0.290   6.665   2.751
 3697SOL    HW211991   0.201   6.566   2.657
 3698SOL     OW11992   2.921   0.886   4.432
 3698SOL    HW111993   3.019   0.874   4.446
 3698SOL    HW211994   2.906   0.935   4.347
 3699SOL     OW11995   1.857   2.898   4.443
 3699SOL    HW111996   1.797   2.818   4.440
 3699SOL    HW211997   1.862   2.933   4.536
 3700SOL     OW11998   0.983   5.457   4.399
 3700SOL    HW111999   0.998   5.376   4.455
 3700SOL    HW212000   1.013   5.440   4.306
 3701SOL     OW12001   1.435   1.524   4.268
 3701SOL    HW112002   1.410   1.578   4.188
 3701SOL    HW212003   1.503   1.456   4.243
 3702SOL     OW12004   5.726   6.760   3.137
 3702SOL    HW112005   5.725   6.680   3.198
 3702SOL    HW212006   5.812   6.762   3.086
 3703SOL     OW12007   5.716   0.107   5.809
 3703SOL    HW112008   5.622   0.132   5.832
 3703SOL    HW212009   5.775   0.187   5.816
 3704SOL     OW12010   3.611   1.404   1.041
 3704SOL    HW112011   3.568   1.368   0.958
 3704SOL    HW212012   3.709   1.385   1.039
 3705SOL     OW12013   4.981   4.306   4.356
 3705SOL    HW112014   4.941   4.220   4.389
 3705SOL    HW212015   5.075   4.314   4.392
 3706SOL     OW12016   1.551   3.996   0.367
 3706SOL    HW112017   1.488   4.056   0.319
 3706SOL    HW212018   1.641   4.041   0.373
 3707SOL     OW12019   4.978   4.724   3.953
 3707SOL    HW112020   5.039   4.654   3.989
 3707SOL    HW212021   5.027   4.811   3.944
 3708SOL     OW12022   6.540   0.774   6.582
 3708SOL    HW112023   6.506   0.844   6.644
 3708SOL    HW212024   6.466   0.744   6.521
 3709SOL     OW12025   3.469   1.000   1.234
 3709SOL    HW112026   3.477   0.969   1.139
 3709SOL    HW212027   3.415   0.934   1.286
 3710SOL     OW12028   6.603   5.637   5.779
 3710SOL    HW112029   6.592   5.554   5.835
 3710SOL    HW212030   6.513   5.676   5.759
 3711SOL     OW12031   0.981   6.414   4.377
 3711SOL    HW112032   1.010   6.384   4.286
 3711SOL    HW212033   1.060   6.414   4.439
 3712SOL     OW12034   0.743   5.194   5.779
 3712SOL    HW112035   0.750   5.108   5.728
 3712SOL    HW212036   0.659   5.241   5.752
 3713SOL     OW12037   0.761   6.364   5.832
 3713SOL    HW112038   0.787   6.317   5.916
 3713SOL    HW212039   0.676   6.325   5.797
 3714SOL     OW12040   5.815   5.489   6.007
 3714SOL    HW112041   5.797   5.426   5.931
 3714SOL    HW212042   5.913   5.491   6.027
 3715SOL     OW12043   0.567   4.066   2.386
 3715SOL    HW112044   0.664   4.082   2.368
 3715SOL    HW212045   0.556   4.030   2.479
 3716SOL     OW12046   6.116   6.517   4.296
 3716SOL    HW112047   6.102   6.459   4.216
 3716SOL    HW212048   6.198   6.489   4.345
 3717SOL     OW12049   0.102   6.417   6.643
 3717SOL    HW112050   0.169   6.343   6.638
 3717SOL    HW212051   0.011   6.382   6.621
 3718SOL     OW12052   0.942   0.849   6.562
 3718SOL    HW112053   0.862   0.811   6.609
 3718SOL    HW212054   0.938   0.827   6.465
 3719SOL     OW12055   5.337   3.995   1.582
 3719SOL    HW112056   5.367   4.016   1.675
 3719SOL    HW212057   5.406   4.025   1.517
 3720SOL     OW12058   5.509   2.724   6.678
 3720SOL    HW112059   5.573   2.647   6.675
 3720SOL    HW212060   5.488   2.746   6.773
 3721SOL     OW12061   6.077   4.592   1.579
 3721SOL    HW112062   6.020   4.656   1.526
 3721SOL    HW212063   6.053   4.598   1.675
 3722SOL     OW12064   5.791   5.854   0.630
 3722SOL    HW112065   5.836   5.772   0.666
 3722SOL    HW212066   5.738   5.831   0.549
 3723SOL     OW12067   5.621   4.788   1.367
 3723SOL    HW112068   5.577   4.872   1.336
 3723SOL    HW212069   5.597   4.713   1.306
 3724SOL     OW12070   2.032   4.526   4.628
 3724SOL    HW112071   2.031   4.542   4.530
 3724SOL    HW212072   1.938   4.530   4.664
 3725SOL     OW12073   6.895   5.286   0.431
 3725SOL    HW112074   6.921   5.197   0.471
 3725SOL    HW212075   6.941   5.359   0.481
 3726SOL     OW12076   6.084   3.331   0.483
 3726SOL    HW112077   6.148   3.258   0.508
 3726SOL    HW212078   6.003   3.326   0.543
 3727SOL     OW12079   6.475   1.337   5.340
 3727SOL    HW112080   6.569   1.311   5.318
 3727SOL    HW212081   6.476   1.409   5.410
 3728SOL     OW12082   1.814   3.672   6.029
 3728SOL    HW112083   1.736   3.640   5.975
 3728SOL    HW212084   1.825   3.771   6.016
 3729SOL     OW12085   1.647   2.191   4.685
 3729SOL    HW112086   1.556   2.158   4.659
 3729SOL    HW212087   1.706   2.112   4.706
 3730SOL     OW12088   2.811   5.157   5.462
 3730SOL    HW112089   2.776   5.241   5.503
 3730SOL    HW212090   2.736   5.094   5.444
 3731SOL     OW12091   0.518   1.517   0.178
 3731SOL    HW112092   0.522   1.420   0.202
 3731SOL    HW212093   0.530   1.528   0.079
 3732SOL     OW12094   2.875   1.774   0.195
 3732SOL    HW112095   2.873   1.765   0.294
 3732SOL    HW212096   2.782   1.768   0.158
 3733SOL     OW12097   1.531   3.459   3.013
 3733SOL    HW112098   1.520   3.369   2.971
 3733SOL    HW212099   1.485   3.528   2.957
 3734SOL     OW12100   5.249   0.312   1.152
 3734SOL    HW112101   5.151   0.331   1.146
 3734SOL    HW212102   5.277   0.315   1.248
 3735SOL     OW12103   2.631   0.949   3.104
 3735SOL    HW112104   2.622   0.867   3.160
 3735SOL    HW212105   2.540   0.984   3.081
 3736SOL     OW12106   0.001   2.137   1.256
 3736SOL    HW112107   0.074   2.069   1.263
 3736SOL    HW212108   6.944   2.109   1.313
 3737SOL     OW12109   5.426   1.013   3.848
 3737SOL    HW112110   5.475   0.953   3.912
 3737SOL    HW212111   5.490   1.079   3.809
 3738SOL     OW12112   0.287   0.263   2.044
 3738SOL    HW112113   0.232   0.338   2.006
 3738SOL    HW212114   0.384   0.286   2.037
 3739SOL     OW12115   2.159   5.580   0.517
 3739SOL    HW112116   2.069   5.541   0.538
 3739SOL    HW212117   2.209   5.595   0.602
 3740SOL     OW12118   6.589   0.805   0.595
 3740SOL    HW112119   6.677   0.759   0.581
 3740SOL    HW212120   6.543   0.766   0.674
 3741SOL     OW12121   5.358   3.168   6.193
 3741SOL    HW112122   5.374   3.205   6.284
 3741SOL    HW212123   5.435   3.110   6.167
 3742SOL     OW12124   2.585   2.118   6.516
 3742SOL    HW112125   2.683   2.104   6.530
 3742SOL    HW212126   2.537   2.030   6.527
 3743SOL     OW12127   5.773   3.453   0.676
 3743SOL    HW112128   5.724   3.520   0.731
 3743SOL    HW212129   5.708   3.397   0.624
 3744SOL     OW12130   1.611   6.201   1.845
 3744SOL    HW112131   1.629   6.212   1.943
 3744SOL    HW212132   1.693   6.165   1.800
 3745SOL     OW12133   4.434   4.902   1.961
 3745SOL    HW112134   4.521   4.951   1.968
 3745SOL    HW212135   4.370   4.938   2.029
 3746SOL     OW12136   6.095   0.848   3.815
 3746SOL    HW112137   6.006   0.892   3.807
 3746SOL    HW212138   6.138   0.875   3.902
 3747SOL     OW12139   2.503   6.000   5.145
 3747SOL    HW112140   2.587   5.948   5.160
 3747SOL    HW212141   2.497   6.029   5.050
 3748SOL     OW12142   5.656   0.958   1.628
 3748SOL    HW112143   5.559   0.969   1.648
 3748SOL    HW212144   5.710   0.981   1.709
 3749SOL     OW12145   1.745   5.453   3.478
 3749SOL    HW112146   1.772   5.498   3.392
 3749SOL    HW212147   1.674   5.385   3.460
 3750SOL     OW12148   6.605   4.693   1.401
 3750SOL    HW112149   6.576   4.764   1.338
 3750SOL    HW212150   6.659   4.733   1.475
 3751SOL     OW12151   6.684   3.420   1.258
 3751SOL    HW112152   6.720   3.513   1.265
 3751SOL    HW212153   6.600   3.412   1.312
 3752SOL     OW12154   6.357   6.506   0.383
 3752SOL    HW112155   6.384   6.413   0.406
 3752SOL    HW212156   6.280   6.534   0.441
 3753SOL     OW12157   6.656   0.358   4.069
 3753SOL    HW112158   6.566   0.317   4.087
 3753SOL    HW212159   6.655   0.402   3.979
 3754SOL     OW12160   3.645   0.224   1.190
 3754SOL    HW112161   3.697   0.142   1.211
 3754SOL    HW212162   3.689   0.303   1.233
 3755SOL     OW12163   4.605   5.459   4.368
 3755SOL    HW112164   4.701   5.450   4.343
 3755SOL    HW212165   4.599   5.485   4.465
 3756SOL     OW12166   2.259   5.655   6.807
 3756SOL    HW112167   2.272   5.745   6.765
 3756SOL    HW212168   2.191   5.603   6.756
 3757SOL     OW12169   4.832   6.446   6.454
 3757SOL    HW112170   4.851   6.457   6.356
 3757SOL    HW212171   4.742   6.405   6.466
 3758SOL     OW12172   2.556   1.141   5.333
 3758SOL    HW112173   2.572   1.226   5.384
 3758SOL    HW212174   2.471   1.149   5.281
 3759SOL     OW12175   4.726   5.885   6.539
 3759SOL    HW112176   4.762   5.949   6.471
 3759SOL    HW212177   4.650   5.927   6.588
 3760SOL     OW12178   1.684   1.270   4.564
 3760SOL    HW112179   1.662   1.186   4.514
 3760SOL    HW212180   1.672   1.256   4.662
 3761SOL     OW12181   1.207   1.268   4.653
 3761SOL    HW112182   1.259   1.311   4.727
 3761SOL    HW212183   1.247   1.293   4.565
 3762SOL     OW12184   0.975   3.722   0.914
 3762SOL    HW112185   0.902   3.700   0.849
 3762SOL    HW212186   0.991   3.821   0.913
 3763SOL     OW12187   6.676   3.703   1.212
 3763SOL    HW112188   6.764   3.725   1.171
 3763SOL    HW212189   6.603   3.714   1.144
 3764SOL     OW12190   2.155   6.906   2.839
 3764SOL    HW112191   2.158   6.998   2.879
 3764SOL    HW212192   2.065   6.890   2.800
 3765SOL     OW12193   5.312   1.084   0.645
 3765SOL    HW112194   5.348   1.121   0.731
 3765SOL    HW212195   5.319   1.153   0.573
 3766SOL     OW12196   1.313   1.412   3.744
 3766SOL    HW112197   1.393   1.383   3.693
 3766SOL    HW212198   1.288   1.505   3.717
 3767SOL     OW12199   1.916   4.878   0.216
 3767SOL    HW112200   1.921   4.935   0.134
 3767SOL    HW212201   1.831   4.897   0.264
 3768SOL     OW12202   1.439   6.441   4.595
 3768SOL    HW112203   1.535   6.413   4.603
 3768SOL    HW212204   1.435   6.539   4.576
 3769SOL     OW12205   6.598   5.935   5.495
 3769SOL    HW112206   6.672   5.904   5.555
 3769SOL    HW212207   6.526   5.866   5.494
 3770SOL     OW12208   1.876   1.476   6.139
 3770SOL    HW112209   1.926   1.462   6.054
 3770SOL    HW212210   1.788   1.428   6.135
 3771SOL     OW12211   5.891   3.464   6.800
 3771SOL    HW112212   5.811   3.429   6.850
 3771SOL    HW212213   5.881   3.444   6.703
 3772SOL     OW12214   0.466   0.674   6.245
 3772SOL    HW112215   0.438   0.634   6.158
 3772SOL    HW212216   0.451   0.608   6.319
 3773SOL     OW12217   6.125   2.616   6.199
 3773SOL    HW112218   6.203   2.677   6.207
 3773SOL    HW212219   6.041   2.666   6.216
 3774SOL     OW12220   6.911   5.952   0.841
 3774SOL    HW112221   6.965   5.932   0.760
 3774SOL    HW212222   6.832   6.008   0.816
 3775SOL     OW12223   4.472   5.199   2.096
 3775SOL    HW112224   4.447   5.296   2.098
 3775SOL    HW212225   4.571   5.190   2.084
 3776SOL     OW12226   4.536   1.385   6.981
 3776SOL    HW112227   4.599   1.322   0.005
 3776SOL    HW212228   4.587   1.449   6.924
 3777SOL     OW12229   3.436   5.813   3.754
 3777SOL    HW112230   3.447   5.745   3.826
 3777SOL    HW212231   3.483   5.783   3.671
 3778SOL     OW12232   3.574   4.993   2.696
 3778SOL    HW112233   3.500   4.940   2.737
 3778SOL    HW212234   3.591   5.074   2.753
 3779SOL     OW12235   1.593   4.459   0.562
 3779SOL    HW112236   1.600   4.409   0.476
 3779SOL    HW212237   1.639   4.547   0.552
 3780SOL     OW12238   6.297   5.383   5.438
 3780SOL    HW112239   6.291   5.312   5.368
 3780SOL    HW212240   6.385   5.377   5.485
 3781SOL     OW12241   0.769   5.650   4.434
 3781SOL    HW112242   0.734   5.649   4.341
 3781SOL    HW212243   0.860   5.608   4.436
 3782SOL     OW12244   2.260   0.408   3.748
 3782SOL    HW112245   2.350   0.451   3.747
 3782SOL    HW212246   2.266   0.317   3.789
 3783SOL     OW12247   6.084   5.420   3.227
 3783SOL    HW112248   6.143   5.486   3.273
 3783SOL    HW212249   6.017   5.383   3.292
 3784SOL     OW12250   4.637   2.633   2.943
 3784SOL    HW112251   4.560   2.601   2.890
 3784SOL    HW212252   4.660   2.566   3.014
 3785SOL     OW12253   2.329   2.659   6.063
 3785SOL    HW112254   2.398   2.731   6.053
 3785SOL    HW212255   2.246   2.699   6.103
 3786SOL     OW12256   2.058   5.389   2.918
 3786SOL    HW112257   2.071   5.485   2.893
 3786SOL    HW212258   2.063   5.380   3.018
 3787SOL     OW12259   6.085   1.129   2.494
 3787SOL    HW112260   5.995   1.137   2.451
 3787SOL    HW212261   6.083   1.171   2.585
 3788SOL     OW12262   0.850   4.643   4.571
 3788SOL    HW112263   0.849   4.550   4.608
 3788SOL    HW212264   0.922   4.650   4.502
 3789SOL     OW12265   0.311   3.165   4.708
 3789SOL    HW112266   0.258   3.084   4.733
 3789SOL    HW212267   0.350   3.205   4.791
 3790SOL     OW12268   1.421   4.465   5.639
 3790SOL    HW112269   1.339   4.485   5.694
 3790SOL    HW212270   1.419   4.369   5.611
 3791SOL     OW12271   5.439   0.846   0.031
 3791SOL    HW112272   5.386   0.929   0.045
 3791SOL    HW212273   5.385   0.780   6.999
 3792SOL     OW12274   1.097   2.424   4.798
 3792SOL    HW112275   1.021   2.485   4.776
 3792SOL    HW212276   1.081   2.382   4.888
 3793SOL     OW12277   4.847   6.788   2.033
 3793SOL    HW112278   4.934   6.837   2.037
 3793SOL    HW212279   4.840   6.726   2.111
 3794SOL     OW12280   2.335   3.542   0.751
 3794SOL    HW112281   2.308   3.611   0.684
 3794SOL    HW212282   2.315   3.574   0.843
 3795SOL     OW12283   4.249   6.559   0.079
 3795SOL    HW112284   4.289   6.651   0.080
 3795SOL    HW212285   4.316   6.495   0.042
 3796SOL     OW12286   3.071   1.905   2.566
 3796SOL    HW112287   3.084   1.979   2.632
 3796SOL    HW212288   3.157   1.886   2.519
 3797SOL     OW12289   0.237   3.732   1.549
 3797SOL    HW112290   0.220   3.702   1.455
 3797SOL    HW212291   0.282   3.821   1.548
 3798SOL     OW12292   2.553   5.694   2.932
 3798SOL    HW112293   2.487   5.753   2.885
 3798SOL    HW212294   2.503   5.623   2.983
 3799SOL     OW12295   6.900   2.606   4.039
 3799SOL    HW112296   6.959   2.687   4.044
 3799SOL    HW212297   6.896   2.574   3.944
 3800SOL     OW12298   5.747   3.807   3.572
 3800SOL    HW112299   5.701   3.870   3.509
 3800SOL    HW212300   5.680   3.767   3.634
 3801SOL     OW12301   5.955   0.103   2.427
 3801SOL    HW112302   6.010   0.042   2.369
 3801SOL    HW212303   5.916   0.050   2.503
 3802SOL     OW12304   1.059   2.181   2.857
 3802SOL    HW112305   1.055   2.084   2.879
 3802SOL    HW212306   1.127   2.196   2.785
 3803SOL     OW12307   3.324   2.717   1.601
 3803SOL    HW112308   3.298   2.689   1.693
 3803SOL    HW212309   3.373   2.642   1.556
 3804SOL     OW12310   4.821   1.671   4.022
 3804SOL    HW112311   4.751   1.617   3.976
 3804SOL    HW212312   4.905   1.617   4.028
 3805SOL     OW12313   2.705   2.803   1.661
 3805SOL    HW112314   2.659   2.741   1.725
 3805SOL    HW212315   2.727   2.753   1.577
 3806SOL     OW12316   3.402   3.772   6.442
 3806SOL    HW112317   3.365   3.773   6.535
 3806SOL    HW212318   3.356   3.700   6.389
 3807SOL     OW12319   1.422   6.089   2.701
 3807SOL    HW112320   1.486   6.159   2.667
 3807SOL    HW212321   1.332   6.130   2.714
 3808SOL     OW12322   4.456   0.907   0.857
 3808SOL    HW112323   4.528   0.918   0.926
 3808SOL    HW212324   4.490   0.849   0.783
 3809SOL     OW12325   4.926   3.163   0.898
 3809SOL    HW112326   4.906   3.201   0.988
 3809SOL    HW212327   4.955   3.068   0.908
 3810SOL     OW12328   4.604   2.530   4.061
 3810SOL    HW112329   4.599   2.584   3.977
 3810SOL    HW212330   4.695   2.539   4.102
 3811SOL     OW12331   1.318   4.496   4.023
 3811SOL    HW112332   1.283   4.493   3.929
 3811SOL    HW212333   1.245   4.472   4.086
 3812SOL     OW12334   4.897   6.177   4.423
 3812SOL    HW112335   4.920   6.109   4.493
 3812SOL    HW212336   4.968   6.248   4.421
 3813SOL     OW12337   4.794   4.337   0.500
 3813SOL    HW112338   4.766   4.241   0.496
 3813SOL    HW212339   4.875   4.350   0.443
 3814SOL     OW12340   0.085   0.082   0.133
 3814SOL    HW112341   0.011   0.134   0.177
 3814SOL    HW212342   0.131   0.139   0.066
 3815SOL     OW12343   4.918   2.268   0.515
 3815SOL    HW112344   5.011   2.303   0.524
 3815SOL    HW212345   4.900   2.244   0.419
 3816SOL     OW12346   1.017   6.292   0.295
 3816SOL    HW112347   0.990   6.196   0.286
 3816SOL    HW212348   1.069   6.319   0.214
 3817SOL     OW12349   5.465   3.997   2.614
 3817SOL    HW112350   5.496   4.062   2.683
 3817SOL    HW212351   5.467   4.039   2.524
 3818SOL     OW12352   6.254   0.838   6.949
 3818SOL    HW112353   6.258   0.916   7.011
 3818SOL    HW212354   6.209   0.761   6.995
 3819SOL     OW12355   5.253   5.079   2.110
 3819SOL    HW112356   5.205   5.092   2.023
 3819SOL    HW212357   5.201   5.122   2.183
 3820SOL     OW12358   5.592   6.508   3.634
 3820SOL    HW112359   5.541   6.580   3.679
 3820SOL    HW212360   5.541   6.474   3.555
 3821SOL     OW12361   2.532   1.477   0.957
 3821SOL    HW112362   2.529   1.572   0.989
 3821SOL    HW212363   2.492   1.417   1.026
 3822SOL     OW12364   2.008   0.347   1.417
 3822SOL    HW112365   1.968   0.392   1.498
 3822SOL    HW212366   1.962   0.380   1.335
 3823SOL     OW12367   3.376   3.181   5.923
 3823SOL    HW112368   3.443   3.132   5.978
 3823SOL    HW212369   3.288   3.183   5.972
 3824SOL     OW12370   6.254   2.075   1.210
 3824SOL    HW112371   6.347   2.082   1.244
 3824SOL    HW212372   6.242   1.989   1.161
 3825SOL     OW12373   0.513   6.129   1.240
 3825SOL    HW112374   0.525   6.054   1.305
 3825SOL    HW212375   0.416   6.152   1.233
 3826SOL     OW12376   1.000   3.144   6.884
 3826SOL    HW112377   0.954   3.067   6.926
 3826SOL    HW212378   1.097   3.122   6.869
 3827SOL     OW12379   2.256   2.322   1.363
 3827SOL    HW112380   2.203   2.396   1.405
 3827SOL    HW212381   2.332   2.298   1.423
 3828SOL     OW12382   3.832   2.964   1.917
 3828SOL    HW112383   3.769   2.909   1.862
 3828SOL    HW212384   3.780   3.014   1.986
 3829SOL     OW12385   1.401   4.681   3.720
 3829SOL    HW112386   1.313   4.651   3.755
 3829SOL    HW212387   1.448   4.603   3.677
 3830SOL     OW12388   0.777   1.354   4.289
 3830SOL    HW112389   0.794   1.448   4.258
 3830SOL    HW212390   0.728   1.304   4.217
 3831SOL     OW12391   4.868   2.029   1.746
 3831SOL    HW112392   4.772   2.047   1.727
 3831SOL    HW212393   4.877   1.995   1.840
 3832SOL     OW12394   6.198   0.884   2.544
 3832SOL    HW112395   6.156   0.972   2.523
 3832SOL    HW212396   6.210   0.832   2.460
 3833SOL     OW12397   0.525   6.227   5.769
 3833SOL    HW112398   0.568   6.143   5.738
 3833SOL    HW212399   0.440   6.243   5.717
 3834SOL     OW12400   4.854   3.601   1.732
 3834SOL    HW112401   4.772   3.654   1.709
 3834SOL    HW212402   4.910   3.588   1.650
 3835SOL     OW12403   3.052   5.396   4.251
 3835SOL    HW112404   2.982   5.373   4.319
 3835SOL    HW212405   3.102   5.477   4.281
 3836SOL     OW12406   1.774   3.952   5.782
 3836SOL    HW112407   1.780   4.018   5.706
 3836SOL    HW212408   1.831   3.872   5.761
 3837SOL     OW12409   4.759   4.475   6.408
 3837SOL    HW112410   4.812   4.395   6.380
 3837SOL    HW212411   4.798   4.557   6.368
 3838SOL     OW12412   6.919   3.590   4.878
 3838SOL    HW112413   6.834   3.537   4.874
 3838SOL    HW212414   6.937   3.616   4.973
 3839SOL     OW12415   4.744   0.516   3.504
 3839SOL    HW112416   4.649   0.544   3.518
 3839SOL    HW212417   4.768   0.526   3.408
 3840SOL     OW12418   1.917   0.728   5.669
 3840SOL    HW112419   1.957   0.720   5.761
 3840SOL    HW212420   1.822   0.697   5.672
 3841SOL     OW12421   0.220   3.447   5.516
 3841SOL    HW112422   0.285   3.515   5.550
 3841SOL    HW212423   0.150   3.431   5.586
 3842SOL     OW12424   1.864   3.574   6.801
 3842SOL    HW112425   1.775   3.530   6.790
 3842SOL    HW212426   1.934   3.516   6.760
 3843SOL     OW12427   6.322   4.230   2.857
 3843SOL    HW112428   6.322   4.139   2.896
 3843SOL    HW212429   6.372   4.229   2.770
 3844SOL     OW12430   0.792   2.733   6.085
 3844SOL    HW112431   0.721   2.695   6.025
 3844SOL    HW212432   0.760   2.820   6.123
 3845SOL     OW12433   3.934   3.253   3.865
 3845SOL    HW112434   3.860   3.317   3.845
 3845SOL    HW212435   3.946   3.191   3.788
 3846SOL     OW12436   0.751   5.491   3.779
 3846SOL    HW112437   0.716   5.569   3.832
 3846SOL    HW212438   0.679   5.457   3.719
 3847SOL     OW12439   6.312   0.812   4.425
 3847SOL    HW112440   6.285   0.842   4.516
 3847SOL    HW212441   6.336   0.715   4.428
 3848SOL     OW12442   3.243   5.703   2.983
 3848SOL    HW112443   3.214   5.650   3.062
 3848SOL    HW212444   3.259   5.798   3.010
 3849SOL     OW12445   1.001   1.734   5.422
 3849SOL    HW112446   0.942   1.730   5.342
 3849SOL    HW212447   1.072   1.664   5.415
 3850SOL     OW12448   2.626   3.303   1.181
 3850SOL    HW112449   2.593   3.247   1.256
 3850SOL    HW212450   2.565   3.382   1.169
 3851SOL     OW12451   1.698   4.276   2.574
 3851SOL    HW112452   1.764   4.334   2.620
 3851SOL    HW212453   1.606   4.309   2.592
 3852SOL     OW12454   4.644   6.682   3.955
 3852SOL    HW112455   4.598   6.673   3.866
 3852SOL    HW212456   4.582   6.654   4.027
 3853SOL     OW12457   0.972   3.286   3.504
 3853SOL    HW112458   0.915   3.233   3.441
 3853SOL    HW212459   0.953   3.383   3.492
 3854SOL     OW12460   1.245   3.440   2.253
 3854SOL    HW112461   1.166   3.501   2.249
 3854SOL    HW212462   1.272   3.426   2.348
 3855SOL     OW12463   5.329   6.450   6.777
 3855SOL    HW112464   5.368   6.468   6.687
 3855SOL    HW212465   5.273   6.528   6.805
 3856SOL     OW12466   0.005   6.368   5.322
 3856SOL    HW112467   0.002   6.430   5.244
 3856SOL    HW212468   6.937   6.369   5.369
 3857SOL     OW12469   0.626   5.919   5.879
 3857SOL    HW112470   0.659   5.825   5.880
 3857SOL    HW212471   0.659   5.967   5.961
 3858SOL     OW12472   1.428   6.694   5.622
 3858SOL    HW112473   1.351   6.682   5.684
 3858SOL    HW212474   1.452   6.791   5.617
 3859SOL     OW12475   6.414   2.597   2.963
 3859SOL    HW112476   6.512   2.603   2.984
 3859SOL    HW212477   6.365   2.670   3.012
 3860SOL     OW12478   2.222   0.501   5.575
 3860SOL    HW112479   2.179   0.565   5.513
 3860SOL    HW212480   2.319   0.490   5.551
 3861SOL     OW12481   4.775   4.398   3.048
 3861SOL    HW112482   4.752   4.303   3.029
 3861SOL    HW212483   4.747   4.421   3.141
 3862SOL     OW12484   1.010   0.150   4.897
 3862SOL    HW112485   0.978   0.092   4.822
 3862SOL    HW212486   1.044   0.237   4.861
 3863SOL     OW12487   4.546   2.703   6.082
 3863SOL    HW112488   4.583   2.627   6.029
 3863SOL    HW212489   4.447   2.709   6.068
 3864SOL     OW12490   2.693   0.233   5.427
 3864SOL    HW112491   2.723   0.312   5.374
 3864SOL    HW212492   2.599   0.210   5.403
 3865SOL     OW12493   3.500   6.328   0.324
 3865SOL    HW112494   3.414   6.303   0.280
 3865SOL    HW212495   3.565   6.252   0.318
 3866SOL     OW12496   4.001   1.009   1.559
 3866SOL    HW112497   3.925   1.022   1.622
 3866SOL    HW212498   3.993   1.075   1.484
 3867SOL     OW12499   1.459   4.134   3.513
 3867SOL    HW112500   1.515   4.078   3.574
 3867SOL    HW212501   1.502   4.137   3.423
 3868SOL     OW12502   3.390   0.086   0.577
 3868SOL    HW112503   3.426   0.058   0.666
 3868SOL    HW212504   3.449   0.157   0.539
 3869SOL     OW12505   6.608   3.038   5.196
 3869SOL    HW112506   6.663   3.055   5.278
 3869SOL    HW212507   6.590   2.940   5.188
 3870SOL     OW12508   4.220   4.836   0.246
 3870SOL    HW112509   4.167   4.754   0.270
 3870SOL    HW212510   4.207   4.906   0.316
 3871SOL     OW12511   4.356   0.046   2.313
 3871SOL    HW112512   4.456   0.041   2.310
 3871SOL    HW212513   4.327   0.141   2.323
 3872SOL     OW12514   3.969   3.221   2.198
 3872SOL    HW112515   3.940   3.295   2.259
 3872SOL    HW212516   3.929   3.135   2.230
 3873SOL     OW12517   6.754   4.062   1.363
 3873SOL    HW112518   6.832   4.029   1.417
 3873SOL    HW212519   6.670   4.050   1.415
 3874SOL     OW12520   3.528   5.743   6.679
 3874SOL    HW112521   3.531   5.668   6.746
 3874SOL    HW212522   3.475   5.819   6.717
 3875SOL     OW12523   1.466   3.124   1.742
 3875SOL    HW112524   1.491   3.029   1.760
 3875SOL    HW212525   1.429   3.166   1.825
 3876SOL     OW12526   5.870   4.637   0.064
 3876SOL    HW112527   5.834   4.570   0.129
 3876SOL    HW212528   5.797   4.701   0.038
 3877SOL     OW12529   6.947   2.956   0.057
 3877SOL    HW112530   6.966   3.045   0.098
 3877SOL    HW212531   0.010   2.921   0.014
 3878SOL     OW12532   2.240   6.581   5.595
 3878SOL    HW112533   2.152   6.627   5.590
 3878SOL    HW212534   2.252   6.523   5.515
 3879SOL     OW12535   5.353   6.635   1.212
 3879SOL    HW112536   5.444   6.595   1.199
 3879SOL    HW212537   5.339   6.710   1.147
 3880SOL     OW12538   6.213   4.646   3.679
 3880SOL    HW112539   6.263   4.711   3.622
 3880SOL    HW212540   6.271   4.617   3.754
 3881SOL     OW12541   0.797   4.812   1.117
 3881SOL    HW112542   0.875   4.776   1.065
 3881SOL    HW212543   0.820   4.901   1.156
 3882SOL     OW12544   6.244   1.309   4.709
 3882SOL    HW112545   6.161   1.361   4.730
 3882SOL    HW212546   6.248   1.291   4.610
 3883SOL     OW12547   4.644   0.905   3.526
 3883SOL    HW112548   4.710   0.838   3.560
 3883SOL    HW212549   4.622   0.886   3.431
 3884SOL     OW12550   1.403   5.326   3.521
 3884SOL    HW112551   1.408   5.389   3.598
 3884SOL    HW212552   1.464   5.248   3.537
 3885SOL     OW12553   6.576   0.778   3.742
 3885SOL    HW112554   6.485   0.809   3.712
 3885SOL    HW212555   6.630   0.856   3.773
 3886SOL     OW12556   6.754   5.847   5.030
 3886SOL    HW112557   6.808   5.764   5.021
 3886SOL    HW212558   6.808   5.918   5.076
 3887SOL     OW12559   5.660   1.205   5.331
 3887SOL    HW112560   5.638   1.302   5.320
 3887SOL    HW212561   5.655   1.160   5.242
 3888SOL     OW12562   0.755   0.428   6.545
 3888SOL    HW112563   0.675   0.432   6.485
 3888SOL    HW212564   0.788   0.334   6.551
 3889SOL     OW12565   0.034   2.810   6.071
 3889SOL    HW112566   0.101   2.794   5.999
 3889SOL    HW212567   0.078   2.855   6.149
 3890SOL     OW12568   6.101   5.659   2.446
 3890SOL    HW112569   6.068   5.607   2.367
 3890SOL    HW212570   6.174   5.608   2.491
 3891SOL     OW12571   5.354   4.911   4.803
 3891SOL    HW112572   5.274   4.869   4.846
 3891SOL    HW212573   5.367   4.872   4.712
 3892SOL     OW12574   0.233   2.030   2.495
 3892SOL    HW112575   0.310   1.974   2.464
 3892SOL    HW212576   0.156   2.018   2.433
 3893SOL     OW12577   3.082   5.593   2.083
 3893SOL    HW112578   3.125   5.537   2.012
 3893SOL    HW212579   3.144   5.600   2.161
 3894SOL     OW12580   2.656   2.132   0.722
 3894SOL    HW112581   2.719   2.075   0.669
 3894SOL    HW212582   2.706   2.211   0.758
 3895SOL     OW12583   1.124   0.491   5.146
 3895SOL    HW112584   1.205   0.498   5.088
 3895SOL    HW212585   1.050   0.546   5.107
 3896SOL     OW12586   0.347   2.261   6.349
 3896SOL    HW112587   0.261   2.211   6.362
 3896SOL    HW212588   0.419   2.196   6.327
 3897SOL     OW12589   3.592   6.756   1.989
 3897SOL    HW112590   3.524   6.806   2.043
 3897SOL    HW212591   3.646   6.698   2.050
 3898SOL     OW12592   3.233   3.760   3.717
 3898SOL    HW112593   3.253   3.684   3.779
 3898SOL    HW212594   3.291   3.838   3.741
 3899SOL     OW12595   5.080   0.651   4.287
 3899SOL    HW112596   5.121   0.715   4.220
 3899SOL    HW212597   5.152   0.593   4.325
 3900SOL     OW12598   5.299   3.025   3.060
 3900SOL    HW112599   5.307   2.950   3.125
 3900SOL    HW212600   5.226   3.005   2.994
 3901SOL     OW12601   3.064   6.531   6.043
 3901SOL    HW112602   3.087   6.628   6.042
 3901SOL    HW212603   3.034   6.503   5.952
 3902SOL     OW12604   5.350   3.598   1.792
 3902SOL    HW112605   5.420   3.651   1.840
 3902SOL    HW212606   5.289   3.556   1.859
 3903SOL     OW12607   4.886   3.670   6.571
 3903SOL    HW112608   4.845   3.599   6.629
 3903SOL    HW212609   4.891   3.637   6.477
 3904SOL     OW12610   2.131   0.332   6.079
 3904SOL    HW112611   2.033   0.330   6.094
 3904SOL    HW212612   2.151   0.387   5.998
 3905SOL     OW12613   5.935   6.505   6.204
 3905SOL    HW112614   5.923   6.439   6.279
 3905SOL    HW212615   5.928   6.598   6.241
 3906SOL     OW12616   1.536   4.693   5.625
 3906SOL    HW112617   1.476   4.613   5.634
 3906SOL    HW212618   1.607   4.690   5.695
 3907SOL     OW12619   6.674   0.873   4.132
 3907SOL    HW112620   6.765   0.831   4.132
 3907SOL    HW212621   6.644   0.885   4.037
 3908SOL     OW12622   1.524   1.258   6.845
 3908SOL    HW112623   1.523   1.353   6.814
 3908SOL    HW212624   1.588   1.205   6.788
 3909SOL     OW12625   6.960   4.258   6.425
 3909SOL    HW112626   6.999   4.168   6.445
 3909SOL    HW212627   7.010   4.328   6.477
 3910SOL     OW12628   3.496   4.040   2.119
 3910SOL    HW112629   3.592   4.065   2.112
 3910SOL    HW212630   3.487   3.941   2.123
 3911SOL     OW12631   4.972   1.009   0.477
 3911SOL    HW112632   4.921   1.079   0.527
 3911SOL    HW212633   4.911   0.963   0.413
 3912SOL     OW12634   4.044   0.981   6.241
 3912SOL    HW112635   3.976   0.908   6.237
 3912SOL    HW212636   4.017   1.055   6.179
 3913SOL     OW12637   2.874   6.387   6.875
 3913SOL    HW112638   2.924   6.454   6.820
 3913SOL    HW212639   2.841   6.314   6.816
 3914SOL     OW12640   5.007   0.733   1.395
 3914SOL    HW112641   5.060   0.815   1.372
 3914SOL    HW212642   5.060   0.675   1.457
 3915SOL     OW12643   4.670   6.765   0.327
 3915SOL    HW112644   4.620   6.777   0.241
 3915SOL    HW212645   4.623   6.699   0.385
 3916SOL     OW12646   2.719   0.034   2.818
 3916SOL    HW112647   2.811   0.068   2.840
 3916SOL    HW212648   2.673   0.099   2.757
 3917SOL     OW12649   1.199   4.277   1.401
 3917SOL    HW112650   1.174   4.348   1.468
 3917SOL    HW212651   1.187   4.314   1.309
 3918SOL     OW12652   3.624   6.546   1.226
 3918SOL    HW112653   3.716   6.583   1.211
 3918SOL    HW212654   3.601   6.552   1.323
 3919SOL     OW12655   3.506   0.310   6.786
 3919SOL    HW112656   3.591   0.345   6.824
 3919SOL    HW212657   3.446   0.387   6.763
 3920SOL     OW12658   2.886   0.652   6.636
 3920SOL    HW112659   2.799   0.625   6.677
 3920SOL    HW212660   2.869   0.709   6.556
 3921SOL     OW12661   0.192   1.934   6.974
 3921SOL    HW112662   0.286   1.932   7.007
 3921SOL    HW212663   0.173   2.024   6.935
 3922SOL     OW12664   4.969   5.002   1.560
 3922SOL    HW112665   4.999   4.911   1.589
 3922SOL    HW212666   4.870   5.010   1.571
 3923SOL     OW12667   5.726   1.918   1.061
 3923SOL    HW112668   5.642   1.969   1.082
 3923SOL    HW212669   5.785   1.917   1.142
 3924SOL     OW12670   0.406   4.864   2.745
 3924SOL    HW112671   0.406   4.964   2.734
 3924SOL    HW212672   0.329   4.837   2.804
 3925SOL     OW12673   4.481   4.903   1.129
 3925SOL    HW112674   4.506   4.977   1.191
 3925SOL    HW212675   4.438   4.829   1.181
 3926SOL     OW12676   0.030   0.213   5.026
 3926SOL    HW112677   0.093   0.175   5.094
 3926SOL    HW212678   0.082   0.269   4.961
 3927SOL     OW12679   0.145   2.846   4.487
 3927SOL    HW112680   0.171   2.930   4.439
 3927SOL    HW212681   0.200   2.769   4.453
 3928SOL     OW12682   3.160   5.770   3.290
 3928SOL    HW112683   3.226   5.695   3.289
 3928SOL    HW212684   3.172   5.824   3.374
 3929SOL     OW12685   0.148   1.024   6.782
 3929SOL    HW112686   0.120   0.983   6.869
 3929SOL    HW212687   0.247   1.011   6.769
 3930SOL     OW12688   0.762   2.252   3.764
 3930SOL    HW112689   0.728   2.204   3.846
 3930SOL    HW212690   0.712   2.220   3.684
 3931SOL     OW12691   1.830   1.650   1.994
 3931SOL    HW112692   1.913   1.598   1.977
 3931SOL    HW212693   1.757   1.618   1.933
 3932SOL     OW12694   2.250   4.709   3.863
 3932SOL    HW112695   2.182   4.781   3.879
 3932SOL    HW212696   2.288   4.679   3.951
 3933SOL     OW12697   1.753   0.130   0.157
 3933SOL    HW112698   1.696   0.210   0.137
 3933SOL    HW212699   1.844   0.160   0.186
 3934SOL     OW12700   6.675   1.144   3.275
 3934SOL    HW112701   6.661   1.054   3.316
 3934SOL    HW212702   6.603   1.207   3.305
 3935SOL     OW12703   0.744   1.242   5.871
 3935SOL    HW112704   0.674   1.235   5.801
 3935SOL    HW212705   0.739   1.333   5.914
 3936SOL     OW12706   6.858   6.005   5.349
 3936SOL    HW112707   6.861   6.030   5.253
 3936SOL    HW212708   6.765   5.979   5.375
 3937SOL     OW12709   6.686   6.630   2.292
 3937SOL    HW112710   6.638   6.543   2.283
 3937SOL    HW212711   6.644   6.684   2.365
 3938SOL     OW12712   6.256   4.338   4.510
 3938SOL    HW112713   6.263   4.436   4.488
 3938SOL    HW212714   6.245   4.327   4.609
 3939SOL     OW12715   2.907   1.726   3.705
 3939SOL    HW112716   2.866   1.752   3.793
 3939SOL    HW212717   2.839   1.736   3.633
 3940SOL     OW12718   2.789   4.831   1.857
 3940SOL    HW112719   2.802   4.750   1.915
 3940SOL    HW212720   2.798   4.804   1.761
 3941SOL     OW12721   5.948   7.014   4.666
 3941SOL    HW112722   5.867   0.040   4.630
 3941SOL    HW212723   6.030   0.045   4.642
 3942SOL     OW12724   0.657   6.236   5.460
 3942SOL    HW112725   0.620   6.326   5.483
 3942SOL    HW212726   0.639   6.172   5.534
 3943SOL     OW12727   0.828   3.246   2.711
 3943SOL    HW112728   0.768   3.260   2.632
 3943SOL    HW212729   0.798   3.303   2.787
 3944SOL     OW12730   5.831   3.720   6.097
 3944SOL    HW112731   5.870   3.633   6.068
 3944SOL    HW212732   5.888   3.759   6.169
 3945SOL     OW12733   1.063   2.369   3.400
 3945SOL    HW112734   1.083   2.429   3.323
 3945SOL    HW212735   1.109   2.403   3.482
 3946SOL     OW12736   0.371   3.768   6.761
 3946SOL    HW112737   0.456   3.785   6.811
 3946SOL    HW212738   0.387   3.779   6.663
 3947SOL     OW12739   5.939   5.062   0.681
 3947SOL    HW112740   5.875   4.995   0.642
 3947SOL    HW212741   6.033   5.031   0.666
 3948SOL     OW12742   1.727   3.775   6.599
 3948SOL    HW112743   1.683   3.709   6.659
 3948SOL    HW212744   1.824   3.780   6.621
 3949SOL     OW12745   6.650   6.869   3.805
 3949SOL    HW112746   6.716   6.822   3.863
 3949SOL    HW212747   6.652   6.830   3.713
 3950SOL     OW12748   4.129   3.975   1.459
 3950SOL    HW112749   4.112   3.981   1.361
 3950SOL    HW212750   4.225   3.994   1.478
 3951SOL     OW12751   0.395   1.297   6.611
 3951SOL    HW112752   0.403   1.218   6.551
 3951SOL    HW212753   0.454   1.284   6.691
 3952SOL     OW12754   6.074   3.273   4.338
 3952SOL    HW112755   5.984   3.231   4.349
 3952SOL    HW212756   6.144   3.201   4.336
 3953SOL     OW12757   3.526   3.898   6.059
 3953SOL    HW112758   3.597   3.846   6.012
 3953SOL    HW212759   3.511   3.984   6.010
 3954SOL     OW12760   5.465   4.871   5.729
 3954SOL    HW112761   5.547   4.814   5.730
 3954SOL    HW212762   5.387   4.816   5.699
 3955SOL     OW12763   4.966   6.284   0.035
 3955SOL    HW112764   4.947   6.308   0.130
 3955SOL    HW212765   4.912   6.203   0.010
 3956SOL     OW12766   0.821   2.517   5.133
 3956SOL    HW112767   0.874   2.596   5.099
 3956SOL    HW212768   0.803   2.529   5.230
 3957SOL     OW12769   3.530   6.238   3.224
 3957SOL    HW112770   3.493   6.145   3.226
 3957SOL    HW212771   3.630   6.235   3.221
 3958SOL     OW12772   6.349   6.071   6.936
 3958SOL    HW112773   6.263   6.063   6.985
 3958SOL    HW212774   6.389   6.161   6.952
 3959SOL     OW12775   3.299   6.587   1.392
 3959SOL    HW112776   3.217   6.538   1.363
 3959SOL    HW212777   3.379   6.527   1.379
 3960SOL     OW12778   5.444   2.360   6.200
 3960SOL    HW112779   5.414   2.388   6.291
 3960SOL    HW212780   5.441   2.439   6.138
 3961SOL     OW12781   5.022   1.709   1.682
 3961SOL    HW112782   4.934   1.738   1.719
 3961SOL    HW212783   5.092   1.719   1.752
 3962SOL     OW12784   0.629   5.876   0.155
 3962SOL    HW112785   0.535   5.875   0.189
 3962SOL    HW212786   0.681   5.945   0.205
 3963SOL     OW12787   5.574   4.973   3.541
 3963SOL    HW112788   5.663   4.927   3.533
 3963SOL    HW212789   5.581   5.066   3.506
 3964SOL     OW12790   4.015   5.260   5.112
 3964SOL    HW112791   4.101   5.210   5.107
 3964SOL    HW212792   3.950   5.222   5.046
 3965SOL     OW12793   3.450   4.943   6.210
 3965SOL    HW112794   3.543   4.926   6.178
 3965SOL    HW212795   3.392   4.864   6.190
 3966SOL     OW12796   6.719   4.842   0.126
 3966SOL    HW112797   6.786   4.882   0.063
 3966SOL    HW212798   6.709   4.744   0.106
 3967SOL     OW12799   1.134   4.997   2.487
 3967SOL    HW112800   1.232   4.983   2.499
 3967SOL    HW212801   1.095   4.920   2.436
 3968SOL     OW12802   6.043   0.822   0.978
 3968SOL    HW112803   6.084   0.736   0.949
 3968SOL    HW212804   5.945   0.820   0.962
 3969SOL     OW12805   0.463   4.469   2.690
 3969SOL    HW112806   0.496   4.405   2.620
 3969SOL    HW212807   0.380   4.513   2.658
 3970SOL     OW12808   5.345   5.395   3.496
 3970SOL    HW112809   5.357   5.474   3.557
 3970SOL    HW212810   5.286   5.328   3.541
 3971SOL     OW12811   2.895   5.193   1.974
 3971SOL    HW112812   2.973   5.255   1.984
 3971SOL    HW212813   2.894   5.128   2.051
 3972SOL     OW12814   0.804   5.995   0.911
 3972SOL    HW112815   0.892   6.015   0.954
 3972SOL    HW212816   0.753   6.081   0.899
 3973SOL     OW12817   3.065   3.503   5.211
 3973SOL    HW112818   3.147   3.508   5.154
 3973SOL    HW212819   3.001   3.574   5.183
 3974SOL     OW12820   0.698   0.486   5.962
 3974SOL    HW112821   0.761   0.450   5.892
 3974SOL    HW212822   0.607   0.494   5.923
 3975SOL     OW12823   5.990   6.992   5.899
 3975SOL    HW112824   5.924   0.027   5.848
 3975SOL    HW212825   6.083   7.011   5.865
 3976SOL     OW12826   0.822   5.109   0.999
 3976SOL    HW112827   0.763   5.182   1.035
 3976SOL    HW212828   0.769   5.025   0.991
 3977SOL     OW12829   3.135   5.033   6.235
 3977SOL    HW112830   3.117   5.128   6.209
 3977SOL    HW212831   3.151   4.978   6.153
 3978SOL     OW12832   5.097   6.814   4.284
 3978SOL    HW112833   5.048   6.889   4.239
 3978SOL    HW212834   5.176   6.850   4.332
 3979SOL     OW12835   2.276   6.127   1.891
 3979SOL    HW112836   2.257   6.123   1.793
 3979SOL    HW212837   2.208   6.185   1.935
 3980SOL     OW12838   0.173   4.281   6.140
 3980SOL    HW112839   0.250   4.275   6.203
 3980SOL    HW212840   0.162   4.193   6.093
 3981SOL     OW12841   1.130   1.966   6.083
 3981SOL    HW112842   1.214   1.974   6.136
 3981SOL    HW212843   1.086   1.878   6.103
 3982SOL     OW12844   2.523   0.726   3.948
 3982SOL    HW112845   2.622   0.742   3.942
 3982SOL    HW212846   2.475   0.813   3.935
 3983SOL     OW12847   3.641   5.785   4.222
 3983SOL    HW112848   3.631   5.714   4.291
 3983SOL    HW212849   3.689   5.864   4.261
 3984SOL     OW12850   2.354   0.742   1.831
 3984SOL    HW112851   2.285   0.812   1.851
 3984SOL    HW212852   2.441   0.786   1.812
 3985SOL     OW12853   2.111   4.352   6.566
 3985SOL    HW112854   2.131   4.356   6.468
 3985SOL    HW212855   2.188   4.311   6.614
 3986SOL     OW12856   0.205   1.616   3.287
 3986SOL    HW112857   0.206   1.714   3.308
 3986SOL    HW212858   0.136   1.598   3.218
 3987SOL     OW12859   1.152   5.262   5.061
 3987SOL    HW112860   1.234   5.207   5.073
 3987SOL    HW212861   1.072   5.201   5.055
 3988SOL     OW12862   3.474   2.150   5.573
 3988SOL    HW112863   3.477   2.170   5.475
 3988SOL    HW212864   3.390   2.190   5.611
 3989SOL     OW12865   5.658   0.471   5.970
 3989SOL    HW112866   5.634   0.535   6.042
 3989SOL    HW212867   5.603   0.490   5.888
 3990SOL     OW12868   6.073   1.531   3.741
 3990SOL    HW112869   6.022   1.450   3.711
 3990SOL    HW212870   6.161   1.503   3.779
 3991SOL     OW12871   6.568   2.593   3.636
 3991SOL    HW112872   6.637   2.552   3.694
 3991SOL    HW212873   6.485   2.537   3.636
 3992SOL     OW12874   4.668   2.701   6.471
 3992SOL    HW112875   4.654   2.751   6.556
 3992SOL    HW212876   4.623   2.612   6.477
 3993SOL     OW12877   2.176   1.919   3.419
 3993SOL    HW112878   2.139   1.920   3.326
 3993SOL    HW212879   2.198   2.013   3.447
 3994SOL     OW12880   1.803   2.676   4.726
 3994SOL    HW112881   1.721   2.733   4.734
 3994SOL    HW212882   1.776   2.580   4.723
 3995SOL     OW12883   2.223   4.347   3.998
 3995SOL    HW112884   2.130   4.375   4.019
 3995SOL    HW212885   2.233   4.335   3.899
 3996SOL     OW12886   1.323   0.792   4.853
 3996SOL    HW112887   1.378   0.875   4.841
 3996SOL    HW212888   1.228   0.811   4.830
 3997SOL     OW12889   5.005   3.672   3.713
 3997SOL    HW112890   5.052   3.584   3.725
 3997SOL    HW212891   5.072   3.746   3.718
 3998SOL     OW12892   5.340   2.372   2.287
 3998SOL    HW112893   5.296   2.310   2.352
 3998SOL    HW212894   5.271   2.419   2.233
 3999SOL     OW12895   5.843   3.509   3.456
 3999SOL    HW112896   5.857   3.606   3.436
 3999SOL    HW212897   5.929   3.471   3.491
 4000SOL     OW12898   3.182   5.599   2.363
 4000SOL    HW112899   3.116   5.525   2.356
 4000SOL    HW212900   3.140   5.677   2.411
 4001SOL     OW12901   2.343   2.731   5.115
 4001SOL    HW112902   2.420   2.678   5.081
 4001SOL    HW212903   2.356   2.828   5.092
 4002SOL     OW12904   3.734   3.785   5.909
 4002SOL    HW112905   3.824   3.770   5.948
 4002SOL    HW212906   3.721   3.724   5.830
 4003SOL     OW12907   2.093   0.722   5.881
 4003SOL    HW112908   2.072   0.748   5.975
 4003SOL    HW212909   2.152   0.791   5.839
 4004SOL     OW12910   5.858   3.083   4.421
 4004SOL    HW112911   5.788   3.014   4.438
 4004SOL    HW212912   5.896   3.115   4.508
 4005SOL     OW12913   4.995   4.698   1.041
 4005SOL    HW112914   4.919   4.634   1.047
 4005SOL    HW212915   5.075   4.651   1.002
 4006SOL     OW12916   4.844   4.878   2.478
 4006SOL    HW112917   4.874   4.882   2.573
 4006SOL    HW212918   4.921   4.896   2.417
 4007SOL     OW12919   0.688   2.875   2.497
 4007SOL    HW112920   0.589   2.873   2.485
 4007SOL    HW212921   0.732   2.898   2.410
 4008SOL     OW12922   3.439   1.322   5.900
 4008SOL    HW112923   3.411   1.323   5.804
 4008SOL    HW212924   3.424   1.231   5.938
 4009SOL     OW12925   4.372   2.560   0.558
 4009SOL    HW112926   4.366   2.648   0.511
 4009SOL    HW212927   4.431   2.569   0.638
 4010SOL     OW12928   2.367   3.329   1.516
 4010SOL    HW112929   2.284   3.354   1.565
 4010SOL    HW212930   2.431   3.406   1.517
 4011SOL     OW12931   0.768   6.879   2.297
 4011SOL    HW112932   0.832   6.813   2.258
 4011SOL    HW212933   0.818   6.948   2.348
 4012SOL     OW12934   4.358   5.550   2.512
 4012SOL    HW112935   4.419   5.494   2.568
 4012SOL    HW212936   4.411   5.616   2.460
 4013SOL     OW12937   2.875   0.404   1.078
 4013SOL    HW112938   2.819   0.354   1.012
 4013SOL    HW212939   2.940   0.463   1.029
 4014SOL     OW12940   4.081   5.265   4.068
 4014SOL    HW112941   4.038   5.350   4.035
 4014SOL    HW212942   4.011   5.194   4.075
 4015SOL     OW12943   4.012   4.609   6.492
 4015SOL    HW112944   3.941   4.598   6.423
 4015SOL    HW212945   4.028   4.706   6.509
 4016SOL     OW12946   1.749   5.513   0.249
 4016SOL    HW112947   1.843   5.505   0.217
 4016SOL    HW212948   1.733   5.605   0.284
 4017SOL     OW12949   0.383   6.872   6.603
 4017SOL    HW112950   0.481   6.862   6.620
 4017SOL    HW212951   0.344   6.783   6.578
 4018SOL     OW12952   5.082   6.454   0.665
 4018SOL    HW112953   5.031   6.400   0.733
 4018SOL    HW212954   5.159   6.499   0.710
 4019SOL     OW12955   6.658   3.935   2.704
 4019SOL    HW112956   6.562   3.912   2.688
 4019SOL    HW212957   6.664   4.026   2.744
 4020SOL     OW12958   0.618   2.856   5.667
 4020SOL    HW112959   0.624   2.953   5.644
 4020SOL    HW212960   0.592   2.804   5.585
 4021SOL     OW12961   3.382   3.768   5.242
 4021SOL    HW112962   3.459   3.798   5.186
 4021SOL    HW212963   3.388   3.669   5.257
 4022SOL     OW12964   4.509   6.779   6.278
 4022SOL    HW112965   4.602   6.747   6.299
 4022SOL    HW212966   4.442   6.716   6.318
 4023SOL     OW12967   6.914   0.744   4.082
 4023SOL    HW112968   6.887   0.650   4.067
 4023SOL    HW212969   6.997   0.764   4.030
 4024SOL     OW12970   2.323   5.901   4.140
 4024SOL    HW112971   2.398   5.841   4.110
 4024SOL    HW212972   2.246   5.891   4.078
 4025SOL     OW12973   0.689   6.472   4.120
 4025SOL    HW112974   0.750   6.551   4.131
 4025SOL    HW212975   0.736   6.389   4.150
 4026SOL     OW12976   6.169   6.987   3.058
 4026SOL    HW112977   6.131   6.968   2.967
 4026SOL    HW212978   6.198   6.901   3.100
 4027SOL     OW12979   3.165   2.662   0.649
 4027SOL    HW112980   3.187   2.756   0.677
 4027SOL    HW212981   3.098   2.664   0.575
 4028SOL     OW12982   2.973   1.979   3.133
 4028SOL    HW112983   3.025   2.059   3.163
 4028SOL    HW212984   2.986   1.965   3.035
 4029SOL     OW12985   3.292   4.754   5.624
 4029SOL    HW112986   3.318   4.846   5.594
 4029SOL    HW212987   3.302   4.747   5.723
 4030SOL     OW12988   0.911   1.805   1.818
 4030SOL    HW112989   0.938   1.709   1.828
 4030SOL    HW212990   0.814   1.810   1.793
 4031SOL     OW12991   5.026   6.042   3.286
 4031SOL    HW112992   5.118   6.044   3.247
 4031SOL    HW212993   4.972   5.971   3.240
 4032SOL     OW12994   6.220   0.408   2.437
 4032SOL    HW112995   6.177   0.486   2.481
 4032SOL    HW212996   6.210   0.327   2.494
 4033SOL     OW12997   2.560   3.639   1.376
 4033SOL    HW112998   2.654   3.665   1.356
 4033SOL    HW212999   2.556   3.596   1.466
 4034SOL     OW13000   6.647   1.257   4.255
 4034SOL    HW113001   6.665   1.348   4.290
 4034SOL    HW213002   6.551   1.232   4.271
 4035SOL     OW13003   6.608   2.532   0.680
 4035SOL    HW113004   6.646   2.524   0.588
 4035SOL    HW213005   6.668   2.487   0.745
 4036SOL     OW13006   4.824   6.163   2.278
 4036SOL    HW113007   4.776   6.088   2.324
 4036SOL    HW213008   4.844   6.137   2.183
 4037SOL     OW13009   2.534   1.601   0.453
 4037SOL    HW113010   2.540   1.699   0.436
 4037SOL    HW213011   2.614   1.555   0.415
 4038SOL     OW13012   4.682   3.235   1.554
 4038SOL    HW113013   4.598   3.197   1.594
 4038SOL    HW213014   4.683   3.218   1.456
 4039SOL     OW13015   5.120   4.288   1.710
 4039SOL    HW113016   5.219   4.298   1.716
 4039SOL    HW213017   5.075   4.367   1.751
 4040SOL     OW13018   3.740   6.983   6.014
 4040SOL    HW113019   3.833   6.986   5.977
 4040SOL    HW213020   3.742   6.945   6.107
 4041SOL     OW13021   1.480   5.015   1.450
 4041SOL    HW113022   1.440   4.965   1.528
 4041SOL    HW213023   1.492   4.952   1.373
 4042SOL     OW13024   6.099   5.706   3.140
 4042SOL    HW113025   6.144   5.641   3.079
 4042SOL    HW213026   6.128   5.799   3.118
 4043SOL     OW13027   5.664   1.740   4.475
 4043SOL    HW113028   5.682   1.643   4.462
 4043SOL    HW213029   5.705   1.771   4.561
 4044SOL     OW13030   5.112   6.924   3.467
 4044SOL    HW113031   5.154   6.837   3.492
 4044SOL    HW213032   5.017   6.908   3.439
 4045SOL     OW13033   2.919   5.540   5.435
 4045SOL    HW113034   2.964   5.533   5.346
 4045SOL    HW213035   2.823   5.512   5.426
 4046SOL     OW13036   1.567   2.093   4.103
 4046SOL    HW113037   1.541   2.030   4.177
 4046SOL    HW213038   1.507   2.173   4.106
 4047SOL     OW13039   1.998   2.169   0.916
 4047SOL    HW113040   1.981   2.204   1.008
 4047SOL    HW213041   2.018   2.245   0.855
 4048SOL     OW13042   5.524   1.756   1.937
 4048SOL    HW113043   5.489   1.847   1.915
 4048SOL    HW213044   5.452   1.688   1.924
 4049SOL     OW13045   6.244   4.964   6.160
 4049SOL    HW113046   6.165   4.915   6.122
 4049SOL    HW213047   6.266   5.041   6.100
 4050SOL     OW13048   1.231   6.686   1.177
 4050SOL    HW113049   1.294   6.689   1.254
 4050SOL    HW213050   1.137   6.680   1.211
 4051SOL     OW13051   4.039   2.106   6.898
 4051SOL    HW113052   4.094   2.140   6.974
 4051SOL    HW213053   4.001   2.184   6.847
 4052SOL     OW13054   6.802   1.430   2.768
 4052SOL    HW113055   6.749   1.418   2.852
 4052SOL    HW213056   6.747   1.480   2.701
 4053SOL     OW13057   2.779   5.617   4.004
 4053SOL    HW113058   2.840   5.652   3.932
 4053SOL    HW213059   2.692   5.665   4.000
 4054SOL     OW13060   6.136   3.654   1.677
 4054SOL    HW113061   6.099   3.602   1.600
 4054SOL    HW213062   6.162   3.591   1.751
 4055SOL     OW13063   3.143   3.166   6.545
 4055SOL    HW113064   3.060   3.118   6.573
 4055SOL    HW213065   3.178   3.221   6.621
 4056SOL     OW13066   3.540   4.082   1.069
 4056SOL    HW113067   3.455   4.059   1.021
 4056SOL    HW213068   3.617   4.038   1.022
 4057SOL     OW13069   5.771   2.777   1.488
 4057SOL    HW113070   5.703   2.760   1.560
 4057SOL    HW213071   5.795   2.690   1.445
 4058SOL     OW13072   1.607   0.055   4.235
 4058SOL    HW113073   1.623   7.018   4.316
 4058SOL    HW213074   1.521   0.105   4.247
 4059SOL     OW13075   1.476   2.252   3.536
 4059SOL    HW113076   1.512   2.160   3.518
 4059SOL    HW213077   1.547   2.308   3.578
 4060SOL     OW13078   5.429   5.791   4.709
 4060SOL    HW113079   5.505   5.804   4.772
 4060SOL    HW213080   5.375   5.711   4.738
 4061SOL     OW13081   3.057   4.805   1.962
 4061SOL    HW113082   3.036   4.719   1.916
 4061SOL    HW213083   3.017   4.881   1.911
 4062SOL     OW13084   1.999   2.709   2.017
 4062SOL    HW113085   1.926   2.676   1.958
 4062SOL    HW213086   2.022   2.638   2.084
 4063SOL     OW13087   6.482   5.502   6.304
 4063SOL    HW113088   6.574   5.534   6.328
 4063SOL    HW213089   6.448   5.553   6.226
 4064SOL     OW13090   2.150   0.025   3.723
 4064SOL    HW113091   2.156   0.013   3.624
 4064SOL    HW213092   2.054   0.020   3.751
 4065SOL     OW13093   0.208   0.076   0.983
 4065SOL    HW113094   0.284   0.141   0.990
 4065SOL    HW213095   0.239   7.014   0.937
 4066SOL     OW13096   5.570   5.248   3.461
 4066SOL    HW113097   5.481   5.293   3.456
 4066SOL    HW213098   5.638   5.313   3.494
 4067SOL     OW13099   6.363   3.485   3.044
 4067SOL    HW113100   6.384   3.392   3.013
 4067SOL    HW213101   6.264   3.493   3.058
 4068SOL     OW13102   3.128   0.679   4.675
 4068SOL    HW113103   3.184   0.638   4.747
 4068SOL    HW213104   3.051   0.727   4.717
 4069SOL     OW13105   2.752   5.147   6.010
 4069SOL    HW113106   2.746   5.082   6.086
 4069SOL    HW213107   2.715   5.105   5.927
 4070SOL     OW13108   0.484   3.046   2.000
 4070SOL    HW113109   0.426   2.965   1.989
 4070SOL    HW213110   0.491   3.069   2.097
 4071SOL     OW13111   1.288   0.526   5.381
 4071SOL    HW113112   1.215   0.522   5.313
 4071SOL    HW213113   1.319   0.620   5.391
 4072SOL     OW13114   0.263   6.006   4.187
 4072SOL    HW113115   0.181   5.954   4.210
 4072SOL    HW213116   0.259   6.096   4.229
 4073SOL     OW13117   2.469   6.155   6.319
 4073SOL    HW113118   2.467   6.254   6.332
 4073SOL    HW213119   2.405   6.130   6.246
 4074SOL     OW13120   6.668   2.636   1.699
 4074SOL    HW113121   6.746   2.697   1.711
 4074SOL    HW213122   6.695   2.556   1.645
 4075SOL     OW13123   3.950   1.710   2.482
 4075SOL    HW113124   3.971   1.801   2.446
 4075SOL    HW213125   4.033   1.656   2.488
 4076SOL     OW13126   3.053   2.977   5.585
 4076SOL    HW113127   3.020   2.979   5.491
 4076SOL    HW213128   3.145   2.938   5.587
 4077SOL     OW13129   3.623   0.769   0.499
 4077SOL    HW113130   3.709   0.781   0.549
 4077SOL    HW213131   3.559   0.841   0.524
 4078SOL     OW13132   0.130   5.960   2.448
 4078SOL    HW113133   0.170   6.031   2.507
 4078SOL    HW213134   0.093   6.003   2.365
 4079SOL     OW13135   1.343   2.289   4.124
 4079SOL    HW113136   1.363   2.387   4.122
 4079SOL    HW213137   1.316   2.259   4.032
 4080SOL     OW13138   2.875   4.190   6.742
 4080SOL    HW113139   2.889   4.112   6.804
 4080SOL    HW213140   2.942   4.187   6.669
 4081SOL     OW13141   2.458   2.266   4.738
 4081SOL    HW113142   2.497   2.209   4.665
 4081SOL    HW213143   2.365   2.292   4.713
 4082SOL     OW13144   1.487   3.193   0.198
 4082SOL    HW113145   1.544   3.185   0.280
 4082SOL    HW213146   1.400   3.147   0.213
 4083SOL     OW13147   6.916   4.581   1.679
 4083SOL    HW113148   6.845   4.533   1.627
 4083SOL    HW213149   7.000   4.585   1.625
 4084SOL     OW13150   4.277   2.365   3.730
 4084SOL    HW113151   4.215   2.441   3.711
 4084SOL    HW213152   4.334   2.347   3.650
 4085SOL     OW13153   2.149   5.914   1.204
 4085SOL    HW113154   2.151   5.881   1.110
 4085SOL    HW213155   2.190   6.005   1.209
 4086SOL     OW13156   0.425   5.319   1.696
 4086SOL    HW113157   0.502   5.304   1.634
 4086SOL    HW213158   0.343   5.339   1.642
 4087SOL     OW13159   1.495   1.726   3.348
 4087SOL    HW113160   1.500   1.771   3.437
 4087SOL    HW213161   1.404   1.742   3.308
 4088SOL     OW13162   5.773   0.927   6.771
 4088SOL    HW113163   5.713   0.913   6.849
 4088SOL    HW213164   5.801   1.023   6.767
 4089SOL     OW13165   5.305   4.696   3.828
 4089SOL    HW113166   5.265   4.713   3.738
 4089SOL    HW213167   5.385   4.755   3.841
 4090SOL     OW13168   1.352   5.085   5.372
 4090SOL    HW113169   1.407   5.103   5.291
 4090SOL    HW213170   1.288   5.161   5.387
 4091SOL     OW13171   0.445   6.293   6.877
 4091SOL    HW113172   0.519   6.350   6.912
 4091SOL    HW213173   0.438   6.305   6.778
 4092SOL     OW13174   5.677   2.634   4.469
 4092SOL    HW113175   5.738   2.607   4.395
 4092SOL    HW213176   5.601   2.569   4.476
 4093SOL     OW13177   4.554   5.917   1.999
 4093SOL    HW113178   4.508   5.969   2.071
 4093SOL    HW213179   4.581   5.979   1.926
 4094SOL     OW13180   1.815   5.236   5.751
 4094SOL    HW113181   1.845   5.144   5.726
 4094SOL    HW213182   1.885   5.302   5.725
 4095SOL     OW13183   0.910   4.264   0.787
 4095SOL    HW113184   0.874   4.324   0.858
 4095SOL    HW213185   0.926   4.173   0.825
 4096SOL     OW13186   4.689   0.885   6.165
 4096SOL    HW113187   4.732   0.805   6.208
 4096SOL    HW213188   4.657   0.860   6.074
 4097SOL     OW13189   3.974   4.874   4.793
 4097SOL    HW113190   3.944   4.783   4.821
 4097SOL    HW213191   3.895   4.935   4.790
 4098SOL     OW13192   6.884   2.300   2.022
 4098SOL    HW113193   6.793   2.318   1.984
 4098SOL    HW213194   6.875   2.248   2.107
 4099SOL     OW13195   3.712   4.911   1.433
 4099SOL    HW113196   3.786   4.925   1.499
 4099SOL    HW213197   3.708   4.990   1.372
 4100SOL     OW13198   0.028   6.671   4.316
 4100SOL    HW113199   7.013   6.578   4.312
 4100SOL    HW213200   0.022   6.713   4.226
 4101SOL     OW13201   6.771   1.219   6.611
 4101SOL    HW113202   6.714   1.166   6.547
 4101SOL    HW213203   6.819   1.291   6.560
 4102SOL     OW13204   0.277   1.119   0.318
 4102SOL    HW113205   0.340   1.042   0.334
 4102SOL    HW213206   0.306   1.169   0.237
 4103SOL     OW13207   0.532   7.007   0.250
 4103SOL    HW113208   0.536   0.075   0.204
 4103SOL    HW213209   0.625   6.975   0.268
 4104SOL     OW13210   6.711   5.178   3.197
 4104SOL    HW113211   6.747   5.254   3.143
 4104SOL    HW213212   6.781   5.149   3.262
 4105SOL     OW13213   5.272   0.262   1.981
 4105SOL    HW113214   5.205   0.194   2.008
 4105SOL    HW213215   5.242   0.307   1.897
 4106SOL     OW13216   6.664   3.181   2.940
 4106SOL    HW113217   6.707   3.267   2.913
 4106SOL    HW213218   6.700   3.152   3.028
 4107SOL     OW13219   0.841   5.377   1.091
 4107SOL    HW113220   0.853   5.354   0.994
 4107SOL    HW213221   0.897   5.457   1.113
 4108SOL     OW13222   6.378   5.281   4.680
 4108SOL    HW113223   6.444   5.210   4.702
 4108SOL    HW213224   6.403   5.366   4.726
 4109SOL     OW13225   6.370   6.670   4.675
 4109SOL    HW113226   6.436   6.656   4.749
 4109SOL    HW213227   6.309   6.591   4.669
 4110SOL     OW13228   4.125   3.833   5.413
 4110SOL    HW113229   4.155   3.928   5.406
 4110SOL    HW213230   4.192   3.773   5.369
 4111SOL     OW13231   5.169   3.780   6.829
 4111SOL    HW113232   5.254   3.738   6.799
 4111SOL    HW213233   5.170   3.791   6.929
 4112SOL     OW13234   4.930   6.048   4.679
 4112SOL    HW113235   4.949   6.144   4.702
 4112SOL    HW213236   4.924   5.994   4.762
 4113SOL     OW13237   5.215   5.912   5.212
 4113SOL    HW113238   5.306   5.893   5.175
 4113SOL    HW213239   5.224   5.959   5.300
 4114SOL     OW13240   4.103   2.192   4.106
 4114SOL    HW113241   4.174   2.249   4.147
 4114SOL    HW213242   4.070   2.126   4.173
 4115SOL     OW13243   3.454   5.172   2.151
 4115SOL    HW113244   3.439   5.117   2.069
 4115SOL    HW213245   3.386   5.149   2.220
 4116SOL     OW13246   3.770   1.470   2.395
 4116SOL    HW113247   3.679   1.510   2.396
 4116SOL    HW213248   3.838   1.539   2.420
 4117SOL     OW13249   1.545   3.402   2.381
 4117SOL    HW113250   1.552   3.466   2.305
 4117SOL    HW213251   1.512   3.314   2.347
 4118SOL     OW13252   4.627   5.399   0.453
 4118SOL    HW113253   4.538   5.422   0.413
 4118SOL    HW213254   4.615   5.376   0.549
 4119SOL     OW13255   3.690   1.837   4.242
 4119SOL    HW113256   3.750   1.817   4.164
 4119SOL    HW213257   3.668   1.935   4.243
 4120SOL     OW13258   4.042   0.580   6.367
 4120SOL    HW113259   4.028   0.607   6.272
 4120SOL    HW213260   4.073   0.485   6.370
 4121SOL     OW13261   6.118   0.156   4.562
 4121SOL    HW113262   6.053   0.228   4.539
 4121SOL    HW213263   6.206   0.197   4.588
 4122SOL     OW13264   1.084   6.224   3.971
 4122SOL    HW113265   1.041   6.209   4.060
 4122SOL    HW213266   1.041   6.164   3.903
 4123SOL     OW13267   4.410   4.780   5.267
 4123SOL    HW113268   4.351   4.860   5.256
 4123SOL    HW213269   4.425   4.763   5.365
 4124SOL     OW13270   6.903   6.362   0.730
 4124SOL    HW113271   6.955   6.304   0.667
 4124SOL    HW213272   6.965   6.409   0.792
 4125SOL     OW13273   4.857   1.415   2.007
 4125SOL    HW113274   4.884   1.349   1.938
 4125SOL    HW213275   4.914   1.404   2.089
 4126SOL     OW13276   1.862   3.678   3.777
 4126SOL    HW113277   1.839   3.689   3.680
 4126SOL    HW213278   1.789   3.715   3.833
 4127SOL     OW13279   5.528   4.500   5.208
 4127SOL    HW113280   5.482   4.584   5.237
 4127SOL    HW213281   5.461   4.429   5.190
 4128SOL     OW13282   1.212   2.962   1.831
 4128SOL    HW113283   1.171   2.909   1.906
 4128SOL    HW213284   1.260   2.900   1.769
 4129SOL     OW13285   4.007   0.756   6.895
 4129SOL    HW113286   4.088   0.724   6.846
 4129SOL    HW213287   4.033   0.786   6.987
 4130SOL     OW13288   6.539   3.370   0.448
 4130SOL    HW113289   6.521   3.311   0.369
 4130SOL    HW213290   6.602   3.323   0.510
 4131SOL     OW13291   0.224   1.840   4.036
 4131SOL    HW113292   0.139   1.859   3.988
 4131SOL    HW213293   0.273   1.765   3.989
 4132SOL     OW13294   4.756   4.169   3.593
 4132SOL    HW113295   4.683   4.237   3.582
 4132SOL    HW213296   4.774   4.125   3.505
 4133SOL     OW13297   3.247   5.984   0.958
 4133SOL    HW113298   3.262   5.976   1.057
 4133SOL    HW213299   3.192   6.066   0.939
 4134SOL     OW13300   2.602   4.013   1.049
 4134SOL    HW113301   2.558   3.938   1.000
 4134SOL    HW213302   2.551   4.098   1.031
 4135SOL     OW13303   0.696   2.017   2.609
 4135SOL    HW113304   0.675   2.057   2.520
 4135SOL    HW213305   0.696   1.917   2.601
 4136SOL     OW13306   1.468   2.862   3.273
 4136SOL    HW113307   1.459   2.776   3.224
 4136SOL    HW213308   1.428   2.852   3.364
 4137SOL     OW13309   1.209   4.030   1.482
 4137SOL    HW113310   1.212   4.034   1.581
 4137SOL    HW213311   1.185   4.121   1.446
 4138SOL     OW13312   4.476   5.804   2.544
 4138SOL    HW113313   4.489   5.796   2.642
 4138SOL    HW213314   4.544   5.868   2.506
 4139SOL     OW13315   2.256   1.650   5.615
 4139SOL    HW113316   2.166   1.693   5.607
 4139SOL    HW213317   2.252   1.576   5.682
 4140SOL     OW13318   3.141   6.813   5.742
 4140SOL    HW113319   3.230   6.807   5.697
 4140SOL    HW213320   3.154   6.848   5.835
 4141SOL     OW13321   5.487   6.515   0.751
 4141SOL    HW113322   5.569   6.505   0.808
 4141SOL    HW213323   5.409   6.541   0.809
 4142SOL     OW13324   6.782   4.390   0.942
 4142SOL    HW113325   6.741   4.478   0.966
 4142SOL    HW213326   6.748   4.319   1.004
 4143SOL     OW13327   5.403   1.861   0.864
 4143SOL    HW113328   5.355   1.941   0.829
 4143SOL    HW213329   5.385   1.851   0.962
 4144SOL     OW13330   5.454   2.044   0.331
 4144SOL    HW113331   5.459   2.091   0.419
 4144SOL    HW213332   5.366   2.065   0.287
 4145SOL     OW13333   0.448   6.645   1.763
 4145SOL    HW113334   0.535   6.625   1.718
 4145SOL    HW213335   0.451   6.737   1.802
 4146SOL     OW13336   6.651   0.337   2.991
 4146SOL    HW113337   6.694   0.400   2.926
 4146SOL    HW213338   6.704   0.336   3.076
 4147SOL     OW13339   5.201   4.601   5.979
 4147SOL    HW113340   5.120   4.598   6.037
 4147SOL    HW213341   5.271   4.540   6.017
 4148SOL     OW13342   1.496   0.628   4.570
 4148SOL    HW113343   1.407   0.670   4.550
 4148SOL    HW213344   1.554   0.695   4.617
 4149SOL     OW13345   0.128   3.854   0.671
 4149SOL    HW113346   0.197   3.813   0.731
 4149SOL    HW213347   0.085   3.931   0.718
 4150SOL     OW13348   0.897   0.062   5.654
 4150SOL    HW113349   0.813   0.109   5.682
 4150SOL    HW213350   0.882   6.983   5.655
 4151SOL     OW13351   3.106   6.393   5.755
 4151SOL    HW113352   3.022   6.442   5.779
 4151SOL    HW213353   3.111   6.309   5.810
 4152SOL     OW13354   4.483   5.751   0.410
 4152SOL    HW113355   4.582   5.763   0.408
 4152SOL    HW213356   4.459   5.660   0.375
 4153SOL     OW13357   5.477   4.970   0.012
 4153SOL    HW113358   5.397   4.918   0.044
 4153SOL    HW213359   5.446   5.053   6.985
 4154SOL     OW13360   0.117   5.400   3.477
 4154SOL    HW113361   0.115   5.325   3.544
 4154SOL    HW213362   0.204   5.449   3.485
 4155SOL     OW13363   0.667   1.384   2.561
 4155SOL    HW113364   0.583   1.345   2.524
 4155SOL    HW213365   0.746   1.344   2.515
 4156SOL     OW13366   5.942   5.434   5.240
 4156SOL    HW113367   5.851   5.473   5.224
 4156SOL    HW213368   5.981   5.404   5.153
 4157SOL     OW13369   4.910   5.156   3.878
 4157SOL    HW113370   4.940   5.251   3.881
 4157SOL    HW213371   4.989   5.096   3.872
 4158SOL     OW13372   7.001   3.276   1.482
 4158SOL    HW113373   0.031   3.357   1.513
 4158SOL    HW213374   6.904   3.288   1.501
 4159SOL     OW13375   2.073   3.620   3.488
 4159SOL    HW113376   2.090   3.545   3.423
 4159SOL    HW213377   2.064   3.583   3.580
 4160SOL     OW13378   5.901   0.889   0.499
 4160SOL    HW113379   5.804   0.882   0.520
 4160SOL    HW213380   5.915   0.953   0.424
 4161SOL     OW13381   1.159   1.825   1.045
 4161SOL    HW113382   1.229   1.776   0.992
 4161SOL    HW213383   1.069   1.804   1.006
 4162SOL     OW13384   0.052   5.862   0.329
 4162SOL    HW113385   0.078   5.883   0.424
 4162SOL    HW213386   0.090   5.930   0.268
 4163SOL     OW13387   4.692   6.909   3.144
 4163SOL    HW113388   4.767   6.969   3.117
 4163SOL    HW213389   4.614   6.924   3.084
 4164SOL     OW13390   1.617   6.642   5.914
 4164SOL    HW113391   1.689   6.573   5.921
 4164SOL    HW213392   1.557   6.620   5.837
 4165SOL     OW13393   3.990   0.333   5.966
 4165SOL    HW113394   4.033   0.382   6.041
 4165SOL    HW213395   4.060   0.296   5.905
 4166SOL     OW13396   5.395   2.567   0.515
 4166SOL    HW113397   5.439   2.615   0.591
 4166SOL    HW213398   5.465   2.516   0.464
 4167SOL     OW13399   1.656   4.393   1.103
 4167SOL    HW113400   1.654   4.409   1.202
 4167SOL    HW213401   1.571   4.349   1.075
 4168SOL     OW13402   6.784   4.493   1.283
 4168SOL    HW113403   6.730   4.577   1.287
 4168SOL    HW213404   6.871   4.512   1.239
 4169SOL     OW13405   6.049   4.443   4.992
 4169SOL    HW113406   5.951   4.456   4.980
 4169SOL    HW213407   6.081   4.370   4.932
 4170SOL     OW13408   4.507   4.059   5.880
 4170SOL    HW113409   4.467   4.021   5.796
 4170SOL    HW213410   4.456   4.141   5.907
 4171SOL     OW13411   6.194   6.262   0.596
 4171SOL    HW113412   6.170   6.357   0.576
 4171SOL    HW213413   6.267   6.233   0.534
 4172SOL     OW13414   1.219   1.914   5.598
 4172SOL    HW113415   1.132   1.864   5.593
 4172SOL    HW213416   1.220   1.970   5.681
 4173SOL     OW13417   5.393   3.972   5.205
 4173SOL    HW113418   5.325   3.918   5.155
 4173SOL    HW213419   5.346   4.034   5.268
 4174SOL     OW13420   5.331   0.855   2.894
 4174SOL    HW113421   5.349   0.883   2.988
 4174SOL    HW213422   5.233   0.846   2.879
 4175SOL     OW13423   2.114   6.022   4.327
 4175SOL    HW113424   2.160   5.980   4.250
 4175SOL    HW213425   2.154   5.989   4.413
 4176SOL     OW13426   3.089   6.078   2.098
 4176SOL    HW113427   3.085   6.168   2.055
 4176SOL    HW213428   3.121   6.010   2.032
 4177SOL     OW13429   6.443   4.538   5.013
 4177SOL    HW113430   6.354   4.558   5.054
 4177SOL    HW213431   6.466   4.442   5.029
 4178SOL     OW13432   4.871   0.575   4.032
 4178SOL    HW113433   4.872   0.643   4.105
 4178SOL    HW213434   4.934   0.501   4.054
 4179SOL     OW13435   4.735   2.815   3.615
 4179SOL    HW113436   4.820   2.764   3.602
 4179SOL    HW213437   4.686   2.821   3.529
 4180SOL     OW13438   5.554   4.502   0.846
 4180SOL    HW113439   5.582   4.577   0.907
 4180SOL    HW213440   5.571   4.529   0.751
 4181SOL     OW13441   2.754   1.303   0.801
 4181SOL    HW113442   2.666   1.350   0.804
 4181SOL    HW213443   2.820   1.353   0.856
 4182SOL     OW13444   1.135   6.835   3.416
 4182SOL    HW113445   1.117   6.827   3.318
 4182SOL    HW213446   1.126   6.745   3.458
 4183SOL     OW13447   3.264   1.497   0.067
 4183SOL    HW113448   3.229   1.546   7.008
 4183SOL    HW213449   3.248   1.553   0.149
 4184SOL     OW13450   4.784   5.427   1.426
 4184SOL    HW113451   4.700   5.460   1.386
 4184SOL    HW213452   4.763   5.361   1.498
 4185SOL     OW13453   0.227   4.905   2.217
 4185SOL    HW113454   0.264   4.952   2.297
 4185SOL    HW213455   0.219   4.807   2.235
 4186SOL     OW13456   1.983   5.045   0.031
 4186SOL    HW113457   1.982   5.144   0.041
 4186SOL    HW213458   2.024   5.021   6.964
 4187SOL     OW13459   3.482   3.523   5.308
 4187SOL    HW113460   3.406   3.491   5.366
 4187SOL    HW213461   3.569   3.506   5.355
 4188SOL     OW13462   4.892   6.759   4.530
 4188SOL    HW113463   4.828   6.702   4.581
 4188SOL    HW213464   4.866   6.760   4.433
 4189SOL     OW13465   3.068   5.145   5.564
 4189SOL    HW113466   2.982   5.145   5.514
 4189SOL    HW213467   3.077   5.230   5.616
 4190SOL     OW13468   1.119   0.915   6.977
 4190SOL    HW113469   1.213   0.911   6.941
 4190SOL    HW213470   1.117   0.875   0.048
 4191SOL     OW13471   4.809   4.078   3.358
 4191SOL    HW113472   4.907   4.089   3.371
 4191SOL    HW213473   4.788   3.982   3.339
 4192SOL     OW13474   1.258   0.734   4.468
 4192SOL    HW113475   1.182   0.721   4.405
 4192SOL    HW213476   1.266   0.831   4.493
 4193SOL     OW13477   1.300   0.862   1.838
 4193SOL    HW113478   1.261   0.891   1.925
 4193SOL    HW213479   1.227   0.856   1.769
 4194SOL     OW13480   5.527   0.310   5.066
 4194SOL    HW113481   5.463   0.374   5.107
 4194SOL    HW213482   5.568   0.253   5.138
 4195SOL     OW13483   3.886   6.689   1.630
 4195SOL    HW113484   3.862   6.609   1.685
 4195SOL    HW213485   3.943   6.661   1.553
 4196SOL     OW13486   5.826   2.003   3.431
 4196SOL    HW113487   5.802   1.997   3.528
 4196SOL    HW213488   5.754   2.053   3.382
 4197SOL     OW13489   4.903   5.730   6.207
 4197SOL    HW113490   4.932   5.813   6.159
 4197SOL    HW213491   4.827   5.751   6.268
 4198SOL     OW13492   5.841   2.305   6.980
 4198SOL    HW113493   5.821   2.217   6.938
 4198SOL    HW213494   5.757   2.359   6.988
 4199SOL     OW13495   2.406   2.913   5.963
 4199SOL    HW113496   2.362   2.896   5.875
 4199SOL    HW213497   2.337   2.926   6.034
 4200SOL     OW13498   3.900   6.568   6.046
 4200SOL    HW113499   3.863   6.626   6.119
 4200SOL    HW213500   3.834   6.498   6.022
 4201SOL     OW13501   5.774   5.845   3.843
 4201SOL    HW113502   5.839   5.821   3.771
 4201SOL    HW213503   5.714   5.767   3.862
 4202SOL     OW13504   4.107   5.231   6.049
 4202SOL    HW113505   4.085   5.294   5.974
 4202SOL    HW213506   4.075   5.269   6.135
 4203SOL     OW13507   4.981   4.868   0.149
 4203SOL    HW113508   4.883   4.877   0.166
 4203SOL    HW213509   5.031   4.923   0.215
 4204SOL     OW13510   4.136   3.530   2.652
 4204SOL    HW113511   4.134   3.629   2.639
 4204SOL    HW213512   4.160   3.485   2.565
 4205SOL     OW13513   3.560   5.708   3.487
 4205SOL    HW113514   3.603   5.624   3.454
 4205SOL    HW213515   3.497   5.743   3.418
 4206SOL     OW13516   6.706   0.028   6.237
 4206SOL    HW113517   6.695   0.083   6.320
 4206SOL    HW213518   6.700   6.952   6.260
 4207SOL     OW13519   1.456   1.530   1.254
 4207SOL    HW113520   1.526   1.505   1.187
 4207SOL    HW213521   1.436   1.628   1.246
 4208SOL     OW13522   0.905   3.664   6.094
 4208SOL    HW113523   0.879   3.759   6.111
 4208SOL    HW213524   0.833   3.604   6.129
 4209SOL     OW13525   0.587   0.623   5.119
 4209SOL    HW113526   0.621   0.601   5.211
 4209SOL    HW213527   0.650   0.586   5.051
 4210SOL     OW13528   2.933   3.242   2.629
 4210SOL    HW113529   2.902   3.185   2.553
 4210SOL    HW213530   2.933   3.338   2.600
 4211SOL     OW13531   4.077   5.452   5.804
 4211SOL    HW113532   4.146   5.517   5.836
 4211SOL    HW213533   3.995   5.461   5.861
 4212SOL     OW13534   6.036   1.818   3.027
 4212SOL    HW113535   6.133   1.803   3.006
 4212SOL    HW213536   6.016   1.916   3.022
 4213SOL     OW13537   2.243   1.454   1.472
 4213SOL    HW113538   2.312   1.466   1.543
 4213SOL    HW213539   2.163   1.409   1.511
 4214SOL     OW13540   1.877   4.612   5.123
 4214SOL    HW113541   1.816   4.625   5.045
 4214SOL    HW213542   1.828   4.565   5.196
 4215SOL     OW13543   7.013   5.956   5.085
 4215SOL    HW113544   0.045   5.965   5.001
 4215SOL    HW213545   0.032   6.015   5.156
 4216SOL     OW13546   1.037   1.728   2.818
 4216SOL    HW113547   1.075   1.744   2.727
 4216SOL    HW213548   1.100   1.763   2.888
 4217SOL     OW13549   0.676   0.732   2.412
 4217SOL    HW113550   0.584   0.752   2.446
 4217SOL    HW213551   0.737   0.718   2.490
 4218SOL     OW13552   4.278   0.754   1.927
 4218SOL    HW113553   4.322   0.765   1.839
 4218SOL    HW213554   4.343   0.776   2.000
 4219SOL     OW13555   2.590   5.294   3.616
 4219SOL    HW113556   2.656   5.352   3.568
 4219SOL    HW213557   2.577   5.209   3.566
 4220SOL     OW13558   5.308   3.072   3.860
 4220SOL    HW113559   5.273   3.092   3.951
 4220SOL    HW213560   5.275   2.982   3.831
 4221SOL     OW13561   6.189   5.336   6.853
 4221SOL    HW113562   6.152   5.243   6.858
 4221SOL    HW213563   6.116   5.399   6.824
 4222SOL     OW13564   6.161   1.364   3.067
 4222SOL    HW113565   6.208   1.323   2.989
 4222SOL    HW213566   6.062   1.358   3.053
 4223SOL     OW13567   3.297   3.704   6.107
 4223SOL    HW113568   3.365   3.773   6.135
 4223SOL    HW213569   3.338   3.645   6.038
 4224SOL     OW13570   4.877   3.402   3.693
 4224SOL    HW113571   4.898   3.382   3.789
 4224SOL    HW213572   4.841   3.494   3.685
 4225SOL     OW13573   3.772   0.850   6.001
 4225SOL    HW113574   3.796   0.877   6.094
 4225SOL    HW213575   3.674   0.865   5.986
 4226SOL     OW13576   1.003   0.713   2.165
 4226SOL    HW113577   0.912   0.670   2.163
 4226SOL    HW213578   1.028   0.734   2.259
 4227SOL     OW13579   3.781   4.611   6.999
 4227SOL    HW113580   3.733   4.580   6.916
 4227SOL    HW213581   3.875   4.579   6.997
 4228SOL     OW13582   0.560   3.698   4.630
 4228SOL    HW113583   0.596   3.760   4.700
 4228SOL    HW213584   0.610   3.712   4.545
 4229SOL     OW13585   4.824   5.454   5.507
 4229SOL    HW113586   4.742   5.512   5.514
 4229SOL    HW213587   4.805   5.377   5.446
 4230SOL     OW13588   1.409   0.510   3.679
 4230SOL    HW113589   1.347   0.486   3.754
 4230SOL    HW213590   1.483   0.568   3.714
 4231SOL     OW13591   5.828   5.976   5.296
 4231SOL    HW113592   5.755   5.990   5.230
 4231SOL    HW213593   5.804   6.021   5.382
 4232SOL     OW13594   6.571   4.742   2.610
 4232SOL    HW113595   6.636   4.668   2.595
 4232SOL    HW213596   6.617   4.818   2.656
 4233SOL     OW13597   6.643   0.191   6.711
 4233SOL    HW113598   6.700   0.218   6.788
 4233SOL    HW213599   6.632   0.092   6.711
 4234SOL     OW13600   2.368   6.721   5.892
 4234SOL    HW113601   2.401   6.667   5.815
 4234SOL    HW213602   2.333   6.660   5.963
 4235SOL     OW13603   5.628   3.503   6.097
 4235SOL    HW113604   5.726   3.489   6.081
 4235SOL    HW213605   5.588   3.553   6.020
 4236SOL     OW13606   0.208   3.888   3.296
 4236SOL    HW113607   0.249   3.970   3.337
 4236SOL    HW213608   0.109   3.891   3.312
 4237SOL     OW13609   6.239   5.575   2.961
 4237SOL    HW113610   6.215   5.623   2.877
 4237SOL    HW213611   6.227   5.476   2.947
 4238SOL     OW13612   3.121   5.167   2.629
 4238SOL    HW113613   3.068   5.197   2.549
 4238SOL    HW213614   3.129   5.067   2.629
 4239SOL     OW13615   5.311   1.397   3.050
 4239SOL    HW113616   5.261   1.478   3.081
 4239SOL    HW213617   5.390   1.383   3.110
 4240SOL     OW13618   2.019   0.788   0.324
 4240SOL    HW113619   2.071   0.776   0.408
 4240SOL    HW213620   1.922   0.800   0.347
 4241SOL     OW13621   5.845   0.582   0.304
 4241SOL    HW113622   5.924   0.565   0.362
 4241SOL    HW213623   5.774   0.630   0.356
 4242SOL     OW13624   2.170   0.410   3.265
 4242SOL    HW113625   2.201   0.455   3.349
 4242SOL    HW213626   2.210   0.458   3.186
 4243SOL     OW13627   6.073   3.804   3.394
 4243SOL    HW113628   6.124   3.884   3.365
 4243SOL    HW213629   5.987   3.798   3.343
 4244SOL     OW13630   5.059   4.531   1.804
 4244SOL    HW113631   4.969   4.538   1.847
 4244SOL    HW213632   5.130   4.558   1.870
 4245SOL     OW13633   6.455   0.974   5.961
 4245SOL    HW113634   6.402   0.924   6.029
 4245SOL    HW213635   6.541   1.005   6.001
 4246SOL     OW13636   5.969   3.202   2.649
 4246SOL    HW113637   5.910   3.192   2.569
 4246SOL    HW213638   6.058   3.238   2.621
 4247SOL     OW13639   2.177   4.825   3.412
 4247SOL    HW113640   2.147   4.860   3.501
 4247SOL    HW213641   2.104   4.770   3.371
 4248SOL     OW13642   1.888   1.578   3.849
 4248SOL    HW113643   1.848   1.496   3.888
 4248SOL    HW213644   1.818   1.628   3.796
 4249SOL     OW13645   5.329   1.638   3.981
 4249SOL    HW113646   5.326   1.542   4.006
 4249SOL    HW213647   5.279   1.693   4.048
 4250SOL     OW13648   6.979   5.980   3.945
 4250SOL    HW113649   6.987   6.079   3.950
 4250SOL    HW213650   7.018   5.938   4.027
 4251SOL     OW13651   5.827   3.725   1.455
 4251SOL    HW113652   5.883   3.654   1.413
 4251SOL    HW213653   5.732   3.714   1.425
 4252SOL     OW13654   6.822   6.592   6.361
 4252SOL    HW113655   6.745   6.636   6.315
 4252SOL    HW213656   6.805   6.589   6.459
 4253SOL     OW13657   3.476   6.616   0.751
 4253SOL    HW113658   3.562   6.636   0.705
 4253SOL    HW213659   3.410   6.689   0.733
 4254SOL     OW13660   1.093   3.207   2.479
 4254SOL    HW113661   1.025   3.246   2.417
 4254SOL    HW213662   1.157   3.279   2.507
 4255SOL     OW13663   6.815   4.617   4.112
 4255SOL    HW113664   6.828   4.524   4.077
 4255SOL    HW213665   6.868   4.681   4.057
 4256SOL     OW13666   1.256   6.380   1.251
 4256SOL    HW113667   1.211   6.461   1.288
 4256SOL    HW213668   1.221   6.362   1.159
 4257SOL     OW13669   3.601   0.817   4.084
 4257SOL    HW113670   3.682   0.830   4.141
 4257SOL    HW213671   3.519   0.831   4.138
 4258SOL     OW13672   3.543   5.802   1.294
 4258SOL    HW113673   3.500   5.833   1.379
 4258SOL    HW213674   3.475   5.752   1.239
 4259SOL     OW13675   1.413   0.796   0.924
 4259SOL    HW113676   1.485   0.786   0.993
 4259SOL    HW213677   1.411   0.890   0.891
 4260SOL     OW13678   5.549   0.457   2.594
 4260SOL    HW113679   5.613   0.499   2.658
 4260SOL    HW213680   5.598   0.389   2.538
 4261SOL     OW13681   2.133   1.335   2.601
 4261SOL    HW113682   2.223   1.295   2.617
 4261SOL    HW213683   2.136   1.393   2.520
 4262SOL     OW13684   0.550   3.882   6.990
 4262SOL    HW113685   0.454   3.911   6.998
 4262SOL    HW213686   0.597   3.898   0.056
 4263SOL     OW13687   2.959   0.595   3.127
 4263SOL    HW113688   2.998   0.584   3.036
 4263SOL    HW213689   2.867   0.557   3.129
 4264SOL     OW13690   6.230   1.950   4.568
 4264SOL    HW113691   6.230   1.857   4.605
 4264SOL    HW213692   6.215   1.946   4.469
 4265SOL     OW13693   4.054   0.983   0.521
 4265SOL    HW113694   4.099   0.926   0.590
 4265SOL    HW213695   4.115   0.995   0.443
 4266SOL     OW13696   1.402   6.722   6.529
 4266SOL    HW113697   1.441   6.654   6.467
 4266SOL    HW213698   1.360   6.795   6.477
 4267SOL     OW13699   2.165   3.805   3.915
 4267SOL    HW113700   2.165   3.727   3.851
 4267SOL    HW213701   2.209   3.883   3.872
 4268SOL     OW13702   1.378   5.811   6.675
 4268SOL    HW113703   1.315   5.761   6.615
 4268SOL    HW213704   1.326   5.864   6.741
 4269SOL     OW13705   3.306   0.433   2.763
 4269SOL    HW113706   3.246   0.417   2.685
 4269SOL    HW213707   3.269   0.388   2.844
 4270SOL     OW13708   4.171   3.483   2.932
 4270SOL    HW113709   4.159   3.506   2.835
 4270SOL    HW213710   4.114   3.404   2.955
 4271SOL     OW13711   6.467   1.036   6.676
 4271SOL    HW113712   6.557   1.001   6.705
 4271SOL    HW213713   6.440   1.113   6.734
 4272SOL     OW13714   6.720   1.740   4.513
 4272SOL    HW113715   6.808   1.764   4.555
 4272SOL    HW213716   6.650   1.734   4.584
 4273SOL     OW13717   4.292   6.948   4.834
 4273SOL    HW113718   4.224   6.877   4.819
 4273SOL    HW213719   4.282   7.019   4.764
 4274SOL     OW13720   2.017   0.495   1.000
 4274SOL    HW113721   2.080   0.567   0.971
 4274SOL    HW213722   2.069   0.419   1.039
 4275SOL     OW13723   6.704   2.012   4.392
 4275SOL    HW113724   6.698   1.928   4.446
 4275SOL    HW213725   6.667   2.088   4.444
 4276SOL     OW13726   2.577   4.947   3.879
 4276SOL    HW113727   2.593   4.912   3.787
 4276SOL    HW213728   2.565   4.870   3.942
 4277SOL     OW13729   6.471   4.686   3.350
 4277SOL    HW113730   6.487   4.620   3.276
 4277SOL    HW213731   6.470   4.638   3.438
 4278SOL     OW13732   0.342   6.578   4.731
 4278SOL    HW113733   0.250   6.617   4.724
 4278SOL    HW213734   0.348   6.498   4.671
 4279SOL     OW13735   3.230   0.980   3.703
 4279SOL    HW113736   3.275   0.993   3.614
 4279SOL    HW213737   3.299   0.955   3.771
 4280SOL     OW13738   5.677   6.850   5.870
 4280SOL    HW113739   5.683   6.864   5.771
 4280SOL    HW213740   5.688   6.938   5.917
 4281SOL     OW13741   6.867   4.613   2.825
 4281SOL    HW113742   6.791   4.596   2.762
 4281SOL    HW213743   6.850   4.697   2.876
 4282SOL     OW13744   3.522   4.484   0.182
 4282SOL    HW113745   3.520   4.578   0.214
 4282SOL    HW213746   3.433   4.441   0.200
 4283SOL     OW13747   2.008   0.744   3.464
 4283SOL    HW113748   2.045   0.802   3.537
 4283SOL    HW213749   2.034   0.781   3.376
 4284SOL     OW13750   3.652   3.813   1.463
 4284SOL    HW113751   3.664   3.826   1.364
 4284SOL    HW213752   3.593   3.884   1.499
 4285SOL     OW13753   2.105   0.802   5.468
 4285SOL    HW113754   2.136   0.897   5.478
 4285SOL    HW213755   2.043   0.779   5.543
 4286SOL     OW13756   5.705   6.558   5.980
 4286SOL    HW113757   5.668   6.651   5.989
 4286SOL    HW213758   5.793   6.553   6.028
 4287SOL     OW13759   5.297   0.406   6.026
 4287SOL    HW113760   5.394   0.384   6.023
 4287SOL    HW213761   5.268   0.442   5.938
 4288SOL     OW13762   0.688   5.580   2.729
 4288SOL    HW113763   0.675   5.481   2.738
 4288SOL    HW213764   0.667   5.607   2.635
 4289SOL     OW13765   6.801   3.040   6.321
 4289SOL    HW113766   6.711   3.044   6.364
 4289SOL    HW213767   6.836   3.132   6.307
 4290SOL     OW13768   1.342   6.830   4.145
 4290SOL    HW113769   1.436   6.810   4.173
 4290SOL    HW213770   1.342   6.906   4.080
 4291SOL     OW13771   4.593   4.111   6.906
 4291SOL    HW113772   4.640   4.038   6.856
 4291SOL    HW213773   4.498   4.117   6.874
 4292SOL     OW13774   6.250   2.881   0.329
 4292SOL    HW113775   6.226   2.799   0.276
 4292SOL    HW213776   6.229   2.865   0.426
 4293SOL     OW13777   2.801   2.920   6.914
 4293SOL    HW113778   2.853   3.006   6.918
 4293SOL    HW213779   2.864   2.843   6.923
 4294SOL     OW13780   2.186   1.715   6.312
 4294SOL    HW113781   2.273   1.688   6.353
 4294SOL    HW213782   2.119   1.641   6.325
 4295SOL     OW13783   3.516   5.926   4.890
 4295SOL    HW113784   3.491   5.996   4.824
 4295SOL    HW213785   3.433   5.882   4.925
 4296SOL     OW13786   3.487   6.575   0.413
 4296SOL    HW113787   3.400   6.575   0.461
 4296SOL    HW213788   3.510   6.483   0.383
 4297SOL     OW13789   5.698   0.360   1.145
 4297SOL    HW113790   5.770   0.322   1.086
 4297SOL    HW213791   5.699   0.459   1.138
 4298SOL     OW13792   4.346   5.366   0.809
 4298SOL    HW113793   4.300   5.454   0.799
 4298SOL    HW213794   4.279   5.297   0.836
 4299SOL     OW13795   1.805   3.317   6.597
 4299SOL    HW113796   1.835   3.257   6.671
 4299SOL    HW213797   1.719   3.362   6.624
 4300SOL     OW13798   2.807   0.156   0.450
 4300SOL    HW113799   2.810   0.148   0.351
 4300SOL    HW213800   2.899   0.145   0.487
 4301SOL     OW13801   4.828   0.004   1.385
 4301SOL    HW113802   4.813   0.058   1.467
 4301SOL    HW213803   4.795   6.931   1.400
 4302SOL     OW13804   0.099   0.006   6.024
 4302SOL    HW113805   0.140   0.028   5.936
 4302SOL    HW213806   7.020   0.009   6.017
 4303SOL     OW13807   0.001   4.908   4.471
 4303SOL    HW113808   6.940   4.890   4.526
 4303SOL    HW213809   0.013   4.836   4.403
 4304SOL     OW13810   3.301   3.089   2.575
 4304SOL    HW113811   3.362   3.017   2.542
 4304SOL    HW213812   3.313   3.100   2.674
 4305SOL     OW13813   0.914   6.795   5.622
 4305SOL    HW113814   0.928   6.729   5.695
 4305SOL    HW213815   0.819   6.790   5.591
 4306SOL     OW13816   4.196   4.972   4.655
 4306SOL    HW113817   4.242   4.883   4.648
 4306SOL    HW213818   4.102   4.958   4.685
 4307SOL     OW13819   6.405   4.006   5.780
 4307SOL    HW113820   6.417   4.104   5.764
 4307SOL    HW213821   6.491   3.958   5.762
 4308SOL     OW13822   6.197   4.927   1.373
 4308SOL    HW113823   6.189   4.968   1.464
 4308SOL    HW213824   6.106   4.912   1.334
 4309SOL     OW13825   1.161   1.313   1.027
 4309SOL    HW113826   1.134   1.217   1.038
 4309SOL    HW213827   1.111   1.353   0.951
 4310SOL     OW13828   1.719   2.518   1.583
 4310SOL    HW113829   1.634   2.466   1.578
 4310SOL    HW213830   1.786   2.480   1.520
 4311SOL     OW13831   1.204   6.459   2.492
 4311SOL    HW113832   1.157   6.524   2.552
 4311SOL    HW213833   1.137   6.408   2.438
 4312SOL     OW13834   1.219   6.107   1.886
 4312SOL    HW113835   1.209   6.159   1.970
 4312SOL    HW213836   1.277   6.158   1.822
 4313SOL     OW13837   4.952   1.909   0.952
 4313SOL    HW113838   4.970   1.815   0.924
 4313SOL    HW213839   4.943   1.967   0.871
 4314SOL     OW13840   5.437   1.292   4.513
 4314SOL    HW113841   5.428   1.372   4.573
 4314SOL    HW213842   5.435   1.209   4.569
 4315SOL     OW13843   2.376   0.233   3.450
 4315SOL    HW113844   2.464   0.249   3.495
 4315SOL    HW213845   2.358   0.307   3.385
 4316SOL     OW13846   5.125   1.035   1.636
 4316SOL    HW113847   5.151   1.038   1.540
 4316SOL    HW213848   5.025   1.042   1.644
 4317SOL     OW13849   5.041   2.073   5.562
 4317SOL    HW113850   4.959   2.122   5.534
 4317SOL    HW213851   5.026   1.974   5.554
 4318SOL     OW13852   0.480   2.207   4.720
 4318SOL    HW113853   0.574   2.205   4.687
 4318SOL    HW213854   0.475   2.165   4.810
 4319SOL     OW13855   1.902   1.523   0.528
 4319SOL    HW113856   1.816   1.522   0.579
 4319SOL    HW213857   1.950   1.609   0.547
 4320SOL     OW13858   4.152   5.131   0.810
 4320SOL    HW113859   4.069   5.088   0.845
 4320SOL    HW213860   4.129   5.193   0.735
 4321SOL     OW13861   0.313   5.232   4.929
 4321SOL    HW113862   0.267   5.320   4.939
 4321SOL    HW213863   0.313   5.204   4.833
 4322SOL     OW13864   6.266   2.723   0.040
 4322SOL    HW113865   6.183   2.688   7.018
 4322SOL    HW213866   6.341   2.723   6.994
 4323SOL     OW13867   4.631   3.982   0.143
 4323SOL    HW113868   4.626   3.887   0.112
 4323SOL    HW213869   4.615   4.043   0.066
 4324SOL     OW13870   6.041   4.561   6.316
 4324SOL    HW113871   6.034   4.660   6.322
 4324SOL    HW213872   6.100   4.536   6.240
 4325SOL     OW13873   3.067   1.665   1.587
 4325SOL    HW113874   3.147   1.707   1.631
 4325SOL    HW213875   3.083   1.568   1.574
 4326SOL     OW13876   4.882   4.195   2.578
 4326SOL    HW113877   4.863   4.240   2.491
 4326SOL    HW213878   4.825   4.235   2.650
 4327SOL     OW13879   5.629   6.110   1.771
 4327SOL    HW113880   5.677   6.071   1.851
 4327SOL    HW213881   5.683   6.092   1.689
 4328SOL     OW13882   4.555   4.504   5.652
 4328SOL    HW113883   4.544   4.421   5.598
 4328SOL    HW213884   4.561   4.480   5.749
 4329SOL     OW13885   4.762   2.433   5.690
 4329SOL    HW113886   4.683   2.397   5.640
 4329SOL    HW213887   4.836   2.452   5.627
 4330SOL     OW13888   1.859   6.233   4.787
 4330SOL    HW113889   1.902   6.278   4.865
 4330SOL    HW213890   1.814   6.149   4.818
 4331SOL     OW13891   6.663   1.451   2.352
 4331SOL    HW113892   6.607   1.375   2.319
 4331SOL    HW213893   6.694   1.506   2.275
 4332SOL     OW13894   5.033   2.586   2.733
 4332SOL    HW113895   5.125   2.625   2.743
 4332SOL    HW213896   4.966   2.660   2.731
 4333SOL     OW13897   4.380   1.172   5.581
 4333SOL    HW113898   4.430   1.099   5.534
 4333SOL    HW213899   4.440   1.217   5.647
 4334SOL     OW13900   2.206   2.560   2.416
 4334SOL    HW113901   2.286   2.608   2.379
 4334SOL    HW213902   2.163   2.616   2.486
 4335SOL     OW13903   3.799   4.036   2.350
 4335SOL    HW113904   3.795   3.981   2.266
 4335SOL    HW213905   3.706   4.052   2.383
 4336SOL     OW13906   3.233   6.806   6.283
 4336SOL    HW113907   3.228   6.813   6.184
 4336SOL    HW213908   3.158   6.859   6.324
 4337SOL     OW13909   1.128   4.402   0.471
 4337SOL    HW113910   1.040   4.449   0.459
 4337SOL    HW213911   1.199   4.452   0.422
 4338SOL     OW13912   6.541   6.627   6.552
 4338SOL    HW113913   6.462   6.565   6.559
 4338SOL    HW213914   6.617   6.589   6.604
 4339SOL     OW13915   4.203   3.548   5.209
 4339SOL    HW113916   4.281   3.562   5.271
 4339SOL    HW213917   4.230   3.575   5.116
 4340SOL     OW13918   6.691   3.105   1.326
 4340SOL    HW113919   6.729   3.195   1.305
 4340SOL    HW213920   6.621   3.082   1.258
 4341SOL     OW13921   0.710   5.683   1.811
 4341SOL    HW113922   0.633   5.645   1.863
 4341SOL    HW213923   0.795   5.666   1.861
 4342SOL     OW13924   4.710   4.143   2.971
 4342SOL    HW113925   4.795   4.103   2.940
 4342SOL    HW213926   4.643   4.071   2.988
 4343SOL     OW13927   3.132   6.301   4.596
 4343SOL    HW113928   3.089   6.211   4.591
 4343SOL    HW213929   3.066   6.367   4.631
 4344SOL     OW13930   0.274   4.271   2.205
 4344SOL    HW113931   0.250   4.187   2.157
 4344SOL    HW213932   0.347   4.319   2.155
 4345SOL     OW13933   3.566   4.445   5.685
 4345SOL    HW113934   3.595   4.485   5.598
 4345SOL    HW213935   3.644   4.397   5.727
 4346SOL     OW13936   1.815   3.646   3.112
 4346SOL    HW113937   1.725   3.688   3.106
 4346SOL    HW213938   1.853   3.661   3.203
 4347SOL     OW13939   5.810   7.015   2.634
 4347SOL    HW113940   5.778   0.080   2.674
 4347SOL    HW213941   5.742   6.944   2.647
 4348SOL     OW13942   0.333   5.538   3.590
 4348SOL    HW113943   0.376   5.601   3.525
 4348SOL    HW213944   0.281   5.589   3.657
 4349SOL     OW13945   6.003   2.214   3.362
 4349SOL    HW113946   6.050   2.199   3.275
 4349SOL    HW213947   5.949   2.134   3.386
 4350SOL     OW13948   3.727   1.728   3.936
 4350SOL    HW113949   3.635   1.706   3.967
 4350SOL    HW213950   3.725   1.813   3.884
 4351SOL     OW13951   1.329   6.144   1.356
 4351SOL    HW113952   1.272   6.144   1.438
 4351SOL    HW213953   1.311   6.227   1.303
 4352SOL     OW13954   6.215   3.858   2.432
 4352SOL    HW113955   6.118   3.878   2.422
 4352SOL    HW213956   6.268   3.935   2.395
 4353SOL     OW13957   4.152   2.473   6.432
 4353SOL    HW113958   4.120   2.388   6.473
 4353SOL    HW213959   4.138   2.470   6.333
 4354SOL     OW13960   1.833   0.936   6.133
 4354SOL    HW113961   1.910   0.872   6.128
 4354SOL    HW213962   1.792   0.946   6.043
 4355SOL     OW13963   2.632   0.193   2.600
 4355SOL    HW113964   2.556   0.165   2.541
 4355SOL    HW213965   2.708   0.225   2.543
 4356SOL     OW13966   5.098   3.534   6.691
 4356SOL    HW113967   5.142   3.535   6.602
 4356SOL    HW213968   5.038   3.613   6.700
 4357SOL     OW13969   6.385   0.859   1.557
 4357SOL    HW113970   6.383   0.932   1.489
 4357SOL    HW213971   6.350   0.893   1.644
 4358SOL     OW13972   6.898   0.821   0.834
 4358SOL    HW113973   6.861   0.912   0.815
 4358SOL    HW213974   6.997   0.828   0.849
 4359SOL     OW13975   0.970   1.233   6.142
 4359SOL    HW113976   0.988   1.184   6.057
 4359SOL    HW213977   0.983   1.171   6.219
 4360SOL     OW13978   0.884   4.016   4.070
 4360SOL    HW113979   0.896   4.029   3.971
 4360SOL    HW213980   0.935   3.936   4.099
 4361SOL     OW13981   2.167   3.729   1.929
 4361SOL    HW113982   2.192   3.633   1.944
 4361SOL    HW213983   2.195   3.756   1.837
 4362SOL     OW13984   6.796   5.079   3.588
 4362SOL    HW113985   6.839   5.006   3.642
 4362SOL    HW213986   6.744   5.139   3.649
 4363SOL     OW13987   5.567   2.166   1.102
 4363SOL    HW113988   5.586   2.261   1.126
 4363SOL    HW213989   5.472   2.144   1.123
 4364SOL     OW13990   3.081   3.999   3.342
 4364SOL    HW113991   3.130   4.019   3.426
 4364SOL    HW213992   3.001   3.942   3.363
 4365SOL     OW13993   2.933   0.646   1.743
 4365SOL    HW113994   3.015   0.622   1.796
 4365SOL    HW213995   2.865   0.687   1.805
 4366SOL     OW13996   6.866   6.828   6.818
 4366SOL    HW113997   6.874   6.894   6.893
 4366SOL    HW213998   6.947   6.835   6.759
 4367SOL     OW13999   2.576   4.748   4.092
 4367SOL    HW114000   2.665   4.702   4.084
 4367SOL    HW214001   2.503   4.682   4.076
 4368SOL     OW14002   4.024   6.097   1.605
 4368SOL    HW114003   3.939   6.054   1.575
 4368SOL    HW214004   4.096   6.079   1.537
 4369SOL     OW14005   4.611   5.193   2.673
 4369SOL    HW114006   4.580   5.099   2.659
 4369SOL    HW214007   4.685   5.194   2.740
 4370SOL     OW14008   3.696   4.538   1.590
 4370SOL    HW114009   3.639   4.490   1.523
 4370SOL    HW214010   3.641   4.560   1.671
 4371SOL     OW14011   1.882   2.190   2.269
 4371SOL    HW114012   1.976   2.175   2.300
 4371SOL    HW214013   1.884   2.229   2.177
 4372SOL     OW14014   2.812   2.000   4.471
 4372SOL    HW114015   2.902   1.984   4.511
 4372SOL    HW214016   2.768   2.078   4.517
 4373SOL     OW14017   5.433   1.647   6.875
 4373SOL    HW114018   5.386   1.643   6.787
 4373SOL    HW214019   5.522   1.692   6.863
 4374SOL     OW14020   0.938   1.944   1.204
 4374SOL    HW114021   1.014   1.911   1.149
 4374SOL    HW214022   0.912   2.036   1.173
 4375SOL     OW14023   4.083   6.686   3.294
 4375SOL    HW114024   3.990   6.672   3.327
 4375SOL    HW214025   4.106   6.616   3.226
 4376SOL     OW14026   6.202   0.198   2.606
 4376SOL    HW114027   6.244   0.143   2.678
 4376SOL    HW214028   6.172   0.139   2.531
 4377SOL     OW14029   5.775   5.509   6.606
 4377SOL    HW114030   5.714   5.431   6.622
 4377SOL    HW214031   5.861   5.495   6.656
 4378SOL     OW14032   1.581   3.050   2.752
 4378SOL    HW114033   1.594   3.108   2.671
 4378SOL    HW214034   1.657   3.064   2.815
 4379SOL     OW14035   2.691   2.038   2.579
 4379SOL    HW114036   2.741   2.104   2.524
 4379SOL    HW214037   2.644   2.085   2.653
 4380SOL     OW14038   1.379   6.410   3.248
 4380SOL    HW114039   1.437   6.491   3.258
 4380SOL    HW214040   1.349   6.379   3.339
 4381SOL     OW14041   2.196   3.985   5.371
 4381SOL    HW114042   2.264   3.994   5.299
 4381SOL    HW214043   2.105   3.973   5.330
 4382SOL     OW14044   6.150   3.474   6.526
 4382SOL    HW114045   6.085   3.550   6.528
 4382SOL    HW214046   6.107   3.394   6.486
 4383SOL     OW14047   0.806   2.374   5.883
 4383SOL    HW114048   0.827   2.333   5.794
 4383SOL    HW214049   0.890   2.378   5.938
 4384SOL     OW14050   5.532   1.395   6.236
 4384SOL    HW114051   5.582   1.457   6.176
 4384SOL    HW214052   5.442   1.376   6.198
 4385SOL     OW14053   6.112   2.643   5.129
 4385SOL    HW114054   6.085   2.706   5.056
 4385SOL    HW214055   6.114   2.692   5.216
 4386SOL     OW14056   2.439   3.511   0.079
 4386SOL    HW114057   2.411   3.607   0.074
 4386SOL    HW214058   2.359   3.453   0.062
 4387SOL     OW14059   0.115   0.864   1.813
 4387SOL    HW114060   0.071   0.843   1.900
 4387SOL    HW214061   0.082   0.801   1.742
 4388SOL     OW14062   5.420   1.745   6.608
 4388SOL    HW114063   5.405   1.834   6.651
 4388SOL    HW214064   5.448   1.759   6.513
 4389SOL     OW14065   6.701   3.706   0.794
 4389SOL    HW114066   6.743   3.779   0.848
 4389SOL    HW214067   6.661   3.744   0.711
 4390SOL     OW14068   3.446   1.174   2.047
 4390SOL    HW114069   3.450   1.124   1.960
 4390SOL    HW214070   3.445   1.272   2.029
 4391SOL     OW14071   1.389   5.501   6.541
 4391SOL    HW114072   1.404   5.404   6.526
 4391SOL    HW214073   1.456   5.554   6.489
 4392SOL     OW14074   6.898   3.319   6.281
 4392SOL    HW114075   6.988   3.360   6.294
 4392SOL    HW214076   6.855   3.358   6.199
 4393SOL     OW14077   6.020   0.195   2.169
 4393SOL    HW114078   6.023   0.195   2.269
 4393SOL    HW214079   5.935   0.238   2.139
 4394SOL     OW14080   5.709   5.840   2.609
 4394SOL    HW114081   5.639   5.773   2.582
 4394SOL    HW214082   5.699   5.922   2.553
 4395SOL     OW14083   3.409   0.485   1.944
 4395SOL    HW114084   3.460   0.403   1.969
 4395SOL    HW214085   3.427   0.508   1.848
 4396SOL     OW14086   2.212   2.572   4.021
 4396SOL    HW114087   2.156   2.521   4.086
 4396SOL    HW214088   2.285   2.619   4.069
 4397SOL     OW14089   0.447   1.145   4.440
 4397SOL    HW114090   0.508   1.087   4.385
 4397SOL    HW214091   0.492   1.232   4.459
 4398SOL     OW14092   0.718   4.832   4.736
 4398SOL    HW114093   0.755   4.753   4.687
 4398SOL    HW214094   0.761   4.838   4.826
 4399SOL     OW14095   2.040   1.309   1.576
 4399SOL    HW114096   1.987   1.337   1.657
 4399SOL    HW214097   1.985   1.325   1.494
 4400SOL     OW14098   3.484   6.726   5.798
 4400SOL    HW114099   3.495   6.654   5.729
 4400SOL    HW214100   3.484   6.685   5.889
 4401SOL     OW14101   5.039   6.813   6.646
 4401SOL    HW114102   4.954   6.847   6.687
 4401SOL    HW214103   5.090   6.890   6.608
 4402SOL     OW14104   2.908   0.027   1.074
 4402SOL    HW114105   2.881   6.951   1.074
 4402SOL    HW214106   2.913   0.059   1.169
 4403SOL     OW14107   0.856   0.396   4.067
 4403SOL    HW114108   0.838   0.301   4.090
 4403SOL    HW214109   0.821   0.416   3.976
 4404SOL     OW14110   0.209   3.837   5.668
 4404SOL    HW114111   0.269   3.906   5.709
 4404SOL    HW214112   0.132   3.819   5.729
 4405SOL     OW14113   1.360   4.683   1.493
 4405SOL    HW114114   1.406   4.677   1.404
 4405SOL    HW214115   1.282   4.745   1.487
 4406SOL     OW14116   6.972   4.015   0.505
 4406SOL    HW114117   7.016   3.943   0.559
 4406SOL    HW214118   6.877   4.025   0.533
 4407SOL     OW14119   6.896   4.780   1.112
 4407SOL    HW114120   6.969   4.777   1.179
 4407SOL    HW214121   6.868   4.875   1.097
 4408SOL     OW14122   3.144   1.440   1.428
 4408SOL    HW114123   3.161   1.352   1.383
 4408SOL    HW214124   3.231   1.478   1.460
 4409SOL     OW14125   4.411   0.105   1.889
 4409SOL    HW114126   4.425   0.150   1.800
 4409SOL    HW214127   4.464   0.153   1.959
 4410SOL     OW14128   1.235   6.031   6.805
 4410SOL    HW114129   1.145   6.058   6.772
 4410SOL    HW214130   1.241   6.047   6.904
 4411SOL     OW14131   3.287   4.071   3.832
 4411SOL    HW114132   3.289   4.168   3.854
 4411SOL    HW214133   3.229   4.023   3.898
 4412SOL     OW14134   4.155   6.701   4.842
 4412SOL    HW114135   4.219   6.630   4.872
 4412SOL    HW214136   4.070   6.694   4.895
 4413SOL     OW14137   5.428   5.634   5.134
 4413SOL    HW114138   5.416   5.657   5.231
 4413SOL    HW214139   5.507   5.573   5.124
 4414SOL     OW14140   3.676   4.435   1.314
 4414SOL    HW114141   3.698   4.339   1.297
 4414SOL    HW214142   3.576   4.445   1.320
 4415SOL     OW14143   3.675   3.294   6.947
 4415SOL    HW114144   3.767   3.255   6.947
 4415SOL    HW214145   3.668   3.363   7.019
 4416SOL     OW14146   2.056   0.400   4.263
 4416SOL    HW114147   1.960   0.426   4.250
 4416SOL    HW214148   2.091   0.358   4.180
 4417SOL     OW14149   6.023   4.217   3.356
 4417SOL    HW114150   6.040   4.254   3.264
 4417SOL    HW214151   6.051   4.285   3.424
 4418SOL     OW14152   5.961   1.394   2.358
 4418SOL    HW114153   5.944   1.296   2.362
 4418SOL    HW214154   5.992   1.427   2.447
 4419SOL     OW14155   5.887   5.482   0.135
 4419SOL    HW114156   5.887   5.401   0.077
 4419SOL    HW214157   5.825   5.551   0.097
 4420SOL     OW14158   4.916   1.194   1.831
 4420SOL    HW114159   4.887   1.102   1.803
 4420SOL    HW214160   4.904   1.257   1.754
 4421SOL     OW14161   1.642   0.790   5.382
 4421SOL    HW114162   1.673   0.717   5.321
 4421SOL    HW214163   1.563   0.836   5.342
 4422SOL     OW14164   3.188   4.385   6.081
 4422SOL    HW114165   3.111   4.363   6.020
 4422SOL    HW214166   3.266   4.414   6.026
 4423SOL     OW14167   1.611   2.892   5.736
 4423SOL    HW114168   1.592   2.849   5.824
 4423SOL    HW214169   1.524   2.914   5.691
 4424SOL     OW14170   5.224   0.826   4.118
 4424SOL    HW114171   5.277   0.910   4.128
 4424SOL    HW214172   5.271   0.764   4.056
 4425SOL     OW14173   3.539   5.113   0.236
 4425SOL    HW114174   3.571   5.022   0.206
 4425SOL    HW214175   3.451   5.133   0.192
 4426SOL     OW14176   0.151   1.083   4.900
 4426SOL    HW114177   0.211   1.081   4.820
 4426SOL    HW214178   0.097   1.168   4.898
 4427SOL     OW14179   0.425   6.184   2.558
 4427SOL    HW114180   0.357   6.222   2.495
 4427SOL    HW214181   0.513   6.177   2.511
 4428SOL     OW14182   2.750   6.557   1.695
 4428SOL    HW114183   2.699   6.643   1.700
 4428SOL    HW214184   2.848   6.577   1.697
 4429SOL     OW14185   3.259   0.105   2.497
 4429SOL    HW114186   3.326   0.031   2.504
 4429SOL    HW214187   3.203   0.092   2.415
 4430SOL     OW14188   4.898   3.493   4.820
 4430SOL    HW114189   4.997   3.495   4.830
 4430SOL    HW214190   4.855   3.514   4.908
 4431SOL     OW14191   2.188   1.007   2.275
 4431SOL    HW114192   2.145   1.038   2.190
 4431SOL    HW214193   2.179   0.907   2.282
 4432SOL     OW14194   3.898   4.120   4.924
 4432SOL    HW114195   3.975   4.097   4.864
 4432SOL    HW214196   3.814   4.122   4.871
 4433SOL     OW14197   4.803   0.935   4.627
 4433SOL    HW114198   4.704   0.928   4.626
 4433SOL    HW214199   4.842   0.878   4.555
 4434SOL     OW14200   4.346   1.882   4.399
 4434SOL    HW114201   4.330   1.784   4.392
 4434SOL    HW214202   4.445   1.900   4.399
 4435SOL     OW14203   4.313   3.042   1.386
 4435SOL    HW114204   4.409   3.071   1.390
 4435SOL    HW214205   4.259   3.096   1.450
 4436SOL     OW14206   4.216   1.035   0.945
 4436SOL    HW114207   4.290   0.986   0.898
 4436SOL    HW214208   4.255   1.111   0.997
 4437SOL     OW14209   5.755   1.300   3.215
 4437SOL    HW114210   5.796   1.380   3.257
 4437SOL    HW214211   5.655   1.304   3.227
 4438SOL     OW14212   5.226   0.191   0.236
 4438SOL    HW114213   5.226   0.282   0.195
 4438SOL    HW214214   5.157   0.134   0.192
 4439SOL     OW14215   0.190   5.581   1.902
 4439SOL    HW114216   0.225   5.672   1.878
 4439SOL    HW214217   0.158   5.581   1.996
 4440SOL     OW14218   1.890   5.549   0.525
 4440SOL    HW114219   1.831   5.499   0.588
 4440SOL    HW214220   1.869   5.647   0.530
 4441SOL     OW14221   6.623   2.176   2.959
 4441SOL    HW114222   6.539   2.173   3.013
 4441SOL    HW214223   6.617   2.107   2.886
 4442SOL     OW14224   2.654   5.933   4.593
 4442SOL    HW114225   2.603   5.868   4.651
 4442SOL    HW214226   2.593   6.006   4.563
 4443SOL     OW14227   0.188   2.897   0.671
 4443SOL    HW114228   0.102   2.849   0.652
 4443SOL    HW214229   0.238   2.849   0.743
 4444SOL     OW14230   2.989   5.268   6.568
 4444SOL    HW114231   2.939   5.241   6.486
 4444SOL    HW214232   3.071   5.211   6.578
 4445SOL     OW14233   0.497   0.573   1.388
 4445SOL    HW114234   0.415   0.517   1.378
 4445SOL    HW214235   0.485   0.638   1.464
 4446SOL     OW14236   6.103   1.308   2.090
 4446SOL    HW114237   6.105   1.209   2.080
 4446SOL    HW214238   6.156   1.334   2.171
 4447SOL     OW14239   5.400   3.796   6.353
 4447SOL    HW114240   5.454   3.750   6.423
 4447SOL    HW214241   5.448   3.878   6.322
 4448SOL     OW14242   3.106   3.889   1.101
 4448SOL    HW114243   3.096   3.945   1.182
 4448SOL    HW214244   3.041   3.813   1.104
 4449SOL     OW14245   5.041   0.542   5.585
 4449SOL    HW114246   5.105   0.507   5.516
 4449SOL    HW214247   5.022   0.639   5.567
 4450SOL     OW14248   3.557   3.070   3.976
 4450SOL    HW114249   3.605   3.050   4.062
 4450SOL    HW214250   3.562   3.168   3.958
 4451SOL     OW14251   5.664   4.143   3.841
 4451SOL    HW114252   5.632   4.230   3.878
 4451SOL    HW214253   5.756   4.124   3.876
 4452SOL     OW14254   5.295   6.239   4.309
 4452SOL    HW114255   5.229   6.265   4.379
 4452SOL    HW214256   5.272   6.150   4.272
 4453SOL     OW14257   0.743   2.540   1.958
 4453SOL    HW114258   0.799   2.572   2.035
 4453SOL    HW214259   0.677   2.472   1.991
 4454SOL     OW14260   1.065   1.936   6.697
 4454SOL    HW114261   1.010   1.923   6.615
 4454SOL    HW214262   1.161   1.947   6.672
 4455SOL     OW14263   4.050   6.058   6.374
 4455SOL    HW114264   4.129   6.024   6.426
 4455SOL    HW214265   4.065   6.040   6.276
 4456SOL     OW14266   3.733   5.574   1.895
 4456SOL    HW114267   3.810   5.585   1.833
 4456SOL    HW214268   3.761   5.519   1.974
 4457SOL     OW14269   4.710   1.787   1.363
 4457SOL    HW114270   4.795   1.841   1.361
 4457SOL    HW214271   4.667   1.797   1.453
 4458SOL     OW14272   1.655   3.092   6.416
 4458SOL    HW114273   1.679   3.111   6.321
 4458SOL    HW214274   1.707   3.152   6.476
 4459SOL     OW14275   4.451   0.484   4.437
 4459SOL    HW114276   4.462   0.391   4.474
 4459SOL    HW214277   4.443   0.479   4.338
 4460SOL     OW14278   2.928   2.894   5.315
 4460SOL    HW114279   2.886   2.810   5.349
 4460SOL    HW214280   2.857   2.959   5.289
 4461SOL     OW14281   1.544   1.414   1.701
 4461SOL    HW114282   1.592   1.346   1.757
 4461SOL    HW214283   1.445   1.399   1.708
 4462SOL     OW14284   6.069   4.738   2.291
 4462SOL    HW114285   6.127   4.814   2.262
 4462SOL    HW214286   6.040   4.751   2.386
 4463SOL     OW14287   5.525   1.858   6.361
 4463SOL    HW114288   5.518   1.954   6.334
 4463SOL    HW214289   5.479   1.801   6.294
 4464SOL     OW14290   6.556   4.892   0.986
 4464SOL    HW114291   6.513   4.907   1.076
 4464SOL    HW214292   6.648   4.930   0.988
 4465SOL     OW14293   2.716   5.283   1.565
 4465SOL    HW114294   2.701   5.190   1.599
 4465SOL    HW214295   2.642   5.310   1.504
 4466SOL     OW14296   2.072   2.009   3.164
 4466SOL    HW114297   2.104   2.065   3.088
 4466SOL    HW214298   2.045   2.068   3.240
 4467SOL     OW14299   1.884   6.902   2.751
 4467SOL    HW114300   1.814   6.972   2.735
 4467SOL    HW214301   1.842   6.820   2.788
 4468SOL     OW14302   2.256   3.170   0.964
 4468SOL    HW114303   2.222   3.182   1.057
 4468SOL    HW214304   2.319   3.093   0.961
 4469SOL     OW14305   4.365   0.677   1.629
 4469SOL    HW114306   4.454   0.665   1.584
 4469SOL    HW214307   4.317   0.754   1.587
 4470SOL     OW14308   5.791   2.034   2.530
 4470SOL    HW114309   5.765   2.086   2.612
 4470SOL    HW214310   5.837   1.950   2.557
 4471SOL     OW14311   0.593   1.853   6.767
 4471SOL    HW114312   0.683   1.882   6.797
 4471SOL    HW214313   0.542   1.815   6.844
 4472SOL     OW14314   1.426   2.857   3.542
 4472SOL    HW114315   1.501   2.858   3.608
 4472SOL    HW214316   1.354   2.919   3.572
 4473SOL     OW14317   6.687   2.269   4.630
 4473SOL    HW114318   6.615   2.204   4.605
 4473SOL    HW214319   6.650   2.361   4.633
 4474SOL     OW14320   2.911   1.152   1.510
 4474SOL    HW114321   2.899   1.150   1.410
 4474SOL    HW214322   2.962   1.072   1.539
 4475SOL     OW14323   1.572   4.159   2.983
 4475SOL    HW114324   1.531   4.242   2.947
 4475SOL    HW214325   1.509   4.115   3.047
 4476SOL     OW14326   4.009   6.846   3.818
 4476SOL    HW114327   4.107   6.859   3.833
 4476SOL    HW214328   3.966   6.934   3.802
 4477SOL     OW14329   1.695   0.064   5.337
 4477SOL    HW114330   1.711   0.093   5.432
 4477SOL    HW214331   1.669   6.987   5.337
 4478SOL     OW14332   3.891   6.756   2.387
 4478SOL    HW114333   3.886   6.786   2.483
 4478SOL    HW214334   3.974   6.791   2.345
 4479SOL     OW14335   1.260   1.010   1.439
 4479SOL    HW114336   1.297   1.103   1.441
 4479SOL    HW214337   1.335   0.944   1.443
 4480SOL     OW14338   2.259   3.760   5.866
 4480SOL    HW114339   2.240   3.834   5.932
 4480SOL    HW214340   2.255   3.797   5.773
 4481SOL     OW14341   2.566   6.051   5.544
 4481SOL    HW114342   2.640   5.985   5.527
 4481SOL    HW214343   2.487   6.003   5.580
 4482SOL     OW14344   0.945   4.613   4.254
 4482SOL    HW114345   1.001   4.532   4.269
 4482SOL    HW214346   0.954   4.642   4.158
 4483SOL     OW14347   5.147   3.348   1.711
 4483SOL    HW114348   5.184   3.416   1.775
 4483SOL    HW214349   5.095   3.279   1.761
 4484SOL     OW14350   3.180   2.719   5.843
 4484SOL    HW114351   3.116   2.791   5.872
 4484SOL    HW214352   3.245   2.701   5.917
 4485SOL     OW14353   5.064   1.525   4.981
 4485SOL    HW114354   5.000   1.479   5.042
 4485SOL    HW214355   5.031   1.618   4.962
 4486SOL     OW14356   5.087   4.891   4.883
 4486SOL    HW114357   5.017   4.824   4.860
 4486SOL    HW214358   5.052   4.983   4.866
 4487SOL     OW14359   2.148   2.783   6.320
 4487SOL    HW114360   2.125   2.848   6.247
 4487SOL    HW214361   2.246   2.790   6.341
 4488SOL     OW14362   6.408   2.851   6.557
 4488SOL    HW114363   6.415   2.754   6.534
 4488SOL    HW214364   6.498   2.894   6.550
 4489SOL     OW14365   5.993   5.623   3.996
 4489SOL    HW114366   5.989   5.530   4.033
 4489SOL    HW214367   6.002   5.618   3.896
 4490SOL     OW14368   6.271   2.779   3.158
 4490SOL    HW114369   6.227   2.708   3.213
 4490SOL    HW214370   6.226   2.866   3.174
 4491SOL     OW14371   6.826   2.007   4.765
 4491SOL    HW114372   6.785   1.915   4.767
 4491SOL    HW214373   6.776   2.064   4.699
 4492SOL     OW14374   5.717   4.102   1.849
 4492SOL    HW114375   5.757   4.187   1.814
 4492SOL    HW214376   5.769   4.024   1.813
 4493SOL     OW14377   4.424   5.865   5.520
 4493SOL    HW114378   4.512   5.913   5.528
 4493SOL    HW214379   4.372   5.903   5.444
 4494SOL     OW14380   6.558   1.043   5.724
 4494SOL    HW114381   6.650   1.084   5.730
 4494SOL    HW214382   6.532   1.007   5.813
 4495SOL     OW14383   4.129   6.558   4.118
 4495SOL    HW114384   4.182   6.529   4.198
 4495SOL    HW214385   4.083   6.644   4.137
 4496SOL     OW14386   5.565   5.408   1.179
 4496SOL    HW114387   5.572   5.386   1.276
 4496SOL    HW214388   5.473   5.440   1.158
 4497SOL     OW14389   4.609   1.090   6.706
 4497SOL    HW114390   4.639   1.053   6.618
 4497SOL    HW214391   4.513   1.117   6.699
 4498SOL     OW14392   6.648   3.685   0.234
 4498SOL    HW114393   6.733   3.655   0.278
 4498SOL    HW214394   6.578   3.702   0.304
 4499SOL     OW14395   6.391   3.467   4.839
 4499SOL    HW114396   6.390   3.523   4.756
 4499SOL    HW214397   6.480   3.420   4.845
 4500SOL     OW14398   3.114   3.406   3.912
 4500SOL    HW114399   3.040   3.420   3.846
 4500SOL    HW214400   3.078   3.408   4.005
 4501SOL     OW14401   0.272   3.592   4.415
 4501SOL    HW114402   0.212   3.516   4.440
 4501SOL    HW214403   0.357   3.585   4.467
 4502SOL     OW14404   1.036   2.880   6.726
 4502SOL    HW114405   1.029   2.797   6.671
 4502SOL    HW214406   1.085   2.950   6.674
 4503SOL     OW14407   3.100   6.851   1.683
 4503SOL    HW114408   3.180   6.893   1.726
 4503SOL    HW214409   3.105   6.752   1.694
 4504SOL     OW14410   6.754   1.019   4.463
 4504SOL    HW114411   6.847   1.044   4.487
 4504SOL    HW214412   6.732   1.053   4.372
 4505SOL     OW14413   5.590   5.177   1.894
 4505SOL    HW114414   5.593   5.086   1.935
 4505SOL    HW214415   5.665   5.232   1.930
 4506SOL     OW14416   4.361   2.308   4.007
 4506SOL    HW114417   4.426   2.383   4.007
 4506SOL    HW214418   4.315   2.303   3.918
 4507SOL     OW14419   5.471   4.954   2.192
 4507SOL    HW114420   5.398   5.016   2.164
 4507SOL    HW214421   5.430   4.869   2.226
 4508SOL     OW14422   0.739   4.717   6.402
 4508SOL    HW114423   0.728   4.684   6.308
 4508SOL    HW214424   0.724   4.642   6.466
 4509SOL     OW14425   4.796   2.356   2.734
 4509SOL    HW114426   4.809   2.363   2.635
 4509SOL    HW214427   4.763   2.443   2.769
 4510SOL     OW14428   4.494   1.124   4.127
 4510SOL    HW114429   4.481   1.029   4.097
 4510SOL    HW214430   4.477   1.131   4.225
 4511SOL     OW14431   0.177   2.975   6.993
 4511SOL    HW114432   0.271   2.994   0.002
 4511SOL    HW214433   0.178   2.902   6.924
 4512SOL     OW14434   2.961   0.458   5.069
 4512SOL    HW114435   2.909   0.504   4.997
 4512SOL    HW214436   2.995   0.370   5.035
 4513SOL     OW14437   6.368   4.810   0.411
 4513SOL    HW114438   6.325   4.745   0.349
 4513SOL    HW214439   6.407   4.885   0.358
 4514SOL     OW14440   4.310   1.164   6.578
 4514SOL    HW114441   4.216   1.140   6.601
 4514SOL    HW214442   4.310   1.247   6.522
 4515SOL     OW14443   0.274   1.935   6.162
 4515SOL    HW114444   0.333   1.966   6.236
 4515SOL    HW214445   0.216   2.011   6.131
 4516SOL     OW14446   1.617   0.375   0.069
 4516SOL    HW114447   1.610   0.444   0.141
 4516SOL    HW214448   1.628   0.421   7.001
 4517SOL     OW14449   3.765   0.826   6.740
 4517SOL    HW114450   3.839   0.810   6.805
 4517SOL    HW214451   3.760   0.749   6.676
 4518SOL     OW14452   0.093   0.385   2.805
 4518SOL    HW114453   0.042   0.397   2.720
 4518SOL    HW214454   0.135   0.294   2.806
 4519SOL     OW14455   6.392   0.906   1.065
 4519SOL    HW114456   6.317   0.971   1.050
 4519SOL    HW214457   6.362   0.834   1.127
 4520SOL     OW14458   4.594   6.664   4.736
 4520SOL    HW114459   4.575   6.724   4.814
 4520SOL    HW214460   4.553   6.704   4.654
 4521SOL     OW14461   6.167   1.941   4.303
 4521SOL    HW114462   6.249   1.910   4.255
 4521SOL    HW214463   6.119   2.008   4.247
 4522SOL     OW14464   6.418   6.667   3.373
 4522SOL    HW114465   6.484   6.600   3.338
 4522SOL    HW214466   6.337   6.666   3.315
 4523SOL     OW14467   0.739   4.200   0.314
 4523SOL    HW114468   0.790   4.186   0.399
 4523SOL    HW214469   0.676   4.276   0.324
 4524SOL     OW14470   5.913   2.394   3.597
 4524SOL    HW114471   5.981   2.345   3.652
 4524SOL    HW214472   5.903   2.348   3.508
 4525SOL     OW14473   5.044   1.237   4.252
 4525SOL    HW114474   4.998   1.200   4.332
 4525SOL    HW214475   5.130   1.279   4.280
 4526SOL     OW14476   6.572   0.469   1.229
 4526SOL    HW114477   6.513   0.498   1.304
 4526SOL    HW214478   6.662   0.511   1.239
 4527SOL     OW14479   5.133   1.039   3.421
 4527SOL    HW114480   5.130   0.971   3.494
 4527SOL    HW214481   5.045   1.087   3.416
 4528SOL     OW14482   4.639   0.335   0.072
 4528SOL    HW114483   4.732   0.369   0.086
 4528SOL    HW214484   4.636   0.238   0.094
 4529SOL     OW14485   3.025   0.946   5.575
 4529SOL    HW114486   3.116   0.907   5.562
 4529SOL    HW214487   2.996   0.992   5.490
 4530SOL     OW14488   1.856   3.988   6.315
 4530SOL    HW114489   1.825   3.903   6.357
 4530SOL    HW214490   1.821   3.995   6.222
 4531SOL     OW14491   0.283   3.519   4.847
 4531SOL    HW114492   0.382   3.523   4.838
 4531SOL    HW214493   0.259   3.498   4.942
 4532SOL     OW14494   6.098   1.941   3.564
 4532SOL    HW114495   6.014   1.948   3.510
 4532SOL    HW214496   6.084   1.877   3.640
 4533SOL     OW14497   1.438   1.277   2.189
 4533SOL    HW114498   1.407   1.349   2.251
 4533SOL    HW214499   1.361   1.243   2.135
 4534SOL     OW14500   4.849   4.119   4.547
 4534SOL    HW114501   4.774   4.159   4.494
 4534SOL    HW214502   4.894   4.190   4.600
 4535SOL     OW14503   4.686   1.178   2.407
 4535SOL    HW114504   4.601   1.127   2.393
 4535SOL    HW214505   4.749   1.159   2.332
 4536SOL     OW14506   4.300   1.046   3.890
 4536SOL    HW114507   4.366   1.046   3.815
 4536SOL    HW214508   4.246   1.130   3.887
 4537SOL     OW14509   3.882   3.364   6.297
 4537SOL    HW114510   3.802   3.311   6.327
 4537SOL    HW214511   3.859   3.416   6.215
 4538SOL     OW14512   1.897   0.111   4.214
 4538SOL    HW114513   1.954   0.174   4.160
 4538SOL    HW214514   1.801   0.124   4.188
 4539SOL     OW14515   2.326   0.353   5.083
 4539SOL    HW114516   2.271   0.352   5.000
 4539SOL    HW214517   2.387   0.274   5.084
 4540SOL     OW14518   3.455   2.501   5.654
 4540SOL    HW114519   3.499   2.482   5.567
 4540SOL    HW214520   3.357   2.515   5.639
 4541SOL     OW14521   6.082   1.752   1.096
 4541SOL    HW114522   6.155   1.687   1.118
 4541SOL    HW214523   6.019   1.760   1.173
 4542SOL     OW14524   0.048   1.344   2.772
 4542SOL    HW114525   0.086   1.345   2.680
 4542SOL    HW214526   6.972   1.370   2.769
 4543SOL     OW14527   4.902   2.117   1.492
 4543SOL    HW114528   4.802   2.116   1.486
 4543SOL    HW214529   4.931   2.059   1.569
 4544SOL     OW14530   2.824   6.301   6.058
 4544SOL    HW114531   2.794   6.216   6.101
 4544SOL    HW214532   2.852   6.366   6.129
 4545SOL     OW14533   5.188   3.529   4.770
 4545SOL    HW114534   5.188   3.490   4.678
 4545SOL    HW214535   5.273   3.578   4.786
 4546SOL     OW14536   1.601   1.386   6.165
 4546SOL    HW114537   1.520   1.403   6.108
 4546SOL    HW214538   1.595   1.438   6.249
 4547SOL     OW14539   5.684   2.351   3.189
 4547SOL    HW114540   5.638   2.412   3.253
 4547SOL    HW214541   5.771   2.391   3.162
 4548SOL     OW14542   1.149   4.400   4.221
 4548SOL    HW114543   1.066   4.354   4.190
 4548SOL    HW214544   1.198   4.341   4.286
 4549SOL     OW14545   6.505   4.348   1.826
 4549SOL    HW114546   6.555   4.434   1.820
 4549SOL    HW214547   6.482   4.316   1.734
 4550SOL     OW14548   1.454   5.584   3.147
 4550SOL    HW114549   1.506   5.655   3.194
 4550SOL    HW214550   1.406   5.624   3.069
 4551SOL     OW14551   6.976   1.852   5.619
 4551SOL    HW114552   0.054   1.872   5.622
 4551SOL    HW214553   6.931   1.895   5.698
 4552SOL     OW14554   6.164   2.882   0.688
 4552SOL    HW114555   6.189   2.964   0.637
 4552SOL    HW214556   6.179   2.802   0.631
 4553SOL     OW14557   3.527   4.721   6.665
 4553SOL    HW114558   3.552   4.670   6.582
 4553SOL    HW214559   3.448   4.780   6.645
 4554SOL     OW14560   5.692   0.623   1.096
 4554SOL    HW114561   5.731   0.659   1.012
 4554SOL    HW214562   5.740   0.663   1.175
 4555SOL     OW14563   2.961   1.551   5.935
 4555SOL    HW114564   2.951   1.651   5.932
 4555SOL    HW214565   2.919   1.512   5.853
 4556SOL     OW14566   4.818   2.525   4.197
 4556SOL    HW114567   4.820   2.555   4.293
 4556SOL    HW214568   4.909   2.493   4.171
 4557SOL     OW14569   4.722   6.384   5.335
 4557SOL    HW114570   4.688   6.471   5.298
 4557SOL    HW214571   4.670   6.360   5.416
 4558SOL     OW14572   0.651   4.301   4.553
 4558SOL    HW114573   0.569   4.345   4.589
 4558SOL    HW214574   0.730   4.360   4.567
 4559SOL     OW14575   7.013   3.844   2.071
 4559SOL    HW114576   6.983   3.935   2.042
 4559SOL    HW214577   6.946   3.776   2.043
 4560SOL     OW14578   5.244   4.752   2.088
 4560SOL    HW114579   5.192   4.835   2.067
 4560SOL    HW214580   5.199   4.703   2.163
 4561SOL     OW14581   2.486   1.591   2.131
 4561SOL    HW114582   2.512   1.614   2.037
 4561SOL    HW214583   2.560   1.541   2.175
 4562SOL     OW14584   2.990   5.933   4.819
 4562SOL    HW114585   2.926   5.999   4.860
 4562SOL    HW214586   3.049   5.895   4.891
 4563SOL     OW14587   0.339   3.177   1.106
 4563SOL    HW114588   0.351   3.077   1.100
 4563SOL    HW214589   0.395   3.213   1.180
 4564SOL     OW14590   6.831   6.728   1.189
 4564SOL    HW114591   6.887   6.796   1.142
 4564SOL    HW214592   6.878   6.696   1.271
 4565SOL     OW14593   0.482   1.280   5.496
 4565SOL    HW114594   0.437   1.360   5.537
 4565SOL    HW214595   0.448   1.266   5.403
 4566SOL     OW14596   6.728   2.335   0.924
 4566SOL    HW114597   6.772   2.246   0.936
 4566SOL    HW214598   6.653   2.345   0.988
 4567SOL     OW14599   6.408   0.636   6.871
 4567SOL    HW114600   6.341   0.710   6.857
 4567SOL    HW214601   6.500   0.673   6.863
 4568SOL     OW14602   2.139   3.980   5.664
 4568SOL    HW114603   2.161   4.073   5.693
 4568SOL    HW214604   2.219   3.939   5.620
 4569SOL     OW14605   1.754   1.738   3.358
 4569SOL    HW114606   1.663   1.731   3.318
 4569SOL    HW214607   1.802   1.651   3.347
 4570SOL     OW14608   0.573   6.738   3.404
 4570SOL    HW114609   0.608   6.645   3.412
 4570SOL    HW214610   0.555   6.775   3.495
 4571SOL     OW14611   4.063   3.886   6.096
 4571SOL    HW114612   4.034   3.793   6.074
 4571SOL    HW214613   4.100   3.929   6.014
 4572SOL     OW14614   1.423   6.755   6.806
 4572SOL    HW114615   1.409   6.743   6.707
 4572SOL    HW214616   1.491   6.826   6.822
 4573SOL     OW14617   6.299   6.693   0.799
 4573SOL    HW114618   6.396   6.685   0.776
 4573SOL    HW214619   6.286   6.679   0.897
 4574SOL     OW14620   6.275   3.557   0.687
 4574SOL    HW114621   6.181   3.526   0.700
 4574SOL    HW214622   6.337   3.489   0.726
 4575SOL     OW14623   5.928   1.769   6.292
 4575SOL    HW114624   5.912   1.833   6.367
 4575SOL    HW214625   5.939   1.676   6.328
 4576SOL     OW14626   2.517   6.347   6.033
 4576SOL    HW114627   2.609   6.334   5.998
 4576SOL    HW214628   2.521   6.383   6.126
 4577SOL     OW14629   0.808   2.387   4.508
 4577SOL    HW114630   0.798   2.369   4.606
 4577SOL    HW214631   0.892   2.344   4.475
 4578SOL     OW14632   0.815   3.537   4.924
 4578SOL    HW114633   0.807   3.583   5.012
 4578SOL    HW214634   0.862   3.450   4.936
 4579SOL     OW14635   4.663   1.832   3.180
 4579SOL    HW114636   4.664   1.839   3.081
 4579SOL    HW214637   4.757   1.834   3.215
 4580SOL     OW14638   5.262   4.792   0.096
 4580SOL    HW114639   5.172   4.833   0.110
 4580SOL    HW214640   5.259   4.731   0.016
 4581SOL     OW14641   2.582   4.596   2.978
 4581SOL    HW114642   2.499   4.632   3.020
 4581SOL    HW214643   2.563   4.508   2.935
 4582SOL     OW14644   5.720   6.588   4.762
 4582SOL    HW114645   5.632   6.547   4.738
 4582SOL    HW214646   5.780   6.588   4.682
 4583SOL     OW14647   2.335   2.247   5.922
 4583SOL    HW114648   2.422   2.237   5.970
 4583SOL    HW214649   2.352   2.270   5.827
 4584SOL     OW14650   0.316   5.321   6.192
 4584SOL    HW114651   0.330   5.386   6.118
 4584SOL    HW214652   0.218   5.305   6.205
 4585SOL     OW14653   2.653   6.790   2.788
 4585SOL    HW114654   2.633   6.777   2.691
 4585SOL    HW214655   2.705   6.874   2.800
 4586SOL     OW14656   3.399   5.225   0.935
 4586SOL    HW114657   3.485   5.236   0.985
 4586SOL    HW214658   3.327   5.194   0.998
 4587SOL     OW14659   3.797   3.761   2.413
 4587SOL    HW114660   3.713   3.709   2.431
 4587SOL    HW214661   3.820   3.816   2.493
 4588SOL     OW14662   3.597   4.129   5.438
 4588SOL    HW114663   3.581   4.057   5.371
 4588SOL    HW214664   3.638   4.208   5.393
 4589SOL     OW14665   6.228   0.769   2.305
 4589SOL    HW114666   6.322   0.735   2.292
 4589SOL    HW214667   6.165   0.715   2.250
 4590SOL     OW14668   5.042   5.771   0.551
 4590SOL    HW114669   5.095   5.694   0.517
 4590SOL    HW214670   4.950   5.740   0.574
 4591SOL     OW14671   0.474   5.906   4.620
 4591SOL    HW114672   0.556   5.963   4.619
 4591SOL    HW214673   0.490   5.824   4.565
 4592SOL     OW14674   3.256   1.804   1.718
 4592SOL    HW114675   3.244   1.853   1.805
 4592SOL    HW214676   3.256   1.870   1.643
 4593SOL     OW14677   4.820   5.473   3.614
 4593SOL    HW114678   4.742   5.426   3.654
 4593SOL    HW214679   4.874   5.408   3.561
 4594SOL     OW14680   2.946   1.289   2.453
 4594SOL    HW114681   2.933   1.285   2.353
 4594SOL    HW214682   2.895   1.215   2.496
 4595SOL     OW14683   4.050   2.742   6.465
 4595SOL    HW114684   3.957   2.778   6.471
 4595SOL    HW214685   4.048   2.643   6.476
 4596SOL     OW14686   5.836   6.980   1.868
 4596SOL    HW114687   5.915   7.014   1.918
 4596SOL    HW214688   5.754   6.989   1.924
 4597SOL     OW14689   4.194   4.940   6.246
 4597SOL    HW114690   4.187   4.850   6.204
 4597SOL    HW214691   4.134   4.945   6.326
 4598SOL     OW14692   2.280   6.214   6.691
 4598SOL    HW114693   2.209   6.196   6.623
 4598SOL    HW214694   2.237   6.245   6.776
 4599SOL     OW14695   0.513   5.857   0.905
 4599SOL    HW114696   0.612   5.847   0.916
 4599SOL    HW214697   0.482   5.801   0.829
 4600SOL     OW14698   1.492   4.505   5.383
 4600SOL    HW114699   1.578   4.551   5.361
 4600SOL    HW214700   1.478   4.505   5.482
 4601SOL     OW14701   1.960   0.332   5.112
 4601SOL    HW114702   2.022   0.301   5.040
 4601SOL    HW214703   1.880   0.273   5.115
 4602SOL     OW14704   1.182   5.713   1.175
 4602SOL    HW114705   1.236   5.692   1.256
 4602SOL    HW214706   1.223   5.671   1.095
 4603SOL     OW14707   3.185   6.565   0.612
 4603SOL    HW114708   3.142   6.541   0.699
 4603SOL    HW214709   3.127   6.535   0.537
 4604SOL     OW14710   4.720   0.222   0.968
 4604SOL    HW114711   4.647   0.158   0.992
 4604SOL    HW214712   4.757   0.198   0.878
 4605SOL     OW14713   3.250   0.448   3.459
 4605SOL    HW114714   3.178   0.408   3.403
 4605SOL    HW214715   3.337   0.403   3.439
 4606SOL     OW14716   1.330   0.188   1.721
 4606SOL    HW114717   1.318   0.153   1.628
 4606SOL    HW214718   1.246   0.174   1.773
 4607SOL     OW14719   2.147   2.563   1.486
 4607SOL    HW114720   2.153   2.567   1.586
 4607SOL    HW214721   2.162   2.655   1.448
 4608SOL     OW14722   0.976   6.129   3.526
 4608SOL    HW114723   0.890   6.078   3.520
 4608SOL    HW214724   1.041   6.094   3.458
 4609SOL     OW14725   4.414   5.039   6.676
 4609SOL    HW114726   4.494   5.035   6.736
 4609SOL    HW214727   4.336   5.078   6.726
 4610SOL     OW14728   5.260   2.921   0.631
 4610SOL    HW114729   5.191   2.938   0.560
 4610SOL    HW214730   5.216   2.923   0.721
 4611SOL     OW14731   0.192   6.142   5.776
 4611SOL    HW114732   0.126   6.131   5.850
 4611SOL    HW214733   0.191   6.237   5.744
 4612SOL     OW14734   1.294   6.033   0.036
 4612SOL    HW114735   1.316   6.107   0.100
 4612SOL    HW214736   1.307   5.945   0.081
 4613SOL     OW14737   2.692   6.216   2.265
 4613SOL    HW114738   2.705   6.267   2.180
 4613SOL    HW214739   2.597   6.187   2.273
 4614SOL     OW14740   6.795   3.213   5.083
 4614SOL    HW114741   6.840   3.264   5.156
 4614SOL    HW214742   6.741   3.139   5.122
 4615SOL     OW14743   2.141   0.107   0.240
 4615SOL    HW114744   2.183   0.198   0.240
 4615SOL    HW214745   2.115   0.082   0.147
 4616SOL     OW14746   6.679   0.331   5.353
 4616SOL    HW114747   6.774   0.344   5.379
 4616SOL    HW214748   6.626   0.411   5.379
 4617SOL     OW14749   0.871   2.663   2.173
 4617SOL    HW114750   0.896   2.685   2.267
 4617SOL    HW214751   0.904   2.735   2.112
 4618SOL     OW14752   2.111   2.999   5.153
 4618SOL    HW114753   2.209   3.000   5.136
 4618SOL    HW214754   2.062   2.984   5.067
 4619SOL     OW14755   3.238   6.523   3.673
 4619SOL    HW114756   3.319   6.465   3.679
 4619SOL    HW214757   3.165   6.473   3.627
 4620SOL     OW14758   2.192   4.934   0.240
 4620SOL    HW114759   2.096   4.915   0.218
 4620SOL    HW214760   2.215   5.026   0.208
 4621SOL     OW14761   5.670   1.323   2.374
 4621SOL    HW114762   5.739   1.359   2.311
 4621SOL    HW214763   5.592   1.286   2.323
 4622SOL     OW14764   2.333   4.944   0.591
 4622SOL    HW114765   2.250   4.911   0.546
 4622SOL    HW214766   2.399   4.869   0.598
 4623SOL     OW14767   5.933   6.999   0.126
 4623SOL    HW114768   5.836   0.003   0.115
 4623SOL    HW214769   5.954   6.919   0.070
 4624SOL     OW14770   5.157   6.406   3.396
 4624SOL    HW114771   5.077   6.452   3.436
 4624SOL    HW214772   5.160   6.424   3.298
 4625SOL     OW14773   1.995   3.873   1.030
 4625SOL    HW114774   1.940   3.818   0.968
 4625SOL    HW214775   2.020   3.959   0.987
 4626SOL     OW14776   5.044   4.969   2.331
 4626SOL    HW114777   5.063   4.920   2.246
 4626SOL    HW214778   5.040   5.067   2.314
 4627SOL     OW14779   2.639   4.637   4.455
 4627SOL    HW114780   2.594   4.611   4.540
 4627SOL    HW214781   2.642   4.558   4.393
 4628SOL     OW14782   6.140   4.614   3.997
 4628SOL    HW114783   6.067   4.606   3.929
 4628SOL    HW214784   6.099   4.625   4.088
 4629SOL     OW14785   2.145   5.154   5.524
 4629SOL    HW114786   2.184   5.232   5.475
 4629SOL    HW214787   2.076   5.110   5.467
 4630SOL     OW14788   3.649   5.235   2.322
 4630SOL    HW114789   3.586   5.227   2.245
 4630SOL    HW214790   3.619   5.174   2.396
 4631SOL     OW14791   2.159   6.157   2.521
 4631SOL    HW114792   2.251   6.189   2.544
 4631SOL    HW214793   2.111   6.132   2.605
 4632SOL     OW14794   4.200   5.032   2.854
 4632SOL    HW114795   4.156   5.120   2.869
 4632SOL    HW214796   4.156   4.985   2.777
 4633SOL     OW14797   5.251   0.379   4.602
 4633SOL    HW114798   5.285   0.289   4.574
 4633SOL    HW214799   5.160   0.394   4.563
 4634SOL     OW14800   2.835   5.051   6.344
 4634SOL    HW114801   2.891   5.126   6.308
 4634SOL    HW214802   2.813   4.988   6.270
 4635SOL     OW14803   5.186   4.034   1.367
 4635SOL    HW114804   5.222   4.015   1.458
 4635SOL    HW214805   5.117   3.967   1.343
 4636SOL     OW14806   1.666   4.906   0.334
 4636SOL    HW114807   1.621   4.994   0.316
 4636SOL    HW214808   1.606   4.848   0.388
 4637SOL     OW14809   1.416   6.985   0.756
 4637SOL    HW114810   1.325   6.948   0.773
 4637SOL    HW214811   1.454   6.943   0.674
 4638SOL     OW14812   5.033   3.904   6.649
 4638SOL    HW114813   5.077   3.859   6.727
 4638SOL    HW214814   4.950   3.854   6.623
 4639SOL     OW14815   2.944   4.709   5.907
 4639SOL    HW114816   2.890   4.650   5.967
 4639SOL    HW214817   2.968   4.658   5.824
 4640SOL     OW14818   4.857   3.883   3.609
 4640SOL    HW114819   4.891   3.892   3.515
 4640SOL    HW214820   4.887   3.796   3.647
 4641SOL     OW14821   2.183   6.984   5.518
 4641SOL    HW114822   2.247   6.967   5.594
 4641SOL    HW214823   2.155   0.060   5.520
 4642SOL     OW14824   0.225   5.624   3.812
 4642SOL    HW114825   0.231   5.557   3.887
 4642SOL    HW214826   0.135   5.668   3.814
 4643SOL     OW14827   5.689   3.237   1.572
 4643SOL    HW114828   5.689   3.158   1.634
 4643SOL    HW214829   5.594   3.263   1.552
 4644SOL     OW14830   0.046   4.991   5.059
 4644SOL    HW114831   0.138   4.979   5.019
 4644SOL    HW214832   0.002   4.902   5.067
 4645SOL     OW14833   0.839   0.480   4.446
 4645SOL    HW114834   0.865   0.387   4.419
 4645SOL    HW214835   0.755   0.506   4.397
 4646SOL     OW14836   1.957   6.083   3.457
 4646SOL    HW114837   2.045   6.092   3.411
 4646SOL    HW214838   1.959   6.137   3.542
 4647SOL     OW14839   1.635   1.039   3.203
 4647SOL    HW114840   1.705   1.110   3.213
 4647SOL    HW214841   1.614   1.000   3.293
 4648SOL     OW14842   3.898   1.056   2.197
 4648SOL    HW114843   3.954   1.027   2.120
 4648SOL    HW214844   3.801   1.039   2.177
 4649SOL     OW14845   5.270   0.120   6.709
 4649SOL    HW114846   5.282   0.129   6.808
 4649SOL    HW214847   5.329   0.184   6.662
 4650SOL     OW14848   4.827   5.477   2.982
 4650SOL    HW114849   4.881   5.400   3.017
 4650SOL    HW214850   4.730   5.462   3.004
 4651SOL     OW14851   6.927   2.783   0.716
 4651SOL    HW114852   6.893   2.853   0.778
 4651SOL    HW214853   6.892   2.800   0.624
 4652SOL     OW14854   6.833   0.151   4.230
 4652SOL    HW114855   6.864   0.243   4.254
 4652SOL    HW214856   6.733   0.151   4.223
 4653SOL     OW14857   5.891   4.513   0.471
 4653SOL    HW114858   5.876   4.422   0.432
 4653SOL    HW214859   5.844   4.581   0.415
 4654SOL     OW14860   1.366   6.613   7.018
 4654SOL    HW114861   1.391   6.640   6.924
 4654SOL    HW214862   1.446   6.623   0.057
 4655SOL     OW14863   5.392   4.354   1.769
 4655SOL    HW114864   5.361   4.392   1.856
 4655SOL    HW214865   5.422   4.260   1.782
 4656SOL     OW14866   1.223   0.618   3.154
 4656SOL    HW114867   1.183   0.546   3.212
 4656SOL    HW214868   1.149   0.668   3.108
 4657SOL     OW14869   4.963   6.171   1.350
 4657SOL    HW114870   4.943   6.073   1.344
 4657SOL    HW214871   4.878   6.223   1.339
 4658SOL     OW14872   3.670   1.335   3.301
 4658SOL    HW114873   3.683   1.267   3.230
 4658SOL    HW214874   3.582   1.381   3.287
 4659SOL     OW14875   2.998   4.765   5.226
 4659SOL    HW114876   3.006   4.783   5.324
 4659SOL    HW214877   2.940   4.685   5.211
 4660SOL     OW14878   1.222   4.265   6.110
 4660SOL    HW114879   1.291   4.318   6.159
 4660SOL    HW214880   1.148   4.239   6.173
 4661SOL     OW14881   2.999   4.359   5.849
 4661SOL    HW114882   2.913   4.313   5.827
 4661SOL    HW214883   3.027   4.415   5.771
 4662SOL     OW14884   3.349   0.347   5.495
 4662SOL    HW114885   3.316   0.265   5.541
 4662SOL    HW214886   3.272   0.396   5.454
 4663SOL     OW14887   0.204   2.300   2.567
 4663SOL    HW114888   0.201   2.206   2.532
 4663SOL    HW214889   0.297   2.336   2.556
 4664SOL     OW14890   1.394   1.409   0.919
 4664SOL    HW114891   1.319   1.352   0.953
 4664SOL    HW214892   1.474   1.396   0.978
 4665SOL     OW14893   3.411   6.742   6.899
 4665SOL    HW114894   3.319   6.717   6.871
 4665SOL    HW214895   3.407   6.806   6.975
 4666SOL     OW14896   1.447   2.119   0.658
 4666SOL    HW114897   1.457   2.049   0.588
 4666SOL    HW214898   1.421   2.077   0.745
 4667SOL     OW14899   6.002   3.772   2.626
 4667SOL    HW114900   6.036   3.859   2.659
 4667SOL    HW214901   6.079   3.715   2.596
 4668SOL     OW14902   4.607   1.778   2.258
 4668SOL    HW114903   4.537   1.779   2.330
 4668SOL    HW214904   4.639   1.685   2.245
 4669SOL     OW14905   5.184   5.921   6.715
 4669SOL    HW114906   5.170   5.999   6.654
 4669SOL    HW214907   5.096   5.891   6.752
 4670SOL     OW14908   3.072   2.257   5.349
 4670SOL    HW114909   3.104   2.288   5.259
 4670SOL    HW214910   3.144   2.271   5.417
 4671SOL     OW14911   6.861   2.803   1.858
 4671SOL    HW114912   6.947   2.845   1.890
 4671SOL    HW214913   6.854   2.710   1.894
 4672SOL     OW14914   3.089   4.809   6.360
 4672SOL    HW114915   3.102   4.905   6.333
 4672SOL    HW214916   3.026   4.805   6.437
 4673SOL     OW14917   5.227   0.273   1.462
 4673SOL    HW114918   5.303   0.214   1.489
 4673SOL    HW214919   5.141   0.227   1.480
 4674SOL     OW14920   5.277   0.002   6.273
 4674SOL    HW114921   5.349   0.008   6.204
 4674SOL    HW214922   5.211   0.076   6.259
 4675SOL     OW14923   1.234   1.716   5.953
 4675SOL    HW114924   1.163   1.730   5.885
 4675SOL    HW214925   1.314   1.771   5.929
 4676SOL     OW14926   0.680   6.447   3.464
 4676SOL    HW114927   0.661   6.416   3.557
 4676SOL    HW214928   0.626   6.393   3.399
 4677SOL     OW14929   2.723   1.555   6.565
 4677SOL    HW114930   2.755   1.567   6.659
 4677SOL    HW214931   2.679   1.466   6.556
 4678SOL     OW14932   1.509   4.709   3.099
 4678SOL    HW114933   1.549   4.800   3.108
 4678SOL    HW214934   1.410   4.717   3.089
 4679SOL     OW14935   3.895   0.354   0.388
 4679SOL    HW114936   3.942   0.395   0.466
 4679SOL    HW214937   3.876   0.258   0.407
 4680SOL     OW14938   2.989   1.771   6.931
 4680SOL    HW114939   3.005   1.865   6.899
 4680SOL    HW214940   2.967   1.772   0.008
 4681SOL     OW14941   5.431   5.330   6.623
 4681SOL    HW114942   5.472   5.420   6.609
 4681SOL    HW214943   5.380   5.303   6.541
 4682SOL     OW14944   4.888   4.226   5.378
 4682SOL    HW114945   4.980   4.240   5.342
 4682SOL    HW214946   4.826   4.203   5.303
 4683SOL     OW14947   4.666   4.737   2.043
 4683SOL    HW114948   4.592   4.739   1.976
 4683SOL    HW214949   4.649   4.805   2.114
 4684SOL     OW14950   5.624   0.717   5.248
 4684SOL    HW114951   5.680   0.682   5.173
 4684SOL    HW214952   5.681   0.729   5.329
 4685SOL     OW14953   1.074   5.793   5.773
 4685SOL    HW114954   1.048   5.748   5.858
 4685SOL    HW214955   1.065   5.892   5.783
 4686SOL     OW14956   4.070   4.798   0.573
 4686SOL    HW114957   4.057   4.718   0.514
 4686SOL    HW214958   4.057   4.771   0.669
 4687SOL     OW14959   6.063   3.536   4.222
 4687SOL    HW114960   6.147   3.579   4.254
 4687SOL    HW214961   6.054   3.445   4.263
 4688SOL     OW14962   5.908   4.129   4.789
 4688SOL    HW114963   5.835   4.089   4.843
 4688SOL    HW214964   5.916   4.080   4.702
 4689SOL     OW14965   4.804   0.977   0.077
 4689SOL    HW114966   4.749   0.955   7.016
 4689SOL    HW214967   4.900   0.960   0.057
 4690SOL     OW14968   1.220   0.665   0.089
 4690SOL    HW114969   1.315   0.686   0.110
 4690SOL    HW214970   1.214   0.576   0.044
 4691SOL     OW14971   2.860   4.911   1.470
 4691SOL    HW114972   2.908   4.833   1.429
 4691SOL    HW214973   2.775   4.928   1.421
 4692SOL     OW14974   5.779   5.823   1.711
 4692SOL    HW114975   5.810   5.918   1.722
 4692SOL    HW214976   5.716   5.818   1.633
 4693SOL     OW14977   1.002   2.384   3.822
 4693SOL    HW114978   0.926   2.327   3.793
 4693SOL    HW214979   0.983   2.421   3.914
 4694SOL     OW14980   2.111   1.057   0.112
 4694SOL    HW114981   2.093   0.959   0.108
 4694SOL    HW214982   2.050   1.105   0.049
 4695SOL     OW14983   0.867   3.440   2.476
 4695SOL    HW114984   0.795   3.470   2.538
 4695SOL    HW214985   0.956   3.465   2.515
 4696SOL     OW14986   0.041   4.362   0.188
 4696SOL    HW114987   0.094   4.301   0.247
 4696SOL    HW214988   0.005   4.437   0.243
 4697SOL     OW14989   1.913   3.278   0.616
 4697SOL    HW114990   1.814   3.282   0.627
 4697SOL    HW214991   1.958   3.295   0.704
 4698SOL     OW14992   4.570   5.169   2.401
 4698SOL    HW114993   4.471   5.170   2.392
 4698SOL    HW214994   4.596   5.180   2.497
 4699SOL     OW14995   1.294   6.698   2.231
 4699SOL    HW114996   1.277   6.714   2.134
 4699SOL    HW214997   1.246   6.615   2.260
 4700SOL     OW14998   0.161   1.093   3.098
 4700SOL    HW114999   0.091   1.163   3.084
 4700SOL    HW215000   0.250   1.137   3.113
 4701SOL     OW15001   2.573   2.433   0.811
 4701SOL    HW115002   2.476   2.421   0.832
 4701SOL    HW215003   2.627   2.368   0.864
 4702SOL     OW15004   4.981   4.928   6.886
 4702SOL    HW115005   4.987   4.903   6.983
 4702SOL    HW215006   5.035   4.862   6.832
 4703SOL     OW15007   0.290   1.592   2.130
 4703SOL    HW115008   0.372   1.577   2.184
 4703SOL    HW215009   0.278   1.516   2.066
 4704SOL     OW15010   0.680   6.295   0.229
 4704SOL    HW115011   0.740   6.339   0.162
 4704SOL    HW215012   0.623   6.365   0.273
 4705SOL     OW15013   3.624   2.778   1.706
 4705SOL    HW115014   3.552   2.839   1.740
 4705SOL    HW215015   3.597   2.683   1.720
 4706SOL     OW15016   3.187   0.325   0.460
 4706SOL    HW115017   3.120   0.397   0.477
 4706SOL    HW215018   3.237   0.345   0.376
 4707SOL     OW15019   1.528   6.801   0.922
 4707SOL    HW115020   1.496   6.875   0.862
 4707SOL    HW215021   1.618   6.770   0.893
 4708SOL     OW15022   1.130   2.117   6.505
 4708SOL    HW115023   1.155   2.022   6.485
 4708SOL    HW215024   1.202   2.178   6.474
 4709SOL     OW15025   4.559   5.599   5.504
 4709SOL    HW115026   4.484   5.598   5.570
 4709SOL    HW215027   4.549   5.677   5.443
 4710SOL     OW15028   4.955   6.788   5.735
 4710SOL    HW115029   4.855   6.797   5.739
 4710SOL    HW215030   4.994   6.868   5.690
 4711SOL     OW15031   6.068   1.337   1.645
 4711SOL    HW115032   6.062   1.243   1.679
 4711SOL    HW215033   6.078   1.399   1.723
 4712SOL     OW15034   2.713   4.610   0.066
 4712SOL    HW115035   2.617   4.594   0.091
 4712SOL    HW215036   2.750   4.684   0.122
 4713SOL     OW15037   3.895   4.079   1.040
 4713SOL    HW115038   3.969   4.078   1.106
 4713SOL    HW215039   3.918   4.019   0.963
 4714SOL     OW15040   0.558   2.105   6.286
 4714SOL    HW115041   0.618   2.106   6.206
 4714SOL    HW215042   0.535   2.011   6.309
 4715SOL     OW15043   5.949   2.733   2.292
 4715SOL    HW115044   5.946   2.755   2.390
 4715SOL    HW215045   5.873   2.673   2.269
 4716SOL     OW15046   4.234   6.374   6.647
 4716SOL    HW115047   4.205   6.365   6.552
 4716SOL    HW215048   4.220   6.287   6.695
 4717SOL     OW15049   6.827   0.130   3.918
 4717SOL    HW115050   6.838   0.161   4.013
 4717SOL    HW215051   6.730   0.129   3.894
 4718SOL     OW15052   5.301   1.990   1.904
 4718SOL    HW115053   5.386   2.035   1.875
 4718SOL    HW215054   5.289   2.001   2.002
 4719SOL     OW15055   4.808   3.026   1.668
 4719SOL    HW115056   4.749   3.011   1.748
 4719SOL    HW215057   4.785   3.114   1.626
 4720SOL     OW15058   2.367   5.597   5.976
 4720SOL    HW115059   2.274   5.562   5.969
 4720SOL    HW215060   2.375   5.680   5.920
 4721SOL     OW15061   6.446   2.289   2.186
 4721SOL    HW115062   6.372   2.291   2.253
 4721SOL    HW215063   6.407   2.282   2.094
 4722SOL     OW15064   0.871   6.256   6.609
 4722SOL    HW115065   0.835   6.289   6.697
 4722SOL    HW215066   0.919   6.170   6.623
 4723SOL     OW15067   2.831   3.427   6.079
 4723SOL    HW115068   2.929   3.445   6.076
 4723SOL    HW215069   2.811   3.368   6.157
 4724SOL     OW15070   6.165   6.646   3.225
 4724SOL    HW115071   6.162   6.546   3.215
 4724SOL    HW215072   6.086   6.687   3.180
 4725SOL     OW15073   6.499   5.021   1.476
 4725SOL    HW115074   6.483   4.945   1.539
 4725SOL    HW215075   6.411   5.063   1.453
 4726SOL     OW15076   1.323   3.247   6.425
 4726SOL    HW115077   1.393   3.220   6.491
 4726SOL    HW215078   1.331   3.344   6.405
 4727SOL     OW15079   0.994   6.164   1.052
 4727SOL    HW115080   0.991   6.097   1.126
 4727SOL    HW215081   1.032   6.122   0.970
 4728SOL     OW15082   6.053   0.764   1.666
 4728SOL    HW115083   6.017   0.789   1.757
 4728SOL    HW215084   6.029   0.836   1.601
 4729SOL     OW15085   3.874   1.453   0.507
 4729SOL    HW115086   3.864   1.359   0.541
 4729SOL    HW215087   3.916   1.452   0.417
 4730SOL     OW15088   3.553   5.898   5.845
 4730SOL    HW115089   3.496   5.933   5.770
 4730SOL    HW215090   3.603   5.974   5.887
 4731SOL     OW15091   3.791   0.687   0.053
 4731SOL    HW115092   3.860   0.710   7.005
 4731SOL    HW215093   3.827   0.618   0.116
 4732SOL     OW15094   1.283   3.901   5.466
 4732SOL    HW115095   1.342   3.878   5.543
 4732SOL    HW215096   1.199   3.943   5.500
 4733SOL     OW15097   1.338   4.067   3.885
 4733SOL    HW115098   1.334   4.074   3.985
 4733SOL    HW215099   1.434   4.072   3.856
 4734SOL     OW15100   3.666   2.678   6.690
 4734SOL    HW115101   3.679   2.658   6.593
 4734SOL    HW215102   3.752   2.662   6.739
 4735SOL     OW15103   5.937   5.384   4.078
 4735SOL    HW115104   6.028   5.352   4.052
 4735SOL    HW215105   5.869   5.318   4.046
 4736SOL     OW15106   6.037   1.800   5.636
 4736SOL    HW115107   6.050   1.829   5.541
 4736SOL    HW215108   5.942   1.772   5.649
 4737SOL     OW15109   2.544   4.637   1.886
 4737SOL    HW115110   2.551   4.687   1.799
 4737SOL    HW215111   2.634   4.637   1.931
 4738SOL     OW15112   0.711   6.191   3.022
 4738SOL    HW115113   0.619   6.221   2.999
 4738SOL    HW215114   0.721   6.187   3.122
 4739SOL     OW15115   4.281   0.903   2.843
 4739SOL    HW115116   4.358   0.889   2.781
 4739SOL    HW215117   4.223   0.977   2.809
 4740SOL     OW15118   0.909   1.404   1.519
 4740SOL    HW115119   0.925   1.315   1.478
 4740SOL    HW215120   0.863   1.393   1.606
 4741SOL     OW15121   4.916   3.481   0.293
 4741SOL    HW115122   4.921   3.571   0.337
 4741SOL    HW215123   4.911   3.493   0.194
 4742SOL     OW15124   3.083   7.020   6.393
 4742SOL    HW115125   3.133   0.021   6.477
 4742SOL    HW215126   2.990   6.990   6.417
 4743SOL     OW15127   1.936   3.351   4.190
 4743SOL    HW115128   1.863   3.308   4.242
 4743SOL    HW215129   1.978   3.424   4.245
 4744SOL     OW15130   1.982   4.313   0.281
 4744SOL    HW115131   2.027   4.316   0.191
 4744SOL    HW215132   2.051   4.296   0.352
 4745SOL     OW15133   3.219   5.385   7.000
 4745SOL    HW115134   3.240   5.399   6.903
 4745SOL    HW215135   3.213   5.473   0.025
 4746SOL     OW15136   5.273   5.929   1.884
 4746SOL    HW115137   5.194   5.867   1.878
 4746SOL    HW215138   5.271   5.993   1.808
 4747SOL     OW15139   2.019   4.082   6.820
 4747SOL    HW115140   1.967   4.164   6.796
 4747SOL    HW215141   1.960   4.017   6.868
 4748SOL     OW15142   1.108   5.093   0.778
 4748SOL    HW115143   1.188   5.124   0.727
 4748SOL    HW215144   1.069   5.169   0.829
 4749SOL     OW15145   2.599   5.799   5.715
 4749SOL    HW115146   2.659   5.791   5.635
 4749SOL    HW215147   2.645   5.762   5.795
 4750SOL     OW15148   0.099   4.268   4.039
 4750SOL    HW115149   0.116   4.222   3.952
 4750SOL    HW215150   0.158   4.229   4.110
 4751SOL     OW15151   4.090   1.738   1.760
 4751SOL    HW115152   4.020   1.806   1.739
 4751SOL    HW215153   4.076   1.703   1.852
 4752SOL     OW15154   3.728   0.490   6.262
 4752SOL    HW115155   3.728   0.419   6.192
 4752SOL    HW215156   3.708   0.449   6.351
 4753SOL     OW15157   5.658   6.898   4.282
 4753SOL    HW115158   5.561   6.874   4.288
 4753SOL    HW215159   5.703   6.839   4.216
 4754SOL     OW15160   5.664   6.451   5.211
 4754SOL    HW115161   5.677   6.396   5.129
 4754SOL    HW215162   5.613   6.397   5.279
 4755SOL     OW15163   1.950   0.928   1.114
 4755SOL    HW115164   2.011   0.982   1.055
 4755SOL    HW215165   1.981   0.833   1.116
 4756SOL     OW15166   5.579   2.490   0.316
 4756SOL    HW115167   5.644   2.430   0.364
 4756SOL    HW215168   5.621   2.580   0.304
 4757SOL     OW15169   2.425   1.715   1.063
 4757SOL    HW115170   2.418   1.813   1.082
 4757SOL    HW215171   2.382   1.695   0.975
 4758SOL     OW15172   2.061   6.378   4.076
 4758SOL    HW115173   2.033   6.473   4.058
 4758SOL    HW215174   2.058   6.361   4.174
 4759SOL     OW15175   6.066   4.854   5.215
 4759SOL    HW115176   5.971   4.835   5.239
 4759SOL    HW215177   6.069   4.931   5.151
 4760SOL     OW15178   1.965   1.932   0.785
 4760SOL    HW115179   1.985   2.006   0.849
 4760SOL    HW215180   1.865   1.921   0.778
 4761SOL     OW15181   0.843   6.566   0.134
 4761SOL    HW115182   0.904   6.488   0.130
 4761SOL    HW215183   0.866   6.623   0.213
 4762SOL     OW15184   0.721   5.907   2.590
 4762SOL    HW115185   0.718   5.960   2.675
 4762SOL    HW215186   0.634   5.861   2.576
 4763SOL     OW15187   6.414   6.725   2.878
 4763SOL    HW115188   6.356   6.646   2.901
 4763SOL    HW215189   6.438   6.720   2.781
 4764SOL     OW15190   4.901   3.591   4.569
 4764SOL    HW115191   4.860   3.551   4.650
 4764SOL    HW215192   4.922   3.687   4.585
 4765SOL     OW15193   4.868   0.941   3.926
 4765SOL    HW115194   4.964   0.912   3.918
 4765SOL    HW215195   4.847   1.005   3.852
 4766SOL     OW15196   4.912   5.900   3.997
 4766SOL    HW115197   4.905   5.981   4.057
 4766SOL    HW215198   4.976   5.834   4.037
 4767SOL     OW15199   3.435   5.433   5.833
 4767SOL    HW115200   3.395   5.520   5.861
 4767SOL    HW215201   3.377   5.358   5.865
 4768SOL     OW15202   4.227   2.107   6.200
 4768SOL    HW115203   4.249   2.016   6.165
 4768SOL    HW215204   4.299   2.171   6.171
 4769SOL     OW15205   4.935   4.342   6.657
 4769SOL    HW115206   4.852   4.288   6.674
 4769SOL    HW215207   4.923   4.434   6.694
 4770SOL     OW15208   0.637   0.797   4.466
 4770SOL    HW115209   0.623   0.700   4.486
 4770SOL    HW215210   0.591   0.820   4.380
 4771SOL     OW15211   2.950   5.921   5.278
 4771SOL    HW115212   2.952   5.956   5.184
 4771SOL    HW215213   3.029   5.862   5.293
 4772SOL     OW15214   3.911   4.961   1.647
 4772SOL    HW115215   4.006   4.967   1.616
 4772SOL    HW215216   3.870   5.052   1.647
 4773SOL     OW15217   0.132   5.356   3.218
 4773SOL    HW115218   0.129   5.358   3.318
 4773SOL    HW215219   0.149   5.448   3.184
 4774SOL     OW15220   1.403   3.337   1.577
 4774SOL    HW115221   1.426   3.268   1.647
 4774SOL    HW215222   1.484   3.356   1.522
 4775SOL     OW15223   5.072   6.525   2.428
 4775SOL    HW115224   5.069   6.425   2.422
 4775SOL    HW215225   5.010   6.556   2.500
 4776SOL     OW15226   1.240   6.503   5.369
 4776SOL    HW115227   1.221   6.540   5.460
 4776SOL    HW215228   1.236   6.403   5.373
 4777SOL     OW15229   2.053   5.058   0.917
 4777SOL    HW115230   2.142   5.020   0.890
 4777SOL    HW215231   2.029   5.024   1.008
 4778SOL     OW15232   6.262   2.550   3.571
 4778SOL    HW115233   6.253   2.649   3.581
 4778SOL    HW215234   6.334   2.530   3.505
 4779SOL     OW15235   6.312   6.090   2.416
 4779SOL    HW115236   6.216   6.063   2.413
 4779SOL    HW215237   6.325   6.177   2.370
 4780SOL     OW15238   5.870   1.157   0.369
 4780SOL    HW115239   5.809   1.232   0.343
 4780SOL    HW215240   5.933   1.188   0.440
 4781SOL     OW15241   2.513   5.695   2.306
 4781SOL    HW115242   2.515   5.776   2.246
 4781SOL    HW215243   2.524   5.613   2.251
 4782SOL     OW15244   5.286   5.454   0.128
 4782SOL    HW115245   5.213   5.521   0.140
 4782SOL    HW215246   5.328   5.466   0.038
 4783SOL     OW15247   4.284   3.865   6.883
 4783SOL    HW115248   4.287   3.962   6.858
 4783SOL    HW215249   4.202   3.823   6.844
 4784SOL     OW15250   6.391   4.049   6.719
 4784SOL    HW115251   6.383   4.147   6.699
 4784SOL    HW215252   6.382   4.035   6.818
 4785SOL     OW15253   1.021   6.744   2.404
 4785SOL    HW115254   0.953   6.729   2.477
 4785SOL    HW215255   1.086   6.813   2.434
 4786SOL     OW15256   2.726   1.191   0.135
 4786SOL    HW115257   2.701   1.221   0.043
 4786SOL    HW215258   2.715   1.092   0.141
 4787SOL     OW15259   4.373   1.561   2.148
 4787SOL    HW115260   4.370   1.511   2.234
 4787SOL    HW215261   4.313   1.641   2.153
 4788SOL     OW15262   0.531   5.790   6.189
 4788SOL    HW115263   0.584   5.874   6.201
 4788SOL    HW215264   0.579   5.728   6.128
 4789SOL     OW15265   4.991   1.883   1.241
 4789SOL    HW115266   4.949   1.916   1.157
 4789SOL    HW215267   5.050   1.954   1.279
 4790SOL     OW15268   6.035   2.067   5.459
 4790SOL    HW115269   6.012   2.144   5.519
 4790SOL    HW215270   6.127   2.080   5.423
 4791SOL     OW15271   0.148   2.561   1.757
 4791SOL    HW115272   0.101   2.579   1.671
 4791SOL    HW215273   0.226   2.499   1.740
 4792SOL     OW15274   1.920   3.998   3.653
 4792SOL    HW115275   1.860   3.919   3.651
 4792SOL    HW215276   2.014   3.969   3.633
 4793SOL     OW15277   1.834   3.108   5.256
 4793SOL    HW115278   1.799   3.042   5.322
 4793SOL    HW215279   1.933   3.094   5.244
 4794SOL     OW15280   4.994   0.180   4.466
 4794SOL    HW115281   4.909   0.173   4.413
 4794SOL    HW215282   4.989   0.260   4.526
 4795SOL     OW15283   5.984   2.114   4.086
 4795SOL    HW115284   5.887   2.087   4.084
 4795SOL    HW215285   6.021   2.111   3.993
 4796SOL     OW15286   4.649   2.065   5.218
 4796SOL    HW115287   4.648   2.151   5.167
 4796SOL    HW215288   4.729   2.011   5.191
 4797SOL     OW15289   0.980   6.429   5.498
 4797SOL    HW115290   1.011   6.446   5.404
 4797SOL    HW215291   0.893   6.476   5.513
 4798SOL     OW15292   0.764   4.058   4.648
 4798SOL    HW115293   0.730   4.008   4.727
 4798SOL    HW215294   0.703   4.133   4.626
 4799SOL     OW15295   4.667   1.851   0.288
 4799SOL    HW115296   4.654   1.907   0.370
 4799SOL    HW215297   4.597   1.874   0.220
 4800SOL     OW15298   3.236   2.624   6.109
 4800SOL    HW115299   3.178   2.629   6.190
 4800SOL    HW215300   3.325   2.666   6.129
 4801SOL     OW15301   2.789   2.554   6.396
 4801SOL    HW115302   2.745   2.477   6.350
 4801SOL    HW215303   2.794   2.536   6.494
 4802SOL     OW15304   1.258   6.881   1.987
 4802SOL    HW115305   1.336   6.929   1.947
 4802SOL    HW215306   1.220   6.935   2.062
 4803SOL     OW15307   0.069   4.942   0.799
 4803SOL    HW115308   7.000   4.898   0.791
 4803SOL    HW215309   0.132   4.882   0.848
 4804SOL     OW15310   5.684   5.876   0.960
 4804SOL    HW115311   5.629   5.880   1.043
 4804SOL    HW215312   5.646   5.938   0.892
 4805SOL     OW15313   5.956   1.806   2.571
 4805SOL    HW115314   6.017   1.750   2.627
 4805SOL    HW215315   5.945   1.764   2.481
 4806SOL     OW15316   1.367   4.414   2.961
 4806SOL    HW115317   1.445   4.470   2.934
 4806SOL    HW215318   1.299   4.414   2.887
 4807SOL     OW15319   0.803   5.103   0.625
 4807SOL    HW115320   0.846   5.186   0.660
 4807SOL    HW215321   0.874   5.038   0.596
 4808SOL     OW15322   5.365   4.363   0.098
 4808SOL    HW115323   5.265   4.358   0.095
 4808SOL    HW215324   5.403   4.310   0.022
 4809SOL     OW15325   3.776   4.458   0.294
 4809SOL    HW115326   3.702   4.477   0.229
 4809SOL    HW215327   3.766   4.365   0.330
 4810SOL     OW15328   1.576   5.163   2.541
 4810SOL    HW115329   1.604   5.207   2.627
 4810SOL    HW215330   1.648   5.174   2.473
 4811SOL     OW15331   2.611   4.238   1.622
 4811SOL    HW115332   2.703   4.275   1.611
 4811SOL    HW215333   2.606   4.147   1.582
 4812SOL     OW15334   6.935   5.412   2.674
 4812SOL    HW115335   6.871   5.423   2.750
 4812SOL    HW215336   7.020   5.459   2.694
 4813SOL     OW15337   5.961   2.294   0.232
 4813SOL    HW115338   5.935   2.258   0.142
 4813SOL    HW215339   6.060   2.299   0.238
 4814SOL     OW15340   0.053   3.221   1.226
 4814SOL    HW115341   0.025   3.237   1.320
 4814SOL    HW215342   0.148   3.191   1.224
 4815SOL     OW15343   5.584   4.062   2.340
 4815SOL    HW115344   5.622   4.112   2.262
 4815SOL    HW215345   5.656   4.011   2.386
 4816SOL     OW15346   1.940   4.722   0.967
 4816SOL    HW115347   2.001   4.711   0.889
 4816SOL    HW215348   1.853   4.676   0.947
 4817SOL     OW15349   1.259   1.915   6.906
 4817SOL    HW115350   1.313   1.998   6.923
 4817SOL    HW215351   1.172   1.940   6.864
 4818SOL     OW15352   0.680   6.153   4.214
 4818SOL    HW115353   0.613   6.194   4.276
 4818SOL    HW215354   0.670   6.053   4.216
 4819SOL     OW15355   1.446   1.957   0.443
 4819SOL    HW115356   1.370   1.893   0.432
 4819SOL    HW215357   1.460   2.007   0.358
 4820SOL     OW15358   6.167   2.536   2.267
 4820SOL    HW115359   6.077   2.575   2.286
 4820SOL    HW215360   6.223   2.603   2.217
 4821SOL     OW15361   0.862   5.972   2.371
 4821SOL    HW115362   0.820   5.959   2.461
 4821SOL    HW215363   0.910   6.060   2.369
 4822SOL     OW15364   1.823   3.234   4.653
 4822SOL    HW115365   1.734   3.188   4.644
 4822SOL    HW215366   1.812   3.332   4.636
 4823SOL     OW15367   1.792   0.557   4.550
 4823SOL    HW115368   1.704   0.601   4.529
 4823SOL    HW215369   1.858   0.578   4.478
 4824SOL     OW15370   5.137   1.877   4.705
 4824SOL    HW115371   5.142   1.920   4.615
 4824SOL    HW215372   5.216   1.905   4.759
 4825SOL     OW15373   1.902   3.062   3.942
 4825SOL    HW115374   1.917   2.967   3.915
 4825SOL    HW215375   1.989   3.103   3.969
 4826SOL     OW15376   5.943   1.230   6.703
 4826SOL    HW115377   5.894   1.198   6.621
 4826SOL    HW215378   5.884   1.292   6.755
 4827SOL     OW15379   6.599   1.676   0.552
 4827SOL    HW115380   6.508   1.718   0.555
 4827SOL    HW215381   6.668   1.744   0.577
 4828SOL     OW15382   5.523   2.665   0.731
 4828SOL    HW115383   5.454   2.646   0.800
 4828SOL    HW215384   5.604   2.609   0.748
 4829SOL     OW15385   4.162   6.696   6.036
 4829SOL    HW115386   4.216   6.657   6.112
 4829SOL    HW215387   4.072   6.653   6.034
 4830SOL     OW15388   4.281   6.396   3.944
 4830SOL    HW115389   4.213   6.459   3.981
 4830SOL    HW215390   4.292   6.318   4.006
 4831SOL     OW15391   0.451   4.435   6.104
 4831SOL    HW115392   0.378   4.441   6.036
 4831SOL    HW215393   0.429   4.362   6.169
 4832SOL     OW15394   3.738   3.420   3.759
 4832SOL    HW115395   3.751   3.426   3.660
 4832SOL    HW215396   3.739   3.512   3.798
 4833SOL     OW15397   4.688   2.483   3.178
 4833SOL    HW115398   4.616   2.425   3.215
 4833SOL    HW215399   4.776   2.458   3.219
 4834SOL     OW15400   3.857   6.399   0.726
 4834SOL    HW115401   3.825   6.449   0.806
 4834SOL    HW215402   3.818   6.440   0.644
 4835SOL     OW15403   6.161   1.391   6.848
 4835SOL    HW115404   6.170   1.491   6.844
 4835SOL    HW215405   6.090   1.361   6.784
 4836SOL     OW15406   5.453   2.739   4.872
 4836SOL    HW115407   5.381   2.724   4.804
 4836SOL    HW215408   5.413   2.783   4.952
 4837SOL     OW15409   6.534   4.106   3.088
 4837SOL    HW115410   6.478   4.186   3.112
 4837SOL    HW215411   6.623   4.113   3.133
 4838SOL     OW15412   0.927   5.363   0.409
 4838SOL    HW115413   0.850   5.306   0.381
 4838SOL    HW215414   1.010   5.333   0.362
 4839SOL     OW15415   2.144   3.448   0.012
 4839SOL    HW115416   2.176   3.408   6.946
 4839SOL    HW215417   2.052   3.413   0.033
 4840SOL     OW15418   6.534   4.133   6.335
 4840SOL    HW115419   6.484   4.051   6.364
 4840SOL    HW215420   6.568   4.180   6.416
 4841SOL     OW15421   2.686   5.368   2.074
 4841SOL    HW115422   2.739   5.446   2.104
 4841SOL    HW215423   2.746   5.301   2.029
 4842SOL     OW15424   3.653   5.463   2.573
 4842SOL    HW115425   3.556   5.444   2.558
 4842SOL    HW215426   3.670   5.560   2.557
 4843SOL     OW15427   6.818   2.934   1.506
 4843SOL    HW115428   6.769   2.991   1.441
 4843SOL    HW215429   6.792   2.959   1.599
 4844SOL     OW15430   1.065   3.430   6.496
 4844SOL    HW115431   1.103   3.492   6.427
 4844SOL    HW215432   1.017   3.355   6.451
 4845SOL     OW15433   5.380   5.419   6.893
 4845SOL    HW115434   5.383   5.373   6.804
 4845SOL    HW215435   5.470   5.412   6.937
 4846SOL     OW15436   6.467   3.233   3.490
 4846SOL    HW115437   6.395   3.163   3.496
 4846SOL    HW215438   6.523   3.216   3.408
 4847SOL     OW15439   2.260   0.430   6.559
 4847SOL    HW115440   2.187   0.403   6.622
 4847SOL    HW215441   2.266   0.362   6.485
 4848SOL     OW15442   1.535   1.018   4.504
 4848SOL    HW115443   1.534   1.038   4.406
 4848SOL    HW215444   1.442   0.993   4.533
 4849SOL     OW15445   0.940   5.994   6.929
 4849SOL    HW115446   0.981   5.909   6.963
 4849SOL    HW215447   0.874   5.973   6.857
 4850SOL     OW15448   3.704   1.259   1.904
 4850SOL    HW115449   3.758   1.297   1.979
 4850SOL    HW215450   3.611   1.296   1.908
 4851SOL     OW15451   3.801   6.816   5.574
 4851SOL    HW115452   3.818   6.725   5.611
 4851SOL    HW215453   3.745   6.868   5.638
 4852SOL     OW15454   1.260   6.101   4.944
 4852SOL    HW115455   1.327   6.167   4.910
 4852SOL    HW215456   1.266   6.016   4.892
 4853SOL     OW15457   3.688   0.643   3.284
 4853SOL    HW115458   3.725   0.557   3.321
 4853SOL    HW215459   3.716   0.719   3.343
 4854SOL     OW15460   4.085   6.479   1.791
 4854SOL    HW115461   4.003   6.435   1.753
 4854SOL    HW215462   4.059   6.531   1.873
 4855SOL     OW15463   6.026   2.368   4.616
 4855SOL    HW115464   6.046   2.406   4.525
 4855SOL    HW215465   6.099   2.305   4.642
 4856SOL     OW15466   1.297   2.775   2.959
 4856SOL    HW115467   1.218   2.804   3.013
 4856SOL    HW215468   1.366   2.736   3.019
 4857SOL     OW15469   3.742   2.128   4.155
 4857SOL    HW115470   3.839   2.152   4.144
 4857SOL    HW215471   3.715   2.144   4.250
 4858SOL     OW15472   0.486   0.432   4.812
 4858SOL    HW115473   0.569   0.481   4.838
 4858SOL    HW215474   0.490   0.339   4.850
 4859SOL     OW15475   1.191   6.427   4.169
 4859SOL    HW115476   1.228   6.370   4.096
 4859SOL    HW215477   1.210   6.523   4.149
 4860SOL     OW15478   4.623   4.370   1.406
 4860SOL    HW115479   4.676   4.453   1.389
 4860SOL    HW215480   4.529   4.395   1.429
 4861SOL     OW15481   6.011   5.307   0.330
 4861SOL    HW115482   6.042   5.373   0.261
 4861SOL    HW215483   5.940   5.349   0.387
 4862SOL     OW15484   2.423   4.499   5.109
 4862SOL    HW115485   2.352   4.494   5.038
 4862SOL    HW215486   2.410   4.425   5.174
 4863SOL     OW15487   4.838   3.897   1.119
 4863SOL    HW115488   4.866   3.927   1.211
 4863SOL    HW215489   4.911   3.843   1.078
 4864SOL     OW15490   4.090   1.642   2.182
 4864SOL    HW115491   4.020   1.599   2.124
 4864SOL    HW215492   4.056   1.729   2.216
 4865SOL     OW15493   2.622   6.533   4.325
 4865SOL    HW115494   2.666   6.620   4.347
 4865SOL    HW215495   2.691   6.461   4.317
 4866SOL     OW15496   6.756   4.404   1.543
 4866SOL    HW115497   6.769   4.434   1.449
 4866SOL    HW215498   6.679   4.341   1.548
 4867SOL     OW15499   4.808   5.549   2.295
 4867SOL    HW115500   4.761   5.629   2.258
 4867SOL    HW215501   4.745   5.495   2.350
 4868SOL     OW15502   6.589   5.046   2.383
 4868SOL    HW115503   6.568   4.952   2.356
 4868SOL    HW215504   6.674   5.075   2.338
 4869SOL     OW15505   0.641   1.401   1.380
 4869SOL    HW115506   0.735   1.390   1.413
 4869SOL    HW215507   0.639   1.391   1.281
 4870SOL     OW15508   7.018   6.260   1.875
 4870SOL    HW115509   6.966   6.250   1.960
 4870SOL    HW215510   0.069   6.329   1.888
 4871SOL     OW15511   0.826   1.479   4.820
 4871SOL    HW115512   0.913   1.450   4.858
 4871SOL    HW215513   0.842   1.537   4.740
 4872SOL     OW15514   6.213   5.772   4.079
 4872SOL    HW115515   6.146   5.706   4.046
 4872SOL    HW215516   6.305   5.740   4.055
 4873SOL     OW15517   6.348   4.969   3.788
 4873SOL    HW115518   6.438   4.937   3.760
 4873SOL    HW215519   6.278   4.903   3.759
 4874SOL     OW15520   5.960   3.202   3.264
 4874SOL    HW115521   5.954   3.300   3.247
 4874SOL    HW215522   5.949   3.184   3.362
 4875SOL     OW15523   5.990   3.270   1.633
 4875SOL    HW115524   6.001   3.226   1.722
 4875SOL    HW215525   5.905   3.240   1.591
 4876SOL     OW15526   5.606   1.348   4.318
 4876SOL    HW115527   5.534   1.310   4.377
 4876SOL    HW215528   5.678   1.388   4.374
 4877SOL     OW15529   0.972   1.912   0.095
 4877SOL    HW115530   0.979   1.821   0.136
 4877SOL    HW215531   0.919   1.907   0.010
 4878SOL     OW15532   6.380   0.301   2.975
 4878SOL    HW115533   6.479   0.311   2.988
 4878SOL    HW215534   6.342   0.247   3.050
 4879SOL     OW15535   4.318   5.030   3.631
 4879SOL    HW115536   4.251   4.969   3.589
 4879SOL    HW215537   4.313   5.021   3.731
 4880SOL     OW15538   6.100   3.092   0.106
 4880SOL    HW115539   6.142   3.016   0.155
 4880SOL    HW215540   6.133   3.179   0.143
 4881SOL     OW15541   1.975   0.603   6.527
 4881SOL    HW115542   1.955   0.510   6.497
 4881SOL    HW215543   2.047   0.642   6.471
 4882SOL     OW15544   5.176   1.611   4.422
 4882SOL    HW115545   5.252   1.675   4.409
 4882SOL    HW215546   5.165   1.591   4.519
 4883SOL     OW15547   5.389   4.728   1.818
 4883SOL    HW115548   5.326   4.804   1.802
 4883SOL    HW215549   5.383   4.699   1.914
 4884SOL     OW15550   3.507   0.494   1.652
 4884SOL    HW115551   3.509   0.488   1.552
 4884SOL    HW215552   3.601   0.499   1.687
 4885SOL     OW15553   1.943   5.553   2.622
 4885SOL    HW115554   1.921   5.525   2.529
 4885SOL    HW215555   1.899   5.490   2.687
 4886SOL     OW15556   0.175   6.173   0.977
 4886SOL    HW115557   0.076   6.189   0.976
 4886SOL    HW215558   0.206   6.158   1.071
 4887SOL     OW15559   0.942   0.550   2.881
 4887SOL    HW115560   0.950   0.621   2.951
 4887SOL    HW215561   0.886   0.475   2.916
 4888SOL     OW15562   2.095   6.630   4.521
 4888SOL    HW115563   2.195   6.635   4.527
 4888SOL    HW215564   2.062   6.560   4.584
 4889SOL     OW15565   6.139   0.974   6.513
 4889SOL    HW115566   6.096   0.928   6.591
 4889SOL    HW215567   6.238   0.983   6.530
 4890SOL     OW15568   0.904   1.719   6.011
 4890SOL    HW115569   0.943   1.645   6.066
 4890SOL    HW215570   0.973   1.752   5.946
 4891SOL     OW15571   1.401   4.999   0.090
 4891SOL    HW115572   1.474   5.029   0.030
 4891SOL    HW215573   1.319   4.979   0.036
 4892SOL     OW15574   3.459   5.868   1.574
 4892SOL    HW115575   3.420   5.957   1.599
 4892SOL    HW215576   3.496   5.823   1.655
 4893SOL     OW15577   0.152   4.040   1.777
 4893SOL    HW115578   0.155   3.956   1.830
 4893SOL    HW215579   0.227   4.040   1.710
 4894SOL     OW15580   2.492   1.836   2.531
 4894SOL    HW115581   2.554   1.771   2.575
 4894SOL    HW215582   2.545   1.914   2.496
 4895SOL     OW15583   1.137   5.587   3.098
 4895SOL    HW115584   1.177   5.584   3.190
 4895SOL    HW215585   1.205   5.559   3.031
 4896SOL     OW15586   2.270   5.774   1.712
 4896SOL    HW115587   2.250   5.871   1.726
 4896SOL    HW215588   2.207   5.719   1.766
 4897SOL     OW15589   2.277   4.583   6.189
 4897SOL    HW115590   2.253   4.495   6.230
 4897SOL    HW215591   2.337   4.633   6.251
 4898SOL     OW15592   4.015   1.769   3.732
 4898SOL    HW115593   4.110   1.802   3.735
 4898SOL    HW215594   4.014   1.670   3.738
 4899SOL     OW15595   6.153   5.673   3.401
 4899SOL    HW115596   6.250   5.694   3.411
 4899SOL    HW215597   6.128   5.675   3.304
 4900SOL     OW15598   1.902   5.596   4.632
 4900SOL    HW115599   1.885   5.510   4.682
 4900SOL    HW215600   1.910   5.577   4.534
 4901SOL     OW15601   3.351   6.528   6.322
 4901SOL    HW115602   3.299   6.613   6.314
 4901SOL    HW215603   3.437   6.536   6.272
 4902SOL     OW15604   2.539   1.926   4.746
 4902SOL    HW115605   2.526   1.979   4.830
 4902SOL    HW215606   2.452   1.920   4.697
 4903SOL     OW15607   2.684   5.790   0.144
 4903SOL    HW115608   2.768   5.825   0.101
 4903SOL    HW215609   2.703   5.703   0.188
 4904SOL     OW15610   1.200   0.450   4.333
 4904SOL    HW115611   1.253   0.480   4.412
 4904SOL    HW215612   1.258   0.396   4.272
 4905SOL     OW15613   4.364   0.682   2.206
 4905SOL    HW115614   4.308   0.634   2.274
 4905SOL    HW215615   4.421   0.617   2.157
 4906SOL     OW15616   4.285   1.854   6.109
 4906SOL    HW115617   4.384   1.863   6.094
 4906SOL    HW215618   4.239   1.840   6.022
 4907SOL     OW15619   4.503   5.796   1.038
 4907SOL    HW115620   4.439   5.719   1.040
 4907SOL    HW215621   4.563   5.788   0.959
 4908SOL     OW15622   5.053   4.707   6.573
 4908SOL    HW115623   5.082   4.617   6.539
 4908SOL    HW215624   5.125   4.774   6.555
 4909SOL     OW15625   6.319   6.942   4.809
 4909SOL    HW115626   6.303   6.878   4.734
 4909SOL    HW215627   6.273   0.008   4.790
 4910SOL     OW15628   5.085   6.366   4.450
 4910SOL    HW115629   5.130   6.411   4.527
 4910SOL    HW215630   5.087   6.427   4.370
 4911SOL     OW15631   0.785   3.432   4.583
 4911SOL    HW115632   0.745   3.508   4.532
 4911SOL    HW215633   0.882   3.452   4.601
 4912SOL     OW15634   5.526   2.234   0.529
 4912SOL    HW115635   5.607   2.235   0.470
 4912SOL    HW215636   5.553   2.259   0.623
 4913SOL     OW15637   3.798   3.469   4.515
 4913SOL    HW115638   3.889   3.510   4.515
 4913SOL    HW215639   3.803   3.377   4.553
 4914SOL     OW15640   3.611   6.667   5.437
 4914SOL    HW115641   3.658   6.581   5.417
 4914SOL    HW215642   3.676   6.731   5.479
 4915SOL     OW15643   4.405   0.439   4.161
 4915SOL    HW115644   4.491   0.423   4.113
 4915SOL    HW215645   4.349   0.504   4.109
 4916SOL     OW15646   1.701   1.358   3.907
 4916SOL    HW115647   1.610   1.323   3.926
 4916SOL    HW215648   1.769   1.287   3.925
 4917SOL     OW15649   1.485   4.920   1.172
 4917SOL    HW115650   1.531   4.958   1.092
 4917SOL    HW215651   1.391   4.897   1.149
 4918SOL     OW15652   3.472   6.928   2.484
 4918SOL    HW115653   3.548   6.951   2.422
 4918SOL    HW215654   3.459   6.829   2.486
 4919SOL     OW15655   2.722   2.328   6.926
 4919SOL    HW115656   2.683   2.365   7.010
 4919SOL    HW215657   2.750   2.233   6.942
 4920SOL     OW15658   5.134   0.377   5.366
 4920SOL    HW115659   5.108   0.441   5.293
 4920SOL    HW215660   5.198   0.310   5.330
 4921SOL     OW15661   1.691   4.715   0.584
 4921SOL    HW115662   1.653   4.731   0.675
 4921SOL    HW215663   1.748   4.793   0.557
 4922SOL     OW15664   1.908   2.991   4.938
 4922SOL    HW115665   1.922   2.982   4.840
 4922SOL    HW215666   1.903   3.088   4.962
 4923SOL     OW15667   3.531   1.388   0.350
 4923SOL    HW115668   3.579   1.382   0.263
 4923SOL    HW215669   3.593   1.361   0.424
 4924SOL     OW15670   2.355   1.592   5.318
 4924SOL    HW115671   2.413   1.642   5.254
 4924SOL    HW215672   2.394   1.597   5.410
 4925SOL     OW15673   5.583   6.732   1.894
 4925SOL    HW115674   5.568   6.813   1.951
 4925SOL    HW215675   5.538   6.653   1.935
 4926SOL     OW15676   5.232   2.018   0.531
 4926SOL    HW115677   5.238   2.049   0.436
 4926SOL    HW215678   5.250   1.919   0.535
 4927SOL     OW15679   4.099   3.516   3.846
 4927SOL    HW115680   4.148   3.547   3.928
 4927SOL    HW215681   4.046   3.434   3.868
 4928SOL     OW15682   0.767   0.515   6.805
 4928SOL    HW115683   0.845   0.572   6.828
 4928SOL    HW215684   0.774   0.486   6.709
 4929SOL     OW15685   1.366   4.707   4.632
 4929SOL    HW115686   1.358   4.714   4.532
 4929SOL    HW215687   1.321   4.785   4.674
 4930SOL     OW15688   4.464   0.874   2.650
 4930SOL    HW115689   4.563   0.881   2.661
 4930SOL    HW215690   4.439   0.778   2.637
 4931SOL     OW15691   6.444   0.285   0.662
 4931SOL    HW115692   6.420   0.272   0.759
 4931SOL    HW215693   6.369   0.253   0.605
 4932SOL     OW15694   2.165   3.420   1.696
 4932SOL    HW115695   2.096   3.489   1.674
 4932SOL    HW215696   2.213   3.447   1.779
 4933SOL     OW15697   1.749   0.224   3.909
 4933SOL    HW115698   1.825   0.225   3.844
 4933SOL    HW215699   1.727   0.129   3.933
 4934SOL     OW15700   2.318   5.236   2.654
 4934SOL    HW115701   2.256   5.310   2.630
 4934SOL    HW215702   2.285   5.191   2.738
 4935SOL     OW15703   1.142   1.480   6.809
 4935SOL    HW115704   1.198   1.411   6.855
 4935SOL    HW215705   1.076   1.434   6.750
 4936SOL     OW15706   1.488   4.630   1.257
 4936SOL    HW115707   1.542   4.709   1.228
 4936SOL    HW215708   1.547   4.566   1.306
 4937SOL     OW15709   0.025   2.940   6.366
 4937SOL    HW115710   0.079   2.988   6.435
 4937SOL    HW215711   6.949   2.965   6.375
 4938SOL     OW15712   2.462   5.878   6.329
 4938SOL    HW115713   2.539   5.832   6.373
 4938SOL    HW215714   2.464   5.975   6.352
 4939SOL     OW15715   0.062   1.748   4.265
 4939SOL    HW115716   0.071   1.810   4.343
 4939SOL    HW215717   0.111   1.786   4.186
 4940SOL     OW15718   0.654   1.465   5.135
 4940SOL    HW115719   0.611   1.450   5.046
 4940SOL    HW215720   0.727   1.399   5.149
 4941SOL     OW15721   4.712   2.781   5.395
 4941SOL    HW115722   4.668   2.845   5.333
 4941SOL    HW215723   4.807   2.808   5.410
 4942SOL     OW15724   5.725   2.738   6.019
 4942SOL    HW115725   5.785   2.713   6.094
 4942SOL    HW215726   5.709   2.837   6.020
 4943SOL     OW15727   4.550   4.286   6.157
 4943SOL    HW115728   4.460   4.316   6.186
 4943SOL    HW215729   4.576   4.204   6.209
 4944SOL     OW15730   2.458   4.366   1.812
 4944SOL    HW115731   2.513   4.445   1.836
 4944SOL    HW215732   2.503   4.315   1.739
 4945SOL     OW15733   1.032   0.061   4.119
 4945SOL    HW115734   1.022   0.040   4.216
 4945SOL    HW215735   0.941   0.069   4.077
 4946SOL     OW15736   0.820   5.398   0.049
 4946SOL    HW115737   0.920   5.398   0.044
 4946SOL    HW215738   0.790   5.351   0.132
 4947SOL     OW15739   2.035   0.802   0.602
 4947SOL    HW115740   1.952   0.821   0.655
 4947SOL    HW215741   2.094   0.882   0.602
 4948SOL     OW15742   2.245   2.919   2.734
 4948SOL    HW115743   2.207   2.961   2.652
 4948SOL    HW215744   2.240   2.984   2.810
 4949SOL     OW15745   6.027   4.411   5.415
 4949SOL    HW115746   5.964   4.432   5.340
 4949SOL    HW215747   6.043   4.494   5.469
 4950SOL     OW15748   2.053   5.000   4.929
 4950SOL    HW115749   2.064   5.083   4.874
 4950SOL    HW215750   2.019   5.025   5.020
 4951SOL     OW15751   5.789   0.881   4.528
 4951SOL    HW115752   5.691   0.886   4.549
 4951SOL    HW215753   5.802   0.850   4.434
 4952SOL     OW15754   6.702   0.547   5.947
 4952SOL    HW115755   6.696   0.466   6.006
 4952SOL    HW215756   6.748   0.522   5.862
 4953SOL     OW15757   1.774   6.753   3.250
 4953SOL    HW115758   1.770   6.829   3.316
 4953SOL    HW215759   1.747   6.786   3.160
 4954SOL     OW15760   2.895   3.236   0.286
 4954SOL    HW115761   2.909   3.138   0.294
 4954SOL    HW215762   2.927   3.282   0.369
 4955SOL     OW15763   3.121   6.548   6.874
 4955SOL    HW115764   3.173   6.497   6.805
 4955SOL    HW215765   3.108   6.491   6.955
 4956SOL     OW15766   2.495   6.630   5.347
 4956SOL    HW115767   2.462   6.540   5.319
 4956SOL    HW215768   2.425   6.676   5.401
 4957SOL     OW15769   5.575   2.684   1.671
 4957SOL    HW115770   5.586   2.631   1.755
 4957SOL    HW215771   5.489   2.734   1.674
 4958SOL     OW15772   0.439   5.328   5.786
 4958SOL    HW115773   0.357   5.361   5.832
 4958SOL    HW215774   0.422   5.323   5.687
 4959SOL     OW15775   5.966   1.635   0.461
 4959SOL    HW115776   6.048   1.672   0.417
 4959SOL    HW215777   5.970   1.654   0.559
 4960SOL     OW15778   3.526   5.011   3.455
 4960SOL    HW115779   3.440   4.994   3.405
 4960SOL    HW215780   3.601   5.018   3.390
 4961SOL     OW15781   3.832   1.243   5.911
 4961SOL    HW115782   3.780   1.213   5.990
 4961SOL    HW215783   3.830   1.173   5.840
 4962SOL     OW15784   5.508   2.341   0.070
 4962SOL    HW115785   5.539   2.400   7.017
 4962SOL    HW215786   5.528   2.384   0.158
 4963SOL     OW15787   6.940   6.239   1.059
 4963SOL    HW115788   6.932   6.224   1.158
 4963SOL    HW215789   6.854   6.217   1.014
 4964SOL     OW15790   2.859   0.840   4.119
 4964SOL    HW115791   2.866   0.742   4.136
 4964SOL    HW215792   2.951   0.880   4.112
 4965SOL     OW15793   0.435   0.988   2.233
 4965SOL    HW115794   0.380   1.060   2.275
 4965SOL    HW215795   0.517   0.973   2.288
 4966SOL     OW15796   2.653   6.312   5.390
 4966SOL    HW115797   2.683   6.396   5.344
 4966SOL    HW215798   2.563   6.286   5.354
 4967SOL     OW15799   3.729   4.984   4.736
 4967SOL    HW115800   3.701   4.986   4.639
 4967SOL    HW215801   3.649   4.999   4.794
 4968SOL     OW15802   6.773   2.124   4.007
 4968SOL    HW115803   6.738   2.045   4.057
 4968SOL    HW215804   6.724   2.132   3.920
 4969SOL     OW15805   2.391   5.523   3.030
 4969SOL    HW115806   2.409   5.538   3.128
 4969SOL    HW215807   2.369   5.427   3.015
 4970SOL     OW15808   2.726   2.359   2.586
 4970SOL    HW115809   2.789   2.323   2.517
 4970SOL    HW215810   2.771   2.361   2.675
 4971SOL     OW15811   5.879   5.914   3.248
 4971SOL    HW115812   5.874   5.932   3.346
 4971SOL    HW215813   5.895   5.816   3.233
 4972SOL     OW15814   0.789   3.629   0.724
 4972SOL    HW115815   0.798   3.668   0.632
 4972SOL    HW215816   0.777   3.530   0.718
 4973SOL     OW15817   1.540   0.167   2.315
 4973SOL    HW115818   1.546   0.233   2.390
 4973SOL    HW215819   1.473   0.198   2.248
 4974SOL     OW15820   6.741   4.258   1.175
 4974SOL    HW115821   6.758   4.347   1.218
 4974SOL    HW215822   6.713   4.192   1.245
 4975SOL     OW15823   6.265   3.874   5.976
 4975SOL    HW115824   6.201   3.930   6.029
 4975SOL    HW215825   6.322   3.933   5.919
 4976SOL     OW15826   1.945   1.238   3.710
 4976SOL    HW115827   2.037   1.258   3.674
 4976SOL    HW215828   1.948   1.240   3.810
 4977SOL     OW15829   3.995   4.559   6.744
 4977SOL    HW115830   3.921   4.492   6.754
 4977SOL    HW215831   3.994   4.597   6.652
 4978SOL     OW15832   6.804   4.539   5.185
 4978SOL    HW115833   6.830   4.455   5.138
 4978SOL    HW215834   6.815   4.528   5.283
 4979SOL     OW15835   0.111   6.692   6.717
 4979SOL    HW115836   0.125   6.603   6.675
 4979SOL    HW215837   0.133   6.764   6.652
 4980SOL     OW15838   5.247   6.457   3.109
 4980SOL    HW115839   5.331   6.416   3.143
 4980SOL    HW215840   5.252   6.467   3.009
 4981SOL     OW15841   4.443   5.195   0.228
 4981SOL    HW115842   4.466   5.112   0.279
 4981SOL    HW215843   4.527   5.234   0.189
 4982SOL     OW15844   2.947   1.084   5.338
 4982SOL    HW115845   2.945   1.184   5.336
 4982SOL    HW215846   2.993   1.050   5.256
 4983SOL     OW15847   5.796   3.777   5.620
 4983SOL    HW115848   5.781   3.768   5.521
 4983SOL    HW215849   5.894   3.778   5.639
 4984SOL     OW15850   5.083   4.277   3.623
 4984SOL    HW115851   5.048   4.208   3.559
 4984SOL    HW215852   5.154   4.331   3.579
 4985SOL     OW15853   5.645   0.009   3.433
 4985SOL    HW115854   5.571   6.993   3.376
 4985SOL    HW215855   5.728   0.020   3.378
 4986SOL     OW15856   0.053   4.253   1.945
 4986SOL    HW115857   0.078   4.167   1.899
 4986SOL    HW215858   6.993   4.238   2.002
 4987SOL     OW15859   1.425   0.505   2.324
 4987SOL    HW115860   1.512   0.535   2.365
 4987SOL    HW215861   1.373   0.454   2.392
 4988SOL     OW15862   5.371   0.973   2.136
 4988SOL    HW115863   5.416   1.058   2.107
 4988SOL    HW215864   5.370   0.968   2.236
 4989SOL     OW15865   5.132   0.043   1.628
 4989SOL    HW115866   5.227   0.072   1.635
 4989SOL    HW215867   5.115   0.004   1.537
 4990SOL     OW15868   2.565   2.164   5.463
 4990SOL    HW115869   2.656   2.189   5.496
 4990SOL    HW215870   2.561   2.179   5.364
 4991SOL     OW15871   5.925   5.338   3.444
 4991SOL    HW115872   5.919   5.240   3.464
 4991SOL    HW215873   5.850   5.386   3.491
 4992SOL     OW15874   4.696   0.703   2.999
 4992SOL    HW115875   4.635   0.689   3.078
 4992SOL    HW215876   4.785   0.660   3.018
 4993SOL     OW15877   3.106   5.999   4.301
 4993SOL    HW115878   3.063   5.911   4.281
 4993SOL    HW215879   3.101   6.016   4.399
 4994SOL     OW15880   2.029   0.915   3.864
 4994SOL    HW115881   2.097   0.932   3.793
 4994SOL    HW215882   1.937   0.928   3.827
 4995SOL     OW15883   0.160   2.612   5.508
 4995SOL    HW115884   0.078   2.666   5.528
 4995SOL    HW215885   0.136   2.535   5.448
 4996SOL     OW15886   0.876   1.503   2.883
 4996SOL    HW115887   0.925   1.424   2.844
 4996SOL    HW215888   0.915   1.587   2.847
 4997SOL     OW15889   5.307   2.682   2.767
 4997SOL    HW115890   5.351   2.710   2.852
 4997SOL    HW215891   5.374   2.638   2.707
 4998SOL     OW15892   2.206   4.179   4.782
 4998SOL    HW115893   2.232   4.105   4.845
 4998SOL    HW215894   2.145   4.142   4.712
 4999SOL     OW15895   6.278   3.848   0.308
 4999SOL    HW115896   6.376   3.867   0.314
 4999SOL    HW215897   6.244   3.820   0.398
 5000SOL     OW15898   3.587   6.543   3.215
 5000SOL    HW115899   3.568   6.641   3.221
 5000SOL    HW215900   3.546   6.496   3.293
 5001SOL     OW15901   6.924   3.744   1.138
 5001SOL    HW115902   6.980   3.663   1.125
 5001SOL    HW215903   6.982   3.822   1.160
 5002SOL     OW15904   0.208   3.218   2.925
 5002SOL    HW115905   0.221   3.292   2.992
 5002SOL    HW215906   0.280   3.223   2.857
 5003SOL     OW15907   2.783   6.143   2.607
 5003SOL    HW115908   2.847   6.153   2.530
 5003SOL    HW215909   2.832   6.106   2.686
 5004SOL     OW15910   2.976   5.406   5.895
 5004SOL    HW115911   3.004   5.311   5.880
 5004SOL    HW215912   2.992   5.430   5.991
 5005SOL     OW15913   3.229   2.935   0.595
 5005SOL    HW115914   3.300   3.002   0.619
 5005SOL    HW215915   3.143   2.961   0.639
 5006SOL     OW15916   5.052   0.239   0.449
 5006SOL    HW115917   5.105   0.178   0.390
 5006SOL    HW215918   5.113   0.283   0.515
 5007SOL     OW15919   1.148   6.930   0.757
 5007SOL    HW115920   1.120   0.006   0.759
 5007SOL    HW215921   1.088   6.878   0.696
 5008SOL     OW15922   5.797   0.204   1.769
 5008SOL    HW115923   5.795   0.107   1.790
 5008SOL    HW215924   5.705   0.237   1.751
 5009SOL     OW15925   0.991   0.499   1.079
 5009SOL    HW115926   1.071   0.534   1.031
 5009SOL    HW215927   0.909   0.543   1.043
 5010SOL     OW15928   4.159   3.357   2.426
 5010SOL    HW115929   4.222   3.306   2.368
 5010SOL    HW215930   4.112   3.294   2.488
 5011SOL     OW15931   1.776   3.972   2.137
 5011SOL    HW115932   1.866   3.975   2.181
 5011SOL    HW215933   1.761   4.057   2.086
 5012SOL     OW15934   5.952   3.976   6.567
 5012SOL    HW115935   5.867   4.025   6.588
 5012SOL    HW215936   6.019   4.041   6.531
 5013SOL     OW15937   5.029   1.344   6.813
 5013SOL    HW115938   5.051   1.420   6.874
 5013SOL    HW215939   4.967   1.376   6.741
 5014SOL     OW15940   6.231   4.910   0.669
 5014SOL    HW115941   6.233   4.935   0.572
 5014SOL    HW215942   6.312   4.856   0.692
 5015SOL     OW15943   4.690   2.086   4.635
 5015SOL    HW115944   4.693   1.999   4.586
 5015SOL    HW215945   4.611   2.087   4.697
 5016SOL     OW15946   1.572   2.653   0.384
 5016SOL    HW115947   1.617   2.722   0.327
 5016SOL    HW215948   1.581   2.679   0.480
 5017SOL     OW15949   1.690   2.884   0.279
 5017SOL    HW115950   1.631   2.948   0.327
 5017SOL    HW215951   1.786   2.906   0.298
 5018SOL     OW15952   0.437   3.736   2.511
 5018SOL    HW115953   0.417   3.712   2.416
 5018SOL    HW215954   0.365   3.796   2.546
 5019SOL     OW15955   1.286   4.603   6.258
 5019SOL    HW115956   1.313   4.507   6.264
 5019SOL    HW215957   1.294   4.646   6.348
 5020SOL     OW15958   4.977   0.511   6.245
 5020SOL    HW115959   5.075   0.496   6.235
 5020SOL    HW215960   4.936   0.434   6.294
 5021SOL     OW15961   0.837   1.117   6.570
 5021SOL    HW115962   0.790   1.091   6.655
 5021SOL    HW215963   0.868   1.035   6.523
 5022SOL     OW15964   0.858   1.531   6.431
 5022SOL    HW115965   0.839   1.622   6.467
 5022SOL    HW215966   0.774   1.493   6.391
 5023SOL     OW15967   6.751   2.659   1.254
 5023SOL    HW115968   6.733   2.679   1.351
 5023SOL    HW215969   6.829   2.713   1.223
 5024SOL     OW15970   6.265   5.193   1.543
 5024SOL    HW115971   6.316   5.228   1.622
 5024SOL    HW215972   6.173   5.231   1.543
 5025SOL     OW15973   3.211   1.657   2.119
 5025SOL    HW115974   3.197   1.624   2.212
 5025SOL    HW215975   3.181   1.587   2.054
 5026SOL     OW15976   6.501   5.833   5.965
 5026SOL    HW115977   6.507   5.929   5.992
 5026SOL    HW215978   6.449   5.826   5.880
 5027SOL     OW15979   0.042   6.785   2.140
 5027SOL    HW115980   0.044   6.832   2.052
 5027SOL    HW215981   0.131   6.794   2.185
 5028SOL     OW15982   0.152   1.658   2.746
 5028SOL    HW115983   0.074   1.673   2.806
 5028SOL    HW215984   0.237   1.665   2.799
 5029SOL     OW15985   6.297   2.689   2.490
 5029SOL    HW115986   6.373   2.733   2.443
 5029SOL    HW215987   6.257   2.619   2.431
 5030SOL     OW15988   6.872   0.103   0.487
 5030SOL    HW115989   6.792   0.162   0.491
 5030SOL    HW215990   6.895   0.071   0.579
 5031SOL     OW15991   5.572   6.907   5.206
 5031SOL    HW115992   5.534   6.906   5.114
 5031SOL    HW215993   5.548   6.822   5.252
 5032SOL     OW15994   2.317   2.476   0.939
 5032SOL    HW115995   2.340   2.426   1.022
 5032SOL    HW215996   2.254   2.550   0.961
 5033SOL     OW15997   2.529   6.530   5.748
 5033SOL    HW115998   2.567   6.545   5.839
 5033SOL    HW215999   2.574   6.451   5.705
 5034SOL     OW16000   4.932   0.494   3.055
 5034SOL    HW116001   4.992   0.506   2.976
 5034SOL    HW216002   4.932   0.397   3.081
 5035SOL     OW16003   0.462   4.126   0.164
 5035SOL    HW116004   0.554   4.105   0.198
 5035SOL    HW216005   0.460   4.219   0.127
 5036SOL     OW16006   0.435   4.920   0.073
 5036SOL    HW116007   0.355   4.980   0.069
 5036SOL    HW216008   0.407   4.826   0.055
 5037SOL     OW16009   4.892   3.210   3.224
 5037SOL    HW116010   4.806   3.234   3.269
 5037SOL    HW216011   4.962   3.193   3.293
 5038SOL     OW16012   2.768   3.977   6.027
 5038SOL    HW116013   2.685   3.933   5.991
 5038SOL    HW216014   2.748   4.015   6.117
 5039SOL     OW16015   3.370   4.624   5.395
 5039SOL    HW116016   3.300   4.572   5.346
 5039SOL    HW216017   3.334   4.654   5.483
 5040SOL     OW16018   1.500   5.976   6.084
 5040SOL    HW116019   1.506   5.992   6.183
 5040SOL    HW216020   1.415   6.014   6.049
 5041SOL     OW16021   1.662   1.447   2.461
 5041SOL    HW116022   1.690   1.496   2.379
 5041SOL    HW216023   1.714   1.481   2.540
 5042SOL     OW16024   6.488   2.774   0.650
 5042SOL    HW116025   6.539   2.688   0.655
 5042SOL    HW216026   6.393   2.755   0.626
 5043SOL     OW16027   3.516   0.223   6.197
 5043SOL    HW116028   3.462   0.302   6.169
 5043SOL    HW216029   3.608   0.229   6.158
 5044SOL     OW16030   0.852   6.774   0.336
 5044SOL    HW116031   0.944   6.781   0.373
 5044SOL    HW216032   0.790   6.832   0.388
 5045SOL     OW16033   5.397   1.381   6.493
 5045SOL    HW116034   5.465   1.353   6.561
 5045SOL    HW216035   5.443   1.423   6.414
 5046SOL     OW16036   3.639   4.055   2.765
 5046SOL    HW116037   3.641   4.096   2.856
 5046SOL    HW216038   3.580   3.974   2.766
 5047SOL     OW16039   0.057   3.619   2.287
 5047SOL    HW116040   0.057   3.591   2.192
 5047SOL    HW216041   6.987   3.655   2.311
 5048SOL     OW16042   0.224   1.408   1.960
 5048SOL    HW116043   0.127   1.408   1.936
 5048SOL    HW216044   0.261   1.315   1.951
 5049SOL     OW16045   6.012   2.075   5.997
 5049SOL    HW116046   6.021   1.980   6.026
 5049SOL    HW216047   5.951   2.080   5.918
 5050SOL     OW16048   1.469   1.096   1.133
 5050SOL    HW116049   1.519   1.009   1.129
 5050SOL    HW216050   1.442   1.115   1.227
 5051SOL     OW16051   4.721   4.806   0.991
 5051SOL    HW116052   4.719   4.708   0.971
 5051SOL    HW216053   4.635   4.834   1.032
 5052SOL     OW16054   2.197   0.262   6.327
 5052SOL    HW116055   2.179   0.282   6.231
 5052SOL    HW216056   2.289   0.223   6.337
 5053SOL     OW16057   2.226   4.204   3.033
 5053SOL    HW116058   2.148   4.212   3.095
 5053SOL    HW216059   2.259   4.110   3.032
 5054SOL     OW16060   3.469   6.113   4.690
 5054SOL    HW116061   3.410   6.040   4.654
 5054SOL    HW216062   3.469   6.190   4.626
 5055SOL     OW16063   1.645   0.986   5.573
 5055SOL    HW116064   1.719   1.053   5.560
 5055SOL    HW216065   1.652   0.915   5.503
 5056SOL     OW16066   6.595   4.943   0.545
 5056SOL    HW116067   6.678   4.913   0.592
 5056SOL    HW216068   6.589   4.899   0.455
 5057SOL     OW16069   0.452   5.907   4.895
 5057SOL    HW116070   0.410   5.993   4.922
 5057SOL    HW216071   0.462   5.904   4.796
 5058SOL     OW16072   2.841   3.514   5.432
 5058SOL    HW116073   2.904   3.548   5.363
 5058SOL    HW216074   2.892   3.480   5.511
 5059SOL     OW16075   5.712   1.562   3.491
 5059SOL    HW116076   5.617   1.530   3.481
 5059SOL    HW216077   5.738   1.558   3.587
 5060SOL     OW16078   1.427   1.852   5.160
 5060SOL    HW116079   1.333   1.885   5.152
 5060SOL    HW216080   1.427   1.761   5.201
 5061SOL     OW16081   4.060   3.479   2.105
 5061SOL    HW116082   4.031   3.385   2.125
 5061SOL    HW216083   4.122   3.478   2.026
 5062SOL     OW16084   5.260   0.854   3.679
 5062SOL    HW116085   5.307   0.914   3.744
 5062SOL    HW216086   5.170   0.830   3.715
 5063SOL     OW16087   1.186   0.087   2.462
 5063SOL    HW116088   1.157   0.074   2.557
 5063SOL    HW216089   1.219   0.181   2.451
 5064SOL     OW16090   5.146   4.045   1.902
 5064SOL    HW116091   5.116   3.956   1.869
 5064SOL    HW216092   5.159   4.108   1.825
 5065SOL     OW16093   1.443   1.878   3.681
 5065SOL    HW116094   1.429   1.969   3.644
 5065SOL    HW216095   1.354   1.834   3.696
 5066SOL     OW16096   4.179   4.944   1.301
 5066SOL    HW116097   4.154   4.848   1.292
 5066SOL    HW216098   4.113   5.001   1.251
 5067SOL     OW16099   3.527   0.875   1.926
 5067SOL    HW116100   3.474   0.822   1.993
 5067SOL    HW216101   3.618   0.835   1.917
 5068SOL     OW16102   2.179   4.826   6.396
 5068SOL    HW116103   2.211   4.878   6.317
 5068SOL    HW216104   2.084   4.850   6.416
 5069SOL     OW16105   2.346   3.179   5.639
 5069SOL    HW116106   2.303   3.171   5.549
 5069SOL    HW216107   2.410   3.256   5.639
 5070SOL     OW16108   4.174   4.740   3.810
 5070SOL    HW116109   4.165   4.839   3.824
 5070SOL    HW216110   4.265   4.721   3.774
 5071SOL     OW16111   4.214   1.513   3.042
 5071SOL    HW116112   4.153   1.464   2.980
 5071SOL    HW216113   4.186   1.497   3.136
 5072SOL     OW16114   1.098   0.928   1.660
 5072SOL    HW116115   1.096   1.025   1.683
 5072SOL    HW216116   1.142   0.915   1.571
 5073SOL     OW16117   0.428   5.762   1.859
 5073SOL    HW116118   0.412   5.810   1.946
 5073SOL    HW216119   0.420   5.827   1.783
 5074SOL     OW16120   3.421   2.950   1.461
 5074SOL    HW116121   3.351   2.957   1.391
 5074SOL    HW216122   3.397   2.878   1.526
 5075SOL     OW16123   0.986   2.596   7.002
 5075SOL    HW116124   0.990   2.560   6.909
 5075SOL    HW216125   1.053   2.669   7.012
 5076SOL     OW16126   4.766   0.332   0.432
 5076SOL    HW116127   4.727   0.295   0.517
 5076SOL    HW216128   4.858   0.295   0.419
 5077SOL     OW16129   2.156   4.229   5.455
 5077SOL    HW116130   2.162   4.131   5.440
 5077SOL    HW216131   2.171   4.277   5.368
 5078SOL     OW16132   0.277   1.446   3.711
 5078SOL    HW116133   0.216   1.408   3.641
 5078SOL    HW216134   0.356   1.386   3.722
 5079SOL     OW16135   2.172   3.378   5.161
 5079SOL    HW116136   2.239   3.315   5.200
 5079SOL    HW216137   2.138   3.439   5.233
 5080SOL     OW16138   5.949   6.370   6.491
 5080SOL    HW116139   5.850   6.364   6.486
 5080SOL    HW216140   5.976   6.419   6.573
 5081SOL     OW16141   3.403   3.282   4.791
 5081SOL    HW116142   3.427   3.372   4.754
 5081SOL    HW216143   3.426   3.279   4.889
 5082SOL     OW16144   5.307   5.750   1.054
 5082SOL    HW116145   5.308   5.653   1.080
 5082SOL    HW216146   5.267   5.759   0.963
 5083SOL     OW16147   2.978   6.788   2.530
 5083SOL    HW116148   2.978   6.739   2.617
 5083SOL    HW216149   2.942   6.729   2.458
 5084SOL     OW16150   0.266   4.671   3.910
 5084SOL    HW116151   0.233   4.631   3.996
 5084SOL    HW216152   0.308   4.600   3.854
 5085SOL     OW16153   5.837   2.501   6.465
 5085SOL    HW116154   5.793   2.430   6.409
 5085SOL    HW216155   5.767   2.550   6.517
 5086SOL     OW16156   1.259   5.434   3.312
 5086SOL    HW116157   1.306   5.424   3.224
 5086SOL    HW216158   1.323   5.415   3.386
 5087SOL     OW16159   1.891   5.831   2.599
 5087SOL    HW116160   1.862   5.860   2.690
 5087SOL    HW216161   1.881   5.732   2.589
 5088SOL     OW16162   6.359   0.516   4.444
 5088SOL    HW116163   6.316   0.427   4.460
 5088SOL    HW216164   6.420   0.537   4.521
 5089SOL     OW16165   5.137   4.069   4.161
 5089SOL    HW116166   5.182   4.019   4.235
 5089SOL    HW216167   5.206   4.095   4.093
 5090SOL     OW16168   1.972   4.115   2.250
 5090SOL    HW116169   2.045   4.126   2.182
 5090SOL    HW216170   1.996   4.041   2.313
 5091SOL     OW16171   0.806   0.852   2.006
 5091SOL    HW116172   0.782   0.775   2.065
 5091SOL    HW216173   0.799   0.938   2.058
 5092SOL     OW16174   3.799   3.671   2.735
 5092SOL    HW116175   3.725   3.736   2.719
 5092SOL    HW216176   3.887   3.717   2.727
 5093SOL     OW16177   2.939   1.431   0.933
 5093SOL    HW116178   3.029   1.387   0.938
 5093SOL    HW216179   2.929   1.493   1.011
 5094SOL     OW16180   2.464   5.308   5.933
 5094SOL    HW116181   2.545   5.363   5.911
 5094SOL    HW216182   2.414   5.289   5.848
 5095SOL     OW16183   6.420   2.095   3.757
 5095SOL    HW116184   6.356   2.158   3.714
 5095SOL    HW216185   6.390   2.075   3.850
 5096SOL     OW16186   3.796   4.817   0.267
 5096SOL    HW116187   3.731   4.828   0.192
 5096SOL    HW216188   3.853   4.736   0.251
 5097SOL     OW16189   1.451   0.636   6.578
 5097SOL    HW116190   1.363   0.641   6.625
 5097SOL    HW216191   1.479   0.728   6.551
 5098SOL     OW16192   2.577   6.970   1.954
 5098SOL    HW116193   2.666   6.980   1.997
 5098SOL    HW216194   2.563   0.024   1.888
 5099SOL     OW16195   1.087   6.958   0.211
 5099SOL    HW116196   1.079   6.906   0.125
 5099SOL    HW216197   1.172   6.933   0.257
 5100SOL     OW16198   3.186   5.638   4.846
 5100SOL    HW116199   3.130   5.560   4.873
 5100SOL    HW216200   3.281   5.608   4.833
 5101SOL     OW16201   5.550   0.154   0.538
 5101SOL    HW116202   5.619   0.225   0.524
 5101SOL    HW216203   5.459   0.191   0.519
 5102SOL     OW16204   5.568   6.252   4.353
 5102SOL    HW116205   5.592   6.292   4.265
 5102SOL    HW216206   5.469   6.238   4.357
 5103SOL     OW16207   0.178   0.646   3.540
 5103SOL    HW116208   0.182   0.744   3.554
 5103SOL    HW216209   0.082   0.616   3.540
 5104SOL     OW16210   1.915   6.529   2.778
 5104SOL    HW116211   2.004   6.524   2.732
 5104SOL    HW216212   1.929   6.542   2.876
 5105SOL     OW16213   3.294   3.203   0.870
 5105SOL    HW116214   3.198   3.203   0.841
 5105SOL    HW216215   3.313   3.118   0.921
 5106SOL     OW16216   4.472   1.532   0.195
 5106SOL    HW116217   4.478   1.492   0.103
 5106SOL    HW216218   4.429   1.466   0.257
 5107SOL     OW16219   3.330   1.595   0.399
 5107SOL    HW116220   3.410   1.538   0.383
 5107SOL    HW216221   3.344   1.685   0.359
 5108SOL     OW16222   3.644   3.607   5.052
 5108SOL    HW116223   3.689   3.535   4.999
 5108SOL    HW216224   3.584   3.565   5.121
 5109SOL     OW16225   1.139   1.608   0.661
 5109SOL    HW116226   1.212   1.620   0.727
 5109SOL    HW216227   1.087   1.693   0.652
 5110SOL     OW16228   0.066   0.479   5.919
 5110SOL    HW116229   6.993   0.455   5.891
 5110SOL    HW216230   0.085   0.438   6.008
 5111SOL     OW16231   1.626   1.336   4.837
 5111SOL    HW116232   1.667   1.423   4.811
 5111SOL    HW216233   1.672   1.300   4.918
 5112SOL     OW16234   2.135   0.954   2.903
 5112SOL    HW116235   2.042   0.944   2.938
 5112SOL    HW216236   2.132   0.971   2.805
 5113SOL     OW16237   2.139   0.311   1.136
 5113SOL    HW116238   2.138   0.289   1.233
 5113SOL    HW216239   2.112   0.231   1.083
 5114SOL     OW16240   3.135   1.161   6.759
 5114SOL    HW116241   3.079   1.123   6.832
 5114SOL    HW216242   3.184   1.087   6.712
 5115SOL     OW16243   1.821   4.884   4.211
 5115SOL    HW116244   1.787   4.821   4.281
 5115SOL    HW216245   1.921   4.884   4.212
 5116SOL     OW16246   6.749   0.191   5.651
 5116SOL    HW116247   6.669   0.212   5.595
 5116SOL    HW216248   6.743   0.096   5.682
 5117SOL     OW16249   2.296   4.384   4.634
 5117SOL    HW116250   2.294   4.292   4.672
 5117SOL    HW216251   2.209   4.430   4.651
 5118SOL     OW16252   5.362   0.139   7.008
 5118SOL    HW116253   5.307   0.129   0.071
 5118SOL    HW216254   5.444   0.082   7.015
 5119SOL     OW16255   4.892   0.815   2.020
 5119SOL    HW116256   4.951   0.856   1.951
 5119SOL    HW216257   4.934   0.824   2.110
 5120SOL     OW16258   3.418   0.923   3.889
 5120SOL    HW116259   3.409   1.016   3.924
 5120SOL    HW216260   3.489   0.875   3.941
 5121SOL     OW16261   2.603   2.015   6.200
 5121SOL    HW116262   2.529   1.975   6.147
 5121SOL    HW216263   2.629   1.952   6.274
 5122SOL     OW16264   3.777   6.643   2.750
 5122SOL    HW116265   3.720   6.722   2.727
 5122SOL    HW216266   3.873   6.670   2.755
 5123SOL     OW16267   4.502   2.148   4.857
 5123SOL    HW116268   4.539   2.195   4.938
 5123SOL    HW216269   4.464   2.216   4.794
 5124SOL     OW16270   2.337   5.296   4.981
 5124SOL    HW116271   2.429   5.333   4.965
 5124SOL    HW216272   2.344   5.199   5.006
 5125SOL     OW16273   6.141   3.363   4.630
 5125SOL    HW116274   6.079   3.306   4.576
 5125SOL    HW216275   6.201   3.304   4.684
 5126SOL     OW16276   6.513   5.033   5.116
 5126SOL    HW116277   6.434   5.039   5.054
 5126SOL    HW216278   6.561   4.947   5.100
 5127SOL     OW16279   1.251   3.829   0.126
 5127SOL    HW116280   1.270   3.789   0.036
 5127SOL    HW216281   1.237   3.755   0.192
 5128SOL     OW16282   6.400   0.202   6.230
 5128SOL    HW116283   6.370   0.272   6.166
 5128SOL    HW216284   6.327   0.134   6.242
 5129SOL     OW16285   5.753   0.233   2.763
 5129SOL    HW116286   5.774   0.330   2.746
 5129SOL    HW216287   5.749   0.216   2.861
 5130SOL     OW16288   0.945   5.696   3.509
 5130SOL    HW116289   1.042   5.692   3.485
 5130SOL    HW216290   0.935   5.699   3.609
 5131SOL     OW16291   2.593   5.063   3.490
 5131SOL    HW116292   2.615   5.023   3.402
 5131SOL    HW216293   2.607   4.996   3.562
 5132SOL     OW16294   3.495   2.717   5.829
 5132SOL    HW116295   3.495   2.639   5.766
 5132SOL    HW216296   3.522   2.800   5.779
 5133SOL     OW16297   1.428   5.637   0.048
 5133SOL    HW116298   1.433   5.552   0.100
 5133SOL    HW216299   1.409   5.616   6.973
 5134SOL     OW16300   6.799   1.653   2.203
 5134SOL    HW116301   6.811   1.680   2.107
 5134SOL    HW216302   6.888   1.635   2.244
 5135SOL     OW16303   5.456   3.502   4.245
 5135SOL    HW116304   5.526   3.431   4.238
 5135SOL    HW216305   5.468   3.552   4.331
 5136SOL     OW16306   5.213   0.580   6.619
 5136SOL    HW116307   5.238   0.487   6.592
 5136SOL    HW216308   5.134   0.610   6.565
 5137SOL     OW16309   4.387   3.967   5.650
 5137SOL    HW116310   4.422   3.957   5.557
 5137SOL    HW216311   4.383   3.876   5.694
 5138SOL     OW16312   3.824   3.047   5.411
 5138SOL    HW116313   3.751   3.066   5.345
 5138SOL    HW216314   3.863   2.957   5.393
 5139SOL     OW16315   1.264   1.105   3.515
 5139SOL    HW116316   1.304   1.117   3.424
 5139SOL    HW216317   1.332   1.065   3.577
 5140SOL     OW16318   3.846   2.198   5.670
 5140SOL    HW116319   3.767   2.153   5.711
 5140SOL    HW216320   3.924   2.192   5.733
 5141SOL     OW16321   6.018   3.486   0.796
 5141SOL    HW116322   5.935   3.463   0.745
 5141SOL    HW216323   5.993   3.536   0.879
 5142SOL     OW16324   5.933   6.442   2.939
 5142SOL    HW116325   5.861   6.430   3.007
 5142SOL    HW216326   5.991   6.361   2.935
 5143SOL     OW16327   6.501   4.297   4.277
 5143SOL    HW116328   6.570   4.250   4.222
 5143SOL    HW216329   6.414   4.248   4.273
 5144SOL     OW16330   0.821   4.772   5.362
 5144SOL    HW116331   0.735   4.790   5.410
 5144SOL    HW216332   0.893   4.830   5.400
 5145SOL     OW16333   3.964   5.841   6.705
 5145SOL    HW116334   4.058   5.863   6.682
 5145SOL    HW216335   3.960   5.752   6.751
 5146SOL     OW16336   2.901   3.737   5.597
 5146SOL    HW116337   2.872   3.727   5.692
 5146SOL    HW216338   2.882   3.652   5.548
 5147SOL     OW16339   6.433   5.825   3.083
 5147SOL    HW116340   6.383   5.750   3.125
 5147SOL    HW216341   6.413   5.828   2.985
 5148SOL     OW16342   6.674   0.986   1.841
 5148SOL    HW116343   6.689   0.947   1.931
 5148SOL    HW216344   6.578   1.014   1.833
 5149SOL     OW16345   6.497   6.110   3.461
 5149SOL    HW116346   6.479   6.131   3.557
 5149SOL    HW216347   6.533   6.192   3.415
 5150SOL     OW16348   2.457   5.643   3.290
 5150SOL    HW116349   2.465   5.643   3.390
 5150SOL    HW216350   2.469   5.736   3.256
 5151SOL     OW16351   6.838   3.744   2.324
 5151SOL    HW116352   6.777   3.729   2.246
 5151SOL    HW216353   6.801   3.816   2.383
 5152SOL     OW16354   1.730   5.251   0.382
 5152SOL    HW116355   1.828   5.252   0.400
 5152SOL    HW216356   1.706   5.331   0.326
 5153SOL     OW16357   1.260   1.484   0.402
 5153SOL    HW116358   1.250   1.536   0.486
 5153SOL    HW216359   1.309   1.539   0.334
 5154SOL     OW16360   1.362   2.827   6.185
 5154SOL    HW116361   1.443   2.820   6.127
 5154SOL    HW216362   1.314   2.913   6.165
 5155SOL     OW16363   4.281   6.879   1.887
 5155SOL    HW116364   4.341   6.952   1.855
 5155SOL    HW216365   4.296   6.863   1.985
 5156SOL     OW16366   5.497   4.200   5.760
 5156SOL    HW116367   5.550   4.212   5.843
 5156SOL    HW216368   5.551   4.150   5.692
 5157SOL     OW16369   3.676   1.832   3.466
 5157SOL    HW116370   3.591   1.806   3.420
 5157SOL    HW216371   3.654   1.884   3.549
 5158SOL     OW16372   3.917   2.199   1.221
 5158SOL    HW116373   3.960   2.112   1.198
 5158SOL    HW216374   3.849   2.222   1.152
 5159SOL     OW16375   5.988   3.482   5.519
 5159SOL    HW116376   5.890   3.477   5.539
 5159SOL    HW216377   6.035   3.524   5.596
 5160SOL     OW16378   0.724   4.970   3.023
 5160SOL    HW116379   0.819   4.940   3.036
 5160SOL    HW216380   0.666   4.889   3.010
 5161SOL     OW16381   2.032   3.830   6.656
 5161SOL    HW116382   2.046   3.885   6.738
 5161SOL    HW216383   2.043   3.734   6.678
 5162SOL     OW16384   0.974   5.544   2.852
 5162SOL    HW116385   1.022   5.485   2.917
 5162SOL    HW216386   0.909   5.489   2.800
 5163SOL     OW16387   2.903   6.604   0.220
 5163SOL    HW116388   2.879   6.509   0.198
 5163SOL    HW216389   2.821   6.651   0.254
 5164SOL     OW16390   4.410   2.160   6.599
 5164SOL    HW116391   4.346   2.233   6.574
 5164SOL    HW216392   4.370   2.071   6.575
 5165SOL     OW16393   0.314   4.230   5.634
 5165SOL    HW116394   0.331   4.325   5.607
 5165SOL    HW216395   0.401   4.187   5.659
 5166SOL     OW16396   0.652   5.548   2.469
 5166SOL    HW116397   0.681   5.454   2.486
 5166SOL    HW216398   0.710   5.589   2.398
 5167SOL     OW16399   6.531   4.786   5.770
 5167SOL    HW116400   6.438   4.790   5.809
 5167SOL    HW216401   6.532   4.833   5.682
 5168SOL     OW16402   5.057   3.338   1.463
 5168SOL    HW116403   5.102   3.341   1.552
 5168SOL    HW216404   5.092   3.261   1.410
 5169SOL     OW16405   3.994   2.039   4.294
 5169SOL    HW116406   3.914   2.070   4.345
 5169SOL    HW216407   3.986   1.941   4.276
 5170SOL     OW16408   1.243   3.977   4.973
 5170SOL    HW116409   1.261   4.071   4.945
 5170SOL    HW216410   1.302   3.954   5.051
 5171SOL     OW16411   0.628   4.260   5.246
 5171SOL    HW116412   0.585   4.171   5.230
 5171SOL    HW216413   0.596   4.325   5.177
 5172SOL     OW16414   1.679   3.447   2.615
 5172SOL    HW116415   1.707   3.351   2.612
 5172SOL    HW216416   1.628   3.469   2.531
 5173SOL     OW16417   4.870   5.331   4.775
 5173SOL    HW116418   4.799   5.267   4.803
 5173SOL    HW216419   4.834   5.424   4.775
 5174SOL     OW16420   2.355   5.059   3.051
 5174SOL    HW116421   2.309   5.120   3.116
 5174SOL    HW216422   2.301   5.055   2.966
 5175SOL     OW16423   2.651   4.029   6.737
 5175SOL    HW116424   2.639   4.011   6.835
 5175SOL    HW216425   2.734   4.084   6.724
 5176SOL     OW16426   5.101   3.084   6.956
 5176SOL    HW116427   5.063   3.043   0.018
 5176SOL    HW216428   5.198   3.104   6.970
 5177SOL     OW16429   5.656   0.376   0.167
 5177SOL    HW116430   5.670   0.431   0.249
 5177SOL    HW216431   5.724   0.401   0.098
 5178SOL     OW16432   0.666   3.466   2.824
 5178SOL    HW116433   0.761   3.492   2.841
 5178SOL    HW216434   0.637   3.400   2.893
 5179SOL     OW16435   4.515   4.849   4.198
 5179SOL    HW116436   4.541   4.812   4.108
 5179SOL    HW216437   4.489   4.774   4.258
 5180SOL     OW16438   2.835   2.323   0.858
 5180SOL    HW116439   2.916   2.340   0.802
 5180SOL    HW216440   2.858   2.265   0.935
 5181SOL     OW16441   5.063   0.825   2.878
 5181SOL    HW116442   5.052   0.725   2.878
 5181SOL    HW216443   4.981   0.867   2.841
 5182SOL     OW16444   4.000   4.196   1.576
 5182SOL    HW116445   4.059   4.254   1.632
 5182SOL    HW216446   4.054   4.125   1.532
 5183SOL     OW16447   3.914   1.959   2.752
 5183SOL    HW116448   3.965   1.910   2.823
 5183SOL    HW216449   3.978   1.998   2.686
 5184SOL     OW16450   0.606   1.944   3.939
 5184SOL    HW116451   0.631   1.880   4.012
 5184SOL    HW216452   0.515   1.920   3.904
 5185SOL     OW16453   5.537   0.673   2.893
 5185SOL    HW116454   5.452   0.723   2.906
 5185SOL    HW216455   5.605   0.732   2.850
 5186SOL     OW16456   6.802   2.726   0.149
 5186SOL    HW116457   6.726   2.693   0.093
 5186SOL    HW216458   6.828   2.818   0.118
 5187SOL     OW16459   1.238   6.308   4.479
 5187SOL    HW116460   1.288   6.288   4.394
 5187SOL    HW216461   1.303   6.324   4.553
 5188SOL     OW16462   6.905   6.168   1.448
 5188SOL    HW116463   6.884   6.205   1.539
 5188SOL    HW216464   6.933   6.243   1.388
 5189SOL     OW16465   4.063   5.394   0.699
 5189SOL    HW116466   3.988   5.404   0.635
 5189SOL    HW216467   4.119   5.477   0.698
 5190SOL     OW16468   0.340   2.414   4.540
 5190SOL    HW116469   0.390   2.500   4.528
 5190SOL    HW216470   0.402   2.344   4.577
 5191SOL     OW16471   4.022   0.309   2.079
 5191SOL    HW116472   3.967   0.274   2.004
 5191SOL    HW216473   4.087   0.376   2.044
 5192SOL     OW16474   2.106   5.630   1.894
 5192SOL    HW116475   2.171   5.557   1.916
 5192SOL    HW216476   2.013   5.595   1.899
 5193SOL     OW16477   5.112   5.186   4.782
 5193SOL    HW116478   5.167   5.221   4.858
 5193SOL    HW216479   5.030   5.243   4.772
 5194SOL     OW16480   4.271   1.865   6.524
 5194SOL    HW116481   4.284   1.843   6.621
 5194SOL    HW216482   4.175   1.854   6.500
 5195SOL     OW16483   6.856   6.466   4.323
 5195SOL    HW116484   6.819   6.373   4.323
 5195SOL    HW216485   6.801   6.524   4.384
 5196SOL     OW16486   3.772   6.487   0.976
 5196SOL    HW116487   3.782   6.411   1.040
 5196SOL    HW216488   3.704   6.551   1.010
 5197SOL     OW16489   2.347   4.163   6.059
 5197SOL    HW116490   2.322   4.146   6.154
 5197SOL    HW216491   2.346   4.076   6.009
 5198SOL     OW16492   4.686   6.049   3.047
 5198SOL    HW116493   4.621   6.037   2.972
 5198SOL    HW216494   4.656   5.995   3.126
 5199SOL     OW16495   1.272   6.052   0.632
 5199SOL    HW116496   1.219   5.991   0.572
 5199SOL    HW216497   1.340   6.101   0.579
 5200SOL     OW16498   0.852   3.561   5.580
 5200SOL    HW116499   0.886   3.468   5.592
 5200SOL    HW216500   0.773   3.560   5.519
 5201SOL     OW16501   0.405   0.208   3.059
 5201SOL    HW116502   0.496   0.198   3.020
 5201SOL    HW216503   0.336   0.187   2.989
 5202SOL     OW16504   6.070   3.220   6.473
 5202SOL    HW116505   6.159   3.179   6.451
 5202SOL    HW216506   6.038   3.185   6.561
 5203SOL     OW16507   2.361   2.618   0.290
 5203SOL    HW116508   2.313   2.628   0.376
 5203SOL    HW216509   2.453   2.581   0.307
 5204SOL     OW16510   4.023   5.094   6.759
 5204SOL    HW116511   4.041   5.018   6.821
 5204SOL    HW216512   3.924   5.100   6.741
 5205SOL     OW16513   0.816   6.195   0.636
 5205SOL    HW116514   0.736   6.186   0.577
 5205SOL    HW216515   0.786   6.203   0.731
 5206SOL     OW16516   0.690   4.542   5.639
 5206SOL    HW116517   0.787   4.530   5.663
 5206SOL    HW216518   0.657   4.462   5.590
 5207SOL     OW16519   1.323   6.069   3.649
 5207SOL    HW116520   1.240   6.098   3.696
 5207SOL    HW216521   1.403   6.113   3.690
 5208SOL     OW16522   4.274   2.714   6.044
 5208SOL    HW116523   4.217   2.782   5.997
 5208SOL    HW216524   4.216   2.656   6.101
 5209SOL     OW16525   6.191   6.245   2.991
 5209SOL    HW116526   6.121   6.225   3.059
 5209SOL    HW216527   6.245   6.163   2.973
 5210SOL     OW16528   4.475   3.007   6.471
 5210SOL    HW116529   4.502   2.985   6.378
 5210SOL    HW216530   4.398   2.949   6.498
 5211SOL     OW16531   3.404   2.835   5.328
 5211SOL    HW116532   3.373   2.865   5.418
 5211SOL    HW216533   3.362   2.748   5.306
 5212SOL     OW16534   6.921   2.643   0.977
 5212SOL    HW116535   6.901   2.659   0.881
 5212SOL    HW216536   6.836   2.637   1.029
 5213SOL     OW16537   4.853   3.448   6.405
 5213SOL    HW116538   4.938   3.426   6.357
 5213SOL    HW216539   4.779   3.389   6.373
 5214SOL     OW16540   4.934   1.443   6.062
 5214SOL    HW116541   4.858   1.418   6.122
 5214SOL    HW216542   4.899   1.487   5.979
 5215SOL     OW16543   6.693   4.715   4.344
 5215SOL    HW116544   6.749   4.669   4.275
 5215SOL    HW216545   6.709   4.813   4.340
 5216SOL     OW16546   5.179   5.168   1.809
 5216SOL    HW116547   5.196   5.239   1.877
 5216SOL    HW216548   5.103   5.196   1.750
 5217SOL     OW16549   3.998   5.330   4.561
 5217SOL    HW116550   4.080   5.282   4.531
 5217SOL    HW216551   4.023   5.409   4.618
 5218SOL     OW16552   0.691   1.048   3.901
 5218SOL    HW116553   0.746   0.984   3.954
 5218SOL    HW216554   0.750   1.097   3.837
 5219SOL     OW16555   4.582   1.292   5.329
 5219SOL    HW116556   4.679   1.268   5.328
 5219SOL    HW216557   4.557   1.328   5.418
 5220SOL     OW16558   1.049   5.856   2.951
 5220SOL    HW116559   1.115   5.781   2.963
 5220SOL    HW216560   0.966   5.821   2.909
 5221SOL     OW16561   5.816   2.313   3.902
 5221SOL    HW116562   5.764   2.275   3.979
 5221SOL    HW216563   5.881   2.244   3.869
 5222SOL     OW16564   3.976   5.785   2.895
 5222SOL    HW116565   3.936   5.694   2.892
 5222SOL    HW216566   4.075   5.779   2.879
 5223SOL     OW16567   6.248   2.650   1.018
 5223SOL    HW116568   6.269   2.618   0.927
 5223SOL    HW216569   6.251   2.574   1.083
 5224SOL     OW16570   6.931   2.364   4.663
 5224SOL    HW116571   6.989   2.375   4.582
 5224SOL    HW216572   6.848   2.313   4.638
 5225SOL     OW16573   1.116   0.401   3.291
 5225SOL    HW116574   1.050   0.331   3.265
 5225SOL    HW216575   1.120   0.408   3.391
 5226SOL     OW16576   0.186   5.674   4.855
 5226SOL    HW116577   0.263   5.738   4.862
 5226SOL    HW216578   0.156   5.667   4.760
 5227SOL     OW16579   0.567   3.500   4.842
 5227SOL    HW116580   0.663   3.513   4.869
 5227SOL    HW216581   0.544   3.563   4.768
 5228SOL     OW16582   5.872   2.605   1.194
 5228SOL    HW116583   5.786   2.554   1.184
 5228SOL    HW216584   5.920   2.574   1.276
 5229SOL     OW16585   1.840   5.703   6.961
 5229SOL    HW116586   1.881   5.748   0.020
 5229SOL    HW216587   1.759   5.755   6.932
 5230SOL     OW16588   0.363   6.138   1.648
 5230SOL    HW116589   0.366   6.092   1.559
 5230SOL    HW216590   0.276   6.116   1.693
 5231SOL     OW16591   4.587   3.162   5.627
 5231SOL    HW116592   4.590   3.133   5.723
 5231SOL    HW216593   4.660   3.227   5.609
 5232SOL     OW16594   3.476   2.768   6.096
 5232SOL    HW116595   3.574   2.766   6.114
 5232SOL    HW216596   3.459   2.755   5.998
 5233SOL     OW16597   4.949   0.924   2.339
 5233SOL    HW116598   4.899   1.006   2.311
 5233SOL    HW216599   5.022   0.949   2.403
 5234SOL     OW16600   2.376   1.172   6.535
 5234SOL    HW116601   2.418   1.239   6.474
 5234SOL    HW216602   2.277   1.172   6.522
 5235SOL     OW16603   1.925   2.537   0.475
 5235SOL    HW116604   2.024   2.525   0.478
 5235SOL    HW216605   1.896   2.600   0.548
 5236SOL     OW16606   5.520   4.439   2.848
 5236SOL    HW116607   5.499   4.430   2.751
 5236SOL    HW216608   5.546   4.534   2.867
 5237SOL     OW16609   1.877   1.131   5.236
 5237SOL    HW116610   1.804   1.166   5.177
 5237SOL    HW216611   1.966   1.149   5.193
 5238SOL     OW16612   0.895   4.604   0.195
 5238SOL    HW116613   0.933   4.514   0.175
 5238SOL    HW216614   0.904   4.623   0.293
 5239SOL     OW16615   3.586   3.087   3.697
 5239SOL    HW116616   3.527   3.010   3.669
 5239SOL    HW216617   3.592   3.091   3.796
 5240SOL     OW16618   2.783   1.412   6.157
 5240SOL    HW116619   2.852   1.416   6.086
 5240SOL    HW216620   2.703   1.362   6.124
 5241SOL     OW16621   1.079   4.921   5.372
 5241SOL    HW116622   1.073   4.923   5.472
 5241SOL    HW216623   1.173   4.941   5.344
 5242SOL     OW16624   0.673   6.385   6.364
 5242SOL    HW116625   0.644   6.358   6.456
 5242SOL    HW216626   0.692   6.483   6.363
 5243SOL     OW16627   0.688   5.269   1.606
 5243SOL    HW116628   0.724   5.356   1.572
 5243SOL    HW216629   0.723   5.194   1.551
 5244SOL     OW16630   4.017   5.244   0.118
 5244SOL    HW116631   3.943   5.286   0.065
 5244SOL    HW216632   3.980   5.174   0.179
 5245SOL     OW16633   4.018   4.204   0.463
 5245SOL    HW116634   4.037   4.203   0.365
 5245SOL    HW216635   3.919   4.205   0.478
 5246SOL     OW16636   6.011   4.035   2.064
 5246SOL    HW116637   5.948   3.958   2.050
 5246SOL    HW216638   6.079   4.036   1.991
 5247SOL     OW16639   0.898   0.724   0.151
 5247SOL    HW116640   0.949   0.741   0.236
 5247SOL    HW216641   0.957   0.677   0.086
 5248SOL     OW16642   5.565   0.868   4.016
 5248SOL    HW116643   5.544   0.794   3.953
 5248SOL    HW216644   5.638   0.839   4.079
 5249SOL     OW16645   6.875   4.842   5.371
 5249SOL    HW116646   6.836   4.750   5.378
 5249SOL    HW216647   6.942   4.844   5.297
 5250SOL     OW16648   1.590   6.520   5.507
 5250SOL    HW116649   1.679   6.521   5.554
 5250SOL    HW216650   1.533   6.593   5.541
 5251SOL     OW16651   0.509   3.775   0.678
 5251SOL    HW116652   0.443   3.748   0.748
 5251SOL    HW216653   0.540   3.694   0.628
 5252SOL     OW16654   2.304   6.081   0.501
 5252SOL    HW116655   2.230   6.098   0.566
 5252SOL    HW216656   2.311   5.983   0.482
 5253SOL     OW16657   5.436   4.843   4.288
 5253SOL    HW116658   5.440   4.941   4.272
 5253SOL    HW216659   5.381   4.799   4.217
 5254SOL     OW16660   4.689   1.254   3.283
 5254SOL    HW116661   4.694   1.341   3.333
 5254SOL    HW216662   4.678   1.273   3.185
 5255SOL     OW16663   5.155   1.129   6.326
 5255SOL    HW116664   5.170   1.198   6.397
 5255SOL    HW216665   5.215   1.051   6.341
 5256SOL     OW16666   4.353   0.917   3.105
 5256SOL    HW116667   4.319   0.935   3.013
 5256SOL    HW216668   4.300   0.843   3.147
 5257SOL     OW16669   5.075   6.457   2.122
 5257SOL    HW116670   5.020   6.375   2.106
 5257SOL    HW216671   5.096   6.501   2.034
 5258SOL     OW16672   5.936   3.903   1.778
 5258SOL    HW116673   5.947   3.972   1.706
 5258SOL    HW216674   5.999   3.827   1.762
 5259SOL     OW16675   5.228   6.071   0.373
 5259SOL    HW116676   5.182   6.051   0.460
 5259SOL    HW216677   5.180   6.145   0.326
 5260SOL     OW16678   5.078   3.741   1.064
 5260SOL    HW116679   5.105   3.753   0.968
 5260SOL    HW216680   5.073   3.643   1.084
 5261SOL     OW16681   1.170   3.740   0.530
 5261SOL    HW116682   1.265   3.767   0.512
 5261SOL    HW216683   1.115   3.821   0.548
 5262SOL     OW16684   2.735   0.568   2.841
 5262SOL    HW116685   2.696   0.659   2.824
 5262SOL    HW216686   2.721   0.544   2.937
 5263SOL     OW16687   2.062   1.566   4.694
 5263SOL    HW116688   2.058   1.471   4.665
 5263SOL    HW216689   2.134   1.614   4.643
 5264SOL     OW16690   5.892   1.670   2.360
 5264SOL    HW116691   5.930   1.578   2.372
 5264SOL    HW216692   5.796   1.671   2.389
 5265SOL     OW16693   5.950   4.017   4.546
 5265SOL    HW116694   5.977   3.935   4.496
 5265SOL    HW216695   5.943   4.095   4.484
 5266SOL     OW16696   2.246   6.185   1.215
 5266SOL    HW116697   2.202   6.248   1.279
 5266SOL    HW216698   2.338   6.164   1.248
 5267SOL     OW16699   4.952   3.821   4.898
 5267SOL    HW116700   4.976   3.792   4.806
 5267SOL    HW216701   4.876   3.764   4.932
 5268SOL     OW16702   6.025   0.192   6.395
 5268SOL    HW116703   5.941   0.240   6.424
 5268SOL    HW216704   6.078   0.166   6.476
 5269SOL     OW16705   1.539   6.624   3.355
 5269SOL    HW116706   1.628   6.667   3.345
 5269SOL    HW216707   1.475   6.688   3.397
 5270SOL     OW16708   5.879   1.278   1.420
 5270SOL    HW116709   5.933   1.336   1.482
 5270SOL    HW216710   5.787   1.267   1.457
 5271SOL     OW16711   6.140   5.902   4.874
 5271SOL    HW116712   6.227   5.945   4.900
 5271SOL    HW216713   6.103   5.853   4.953
 5272SOL     OW16714   2.722   5.094   1.784
 5272SOL    HW116715   2.790   5.148   1.834
 5272SOL    HW216716   2.733   4.997   1.807
 5273SOL     OW16717   6.589   3.152   3.265
 5273SOL    HW116718   6.561   3.057   3.276
 5273SOL    HW216719   6.683   3.155   3.229
 5274SOL     OW16720   6.298   6.949   1.990
 5274SOL    HW116721   6.397   6.946   2.005
 5274SOL    HW216722   6.276   0.006   1.930
 5275SOL     OW16723   3.476   1.953   6.920
 5275SOL    HW116724   3.461   1.861   6.883
 5275SOL    HW216725   3.572   1.979   6.906
 5276SOL     OW16726   1.438   0.358   0.582
 5276SOL    HW116727   1.365   0.357   0.513
 5276SOL    HW216728   1.406   0.314   0.666
 5277SOL     OW16729   1.498   2.127   3.170
 5277SOL    HW116730   1.474   2.142   3.074
 5277SOL    HW216731   1.416   2.134   3.227
 5278SOL     OW16732   5.494   0.118   3.675
 5278SOL    HW116733   5.544   0.076   3.598
 5278SOL    HW216734   5.560   0.152   3.742
 5279SOL     OW16735   1.429   5.171   6.766
 5279SOL    HW116736   1.476   5.180   6.678
 5279SOL    HW216737   1.496   5.153   6.838
 5280SOL     OW16738   3.305   6.530   5.211
 5280SOL    HW116739   3.320   6.568   5.119
 5280SOL    HW216740   3.331   6.597   5.280
 5281SOL     OW16741   0.435   1.891   2.391
 5281SOL    HW116742   0.470   1.984   2.378
 5281SOL    HW216743   0.473   1.853   2.475
 5282SOL     OW16744   2.654   1.637   3.218
 5282SOL    HW116745   2.656   1.552   3.165
 5282SOL    HW216746   2.560   1.667   3.230
 5283SOL     OW16747   4.441   6.365   1.237
 5283SOL    HW116748   4.423   6.389   1.333
 5283SOL    HW216749   4.374   6.411   1.179
 5284SOL     OW16750   5.202   3.795   3.382
 5284SOL    HW116751   5.244   3.707   3.407
 5284SOL    HW216752   5.150   3.785   3.298
 5285SOL     OW16753   2.086   4.453   3.723
 5285SOL    HW116754   2.105   4.546   3.756
 5285SOL    HW216755   1.994   4.426   3.752
 5286SOL     OW16756   1.633   3.449   1.420
 5286SOL    HW116757   1.595   3.520   1.360
 5286SOL    HW216758   1.679   3.380   1.364
 5287SOL     OW16759   1.823   6.509   1.263
 5287SOL    HW116760   1.772   6.494   1.179
 5287SOL    HW216761   1.774   6.468   1.340
 5288SOL     OW16762   3.859   0.179   1.901
 5288SOL    HW116763   3.833   0.089   1.866
 5288SOL    HW216764   3.827   0.250   1.839
 5289SOL     OW16765   1.458   5.341   5.907
 5289SOL    HW116766   1.499   5.323   5.818
 5289SOL    HW216767   1.461   5.258   5.962
 5290SOL     OW16768   1.732   4.617   5.354
 5290SOL    HW116769   1.751   4.597   5.450
 5290SOL    HW216770   1.686   4.705   5.346
 5291SOL     OW16771   2.430   5.558   5.469
 5291SOL    HW116772   2.373   5.505   5.531
 5291SOL    HW216773   2.375   5.631   5.427
 5292SOL     OW16774   6.986   3.924   0.220
 5292SOL    HW116775   0.059   3.929   0.186
 5292SOL    HW216776   6.984   3.948   0.317
 5293SOL     OW16777   1.291   0.720   4.017
 5293SOL    HW116778   1.202   0.718   4.062
 5293SOL    HW216779   1.360   0.751   4.081
 5294SOL     OW16780   5.029   3.382   5.662
 5294SOL    HW116781   5.095   3.376   5.737
 5294SOL    HW216782   5.034   3.472   5.619
 5295SOL     OW16783   4.875   0.198   2.356
 5295SOL    HW116784   4.838   0.259   2.287
 5295SOL    HW216785   4.972   0.217   2.371
 5296SOL     OW16786   1.570   5.505   0.451
 5296SOL    HW116787   1.587   5.477   0.545
 5296SOL    HW216788   1.656   5.506   0.400
 5297SOL     OW16789   3.406   1.882   1.139
 5297SOL    HW116790   3.460   1.817   1.086
 5297SOL    HW216791   3.337   1.832   1.192
 5298SOL     OW16792   1.093   6.046   6.367
 5298SOL    HW116793   0.998   6.057   6.337
 5298SOL    HW216794   1.134   5.967   6.321
 5299SOL     OW16795   2.795   2.497   1.208
 5299SOL    HW116796   2.860   2.572   1.193
 5299SOL    HW216797   2.715   2.510   1.149
 5300SOL     OW16798   0.179   6.443   1.941
 5300SOL    HW116799   0.146   6.508   1.872
 5300SOL    HW216800   0.279   6.446   1.946
 5301SOL     OW16801   4.279   2.755   0.803
 5301SOL    HW116802   4.293   2.783   0.708
 5301SOL    HW216803   4.357   2.785   0.858
 5302SOL     OW16804   6.335   4.630   2.739
 5302SOL    HW116805   6.267   4.601   2.672
 5302SOL    HW216806   6.416   4.666   2.692
 5303SOL     OW16807   6.822   5.862   2.824
 5303SOL    HW116808   6.748   5.851   2.758
 5303SOL    HW216809   6.787   5.907   2.906
 5304SOL     OW16810   6.204   1.292   6.547
 5304SOL    HW116811   6.114   1.262   6.579
 5304SOL    HW216812   6.264   1.213   6.534
 5305SOL     OW16813   1.303   5.882   4.343
 5305SOL    HW116814   1.234   5.829   4.294
 5305SOL    HW216815   1.257   5.947   4.404
 5306SOL     OW16816   0.473   5.090   5.108
 5306SOL    HW116817   0.399   5.117   5.046
 5306SOL    HW216818   0.560   5.127   5.075
 5307SOL     OW16819   4.268   0.268   6.805
 5307SOL    HW116820   4.230   0.342   6.860
 5307SOL    HW216821   4.195   0.219   6.758
 5308SOL     OW16822   1.045   6.048   3.765
 5308SOL    HW116823   1.011   5.954   3.771
 5308SOL    HW216824   1.017   6.088   3.677
 5309SOL     OW16825   3.730   4.240   1.611
 5309SOL    HW116826   3.726   4.337   1.637
 5309SOL    HW216827   3.825   4.214   1.593
 5310SOL     OW16828   5.948   2.985   1.337
 5310SOL    HW116829   5.915   2.926   1.411
 5310SOL    HW216830   6.043   2.961   1.315
 5311SOL     OW16831   6.975   6.377   1.304
 5311SOL    HW116832   6.962   6.468   1.344
 5311SOL    HW216833   0.035   6.377   1.245
 5312SOL     OW16834   0.532   3.710   2.002
 5312SOL    HW116835   0.581   3.654   1.936
 5312SOL    HW216836   0.576   3.703   2.091
 5313SOL     OW16837   1.050   3.942   6.793
 5313SOL    HW116838   1.000   3.897   6.866
 5313SOL    HW216839   1.064   4.038   6.816
 5314SOL     OW16840   3.390   6.051   0.321
 5314SOL    HW116841   3.488   6.070   0.315
 5314SOL    HW216842   3.375   5.961   0.362
 5315SOL     OW16843   3.634   3.490   1.418
 5315SOL    HW116844   3.634   3.589   1.428
 5315SOL    HW216845   3.674   3.447   1.499
 5316SOL     OW16846   0.138   4.387   4.707
 5316SOL    HW116847   0.046   4.388   4.669
 5316SOL    HW216848   0.169   4.481   4.724
 5317SOL     OW16849   0.053   0.552   4.664
 5317SOL    HW116850   0.079   0.632   4.717
 5317SOL    HW216851   0.105   0.473   4.696
 5318SOL     OW16852   0.209   1.906   5.616
 5318SOL    HW116853   0.269   1.896   5.695
 5318SOL    HW216854   0.201   2.002   5.592
 5319SOL     OW16855   4.770   6.706   6.346
 5319SOL    HW116856   4.764   6.664   6.437
 5319SOL    HW216857   4.812   6.641   6.282
 5320SOL     OW16858   5.951   4.559   6.753
 5320SOL    HW116859   5.854   4.546   6.734
 5320SOL    HW216860   5.997   4.471   6.754
 5321SOL     OW16861   0.600   3.983   2.750
 5321SOL    HW116862   0.535   3.947   2.818
 5321SOL    HW216863   0.631   4.073   2.778
 5322SOL     OW16864   3.778   5.947   6.135
 5322SOL    HW116865   3.687   5.907   6.129
 5322SOL    HW216866   3.800   5.967   6.231
 5323SOL     OW16867   4.179   3.358   6.925
 5323SOL    HW116868   4.258   3.306   6.891
 5323SOL    HW216869   4.210   3.424   6.994
 5324SOL     OW16870   3.864   2.394   1.702
 5324SOL    HW116871   3.780   2.382   1.755
 5324SOL    HW216872   3.915   2.472   1.737
 5325SOL     OW16873   5.799   6.953   3.974
 5325SOL    HW116874   5.837   6.865   3.947
 5325SOL    HW216875   5.870   7.005   4.024
 5326SOL     OW16876   7.019   5.889   3.301
 5326SOL    HW116877   0.068   5.881   3.372
 5326SOL    HW216878   6.934   5.846   3.332
 5327SOL     OW16879   6.143   4.725   4.836
 5327SOL    HW116880   6.157   4.661   4.911
 5327SOL    HW216881   6.077   4.687   4.771
 5328SOL     OW16882   4.440   2.877   5.810
 5328SOL    HW116883   4.524   2.824   5.802
 5328SOL    HW216884   4.458   2.959   5.864
 5329SOL     OW16885   0.544   4.039   0.645
 5329SOL    HW116886   0.506   4.074   0.731
 5329SOL    HW216887   0.573   3.945   0.657
 5330SOL     OW16888   3.914   3.824   6.578
 5330SOL    HW116889   3.950   3.918   6.576
 5330SOL    HW216890   3.832   3.820   6.520
 5331SOL     OW16891   5.539   0.560   1.575
 5331SOL    HW116892   5.632   0.592   1.593
 5331SOL    HW216893   5.542   0.481   1.513
 5332SOL     OW16894   0.310   4.434   0.514
 5332SOL    HW116895   0.288   4.458   0.609
 5332SOL    HW216896   0.378   4.360   0.513
 5333SOL     OW16897   0.819   0.705   3.681
 5333SOL    HW116898   0.776   0.626   3.726
 5333SOL    HW216899   0.904   0.729   3.729
 5334SOL     OW16900   3.227   5.800   5.324
 5334SOL    HW116901   3.230   5.828   5.420
 5334SOL    HW216902   3.299   5.733   5.306
 5335SOL     OW16903   6.887   4.810   2.183
 5335SOL    HW116904   6.893   4.910   2.181
 5335SOL    HW216905   6.884   4.780   2.279
 5336SOL     OW16906   2.393   1.547   3.524
 5336SOL    HW116907   2.323   1.567   3.593
 5336SOL    HW216908   2.465   1.491   3.566
 5337SOL     OW16909   4.997   4.920   2.052
 5337SOL    HW116910   4.969   4.959   1.965
 5337SOL    HW216911   4.936   4.845   2.077
 5338SOL     OW16912   5.907   0.870   5.971
 5338SOL    HW116913   5.947   0.782   5.996
 5338SOL    HW216914   5.810   0.870   5.993
 5339SOL     OW16915   5.751   1.037   3.135
 5339SOL    HW116916   5.824   1.011   3.072
 5339SOL    HW216917   5.763   1.132   3.164
 5340SOL     OW16918   5.751   3.866   1.056
 5340SOL    HW116919   5.664   3.888   1.100
 5340SOL    HW216920   5.819   3.936   1.079
 5341SOL     OW16921   2.954   5.257   5.250
 5341SOL    HW116922   2.910   5.343   5.222
 5341SOL    HW216923   2.893   5.207   5.312
 5342SOL     OW16924   5.119   6.273   5.043
 5342SOL    HW116925   5.120   6.372   5.034
 5342SOL    HW216926   5.058   6.234   4.973
 5343SOL     OW16927   4.183   3.433   4.878
 5343SOL    HW116928   4.177   3.498   4.802
 5343SOL    HW216929   4.277   3.427   4.909
 5344SOL     OW16930   1.544   1.906   1.520
 5344SOL    HW116931   1.614   1.946   1.460
 5344SOL    HW216932   1.459   1.896   1.468
 5345SOL     OW16933   5.340   6.761   0.177
 5345SOL    HW116934   5.386   6.689   0.123
 5345SOL    HW216935   5.247   6.772   0.144
 5346SOL     OW16936   2.556   5.650   3.542
 5346SOL    HW116937   2.619   5.575   3.521
 5346SOL    HW216938   2.524   5.642   3.637
 5347SOL     OW16939   0.423   3.179   2.760
 5347SOL    HW116940   0.371   3.112   2.707
 5347SOL    HW216941   0.480   3.234   2.699
 5348SOL     OW16942   6.849   1.222   6.870
 5348SOL    HW116943   6.786   1.211   6.947
 5348SOL    HW216944   6.799   1.208   6.784
 5349SOL     OW16945   2.044   3.873   0.272
 5349SOL    HW116946   2.112   3.862   0.345
 5349SOL    HW216947   2.061   3.804   0.201
 5350SOL     OW16948   1.875   0.058   4.713
 5350SOL    HW116949   1.957   0.019   4.754
 5350SOL    HW216950   1.901   0.129   4.648
 5351SOL     OW16951   0.014   5.519   2.347
 5351SOL    HW116952   0.084   5.570   2.397
 5351SOL    HW216953   0.008   5.554   2.253
 5352SOL     OW16954   2.354   4.790   2.814
 5352SOL    HW116955   2.306   4.832   2.890
 5352SOL    HW216956   2.332   4.839   2.729
 5353SOL     OW16957   3.598   5.486   4.278
 5353SOL    HW116958   3.526   5.417   4.276
 5353SOL    HW216959   3.687   5.441   4.284
 5354SOL     OW16960   2.015   4.588   1.196
 5354SOL    HW116961   1.976   4.620   1.109
 5354SOL    HW216962   2.081   4.655   1.229
 5355SOL     OW16963   5.505   4.884   3.915
 5355SOL    HW116964   5.503   4.952   3.841
 5355SOL    HW216965   5.445   4.914   3.989
 5356SOL     OW16966   6.593   3.442   2.714
 5356SOL    HW116967   6.625   3.474   2.803
 5356SOL    HW216968   6.666   3.454   2.646
 5357SOL     OW16969   2.840   5.850   0.836
 5357SOL    HW116970   2.936   5.829   0.850
 5357SOL    HW216971   2.824   5.872   0.740
 5358SOL     OW16972   4.389   1.972   0.701
 5358SOL    HW116973   4.385   2.050   0.763
 5358SOL    HW216974   4.418   2.003   0.610
 5359SOL     OW16975   2.844   1.608   6.338
 5359SOL    HW116976   2.792   1.572   6.415
 5359SOL    HW216977   2.841   1.543   6.262
 5360SOL     OW16978   3.869   6.396   3.596
 5360SOL    HW116979   3.887   6.493   3.580
 5360SOL    HW216980   3.837   6.383   3.690
 5361SOL     OW16981   2.512   6.805   4.882
 5361SOL    HW116982   2.497   6.883   4.821
 5361SOL    HW216983   2.425   6.758   4.898
 5362SOL     OW16984   6.606   6.292   2.345
 5362SOL    HW116985   6.639   6.292   2.250
 5362SOL    HW216986   6.656   6.222   2.396
 5363SOL     OW16987   6.275   6.125   5.869
 5363SOL    HW116988   6.233   6.193   5.929
 5363SOL    HW216989   6.373   6.122   5.886
 5364SOL     OW16990   6.250   0.718   1.277
 5364SOL    HW116991   6.277   0.645   1.340
 5364SOL    HW216992   6.213   0.794   1.330
 5365SOL     OW16993   3.683   3.088   2.084
 5365SOL    HW116994   3.612   3.075   2.154
 5365SOL    HW216995   3.708   3.185   2.081
 5366SOL     OW16996   5.956   6.332   1.274
 5366SOL    HW116997   5.859   6.325   1.251
 5366SOL    HW216998   6.012   6.302   1.196
 5367SOL     OW16999   0.413   6.928   1.783
 5367SOL    HW117000   0.333   6.955   1.729
 5367SOL    HW217001   0.494   6.972   1.744
 5368SOL     OW17002   5.752   0.303   2.444
 5368SOL    HW117003   5.797   0.391   2.432
 5368SOL    HW217004   5.816   0.229   2.424
 5369SOL     OW17005   2.648   6.736   0.689
 5369SOL    HW117006   2.602   6.650   0.712
 5369SOL    HW217007   2.583   6.796   0.642
 5370SOL     OW17008   4.689   3.637   0.551
 5370SOL    HW117009   4.778   3.613   0.589
 5370SOL    HW217010   4.693   3.729   0.511
 5371SOL     OW17011   0.922   4.528   5.787
 5371SOL    HW117012   0.970   4.582   5.856
 5371SOL    HW217013   0.989   4.475   5.735
 5372SOL     OW17014   0.985   6.173   2.923
 5372SOL    HW117015   0.888   6.167   2.947
 5372SOL    HW217016   1.028   6.249   2.973
 5373SOL     OW17017   3.892   6.141   5.121
 5373SOL    HW117018   3.925   6.226   5.079
 5373SOL    HW217019   3.802   6.157   5.162
 5374SOL     OW17020   2.318   4.954   0.892
 5374SOL    HW117021   2.363   5.033   0.849
 5374SOL    HW217022   2.330   4.874   0.834
 5375SOL     OW17023   0.482   5.778   5.134
 5375SOL    HW117024   0.459   5.820   5.046
 5375SOL    HW217025   0.499   5.681   5.121
 5376SOL     OW17026   1.321   2.585   1.475
 5376SOL    HW117027   1.361   2.529   1.547
 5376SOL    HW217028   1.394   2.619   1.415
 5377SOL     OW17029   1.021   0.347   2.334
 5377SOL    HW117030   0.925   0.355   2.362
 5377SOL    HW217031   1.029   0.369   2.236
 5378SOL     OW17032   6.717   6.970   2.668
 5378SOL    HW117033   6.779   6.940   2.741
 5378SOL    HW217034   6.677   0.038   2.692
 5379SOL     OW17035   0.991   3.700   4.788
 5379SOL    HW117036   0.905   3.663   4.823
 5379SOL    HW217037   1.028   3.638   4.719
 5380SOL     OW17038   3.310   6.972   1.836
 5380SOL    HW117039   3.296   0.007   1.918
 5380SOL    HW217040   3.393   7.002   1.789
 5381SOL     OW17041   6.601   6.019   2.094
 5381SOL    HW117042   6.618   6.117   2.102
 5381SOL    HW217043   6.561   6.000   2.004
 5382SOL     OW17044   3.073   2.019   2.247
 5382SOL    HW117045   2.996   2.075   2.217
 5382SOL    HW217046   3.051   1.922   2.234
 5383SOL     OW17047   1.553   3.150   4.627
 5383SOL    HW117048   1.464   3.156   4.672
 5383SOL    HW217049   1.544   3.175   4.530
 5384SOL     OW17050   5.285   6.949   4.884
 5384SOL    HW117051   5.330   6.874   4.934
 5384SOL    HW217052   5.353   6.996   4.827
 5385SOL     OW17053   3.914   3.495   4.949
 5385SOL    HW117054   3.910   3.595   4.950
 5385SOL    HW217055   4.002   3.465   4.913
 5386SOL     OW17056   4.838   1.701   3.661
 5386SOL    HW117057   4.903   1.738   3.728
 5386SOL    HW217058   4.749   1.690   3.705
 5387SOL     OW17059   2.144   6.517   2.587
 5387SOL    HW117060   2.232   6.483   2.622
 5387SOL    HW217061   2.154   6.612   2.559
 5388SOL     OW17062   0.954   0.717   3.096
 5388SOL    HW117063   0.950   0.672   3.185
 5388SOL    HW217064   0.880   0.784   3.089
 5389SOL     OW17065   4.212   1.312   3.593
 5389SOL    HW117066   4.225   1.404   3.630
 5389SOL    HW217067   4.292   1.287   3.538
 5390SOL     OW17068   5.499   3.645   3.226
 5390SOL    HW117069   5.505   3.556   3.271
 5390SOL    HW217070   5.567   3.650   3.153
 5391SOL     OW17071   1.965   1.911   0.443
 5391SOL    HW117072   1.975   1.993   0.498
 5391SOL    HW217073   1.997   1.831   0.494
 5392SOL     OW17074   5.949   3.609   1.043
 5392SOL    HW117075   5.886   3.687   1.039
 5392SOL    HW217076   5.899   3.529   1.078
 5393SOL     OW17077   4.271   0.542   5.053
 5393SOL    HW117078   4.277   0.461   4.995
 5393SOL    HW217079   4.176   0.574   5.057
 5394SOL     OW17080   0.207   6.036   1.448
 5394SOL    HW117081   0.214   5.939   1.422
 5394SOL    HW217082   0.153   6.044   1.532
 5395SOL     OW17083   4.978   0.371   1.164
 5395SOL    HW117084   4.971   0.285   1.112
 5395SOL    HW217085   4.911   0.436   1.129
 5396SOL     OW17086   5.358   4.855   1.052
 5396SOL    HW117087   5.343   4.761   1.021
 5396SOL    HW217088   5.297   4.875   1.128
 5397SOL     OW17089   0.384   2.254   1.177
 5397SOL    HW117090   0.440   2.179   1.213
 5397SOL    HW217091   0.339   2.301   1.253
 5398SOL     OW17092   3.284   2.143   4.192
 5398SOL    HW117093   3.207   2.204   4.173
 5398SOL    HW217094   3.332   2.122   4.107
 5399SOL     OW17095   2.504   6.431   6.318
 5399SOL    HW117096   2.559   6.436   6.402
 5399SOL    HW217097   2.492   6.524   6.281
 5400SOL     OW17098   2.778   3.713   6.650
 5400SOL    HW117099   2.842   3.789   6.640
 5400SOL    HW217100   2.702   3.725   6.586
 5401SOL     OW17101   5.702   4.408   2.287
 5401SOL    HW117102   5.759   4.489   2.271
 5401SOL    HW217103   5.705   4.385   2.384
 5402SOL     OW17104   2.939   6.183   1.190
 5402SOL    HW117105   2.879   6.197   1.269
 5402SOL    HW217106   3.033   6.205   1.216
 5403SOL     OW17107   4.958   3.303   6.102
 5403SOL    HW117108   4.929   3.232   6.166
 5403SOL    HW217109   4.883   3.369   6.090
 5404SOL     OW17110   0.830   0.978   2.349
 5404SOL    HW117111   0.871   0.989   2.439
 5404SOL    HW217112   0.812   0.882   2.331
 5405SOL     OW17113   5.620   4.837   0.293
 5405SOL    HW117114   5.544   4.780   0.263
 5405SOL    HW217115   5.638   4.907   0.224
 5406SOL     OW17116   1.730   0.571   5.155
 5406SOL    HW117117   1.663   0.499   5.174
 5406SOL    HW217118   1.705   0.618   5.070
 5407SOL     OW17119   3.328   2.093   1.302
 5407SOL    HW117120   3.341   2.022   1.233
 5407SOL    HW217121   3.383   2.173   1.277
 5408SOL     OW17122   4.310   0.564   4.680
 5408SOL    HW117123   4.333   0.535   4.587
 5408SOL    HW217124   4.386   0.542   4.742
 5409SOL     OW17125   6.877   1.938   3.171
 5409SOL    HW117126   6.807   1.926   3.100
 5409SOL    HW217127   6.966   1.912   3.134
 5410SOL     OW17128   0.778   2.521   6.287
 5410SOL    HW117129   0.775   2.592   6.217
 5410SOL    HW217130   0.862   2.467   6.276
 5411SOL     OW17131   5.433   5.357   5.962
 5411SOL    HW117132   5.414   5.260   5.981
 5411SOL    HW217133   5.459   5.402   6.047
 5412SOL     OW17134   3.159   1.557   6.818
 5412SOL    HW117135   3.102   1.638   6.830
 5412SOL    HW217136   3.107   1.487   6.767
 5413SOL     OW17137   7.014   0.461   6.618
 5413SOL    HW117138   7.017   0.389   6.548
 5413SOL    HW217139   6.988   0.547   6.575
 5414SOL     OW17140   6.178   4.103   5.112
 5414SOL    HW117141   6.082   4.126   5.092
 5414SOL    HW217142   6.203   4.141   5.202
 5415SOL     OW17143   1.854   6.736   1.487
 5415SOL    HW117144   1.915   6.814   1.474
 5415SOL    HW217145   1.866   6.672   1.411
 5416SOL     OW17146   2.678   5.113   5.009
 5416SOL    HW117147   2.724   5.028   4.983
 5416SOL    HW217148   2.642   5.159   4.928
 5417SOL     OW17149   4.422   6.695   4.490
 5417SOL    HW117150   4.474   6.758   4.433
 5417SOL    HW217151   4.335   6.737   4.516
 5418SOL     OW17152   5.256   6.599   4.912
 5418SOL    HW117153   5.252   6.529   4.840
 5418SOL    HW217154   5.174   6.592   4.969
 5419SOL     OW17155   3.464   5.833   0.938
 5419SOL    HW117156   3.532   5.860   0.870
 5419SOL    HW217157   3.382   5.890   0.928
 5420SOL     OW17158   2.153   2.636   1.756
 5420SOL    HW117159   2.080   2.643   1.824
 5420SOL    HW217160   2.219   2.567   1.785
 5421SOL     OW17161   3.295   5.342   2.743
 5421SOL    HW117162   3.238   5.283   2.685
 5421SOL    HW217163   3.356   5.285   2.798
 5422SOL     OW17164   0.502   4.961   4.024
 5422SOL    HW117165   0.514   5.011   3.938
 5422SOL    HW217166   0.516   4.863   4.007
 5423SOL     OW17167   5.436   4.715   0.545
 5423SOL    HW117168   5.525   4.668   0.543
 5423SOL    HW217169   5.365   4.653   0.511
 5424SOL     OW17170   5.744   4.354   4.528
 5424SOL    HW117171   5.756   4.345   4.627
 5424SOL    HW217172   5.781   4.274   4.483
 5425SOL     OW17173   5.368   2.224   5.191
 5425SOL    HW117174   5.336   2.309   5.151
 5425SOL    HW217175   5.466   2.214   5.175
 5426SOL     OW17176   6.125   5.708   2.737
 5426SOL    HW117177   6.136   5.721   2.638
 5426SOL    HW217178   6.034   5.670   2.755
 5427SOL     OW17179   4.966   3.793   0.324
 5427SOL    HW117180   4.946   3.849   0.243
 5427SOL    HW217181   4.906   3.820   0.399
 5428SOL     OW17182   5.589   6.967   2.037
 5428SOL    HW117183   5.659   6.992   2.104
 5428SOL    HW217184   5.502   7.007   2.062
 5429SOL     OW17185   2.441   0.574   6.380
 5429SOL    HW117186   2.495   0.491   6.396
 5429SOL    HW217187   2.431   0.624   6.466
 5430SOL     OW17188   2.058   2.672   5.718
 5430SOL    HW117189   2.068   2.750   5.656
 5430SOL    HW217190   2.148   2.640   5.746
 5431SOL     OW17191   2.920   4.292   6.314
 5431SOL    HW117192   2.971   4.214   6.279
 5431SOL    HW217193   2.977   4.375   6.306
 5432SOL     OW17194   3.747   5.161   6.652
 5432SOL    HW117195   3.673   5.116   6.602
 5432SOL    HW217196   3.709   5.209   6.731
 5433SOL     OW17197   0.995   1.298   2.740
 5433SOL    HW117198   1.075   1.238   2.738
 5433SOL    HW217199   0.934   1.275   2.663
 5434SOL     OW17200   4.170   0.488   4.360
 5434SOL    HW117201   4.130   0.511   4.271
 5434SOL    HW217202   4.251   0.544   4.375
 5435SOL     OW17203   6.368   2.472   0.815
 5435SOL    HW117204   6.321   2.388   0.792
 5435SOL    HW217205   6.457   2.474   0.769
 5436SOL     OW17206   5.666   4.214   3.555
 5436SOL    HW117207   5.654   4.305   3.595
 5436SOL    HW217208   5.739   4.165   3.603
 5437SOL     OW17209   2.584   5.418   4.945
 5437SOL    HW117210   2.651   5.473   4.994
 5437SOL    HW217211   2.598   5.428   4.846
 5438SOL     OW17212   5.862   3.401   2.078
 5438SOL    HW117213   5.785   3.432   2.023
 5438SOL    HW217214   5.828   3.354   2.160
 5439SOL     OW17215   0.595   2.462   0.147
 5439SOL    HW117216   0.532   2.535   0.173
 5439SOL    HW217217   0.547   2.375   0.148
 5440SOL     OW17218   6.731   6.620   3.671
 5440SOL    HW117219   6.782   6.555   3.615
 5440SOL    HW217220   6.654   6.573   3.715
 5441SOL     OW17221   4.827   3.098   3.704
 5441SOL    HW117222   4.739   3.063   3.674
 5441SOL    HW217223   4.828   3.198   3.697
 5442SOL     OW17224   3.980   6.987   2.940
 5442SOL    HW117225   3.926   0.035   2.892
 5442SOL    HW217226   4.077   7.005   2.926
 5443SOL     OW17227   3.863   5.539   3.654
 5443SOL    HW117228   3.813   5.551   3.740
 5443SOL    HW217229   3.874   5.627   3.609
 5444SOL     OW17230   0.434   0.889   3.157
 5444SOL    HW117231   0.485   0.841   3.229
 5444SOL    HW217232   0.336   0.872   3.169
 5445SOL     OW17233   6.397   4.289   3.981
 5445SOL    HW117234   6.493   4.261   3.990
 5445SOL    HW217235   6.392   4.388   3.976
 5446SOL     OW17236   5.695   5.406   4.890
 5446SOL    HW117237   5.666   5.397   4.794
 5446SOL    HW217238   5.765   5.339   4.910
 5447SOL     OW17239   1.712   1.490   0.748
 5447SOL    HW117240   1.742   1.577   0.789
 5447SOL    HW217241   1.631   1.457   0.795
 5448SOL     OW17242   4.698   4.679   3.953
 5448SOL    HW117243   4.796   4.695   3.941
 5448SOL    HW217244   4.648   4.764   3.940
 5449SOL     OW17245   2.062   1.739   0.602
 5449SOL    HW117246   2.029   1.782   0.686
 5449SOL    HW217247   2.159   1.717   0.612
 5450SOL     OW17248   3.492   0.527   1.106
 5450SOL    HW117249   3.443   0.453   1.060
 5450SOL    HW217250   3.504   0.504   1.203
 5451SOL     OW17251   2.184   6.308   3.473
 5451SOL    HW117252   2.195   6.406   3.459
 5451SOL    HW217253   2.113   6.292   3.543
 5452SOL     OW17254   2.378   4.085   0.889
 5452SOL    HW117255   2.324   4.121   0.965
 5452SOL    HW217256   2.327   4.013   0.843
 5453SOL     OW17257   5.246   4.440   2.531
 5453SOL    HW117258   5.173   4.378   2.559
 5453SOL    HW217259   5.210   4.508   2.467
 5454SOL     OW17260   5.012   5.676   0.108
 5454SOL    HW117261   5.036   5.757   0.162
 5454SOL    HW217262   5.080   5.663   0.036
 5455SOL     OW17263   6.976   2.685   3.592
 5455SOL    HW117264   0.047   2.723   3.579
 5455SOL    HW217265   6.983   2.586   3.604
 5456SOL     OW17266   3.382   0.801   6.778
 5456SOL    HW117267   3.295   0.808   6.828
 5456SOL    HW217268   3.379   0.859   6.697
 5457SOL     OW17269   6.758   1.761   1.432
 5457SOL    HW117270   6.689   1.751   1.360
 5457SOL    HW217271   6.741   1.693   1.503
 5458SOL     OW17272   0.175   5.467   0.238
 5458SOL    HW117273   0.106   5.537   0.221
 5458SOL    HW217274   0.264   5.499   0.203
 5459SOL     OW17275   2.540   3.887   5.903
 5459SOL    HW117276   2.535   3.926   5.811
 5459SOL    HW217277   2.465   3.822   5.916
 5460SOL     OW17278   3.601   0.268   3.005
 5460SOL    HW117279   3.511   0.301   2.978
 5460SOL    HW217280   3.660   0.345   3.031
 5461SOL     OW17281   0.333   0.007   4.710
 5461SOL    HW117282   0.327   6.932   4.741
 5461SOL    HW217283   0.241   0.043   4.697
 5462SOL     OW17284   5.750   6.369   6.793
 5462SOL    HW117285   5.846   6.339   6.791
 5462SOL    HW217286   5.745   6.464   6.763
 5463SOL     OW17287   0.424   1.933   0.092
 5463SOL    HW117288   0.412   1.901   0.186
 5463SOL    HW217289   0.506   1.892   0.053
 5464SOL     OW17290   5.890   6.725   4.968
 5464SOL    HW117291   5.876   6.812   5.014
 5464SOL    HW217292   5.806   6.700   4.918
 5465SOL     OW17293   5.718   0.160   3.788
 5465SOL    HW117294   5.752   0.075   3.828
 5465SOL    HW217295   5.703   0.228   3.861
 5466SOL     OW17296   5.260   2.715   5.691
 5466SOL    HW117297   5.332   2.747   5.629
 5466SOL    HW217298   5.207   2.643   5.646
 5467SOL     OW17299   5.825   3.782   3.224
 5467SOL    HW117300   5.781   3.762   3.137
 5467SOL    HW217301   5.769   3.846   3.276
 5468SOL     OW17302   6.074   1.902   5.150
 5468SOL    HW117303   6.061   1.936   5.056
 5468SOL    HW217304   5.985   1.888   5.193
 5469SOL     OW17305   3.370   6.282   5.322
 5469SOL    HW117306   3.357   6.363   5.264
 5469SOL    HW217307   3.289   6.268   5.378
 5470SOL     OW17308   3.305   5.239   3.415
 5470SOL    HW117309   3.368   5.291   3.473
 5470SOL    HW217310   3.267   5.162   3.467
 5471SOL     OW17311   6.320   0.667   3.522
 5471SOL    HW117312   6.319   0.741   3.589
 5471SOL    HW217313   6.406   0.615   3.531
 5472SOL     OW17314   2.906   3.811   6.358
 5472SOL    HW117315   2.970   3.794   6.284
 5472SOL    HW217316   2.953   3.853   6.435
 5473SOL     OW17317   2.008   3.314   1.380
 5473SOL    HW117318   2.098   3.357   1.372
 5473SOL    HW217319   1.997   3.277   1.472
 5474SOL     OW17320   1.051   4.881   4.701
 5474SOL    HW117321   1.091   4.809   4.758
 5474SOL    HW217322   1.052   4.852   4.605
 5475SOL     OW17323   1.807   2.582   0.943
 5475SOL    HW117324   1.712   2.595   0.972
 5475SOL    HW217325   1.816   2.494   0.898
 5476SOL     OW17326   2.237   4.401   4.939
 5476SOL    HW117327   2.234   4.311   4.896
 5476SOL    HW217328   2.169   4.461   4.896
 5477SOL     OW17329   2.239   4.043   2.677
 5477SOL    HW117330   2.149   4.001   2.689
 5477SOL    HW217331   2.238   4.136   2.714
 5478SOL     OW17332   3.766   6.766   5.199
 5478SOL    HW117333   3.848   6.812   5.233
 5478SOL    HW217334   3.731   6.704   5.269
 5479SOL     OW17335   5.301   2.152   5.620
 5479SOL    HW117336   5.299   2.186   5.714
 5479SOL    HW217337   5.209   2.125   5.593
 5480SOL     OW17338   5.568   5.650   4.392
 5480SOL    HW117339   5.545   5.747   4.404
 5480SOL    HW217340   5.509   5.594   4.450
 5481SOL     OW17341   4.439   1.126   4.404
 5481SOL    HW117342   4.496   1.092   4.479
 5481SOL    HW217343   4.346   1.089   4.413
 5482SOL     OW17344   3.814   3.724   1.654
 5482SOL    HW117345   3.769   3.729   1.744
 5482SOL    HW217346   3.751   3.759   1.584
 5483SOL     OW17347   0.310   2.503   5.271
 5483SOL    HW117348   0.346   2.532   5.360
 5483SOL    HW217349   0.313   2.580   5.207
 5484SOL     OW17350   4.907   0.772   3.575
 5484SOL    HW117351   4.960   0.735   3.652
 5484SOL    HW217352   4.928   0.720   3.492
 5485SOL     OW17353   3.429   0.102   5.230
 5485SOL    HW117354   3.344   0.057   5.204
 5485SOL    HW217355   3.506   0.054   5.187
 5486SOL     OW17356   1.647   5.104   5.309
 5486SOL    HW117357   1.582   5.115   5.234
 5486SOL    HW217358   1.619   5.163   5.385
 5487SOL     OW17359   5.032   3.191   6.483
 5487SOL    HW117360   5.084   3.271   6.455
 5487SOL    HW217361   5.027   3.187   6.583
 5488SOL     OW17362   6.353   0.962   0.745
 5488SOL    HW117363   6.328   0.869   0.719
 5488SOL    HW217364   6.403   1.006   0.671
 5489SOL     OW17365   0.872   4.423   1.023
 5489SOL    HW117366   0.894   4.495   1.089
 5489SOL    HW217367   0.935   4.428   0.945
 5490SOL     OW17368   3.049   0.070   0.521
 5490SOL    HW117369   3.096   0.151   0.485
 5490SOL    HW217370   3.115   0.012   0.570
 5491SOL     OW17371   1.948   4.272   1.030
 5491SOL    HW117372   1.958   4.244   1.126
 5491SOL    HW217373   1.858   4.315   1.017
 5492SOL     OW17374   0.323   2.400   5.961
 5492SOL    HW117375   0.295   2.472   5.897
 5492SOL    HW217376   0.413   2.365   5.935
 5493SOL     OW17377   4.031   3.935   4.086
 5493SOL    HW117378   4.121   3.892   4.078
 5493SOL    HW217379   4.001   3.933   4.181
 5494SOL     OW17380   6.605   2.472   6.242
 5494SOL    HW117381   6.699   2.466   6.276
 5494SOL    HW217382   6.573   2.381   6.216
 5495SOL     OW17383   3.526   1.758   0.767
 5495SOL    HW117384   3.559   1.697   0.696
 5495SOL    HW217385   3.530   1.853   0.735
 5496SOL     OW17386   3.438   0.215   3.394
 5496SOL    HW117387   3.430   0.150   3.469
 5496SOL    HW217388   3.503   0.180   3.326
 5497SOL     OW17389   0.607   2.055   4.267
 5497SOL    HW117390   0.509   2.037   4.261
 5497SOL    HW217391   0.656   1.993   4.207
 5498SOL     OW17392   6.025   6.320   0.812
 5498SOL    HW117393   6.085   6.252   0.770
 5498SOL    HW217394   6.029   6.405   0.761
 5499SOL     OW17395   0.316   0.683   4.780
 5499SOL    HW117396   0.356   0.594   4.803
 5499SOL    HW217397   0.332   0.747   4.855
 5500SOL     OW17398   0.987   0.716   0.399
 5500SOL    HW117399   1.011   0.645   0.465
 5500SOL    HW217400   0.958   0.798   0.448
 5501SOL     OW17401   4.066   6.444   0.270
 5501SOL    HW117402   4.132   6.477   0.202
 5501SOL    HW217403   4.045   6.517   0.335
 5502SOL     OW17404   5.308   3.678   0.146
 5502SOL    HW117405   5.401   3.717   0.145
 5502SOL    HW217406   5.243   3.749   0.172
 5503SOL     OW17407   0.885   4.842   2.561
 5503SOL    HW117408   0.819   4.787   2.613
 5503SOL    HW217409   0.858   4.938   2.563
 5504SOL     OW17410   3.919   1.155   5.329
 5504SOL    HW117411   3.859   1.216   5.380
 5504SOL    HW217412   3.876   1.131   5.241
 5505SOL     OW17413   1.513   5.286   4.219
 5505SOL    HW117414   1.510   5.202   4.273
 5505SOL    HW217415   1.440   5.284   4.150
 5506SOL     OW17416   1.047   2.363   6.277
 5506SOL    HW117417   1.115   2.329   6.342
 5506SOL    HW217418   0.986   2.288   6.251
 5507SOL     OW17419   2.964   0.520   3.854
 5507SOL    HW117420   2.992   0.525   3.758
 5507SOL    HW217421   3.045   0.520   3.912
 5508SOL     OW17422   1.212   0.787   6.064
 5508SOL    HW117423   1.230   0.880   6.031
 5508SOL    HW217424   1.174   0.791   6.156
 5509SOL     OW17425   0.588   6.496   0.007
 5509SOL    HW117426   0.652   6.519   0.080
 5509SOL    HW217427   0.515   6.565   0.003
 5510SOL     OW17428   5.640   5.462   0.612
 5510SOL    HW117429   5.574   5.424   0.677
 5510SOL    HW217430   5.732   5.444   0.645
 5511SOL     OW17431   1.630   1.614   4.044
 5511SOL    HW117432   1.655   1.521   4.018
 5511SOL    HW217433   1.691   1.646   4.117
 5512SOL     OW17434   5.657   2.016   1.576
 5512SOL    HW117435   5.733   1.952   1.572
 5512SOL    HW217436   5.572   1.969   1.551
 5513SOL     OW17437   4.368   4.898   0.008
 5513SOL    HW117438   4.328   4.867   6.943
 5513SOL    HW217439   4.296   4.915   0.075
 5514SOL     OW17440   4.277   6.856   4.090
 5514SOL    HW117441   4.287   6.884   3.995
 5514SOL    HW217442   4.182   6.834   4.109
 5515SOL     OW17443   0.520   5.493   1.901
 5515SOL    HW117444   0.469   5.434   1.839
 5515SOL    HW217445   0.464   5.572   1.926
 5516SOL     OW17446   1.824   4.509   6.625
 5516SOL    HW117447   1.732   4.534   6.595
 5516SOL    HW217448   1.855   4.428   6.575
 5517SOL     OW17449   1.889   3.228   2.227
 5517SOL    HW117450   1.956   3.301   2.229
 5517SOL    HW217451   1.798   3.266   2.212
 5518SOL     OW17452   6.217   5.924   6.145
 5518SOL    HW117453   6.121   5.939   6.122
 5518SOL    HW217454   6.275   5.954   6.068
 5519SOL     OW17455   5.694   3.611   3.040
 5519SOL    HW117456   5.628   3.541   3.013
 5519SOL    HW217457   5.760   3.624   2.966
 5520SOL     OW17458   5.775   6.001   1.973
 5520SOL    HW117459   5.774   5.964   2.066
 5520SOL    HW217460   5.866   5.990   1.934
 5521SOL     OW17461   5.416   0.084   1.545
 5521SOL    HW117462   5.457   0.046   1.462
 5521SOL    HW217463   5.474   0.064   1.624
 5522SOL     OW17464   0.148   5.286   0.496
 5522SOL    HW117465   0.169   5.335   0.411
 5522SOL    HW217466   0.125   5.191   0.475
 5523SOL     OW17467   3.366   0.699   2.095
 5523SOL    HW117468   3.405   0.696   2.187
 5523SOL    HW217469   3.388   0.614   2.047
 5524SOL     OW17470   5.336   6.210   5.559
 5524SOL    HW117471   5.352   6.190   5.655
 5524SOL    HW217472   5.278   6.139   5.519
 5525SOL     OW17473   0.680   2.375   0.998
 5525SOL    HW117474   0.610   2.435   1.036
 5525SOL    HW217475   0.637   2.309   0.936
 5526SOL     OW17476   5.186   5.184   3.559
 5526SOL    HW117477   5.188   5.152   3.654
 5526SOL    HW217478   5.195   5.106   3.497
 5527SOL     OW17479   5.323   4.125   3.940
 5527SOL    HW117480   5.309   4.220   3.911
 5527SOL    HW217481   5.366   4.074   3.865
 5528SOL     OW17482   1.058   1.058   6.374
 5528SOL    HW117483   0.999   0.992   6.328
 5528SOL    HW217484   1.082   1.025   6.465
 5529SOL     OW17485   3.137   0.127   3.162
 5529SOL    HW117486   3.221   0.072   3.157
 5529SOL    HW217487   3.104   0.128   3.256
 5530SOL     OW17488   5.661   2.290   1.916
 5530SOL    HW117489   5.686   2.386   1.905
 5530SOL    HW217490   5.609   2.279   2.001
 5531SOL     OW17491   3.071   3.129   2.391
 5531SOL    HW117492   3.086   3.055   2.326
 5531SOL    HW217493   3.136   3.121   2.466
 5532SOL     OW17494   1.111   3.007   0.323
 5532SOL    HW117495   1.138   2.912   0.340
 5532SOL    HW217496   1.149   3.038   0.236
 5533SOL     OW17497   3.832   1.525   3.176
 5533SOL    HW117498   3.771   1.462   3.223
 5533SOL    HW217499   3.918   1.532   3.228
 5534SOL     OW17500   0.714   1.501   5.998
 5534SOL    HW117501   0.778   1.578   5.997
 5534SOL    HW217502   0.717   1.456   6.087
 5535SOL     OW17503   6.783   2.894   3.140
 5535SOL    HW117504   6.695   2.906   3.185
 5535SOL    HW217505   6.843   2.838   3.198
 5536SOL     OW17506   3.190   1.073   4.083
 5536SOL    HW117507   3.111   1.084   4.144
 5536SOL    HW217508   3.254   1.148   4.097
 5537SOL     OW17509   2.834   0.281   2.406
 5537SOL    HW117510   2.805   0.249   2.316
 5537SOL    HW217511   2.933   0.297   2.405
 5538SOL     OW17512   2.066   6.172   5.638
 5538SOL    HW117513   2.071   6.124   5.725
 5538SOL    HW217514   2.132   6.248   5.638
 5539SOL     OW17515   1.690   3.220   1.253
 5539SOL    HW117516   1.596   3.189   1.245
 5539SOL    HW217517   1.749   3.164   1.195
 5540SOL     OW17518   5.187   3.883   3.679
 5540SOL    HW117519   5.279   3.909   3.709
 5540SOL    HW217520   5.193   3.834   3.593
 5541SOL     OW17521   6.245   6.787   6.223
 5541SOL    HW117522   6.165   6.847   6.216
 5541SOL    HW217523   6.274   6.781   6.318
 5542SOL     OW17524   5.538   3.653   5.857
 5542SOL    HW117525   5.553   3.590   5.781
 5542SOL    HW217526   5.442   3.648   5.885
 5543SOL     OW17527   3.768   5.061   5.721
 5543SOL    HW117528   3.862   5.076   5.752
 5543SOL    HW217529   3.757   5.101   5.630
 5544SOL     OW17530   5.655   6.027   6.439
 5544SOL    HW117531   5.719   6.004   6.365
 5544SOL    HW217532   5.681   5.978   6.522
 5545SOL     OW17533   3.724   1.448   1.680
 5545SOL    HW117534   3.779   1.396   1.746
 5545SOL    HW217535   3.724   1.545   1.705
 5546SOL     OW17536   1.168   5.140   4.663
 5546SOL    HW117537   1.262   5.164   4.687
 5546SOL    HW217538   1.150   5.045   4.687
 5547SOL     OW17539   2.469   0.241   4.760
 5547SOL    HW117540   2.512   0.154   4.737
 5547SOL    HW217541   2.374   0.226   4.787
 5548SOL     OW17542   5.171   3.104   5.498
 5548SOL    HW117543   5.101   3.169   5.471
 5548SOL    HW217544   5.159   3.081   5.594
 5549SOL     OW17545   4.115   3.598   6.569
 5549SOL    HW117546   4.022   3.635   6.572
 5549SOL    HW217547   4.170   3.650   6.504
 5550SOL     OW17548   2.328   4.382   2.072
 5550SOL    HW117549   2.264   4.306   2.060
 5550SOL    HW217550   2.375   4.400   1.986
 5551SOL     OW17551   2.195   0.023   3.433
 5551SOL    HW117552   2.215   7.006   3.343
 5551SOL    HW217553   2.250   0.105   3.449
 5552SOL     OW17554   6.702   0.738   6.847
 5552SOL    HW117555   6.660   0.755   6.758
 5552SOL    HW217556   6.801   0.746   6.838
 5553SOL     OW17557   4.839   6.707   0.072
 5553SOL    HW117558   4.920   6.699   0.014
 5553SOL    HW217559   4.763   6.656   0.031
 5554SOL     OW17560   3.925   1.842   5.597
 5554SOL    HW117561   3.915   1.852   5.696
 5554SOL    HW217562   3.883   1.756   5.568
 5555SOL     OW17563   1.816   4.454   4.254
 5555SOL    HW117564   1.720   4.459   4.226
 5555SOL    HW217565   1.826   4.389   4.329
 5556SOL     OW17566   6.595   1.890   3.701
 5556SOL    HW117567   6.526   1.958   3.722
 5556SOL    HW217568   6.577   1.807   3.754
 5557SOL     OW17569   3.855   6.400   2.643
 5557SOL    HW117570   3.832   6.484   2.692
 5557SOL    HW217571   3.824   6.321   2.697
 5558SOL     OW17572   4.601   3.289   6.199
 5558SOL    HW117573   4.678   3.242   6.242
 5558SOL    HW217574   4.635   3.366   6.146
 5559SOL     OW17575   2.965   0.245   2.088
 5559SOL    HW117576   2.982   0.343   2.105
 5559SOL    HW217577   2.866   0.229   2.086
 5560SOL     OW17578   1.138   6.920   3.825
 5560SOL    HW117579   1.043   6.895   3.841
 5560SOL    HW217580   1.152   7.015   3.852
 5561SOL     OW17581   1.706   2.472   4.010
 5561SOL    HW117582   1.606   2.474   4.018
 5561SOL    HW217583   1.741   2.387   4.049
 5562SOL     OW17584   3.045   1.998   6.810
 5562SOL    HW117585   2.960   2.050   6.808
 5562SOL    HW217586   3.122   2.061   6.818
 5563SOL     OW17587   4.337   5.279   2.753
 5563SOL    HW117588   4.424   5.325   2.775
 5563SOL    HW217589   4.346   5.181   2.771
 5564SOL     OW17590   4.595   0.738   2.007
 5564SOL    HW117591   4.692   0.740   1.984
 5564SOL    HW217592   4.585   0.728   2.106
 5565SOL     OW17593   4.777   2.173   6.708
 5565SOL    HW117594   4.804   2.150   6.615
 5565SOL    HW217595   4.859   2.173   6.767
 5566SOL     OW17596   1.919   5.858   0.155
 5566SOL    HW117597   1.895   5.954   0.139
 5566SOL    HW217598   1.859   5.821   0.226
 5567SOL     OW17599   0.332   4.329   1.893
 5567SOL    HW117600   0.238   4.322   1.927
 5567SOL    HW217601   0.340   4.410   1.834
 5568SOL     OW17602   4.215   2.269   3.254
 5568SOL    HW117603   4.210   2.270   3.354
 5568SOL    HW217604   4.129   2.234   3.217
 5569SOL     OW17605   2.462   1.561   2.660
 5569SOL    HW117606   2.531   1.570   2.588
 5569SOL    HW217607   2.489   1.618   2.738
 5570SOL     OW17608   6.078   4.970   4.938
 5570SOL    HW117609   6.020   5.002   4.863
 5570SOL    HW217610   6.090   4.871   4.930
 5571SOL     OW17611   0.393   6.099   0.806
 5571SOL    HW117612   0.301   6.117   0.840
 5571SOL    HW217613   0.432   6.020   0.854
 5572SOL     OW17614   1.443   2.702   4.596
 5572SOL    HW117615   1.364   2.703   4.533
 5572SOL    HW217616   1.427   2.767   4.670
 5573SOL     OW17617   2.195   3.317   6.773
 5573SOL    HW117618   2.295   3.306   6.775
 5573SOL    HW217619   2.154   3.238   6.726
 5574SOL     OW17620   6.297   1.716   3.743
 5574SOL    HW117621   6.202   1.687   3.735
 5574SOL    HW217622   6.304   1.793   3.806
 5575SOL     OW17623   0.177   1.323   1.483
 5575SOL    HW117624   0.144   1.235   1.516
 5575SOL    HW217625   0.174   1.325   1.383
 5576SOL     OW17626   1.143   6.508   2.024
 5576SOL    HW117627   1.096   6.420   2.030
 5576SOL    HW217628   1.150   6.535   1.927
 5577SOL     OW17629   3.203   2.527   5.638
 5577SOL    HW117630   3.140   2.524   5.560
 5577SOL    HW217631   3.184   2.608   5.693
 5578SOL     OW17632   3.903   4.478   0.614
 5578SOL    HW117633   3.889   4.485   0.515
 5578SOL    HW217634   3.863   4.392   0.647
 5579SOL     OW17635   0.033   3.666   6.343
 5579SOL    HW117636   6.964   3.641   6.308
 5579SOL    HW217637   0.063   3.598   6.410
 5580SOL     OW17638   4.110   2.523   5.762
 5580SOL    HW117639   4.011   2.512   5.749
 5580SOL    HW217640   4.131   2.620   5.773
 5581SOL     OW17641   2.515   6.316   2.007
 5581SOL    HW117642   2.416   6.329   2.006
 5581SOL    HW217643   2.556   6.380   2.072
 5582SOL     OW17644   3.865   3.375   3.508
 5582SOL    HW117645   3.789   3.411   3.454
 5582SOL    HW217646   3.944   3.434   3.497
 5583SOL     OW17647   4.608   6.991   2.595
 5583SOL    HW117648   4.627   6.924   2.667
 5583SOL    HW217649   4.535   0.032   2.625
 5584SOL     OW17650   5.687   4.233   4.162
 5584SOL    HW117651   5.705   4.145   4.118
 5584SOL    HW217652   5.590   4.238   4.186
 5585SOL     OW17653   4.483   6.633   4.163
 5585SOL    HW117654   4.433   6.577   4.230
 5585SOL    HW217655   4.425   6.709   4.135
 5586SOL     OW17656   0.810   2.488   6.551
 5586SOL    HW117657   0.768   2.408   6.593
 5586SOL    HW217658   0.795   2.486   6.453
 5587SOL     OW17659   4.311   6.138   2.602
 5587SOL    HW117660   4.288   6.040   2.610
 5587SOL    HW217661   4.243   6.183   2.544
 5588SOL     OW17662   1.788   6.996   3.073
 5588SOL    HW117663   1.698   7.014   3.032
 5588SOL    HW217664   1.819   0.057   3.122
 5589SOL     OW17665   5.776   2.528   6.735
 5589SOL    HW117666   5.787   2.430   6.721
 5589SOL    HW217667   5.865   2.573   6.734
 5590SOL     OW17668   6.649   5.955   3.145
 5590SOL    HW117669   6.566   5.906   3.120
 5590SOL    HW217670   6.689   5.914   3.227
 5591SOL     OW17671   5.989   1.167   6.398
 5591SOL    HW117672   6.033   1.092   6.448
 5591SOL    HW217673   5.996   1.150   6.300
 5592SOL     OW17674   0.987   4.061   2.875
 5592SOL    HW117675   0.960   4.042   2.781
 5592SOL    HW217676   1.074   4.110   2.876
 5593SOL     OW17677   6.608   2.331   5.932
 5593SOL    HW117678   6.555   2.281   6.000
 5593SOL    HW217679   6.583   2.428   5.934
 5594SOL     OW17680   2.702   1.123   6.825
 5594SOL    HW117681   2.750   1.130   6.738
 5594SOL    HW217682   2.740   1.047   6.878
 5595SOL     OW17683   6.351   0.687   5.099
 5595SOL    HW117684   6.407   0.734   5.031
 5595SOL    HW217685   6.382   0.593   5.110
 5596SOL     OW17686   5.048   0.497   2.506
 5596SOL    HW117687   5.098   0.570   2.459
 5596SOL    HW217688   4.955   0.493   2.470
 5597SOL     OW17689   5.513   1.577   5.566
 5597SOL    HW117690   5.510   1.568   5.466
 5597SOL    HW217691   5.496   1.672   5.591
 5598SOL     OW17692   5.506   2.367   3.885
 5598SOL    HW117693   5.551   2.378   3.797
 5598SOL    HW217694   5.480   2.457   3.920
 5599SOL     OW17695   6.584   2.889   1.911
 5599SOL    HW117696   6.665   2.849   1.868
 5599SOL    HW217697   6.526   2.930   1.841
 5600SOL     OW17698   1.907   0.553   2.194
 5600SOL    HW117699   1.829   0.569   2.133
 5600SOL    HW217700   1.877   0.501   2.274
 5601SOL     OW17701   3.841   1.636   6.662
 5601SOL    HW117702   3.781   1.619   6.584
 5601SOL    HW217703   3.871   1.732   6.660
 5602SOL     OW17704   0.774   0.322   2.431
 5602SOL    HW117705   0.695   0.264   2.411
 5602SOL    HW217706   0.770   0.352   2.526
 5603SOL     OW17707   5.299   2.264   5.885
 5603SOL    HW117708   5.200   2.271   5.881
 5603SOL    HW217709   5.326   2.202   5.958
 5604SOL     OW17710   0.157   2.467   4.770
 5604SOL    HW117711   0.216   2.477   4.689
 5604SOL    HW217712   0.086   2.400   4.751
 5605SOL     OW17713   1.895   6.814   4.523
 5605SOL    HW117714   1.950   6.730   4.517
 5605SOL    HW217715   1.913   6.859   4.611
 5606SOL     OW17716   4.781   0.626   0.443
 5606SOL    HW117717   4.731   0.681   0.375
 5606SOL    HW217718   4.762   0.529   0.429
 5607SOL     OW17719   5.293   1.678   3.543
 5607SOL    HW117720   5.218   1.741   3.525
 5607SOL    HW217721   5.343   1.708   3.624
 5608SOL     OW17722   5.907   1.339   2.993
 5608SOL    HW117723   5.865   1.293   3.072
 5608SOL    HW217724   5.836   1.383   2.939
 5609SOL     OW17725   4.808   5.887   0.756
 5609SOL    HW117726   4.808   5.805   0.813
 5609SOL    HW217727   4.796   5.967   0.815
 5610SOL     OW17728   5.857   4.021   1.528
 5610SOL    HW117729   5.919   4.055   1.458
 5610SOL    HW217730   5.766   4.062   1.515
 5611SOL     OW17731   0.692   4.889   2.125
 5611SOL    HW117732   0.593   4.900   2.112
 5611SOL    HW217733   0.712   4.793   2.146
 5612SOL     OW17734   3.741   2.796   0.343
 5612SOL    HW117735   3.667   2.782   0.277
 5612SOL    HW217736   3.778   2.888   0.332
 5613SOL     OW17737   6.282   5.180   5.258
 5613SOL    HW117738   6.347   5.107   5.278
 5613SOL    HW217739   6.232   5.158   5.175
 5614SOL     OW17740   5.582   3.238   4.980
 5614SOL    HW117741   5.600   3.163   5.043
 5614SOL    HW217742   5.559   3.202   4.890
 5615SOL     OW17743   6.882   1.731   3.346
 5615SOL    HW117744   6.928   1.663   3.290
 5615SOL    HW217745   6.870   1.815   3.293
 5616SOL     OW17746   2.216   2.973   4.850
 5616SOL    HW117747   2.184   3.058   4.807
 5616SOL    HW217748   2.279   2.995   4.924
 5617SOL     OW17749   1.314   3.658   5.120
 5617SOL    HW117750   1.365   3.707   5.191
 5617SOL    HW217751   1.218   3.650   5.147
 5618SOL     OW17752   6.784   4.650   3.444
 5618SOL    HW117753   6.702   4.596   3.460
 5618SOL    HW217754   6.788   4.726   3.509
 5619SOL     OW17755   3.306   3.667   3.337
 5619SOL    HW117756   3.255   3.640   3.418
 5619SOL    HW217757   3.399   3.630   3.341
 5620SOL     OW17758   4.711   3.906   6.488
 5620SOL    HW117759   4.793   3.901   6.430
 5620SOL    HW217760   4.647   3.972   6.449
 5621SOL     OW17761   1.526   3.435   6.075
 5621SOL    HW117762   1.472   3.499   6.130
 5621SOL    HW217763   1.618   3.427   6.115
 5622SOL     OW17764   4.921   6.585   5.914
 5622SOL    HW117765   4.935   6.623   5.823
 5622SOL    HW217766   4.983   6.630   5.978
 5623SOL     OW17767   4.748   6.408   5.030
 5623SOL    HW117768   4.777   6.454   4.946
 5623SOL    HW217769   4.732   6.311   5.012
 5624SOL     OW17770   0.464   5.081   3.723
 5624SOL    HW117771   0.527   5.117   3.654
 5624SOL    HW217772   0.481   4.983   3.736
 5625SOL     OW17773   0.178   5.251   5.332
 5625SOL    HW117774   0.225   5.165   5.314
 5625SOL    HW217775   0.090   5.251   5.284
 5626SOL     OW17776   2.478   5.684   3.805
 5626SOL    HW117777   2.537   5.643   3.875
 5626SOL    HW217778   2.475   5.783   3.817
 5627SOL     OW17779   0.075   5.157   5.927
 5627SOL    HW117780   0.131   5.230   5.968
 5627SOL    HW217781   0.105   5.141   5.833
 5628SOL     OW17782   2.368   1.930   1.221
 5628SOL    HW117783   2.458   1.974   1.217
 5628SOL    HW217784   2.341   1.921   1.317
 5629SOL     OW17785   5.205   2.680   2.156
 5629SOL    HW117786   5.122   2.671   2.211
 5629SOL    HW217787   5.214   2.775   2.126
 5630SOL     OW17788   1.960   4.357   6.826
 5630SOL    HW117789   1.892   4.415   6.873
 5630SOL    HW217790   1.996   4.407   6.747
 5631SOL     OW17791   5.374   1.357   0.859
 5631SOL    HW117792   5.471   1.366   0.833
 5631SOL    HW217793   5.367   1.292   0.935
 5632SOL     OW17794   3.953   1.975   5.351
 5632SOL    HW117795   3.954   1.935   5.442
 5632SOL    HW217796   3.890   2.053   5.350
 5633SOL     OW17797   5.990   4.533   4.647
 5633SOL    HW117798   5.967   4.436   4.659
 5633SOL    HW217799   5.978   4.559   4.552
 5634SOL     OW17800   2.362   5.155   3.867
 5634SOL    HW117801   2.279   5.141   3.922
 5634SOL    HW217802   2.431   5.089   3.892
 5635SOL     OW17803   2.103   6.176   6.455
 5635SOL    HW117804   2.072   6.085   6.426
 5635SOL    HW217805   2.025   6.228   6.490
 5636SOL     OW17806   5.871   0.447   5.334
 5636SOL    HW117807   5.909   0.413   5.420
 5636SOL    HW217808   5.897   0.386   5.260
 5637SOL     OW17809   3.253   6.851   3.668
 5637SOL    HW117810   3.172   6.794   3.672
 5637SOL    HW217811   3.332   6.800   3.701
 5638SOL     OW17812   6.277   4.644   1.069
 5638SOL    HW117813   6.186   4.661   1.106
 5638SOL    HW217814   6.271   4.633   0.970
 5639SOL     OW17815   2.552   0.528   1.841
 5639SOL    HW117816   2.560   0.564   1.748
 5639SOL    HW217817   2.456   0.510   1.861
 5640SOL     OW17818   2.958   0.452   2.730
 5640SOL    HW117819   3.006   0.537   2.752
 5640SOL    HW217820   2.871   0.449   2.779
 5641SOL     OW17821   0.279   4.944   6.136
 5641SOL    HW117822   0.225   4.958   6.053
 5641SOL    HW217823   0.339   5.023   6.150
 5642SOL     OW17824   0.700   5.131   4.877
 5642SOL    HW117825   0.738   5.218   4.848
 5642SOL    HW217826   0.767   5.081   4.931
 5643SOL     OW17827   3.535   1.091   4.438
 5643SOL    HW117828   3.605   1.155   4.471
 5643SOL    HW217829   3.562   0.998   4.462
 5644SOL     OW17830   3.768   0.480   4.132
 5644SOL    HW117831   3.733   0.508   4.043
 5644SOL    HW217832   3.695   0.437   4.184
 5645SOL     OW17833   6.078   4.358   3.115
 5645SOL    HW117834   6.002   4.412   3.079
 5645SOL    HW217835   6.162   4.411   3.110
 5646SOL     OW17836   1.278   6.048   2.984
 5646SOL    HW117837   1.265   6.147   2.978
 5646SOL    HW217838   1.191   6.002   2.968
 5647SOL     OW17839   6.168   6.538   0.583
 5647SOL    HW117840   6.083   6.588   0.568
 5647SOL    HW217841   6.229   6.592   0.641
 5648SOL     OW17842   1.863   1.478   3.367
 5648SOL    HW117843   1.869   1.501   3.464
 5648SOL    HW217844   1.855   1.379   3.356
 5649SOL     OW17845   6.628   6.693   5.516
 5649SOL    HW117846   6.610   6.777   5.566
 5649SOL    HW217847   6.541   6.650   5.490
 5650SOL     OW17848   0.728   5.677   1.125
 5650SOL    HW117849   0.775   5.611   1.183
 5650SOL    HW217850   0.716   5.763   1.173
 5651SOL     OW17851   0.407   1.068   1.483
 5651SOL    HW117852   0.490   1.108   1.523
 5651SOL    HW217853   0.327   1.103   1.532
 5652SOL     OW17854   5.825   6.529   1.550
 5652SOL    HW117855   5.785   6.467   1.618
 5652SOL    HW217856   5.818   6.623   1.582
 5653SOL     OW17857   0.821   5.692   6.589
 5653SOL    HW117858   0.747   5.741   6.635
 5653SOL    HW217859   0.794   5.597   6.574
 5654SOL     OW17860   6.457   6.365   5.675
 5654SOL    HW117861   6.431   6.450   5.721
 5654SOL    HW217862   6.522   6.315   5.732
 5655SOL     OW17863   1.211   3.383   4.916
 5655SOL    HW117864   1.191   3.439   4.996
 5655SOL    HW217865   1.296   3.415   4.874
 5656SOL     OW17866   0.844   3.040   0.677
 5656SOL    HW117867   0.911   3.098   0.724
 5656SOL    HW217868   0.829   2.956   0.730
 5657SOL     OW17869   5.641   0.735   0.465
 5657SOL    HW117870   5.606   0.716   0.373
 5657SOL    HW217871   5.572   0.784   0.518
 5658SOL     OW17872   3.547   5.532   6.242
 5658SOL    HW117873   3.587   5.506   6.329
 5658SOL    HW217874   3.573   5.466   6.172
 5659SOL     OW17875   4.108   3.570   3.464
 5659SOL    HW117876   4.116   3.597   3.368
 5659SOL    HW217877   4.084   3.650   3.519
 5660SOL     OW17878   5.874   6.807   5.387
 5660SOL    HW117879   5.865   6.707   5.391
 5660SOL    HW217880   5.804   6.849   5.445
 5661SOL     OW17881   1.191   4.378   5.031
 5661SOL    HW117882   1.242   4.437   5.093
 5661SOL    HW217883   1.253   4.339   4.963
 5662SOL     OW17884   3.098   5.372   3.548
 5662SOL    HW117885   3.167   5.322   3.496
 5662SOL    HW217886   3.049   5.434   3.486
 5663SOL     OW17887   2.203   2.923   6.714
 5663SOL    HW117888   2.190   2.842   6.771
 5663SOL    HW217889   2.285   2.912   6.658
 5664SOL     OW17890   6.778   4.276   4.892
 5664SOL    HW117891   6.830   4.254   4.810
 5664SOL    HW217892   6.681   4.281   4.870
 5665SOL     OW17893   1.470   2.401   6.764
 5665SOL    HW117894   1.378   2.379   6.732
 5665SOL    HW217895   1.522   2.316   6.776
 5666SOL     OW17896   5.822   5.676   1.339
 5666SOL    HW117897   5.756   5.736   1.384
 5666SOL    HW217898   5.907   5.725   1.324
 5667SOL     OW17899   0.830   4.402   3.411
 5667SOL    HW117900   0.795   4.480   3.359
 5667SOL    HW217901   0.928   4.391   3.393
 5668SOL     OW17902   4.786   2.184   5.436
 5668SOL    HW117903   4.742   2.121   5.372
 5668SOL    HW217904   4.758   2.278   5.415
 5669SOL     OW17905   0.820   2.600   0.207
 5669SOL    HW117906   0.882   2.606   0.129
 5669SOL    HW217907   0.736   2.552   0.180
 5670SOL     OW17908   6.278   2.901   3.853
 5670SOL    HW117909   6.351   2.961   3.883
 5670SOL    HW217910   6.232   2.861   3.932
 5671SOL     OW17911   0.734   5.670   7.013
 5671SOL    HW117912   0.734   5.581   0.039
 5671SOL    HW217913   0.692   5.738   0.052
 5672SOL     OW17914   4.071   4.883   6.495
 5672SOL    HW117915   4.166   4.854   6.505
 5672SOL    HW217916   4.056   4.965   6.549
 5673SOL     OW17917   1.155   6.755   1.778
 5673SOL    HW117918   1.067   6.728   1.817
 5673SOL    HW217919   1.205   6.811   1.844
 5674SOL     OW17920   6.795   4.929   4.634
 5674SOL    HW117921   6.765   5.014   4.677
 5674SOL    HW217922   6.774   4.852   4.694
 5675SOL     OW17923   4.602   2.034   5.734
 5675SOL    HW117924   4.579   2.096   5.659
 5675SOL    HW217925   4.691   2.058   5.771
 5676SOL     OW17926   2.515   2.585   2.423
 5676SOL    HW117927   2.492   2.495   2.461
 5676SOL    HW217928   2.603   2.615   2.460
 5677SOL     OW17929   0.645   1.329   3.020
 5677SOL    HW117930   0.618   1.425   3.018
 5677SOL    HW217931   0.708   1.309   2.945
 5678SOL     OW17932   3.434   6.382   2.992
 5678SOL    HW117933   3.438   6.344   3.085
 5678SOL    HW217934   3.486   6.467   2.989
 5679SOL     OW17935   1.251   1.024   4.136
 5679SOL    HW117936   1.225   0.935   4.172
 5679SOL    HW217937   1.208   1.038   4.047
 5680SOL     OW17938   1.412   5.413   0.209
 5680SOL    HW117939   1.449   5.440   0.298
 5680SOL    HW217940   1.323   5.371   0.222
 5681SOL     OW17941   0.432   4.376   0.049
 5681SOL    HW117942   0.474   4.426   0.125
 5681SOL    HW217943   0.340   4.411   0.032
 5682SOL     OW17944   2.166   4.375   6.289
 5682SOL    HW117945   2.218   4.290   6.287
 5682SOL    HW217946   2.080   4.363   6.240
 5683SOL     OW17947   3.857   0.823   0.316
 5683SOL    HW117948   3.783   0.775   0.269
 5683SOL    HW217949   3.838   0.825   0.415
 5684SOL     OW17950   3.291   2.916   4.596
 5684SOL    HW117951   3.227   2.978   4.642
 5684SOL    HW217952   3.364   2.891   4.659
 5685SOL     OW17953   1.922   3.065   2.730
 5685SOL    HW117954   2.021   3.067   2.723
 5685SOL    HW217955   1.895   3.042   2.823
 5686SOL     OW17956   2.665   0.189   6.179
 5686SOL    HW117957   2.620   0.254   6.119
 5686SOL    HW217958   2.744   0.232   6.223
 5687SOL     OW17959   0.668   4.397   5.903
 5687SOL    HW117960   0.669   4.414   5.804
 5687SOL    HW217961   0.574   4.394   5.936
 5688SOL     OW17962   0.211   2.328   0.204
 5688SOL    HW117963   0.140   2.347   0.137
 5688SOL    HW217964   0.180   2.356   0.295
 5689SOL     OW17965   4.552   0.702   0.694
 5689SOL    HW117966   4.643   0.744   0.685
 5689SOL    HW217967   4.515   0.681   0.604
 5690SOL     OW17968   2.413   6.262   0.737
 5690SOL    HW117969   2.442   6.294   0.647
 5690SOL    HW217970   2.447   6.169   0.753
 5691SOL     OW17971   2.627   6.517   2.160
 5691SOL    HW117972   2.717   6.556   2.181
 5691SOL    HW217973   2.568   6.588   2.122
 5692SOL     OW17974   6.747   2.995   6.763
 5692SOL    HW117975   6.688   3.011   6.842
 5692SOL    HW217976   6.840   3.022   6.785
 5693SOL     OW17977   5.685   2.277   2.702
 5693SOL    HW117978   5.636   2.215   2.764
 5693SOL    HW217979   5.724   2.352   2.754
 5694SOL     OW17980   0.872   2.375   4.121
 5694SOL    HW117981   0.792   2.346   4.173
 5694SOL    HW217982   0.954   2.331   4.158
 5695SOL     OW17983   1.123   2.826   3.192
 5695SOL    HW117984   1.105   2.865   3.283
 5695SOL    HW217985   1.119   2.727   3.197
 5696SOL     OW17986   1.547   0.853   3.032
 5696SOL    HW117987   1.616   0.835   2.962
 5696SOL    HW217988   1.581   0.922   3.096
 5697SOL     OW17989   6.023   2.532   1.423
 5697SOL    HW117990   6.088   2.608   1.432
 5697SOL    HW217991   5.986   2.509   1.513
 5698SOL     OW17992   0.313   3.439   3.045
 5698SOL    HW117993   0.327   3.529   3.086
 5698SOL    HW217994   0.402   3.395   3.031
 5699SOL     OW17995   6.374   2.393   2.593
 5699SOL    HW117996   6.344   2.485   2.616
 5699SOL    HW217997   6.452   2.369   2.651
 5700SOL     OW17998   6.546   6.396   4.562
 5700SOL    HW117999   6.606   6.446   4.500
 5700SOL    HW218000   6.574   6.413   4.656
 5701SOL     OW18001   2.096   0.147   2.972
 5701SOL    HW118002   2.020   0.112   3.026
 5701SOL    HW218003   2.065   0.223   2.915
 5702SOL     OW18004   2.684   6.315   5.688
 5702SOL    HW118005   2.690   6.225   5.731
 5702SOL    HW218006   2.653   6.304   5.593
 5703SOL     OW18007   6.036   4.564   1.862
 5703SOL    HW118008   6.034   4.660   1.891
 5703SOL    HW218009   6.098   4.513   1.922
 5704SOL     OW18010   4.042   4.986   2.356
 5704SOL    HW118011   3.968   4.922   2.334
 5704SOL    HW218012   4.011   5.079   2.338
 5705SOL     OW18013   4.608   0.619   1.510
 5705SOL    HW118014   4.639   0.524   1.513
 5705SOL    HW218015   4.592   0.646   1.415
 5706SOL     OW18016   0.022   3.190   0.160
 5706SOL    HW118017   0.121   3.183   0.150
 5706SOL    HW218018   7.015   3.286   0.152
 5707SOL     OW18019   6.933   6.993   0.739
 5707SOL    HW118020   6.943   0.064   0.779
 5707SOL    HW218021   7.007   6.934   0.772
 5708SOL     OW18022   4.850   6.071   0.970
 5708SOL    HW118023   4.829   6.165   0.943
 5708SOL    HW218024   4.949   6.060   0.977
 5709SOL     OW18025   1.938   0.136   3.257
 5709SOL    HW118026   2.035   0.139   3.281
 5709SOL    HW218027   1.888   0.205   3.310
 5710SOL     OW18028   2.369   3.361   6.495
 5710SOL    HW118029   2.463   3.387   6.517
 5710SOL    HW218030   2.338   3.290   6.558
 5711SOL     OW18031   4.946   1.299   2.737
 5711SOL    HW118032   5.005   1.274   2.814
 5711SOL    HW218033   4.853   1.268   2.755
 5712SOL     OW18034   0.927   5.944   6.121
 5712SOL    HW118035   0.882   5.905   6.202
 5712SOL    HW218036   1.009   5.892   6.100
 5713SOL     OW18037   2.573   3.025   1.604
 5713SOL    HW118038   2.478   3.041   1.631
 5713SOL    HW218039   2.603   2.936   1.636
 5714SOL     OW18040   1.053   5.709   6.695
 5714SOL    HW118041   0.960   5.694   6.662
 5714SOL    HW218042   1.052   5.720   6.795
 5715SOL     OW18043   1.080   6.749   3.152
 5715SOL    HW118044   1.044   6.666   3.195
 5715SOL    HW218045   1.139   6.724   3.075
 5716SOL     OW18046   1.645   4.173   0.075
 5716SOL    HW118047   1.651   4.074   0.057
 5716SOL    HW218048   1.729   4.204   0.119
 5717SOL     OW18049   1.456   6.052   1.084
 5717SOL    HW118050   1.409   6.076   1.168
 5717SOL    HW218051   1.551   6.084   1.089
 5718SOL     OW18052   1.057   3.106   5.757
 5718SOL    HW118053   1.067   3.155   5.843
 5718SOL    HW218054   1.086   3.011   5.770
 5719SOL     OW18055   2.720   1.138   5.902
 5719SOL    HW118056   2.771   1.053   5.912
 5719SOL    HW218057   2.775   1.214   5.937
 5720SOL     OW18058   1.442   5.431   3.919
 5720SOL    HW118059   1.475   5.502   3.982
 5720SOL    HW218060   1.369   5.379   3.963
 5721SOL     OW18061   0.309   4.049   1.094
 5721SOL    HW118062   0.346   3.958   1.111
 5721SOL    HW218063   0.210   4.047   1.103
 5722SOL     OW18064   6.121   1.430   5.348
 5722SOL    HW118065   6.160   1.339   5.364
 5722SOL    HW218066   6.041   1.443   5.407
 5723SOL     OW18067   4.578   3.799   6.882
 5723SOL    HW118068   4.585   3.707   6.845
 5723SOL    HW218069   4.482   3.828   6.881
 5724SOL     OW18070   4.394   2.670   5.255
 5724SOL    HW118071   4.399   2.679   5.354
 5724SOL    HW218072   4.299   2.672   5.225
 5725SOL     OW18073   5.996   5.566   3.726
 5725SOL    HW118074   5.937   5.619   3.665
 5725SOL    HW218075   6.048   5.500   3.672
 5726SOL     OW18076   0.074   4.651   4.829
 5726SOL    HW118077   6.998   4.635   4.809
 5726SOL    HW218078   0.097   4.746   4.809
 5727SOL     OW18079   0.232   2.406   3.880
 5727SOL    HW118080   0.221   2.359   3.967
 5727SOL    HW218081   0.313   2.371   3.833
 5728SOL     OW18082   4.316   1.390   6.421
 5728SOL    HW118083   4.410   1.365   6.397
 5728SOL    HW218084   4.298   1.484   6.392
 5729SOL     OW18085   0.915   1.523   0.454
 5729SOL    HW118086   0.943   1.577   0.534
 5729SOL    HW218087   0.928   1.426   0.474
 5730SOL     OW18088   4.565   5.103   5.926
 5730SOL    HW118089   4.578   5.006   5.903
 5730SOL    HW218090   4.524   5.110   6.017
 5731SOL     OW18091   1.129   6.707   4.039
 5731SOL    HW118092   1.114   6.751   3.951
 5731SOL    HW218093   1.205   6.751   4.086
 5732SOL     OW18094   6.640   5.125   4.871
 5732SOL    HW118095   6.607   5.099   4.963
 5732SOL    HW218096   6.671   5.220   4.873
 5733SOL     OW18097   3.354   0.354   5.147
 5733SOL    HW118098   3.267   0.317   5.113
 5733SOL    HW218099   3.430   0.303   5.106
 5734SOL     OW18100   0.818   6.217   6.057
 5734SOL    HW118101   0.737   6.221   6.115
 5734SOL    HW218102   0.869   6.133   6.077
 5735SOL     OW18103   3.995   1.896   2.279
 5735SOL    HW118104   3.920   1.961   2.276
 5735SOL    HW218105   4.082   1.945   2.273
 5736SOL     OW18106   5.934   3.923   0.681
 5736SOL    HW118107   5.843   3.907   0.720
 5736SOL    HW218108   5.978   3.999   0.729
 5737SOL     OW18109   4.641   5.350   0.095
 5737SOL    HW118110   4.602   5.381   0.009
 5737SOL    HW218111   4.681   5.428   0.144
 5738SOL     OW18112   2.688   2.764   6.261
 5738SOL    HW118113   2.721   2.855   6.289
 5738SOL    HW218114   2.734   2.694   6.315
 5739SOL     OW18115   0.893   6.905   5.126
 5739SOL    HW118116   0.928   6.943   5.212
 5739SOL    HW218117   0.800   6.871   5.140
 5740SOL     OW18118   4.235   3.337   0.648
 5740SOL    HW118119   4.230   3.389   0.562
 5740SOL    HW218120   4.205   3.395   0.724
 5741SOL     OW18121   6.543   4.191   4.756
 5741SOL    HW118122   6.545   4.271   4.696
 5741SOL    HW218123   6.463   4.135   4.735
 5742SOL     OW18124   4.789   6.694   2.516
 5742SOL    HW118125   4.702   6.734   2.543
 5742SOL    HW218126   4.818   6.627   2.585
 5743SOL     OW18127   2.409   6.069   4.898
 5743SOL    HW118128   2.315   6.055   4.866
 5743SOL    HW218129   2.433   6.165   4.891
 5744SOL     OW18130   4.820   1.219   0.952
 5744SOL    HW118131   4.846   1.272   1.033
 5744SOL    HW218132   4.898   1.162   0.923
 5745SOL     OW18133   1.869   1.633   4.220
 5745SOL    HW118134   1.868   1.570   4.298
 5745SOL    HW218135   1.889   1.725   4.252
 5746SOL     OW18136   5.589   0.081   1.035
 5746SOL    HW118137   5.653   0.059   0.962
 5746SOL    HW218138   5.553   0.173   1.021
 5747SOL     OW18139   0.971   4.596   2.431
 5747SOL    HW118140   1.031   4.623   2.356
 5747SOL    HW218141   0.968   4.670   2.499
 5748SOL     OW18142   1.734   6.887   0.573
 5748SOL    HW118143   1.780   6.899   0.661
 5748SOL    HW218144   1.740   6.971   0.520
 5749SOL     OW18145   1.616   6.133   4.460
 5749SOL    HW118146   1.704   6.109   4.418
 5749SOL    HW218147   1.567   6.196   4.399
 5750SOL     OW18148   6.437   5.910   4.478
 5750SOL    HW118149   6.342   5.901   4.508
 5750SOL    HW218150   6.484   5.977   4.536
 5751SOL     OW18151   2.353   2.741   4.751
 5751SOL    HW118152   2.261   2.715   4.780
 5751SOL    HW218153   2.371   2.835   4.780
 5752SOL     OW18154   6.915   0.619   0.235
 5752SOL    HW118155   6.878   0.549   0.295
 5752SOL    HW218156   6.902   0.709   0.277
 5753SOL     OW18157   3.558   3.333   3.965
 5753SOL    HW118158   3.608   3.367   3.885
 5753SOL    HW218159   3.622   3.319   4.041
 5754SOL     OW18160   6.676   4.794   2.018
 5754SOL    HW118161   6.667   4.734   1.938
 5754SOL    HW218162   6.771   4.794   2.049
 5755SOL     OW18163   2.423   2.745   6.355
 5755SOL    HW118164   2.511   2.732   6.309
 5755SOL    HW218165   2.378   2.656   6.366
 5756SOL     OW18166   6.210   0.099   3.477
 5756SOL    HW118167   6.182   0.010   3.442
 5756SOL    HW218168   6.189   0.105   3.575
 5757SOL     OW18169   0.067   6.740   3.220
 5757SOL    HW118170   0.072   6.701   3.312
 5757SOL    HW218171   0.113   6.829   3.219
 5758SOL     OW18172   2.465   0.495   4.658
 5758SOL    HW118173   2.531   0.500   4.583
 5758SOL    HW218174   2.482   0.412   4.712
 5759SOL     OW18175   5.086   1.957   0.025
 5759SOL    HW118176   5.055   1.876   6.995
 5759SOL    HW218177   5.060   2.039   6.994
 5760SOL     OW18178   6.996   4.047   0.799
 5760SOL    HW118179   0.017   4.135   0.777
 5760SOL    HW218180   6.898   4.050   0.777
 5761SOL     OW18181   6.042   5.534   6.738
 5761SOL    HW118182   6.041   5.609   6.804
 5761SOL    HW218183   6.124   5.540   6.681
 5762SOL     OW18184   4.291   3.996   0.299
 5762SOL    HW118185   4.282   4.092   0.325
 5762SOL    HW218186   4.263   3.937   0.375
 5763SOL     OW18187   6.924   6.617   0.492
 5763SOL    HW118188   6.860   6.556   0.539
 5763SOL    HW218189   7.018   6.584   0.506
 5764SOL     OW18190   5.122   5.018   5.450
 5764SOL    HW118191   5.073   5.092   5.496
 5764SOL    HW218192   5.141   5.044   5.356
 5765SOL     OW18193   5.842   2.580   0.222
 5765SOL    HW118194   5.903   2.613   0.293
 5765SOL    HW218195   5.845   2.480   0.218
 5766SOL     OW18196   2.316   1.978   6.922
 5766SOL    HW118197   2.326   2.060   6.978
 5766SOL    HW218198   2.271   2.001   6.836
 5767SOL     OW18199   1.635   1.415   0.294
 5767SOL    HW118200   1.700   1.445   0.363
 5767SOL    HW218201   1.683   1.401   0.207
 5768SOL     OW18202   1.532   6.193   3.822
 5768SOL    HW118203   1.529   6.275   3.766
 5768SOL    HW218204   1.595   6.127   3.780
 5769SOL     OW18205   2.432   6.077   4.532
 5769SOL    HW118206   2.375   6.000   4.562
 5769SOL    HW218207   2.446   6.071   4.433
 5770SOL     OW18208   6.370   6.338   0.032
 5770SOL    HW118209   6.439   6.377   0.093
 5770SOL    HW218210   6.330   6.410   6.996
 5771SOL     OW18211   1.640   0.196   3.575
 5771SOL    HW118212   1.663   0.277   3.629
 5771SOL    HW218213   1.573   0.141   3.626
 5772SOL     OW18214   6.173   2.008   1.494
 5772SOL    HW118215   6.211   2.023   1.403
 5772SOL    HW218216   6.131   1.918   1.499
 5773SOL     OW18217   4.689   0.451   3.227
 5773SOL    HW118218   4.632   0.403   3.159
 5773SOL    HW218219   4.756   0.387   3.265
 5774SOL     OW18220   2.506   6.160   3.388
 5774SOL    HW118221   2.510   6.255   3.418
 5774SOL    HW218222   2.551   6.102   3.457
 5775SOL     OW18223   1.513   1.029   2.283
 5775SOL    HW118224   1.440   0.967   2.312
 5775SOL    HW218225   1.476   1.097   2.220
 5776SOL     OW18226   6.997   0.650   4.427
 5776SOL    HW118227   0.012   0.624   4.517
 5776SOL    HW218228   6.902   0.678   4.435
 5777SOL     OW18229   6.261   6.864   5.873
 5777SOL    HW118230   6.210   6.808   5.939
 5777SOL    HW218231   6.234   6.837   5.780
 5778SOL     OW18232   1.804   0.908   1.374
 5778SOL    HW118233   1.746   0.985   1.399
 5778SOL    HW218234   1.875   0.939   1.310
 5779SOL     OW18235   4.796   2.440   0.700
 5779SOL    HW118236   4.860   2.458   0.775
 5779SOL    HW218237   4.840   2.380   0.632
 5780SOL     OW18238   6.182   5.402   3.532
 5780SOL    HW118239   6.105   5.345   3.503
 5780SOL    HW218240   6.173   5.494   3.493
 5781SOL     OW18241   0.248   4.571   4.398
 5781SOL    HW118242   0.220   4.629   4.476
 5781SOL    HW218243   0.347   4.569   4.392
 5782SOL     OW18244   0.978   1.489   0.842
 5782SOL    HW118245   1.009   1.527   0.755
 5782SOL    HW218246   0.904   1.546   0.879
 5783SOL     OW18247   2.061   0.637   1.774
 5783SOL    HW118248   2.154   0.653   1.805
 5783SOL    HW218249   2.035   0.707   1.707
 5784SOL     OW18250   0.054   5.799   0.676
 5784SOL    HW118251   6.992   5.749   0.702
 5784SOL    HW218252   0.135   5.750   0.707
 5785SOL     OW18253   1.722   2.072   0.692
 5785SOL    HW118254   1.623   2.075   0.687
 5785SOL    HW218255   1.760   2.157   0.656
 5786SOL     OW18256   0.462   4.509   1.053
 5786SOL    HW118257   0.552   4.516   1.097
 5786SOL    HW218258   0.417   4.599   1.057
 5787SOL     OW18259   4.033   1.620   5.293
 5787SOL    HW118260   4.085   1.551   5.343
 5787SOL    HW218261   3.937   1.616   5.320
 5788SOL     OW18262   3.607   1.762   1.362
 5788SOL    HW118263   3.534   1.695   1.354
 5788SOL    HW218264   3.684   1.736   1.304
 5789SOL     OW18265   3.188   4.630   0.611
 5789SOL    HW118266   3.139   4.544   0.625
 5789SOL    HW218267   3.219   4.636   0.517
 5790SOL     OW18268   0.467   4.684   4.818
 5790SOL    HW118269   0.522   4.768   4.818
 5790SOL    HW218270   0.398   4.690   4.890
 5791SOL     OW18271   3.377   1.463   2.473
 5791SOL    HW118272   3.382   1.536   2.541
 5791SOL    HW218273   3.287   1.464   2.429
 5792SOL     OW18274   5.758   2.928   2.174
 5792SOL    HW118275   5.698   3.005   2.198
 5792SOL    HW218276   5.840   2.963   2.128
 5793SOL     OW18277   5.306   0.601   3.992
 5793SOL    HW118278   5.331   0.528   4.055
 5793SOL    HW218279   5.237   0.567   3.927
 5794SOL     OW18280   1.946   1.172   6.906
 5794SOL    HW118281   1.948   1.093   6.845
 5794SOL    HW218282   1.968   1.255   6.854
 5795SOL     OW18283   0.114   6.547   6.955
 5795SOL    HW118284   0.076   6.593   6.874
 5795SOL    HW218285   0.194   6.597   6.987
 5796SOL     OW18286   4.785   0.660   5.643
 5796SOL    HW118287   4.792   0.646   5.742
 5796SOL    HW218288   4.857   0.722   5.613
 5797SOL     OW18289   4.880   2.416   0.272
 5797SOL    HW118290   4.804   2.432   0.335
 5797SOL    HW218291   4.844   2.392   0.182
 5798SOL     OW18292   6.387   5.216   4.132
 5798SOL    HW118293   6.362   5.226   4.228
 5798SOL    HW218294   6.335   5.282   4.077
 5799SOL     OW18295   0.122   0.906   3.903
 5799SOL    HW118296   0.215   0.942   3.896
 5799SOL    HW218297   0.126   0.808   3.920
 5800SOL     OW18298   6.345   6.960   1.586
 5800SOL    HW118299   6.346   0.020   1.526
 5800SOL    HW218300   6.254   6.917   1.582
 5801SOL     OW18301   1.911   2.853   3.114
 5801SOL    HW118302   1.839   2.847   3.183
 5801SOL    HW218303   1.998   2.826   3.154
 5802SOL     OW18304   0.074   3.253   2.214
 5802SOL    HW118305   0.009   3.265   2.289
 5802SOL    HW218306   0.090   3.156   2.200
 5803SOL     OW18307   2.187   5.342   2.281
 5803SOL    HW118308   2.179   5.416   2.215
 5803SOL    HW218309   2.125   5.358   2.358
 5804SOL     OW18310   0.222   4.947   2.976
 5804SOL    HW118311   0.173   5.034   2.969
 5804SOL    HW218312   0.198   4.902   3.062
 5805SOL     OW18313   1.917   3.426   0.367
 5805SOL    HW118314   1.920   3.525   0.382
 5805SOL    HW218315   1.936   3.379   0.453
 5806SOL     OW18316   6.217   5.545   4.499
 5806SOL    HW118317   6.316   5.552   4.515
 5806SOL    HW218318   6.190   5.612   4.430
 5807SOL     OW18319   0.851   4.745   0.714
 5807SOL    HW118320   0.775   4.795   0.756
 5807SOL    HW218321   0.914   4.810   0.672
 5808SOL     OW18322   6.221   5.376   3.986
 5808SOL    HW118323   6.214   5.310   3.911
 5808SOL    HW218324   6.255   5.463   3.950
 5809SOL     OW18325   6.565   1.740   5.236
 5809SOL    HW118326   6.498   1.712   5.304
 5809SOL    HW218327   6.657   1.734   5.275
 5810SOL     OW18328   4.680   1.659   5.159
 5810SOL    HW118329   4.672   1.629   5.254
 5810SOL    HW218330   4.593   1.644   5.112
 5811SOL     OW18331   3.263   0.575   4.886
 5811SOL    HW118332   3.314   0.494   4.856
 5811SOL    HW218333   3.222   0.556   4.976
 5812SOL     OW18334   5.613   3.458   4.794
 5812SOL    HW118335   5.601   3.397   4.872
 5812SOL    HW218336   5.530   3.513   4.783
 5813SOL     OW18337   1.892   1.839   1.391
 5813SOL    HW118338   1.985   1.806   1.375
 5813SOL    HW218339   1.863   1.815   1.484
 5814SOL     OW18340   6.421   3.886   2.063
 5814SOL    HW118341   6.453   3.792   2.077
 5814SOL    HW218342   6.472   3.948   2.123
 5815SOL     OW18343   3.896   1.555   4.075
 5815SOL    HW118344   3.845   1.469   4.088
 5815SOL    HW218345   3.839   1.620   4.025
 5816SOL     OW18346   5.041   4.719   0.666
 5816SOL    HW118347   5.111   4.727   0.595
 5816SOL    HW218348   4.992   4.633   0.656
 5817SOL     OW18349   5.914   4.165   5.692
 5817SOL    HW118350   5.963   4.131   5.612
 5817SOL    HW218351   5.835   4.107   5.711
 5818SOL     OW18352   6.601   5.107   5.368
 5818SOL    HW118353   6.688   5.156   5.383
 5818SOL    HW218354   6.588   5.092   5.270
 5819SOL     OW18355   3.699   0.427   6.920
 5819SOL    HW118356   3.749   0.344   6.948
 5819SOL    HW218357   3.707   0.496   6.992
 5820SOL     OW18358   4.503   4.466   3.423
 5820SOL    HW118359   4.579   4.421   3.375
 5820SOL    HW218360   4.509   4.446   3.521
 5821SOL     OW18361   0.262   0.774   2.148
 5821SOL    HW118362   0.322   0.853   2.160
 5821SOL    HW218363   0.167   0.805   2.143
 5822SOL     OW18364   1.493   2.694   1.263
 5822SOL    HW118365   1.408   2.741   1.239
 5822SOL    HW218366   1.533   2.654   1.181
 5823SOL     OW18367   2.744   0.066   4.513
 5823SOL    HW118368   2.701   0.118   4.439
 5823SOL    HW218369   2.829   0.111   4.541
 5824SOL     OW18370   0.172   5.695   2.521
 5824SOL    HW118371   0.263   5.656   2.505
 5824SOL    HW218372   0.169   5.789   2.487
 5825SOL     OW18373   6.977   0.098   4.647
 5825SOL    HW118374   6.972   0.198   4.655
 5825SOL    HW218375   6.945   0.070   4.557
 5826SOL     OW18376   0.687   4.998   6.104
 5826SOL    HW118377   0.633   4.991   6.020
 5826SOL    HW218378   0.738   4.913   6.117
 5827SOL     OW18379   1.661   3.690   5.371
 5827SOL    HW118380   1.614   3.640   5.445
 5827SOL    HW218381   1.757   3.665   5.370
 5828SOL     OW18382   5.888   2.136   1.841
 5828SOL    HW118383   5.814   2.200   1.864
 5828SOL    HW218384   5.932   2.105   1.925
 5829SOL     OW18385   1.523   0.376   3.949
 5829SOL    HW118386   1.473   0.343   3.869
 5829SOL    HW218387   1.609   0.325   3.958
 5830SOL     OW18388   5.582   6.418   5.766
 5830SOL    HW118389   5.625   6.473   5.838
 5830SOL    HW218390   5.487   6.400   5.790
 5831SOL     OW18391   1.079   1.103   5.620
 5831SOL    HW118392   1.170   1.139   5.599
 5831SOL    HW218393   1.045   1.146   5.704
 5832SOL     OW18394   3.699   5.313   0.037
 5832SOL    HW118395   3.646   5.239   7.016
 5832SOL    HW218396   3.637   5.386   0.067
 5833SOL     OW18397   3.375   4.282   5.231
 5833SOL    HW118398   3.293   4.334   5.256
 5833SOL    HW218399   3.357   4.184   5.242
 5834SOL     OW18400   0.035   2.964   0.351
 5834SOL    HW118401   0.022   3.051   0.302
 5834SOL    HW218402   0.128   2.931   0.336
 5835SOL     OW18403   5.495   2.981   3.513
 5835SOL    HW118404   5.451   2.892   3.509
 5835SOL    HW218405   5.515   3.005   3.608
 5836SOL     OW18406   3.130   0.560   1.891
 5836SOL    HW118407   3.093   0.531   1.980
 5836SOL    HW218408   3.226   0.534   1.885
 5837SOL     OW18409   3.014   4.352   0.068
 5837SOL    HW118410   2.992   4.440   0.026
 5837SOL    HW218411   3.101   4.318   0.031
 5838SOL     OW18412   3.188   2.089   1.041
 5838SOL    HW118413   3.236   2.172   1.070
 5838SOL    HW218414   3.241   2.043   0.971
 5839SOL     OW18415   1.153   2.107   2.147
 5839SOL    HW118416   1.077   2.073   2.090
 5839SOL    HW218417   1.236   2.112   2.092
 5840SOL     OW18418   1.013   4.820   6.354
 5840SOL    HW118419   0.923   4.781   6.368
 5840SOL    HW218420   1.021   4.853   6.260
 5841SOL     OW18421   4.999   1.430   2.487
 5841SOL    HW118422   4.903   1.455   2.473
 5841SOL    HW218423   5.006   1.367   2.565
 5842SOL     OW18424   4.758   2.593   1.657
 5842SOL    HW118425   4.742   2.559   1.564
 5842SOL    HW218426   4.807   2.524   1.709
 5843SOL     OW18427   1.385   4.273   2.481
 5843SOL    HW118428   1.430   4.212   2.416
 5843SOL    HW218429   1.305   4.226   2.520
 5844SOL     OW18430   1.523   5.588   5.695
 5844SOL    HW118431   1.567   5.504   5.727
 5844SOL    HW218432   1.525   5.656   5.768
 5845SOL     OW18433   0.378   0.255   2.414
 5845SOL    HW118434   0.436   0.334   2.393
 5845SOL    HW218435   0.432   0.171   2.408
 5846SOL     OW18436   5.986   3.107   6.153
 5846SOL    HW118437   6.016   3.131   6.245
 5846SOL    HW218438   6.065   3.084   6.097
 5847SOL     OW18439   2.845   2.143   2.149
 5847SOL    HW118440   2.849   2.217   2.083
 5847SOL    HW218441   2.755   2.100   2.147
 5848SOL     OW18442   1.820   5.890   3.294
 5848SOL    HW118443   1.724   5.903   3.271
 5848SOL    HW218444   1.848   5.958   3.361
 5849SOL     OW18445   0.986   0.476   5.394
 5849SOL    HW118446   0.892   0.450   5.370
 5849SOL    HW218447   1.044   0.465   5.313
 5850SOL     OW18448   6.788   3.055   1.737
 5850SOL    HW118449   6.868   3.034   1.793
 5850SOL    HW218450   6.760   3.149   1.752
 5851SOL     OW18451   5.264   3.373   2.787
 5851SOL    HW118452   5.250   3.365   2.886
 5851SOL    HW218453   5.280   3.282   2.748
 5852SOL     OW18454   6.008   6.173   3.195
 5852SOL    HW118455   5.916   6.212   3.204
 5852SOL    HW218456   6.004   6.075   3.218
 5853SOL     OW18457   3.313   5.204   4.931
 5853SOL    HW118458   3.316   5.247   4.840
 5853SOL    HW218459   3.218   5.195   4.961
 5854SOL     OW18460   4.532   4.341   6.472
 5854SOL    HW118461   4.437   4.373   6.460
 5854SOL    HW218462   4.594   4.419   6.463
 5855SOL     OW18463   0.998   1.192   5.009
 5855SOL    HW118464   0.910   1.205   5.053
 5855SOL    HW218465   0.986   1.143   4.923
 5856SOL     OW18466   2.217   6.084   3.284
 5856SOL    HW118467   2.170   6.154   3.230
 5856SOL    HW218468   2.242   6.123   3.373
 5857SOL     OW18469   6.407   1.985   5.986
 5857SOL    HW118470   6.346   2.003   5.909
 5857SOL    HW218471   6.421   1.887   5.996
 5858SOL     OW18472   2.606   2.139   2.805
 5858SOL    HW118473   2.564   2.084   2.877
 5858SOL    HW218474   2.577   2.234   2.816
 5859SOL     OW18475   5.914   6.065   1.693
 5859SOL    HW118476   5.962   6.124   1.628
 5859SOL    HW218477   5.953   6.077   1.784
 5860SOL     OW18478   0.431   3.552   2.721
 5860SOL    HW118479   0.518   3.504   2.736
 5860SOL    HW218480   0.433   3.598   2.633
 5861SOL     OW18481   4.644   1.808   4.549
 5861SOL    HW118482   4.592   1.777   4.628
 5861SOL    HW218483   4.734   1.763   4.549
 5862SOL     OW18484   5.908   5.564   1.111
 5862SOL    HW118485   5.879   5.585   1.205
 5862SOL    HW218486   5.828   5.563   1.051
 5863SOL     OW18487   3.138   2.007   5.181
 5863SOL    HW118488   3.136   2.103   5.152
 5863SOL    HW218489   3.151   2.003   5.280
 5864SOL     OW18490   4.145   3.626   2.383
 5864SOL    HW118491   4.137   3.528   2.367
 5864SOL    HW218492   4.232   3.659   2.347
 5865SOL     OW18493   5.870   6.964   5.147
 5865SOL    HW118494   5.774   6.956   5.172
 5865SOL    HW218495   5.927   6.934   5.223
 5866SOL     OW18496   3.445   4.292   0.558
 5866SOL    HW118497   3.420   4.387   0.574
 5866SOL    HW218498   3.386   4.232   0.613
 5867SOL     OW18499   2.237   3.396   1.141
 5867SOL    HW118500   2.332   3.409   1.112
 5867SOL    HW218501   2.176   3.443   1.077
 5868SOL     OW18502   1.214   1.189   5.335
 5868SOL    HW118503   1.127   1.149   5.363
 5868SOL    HW218504   1.285   1.163   5.399
 5869SOL     OW18505   2.171   6.629   3.028
 5869SOL    HW118506   2.219   6.650   2.944
 5869SOL    HW218507   2.147   6.714   3.076
 5870SOL     OW18508   4.361   6.607   5.010
 5870SOL    HW118509   4.323   6.650   5.092
 5870SOL    HW218510   4.435   6.664   4.974
 5871SOL     OW18511   3.067   3.359   1.245
 5871SOL    HW118512   2.970   3.376   1.228
 5871SOL    HW218513   3.097   3.282   1.188
 5872SOL     OW18514   4.742   6.339   1.318
 5872SOL    HW118515   4.652   6.361   1.279
 5872SOL    HW218516   4.755   6.389   1.403
 5873SOL     OW18517   3.811   1.342   2.173
 5873SOL    HW118518   3.852   1.252   2.188
 5873SOL    HW218519   3.779   1.379   2.260
 5874SOL     OW18520   2.837   4.913   6.571
 5874SOL    HW118521   2.839   4.967   6.488
 5874SOL    HW218522   2.774   4.836   6.560
 5875SOL     OW18523   3.991   1.503   0.246
 5875SOL    HW118524   4.005   1.434   0.175
 5875SOL    HW218525   4.068   1.566   0.247
 5876SOL     OW18526   4.162   3.007   0.320
 5876SOL    HW118527   4.101   2.982   0.395
 5876SOL    HW218528   4.112   3.059   0.251
 5877SOL     OW18529   0.537   0.143   1.568
 5877SOL    HW118530   0.483   0.226   1.576
 5877SOL    HW218531   0.613   0.159   1.504
 5878SOL     OW18532   6.145   5.199   3.773
 5878SOL    HW118533   6.141   5.212   3.674
 5878SOL    HW218534   6.106   5.111   3.797
 5879SOL     OW18535   1.585   4.383   6.883
 5879SOL    HW118536   1.584   4.283   6.879
 5879SOL    HW218537   1.641   4.413   6.961
 5880SOL     OW18538   4.748   4.660   6.076
 5880SOL    HW118539   4.738   4.744   6.129
 5880SOL    HW218540   4.839   4.622   6.092
 5881SOL     OW18541   0.596   0.091   2.435
 5881SOL    HW118542   0.568   0.030   2.361
 5881SOL    HW218543   0.686   0.062   2.470
 5882SOL     OW18544   6.819   5.339   0.713
 5882SOL    HW118545   6.751   5.271   0.741
 5882SOL    HW218546   6.774   5.410   0.659
 5883SOL     OW18547   0.970   1.511   6.180
 5883SOL    HW118548   0.954   1.414   6.163
 5883SOL    HW218549   0.966   1.529   6.279
 5884SOL     OW18550   4.209   1.000   4.508
 5884SOL    HW118551   4.241   0.960   4.594
 5884SOL    HW218552   4.145   1.074   4.528
 5885SOL     OW18553   0.615   6.547   2.444
 5885SOL    HW118554   0.631   6.482   2.370
 5885SOL    HW218555   0.544   6.612   2.417
 5886SOL     OW18556   6.849   2.540   4.317
 5886SOL    HW118557   6.917   2.477   4.354
 5886SOL    HW218558   6.876   2.569   4.225
 5887SOL     OW18559   2.610   1.940   2.058
 5887SOL    HW118560   2.665   1.940   1.975
 5887SOL    HW218561   2.575   1.848   2.075
 5888SOL     OW18562   3.091   0.618   1.346
 5888SOL    HW118563   3.162   0.646   1.411
 5888SOL    HW218564   3.114   0.529   1.308
 5889SOL     OW18565   0.576   0.639   0.594
 5889SOL    HW118566   0.619   0.720   0.553
 5889SOL    HW218567   0.517   0.668   0.669
 5890SOL     OW18568   2.146   1.239   3.340
 5890SOL    HW118569   2.203   1.320   3.355
 5890SOL    HW218570   2.159   1.205   3.247
 5891SOL     OW18571   3.147   3.277   6.921
 5891SOL    HW118572   3.055   3.249   6.946
 5891SOL    HW218573   3.211   3.250   6.992
 5892SOL     OW18574   0.802   5.642   2.236
 5892SOL    HW118575   0.732   5.574   2.215
 5892SOL    HW218576   0.892   5.597   2.238
 5893SOL     OW18577   2.292   4.289   3.715
 5893SOL    HW118578   2.213   4.351   3.713
 5893SOL    HW218579   2.330   4.281   3.623
 5894SOL     OW18580   6.751   5.592   3.939
 5894SOL    HW118581   6.732   5.581   3.842
 5894SOL    HW218582   6.729   5.507   3.987
 5895SOL     OW18583   5.431   3.753   4.075
 5895SOL    HW118584   5.340   3.782   4.045
 5895SOL    HW218585   5.424   3.663   4.118
 5896SOL     OW18586   3.386   1.021   0.510
 5896SOL    HW118587   3.340   0.943   0.467
 5896SOL    HW218588   3.320   1.096   0.523
 5897SOL     OW18589   4.502   6.906   1.215
 5897SOL    HW118590   4.557   6.963   1.154
 5897SOL    HW218591   4.453   6.838   1.162
 5898SOL     OW18592   2.325   0.184   3.896
 5898SOL    HW118593   2.260   0.148   3.830
 5898SOL    HW218594   2.372   0.108   3.942
 5899SOL     OW18595   6.493   5.663   0.336
 5899SOL    HW118596   6.538   5.751   0.319
 5899SOL    HW218597   6.562   5.595   0.360
 5900SOL     OW18598   6.455   5.203   3.621
 5900SOL    HW118599   6.454   5.280   3.686
 5900SOL    HW218600   6.431   5.119   3.669
 5901SOL     OW18601   2.503   1.559   0.175
 5901SOL    HW118602   2.422   1.512   0.210
 5901SOL    HW218603   2.549   1.501   0.108
 5902SOL     OW18604   5.799   1.860   5.169
 5902SOL    HW118605   5.759   1.900   5.251
 5902SOL    HW218606   5.739   1.874   5.091
 5903SOL     OW18607   4.774   4.290   0.170
 5903SOL    HW118608   4.678   4.261   0.173
 5903SOL    HW218609   4.789   4.346   0.089
 5904SOL     OW18610   0.776   4.417   1.418
 5904SOL    HW118611   0.730   4.391   1.503
 5904SOL    HW218612   0.802   4.335   1.368
 5905SOL     OW18613   6.506   6.708   4.004
 5905SOL    HW118614   6.600   6.737   3.986
 5905SOL    HW218615   6.484   6.628   3.948
 5906SOL     OW18616   3.690   2.063   3.876
 5906SOL    HW118617   3.776   2.064   3.826
 5906SOL    HW218618   3.707   2.084   3.972
 5907SOL     OW18619   1.031   4.912   0.595
 5907SOL    HW118620   1.104   4.876   0.536
 5907SOL    HW218621   1.070   4.974   0.663
 5908SOL     OW18622   0.521   3.029   6.853
 5908SOL    HW118623   0.598   3.036   6.789
 5908SOL    HW218624   0.441   2.992   6.806
 5909SOL     OW18625   6.926   5.247   0.999
 5909SOL    HW118626   6.928   5.347   1.010
 5909SOL    HW218627   6.912   5.225   0.902
 5910SOL     OW18628   0.838   4.000   3.429
 5910SOL    HW118629   0.902   3.924   3.447
 5910SOL    HW218630   0.841   4.064   3.505
 5911SOL     OW18631   0.047   5.596   6.445
 5911SOL    HW118632   0.132   5.609   6.394
 5911SOL    HW218633   6.991   5.588   6.380
 5912SOL     OW18634   5.953   1.841   6.727
 5912SOL    HW118635   6.014   1.912   6.691
 5912SOL    HW218636   5.883   1.820   6.658
 5913SOL     OW18637   5.094   3.117   5.974
 5913SOL    HW118638   5.097   3.059   6.056
 5913SOL    HW218639   5.038   3.198   5.993
 5914SOL     OW18640   1.324   5.572   6.039
 5914SOL    HW118641   1.304   5.521   5.955
 5914SOL    HW218642   1.261   5.542   6.111
 5915SOL     OW18643   4.465   5.442   1.285
 5915SOL    HW118644   4.439   5.490   1.201
 5915SOL    HW218645   4.399   5.369   1.304
 5916SOL     OW18646   4.992   6.329   3.987
 5916SOL    HW118647   4.945   6.267   4.050
 5916SOL    HW218648   4.956   6.317   3.895
 5917SOL     OW18649   2.974   3.710   4.016
 5917SOL    HW118650   2.875   3.701   4.006
 5917SOL    HW218651   3.019   3.633   3.970
 5918SOL     OW18652   2.294   3.556   6.066
 5918SOL    HW118653   2.254   3.624   6.005
 5918SOL    HW218654   2.223   3.494   6.099
 5919SOL     OW18655   3.620   3.379   2.303
 5919SOL    HW118656   3.576   3.410   2.218
 5919SOL    HW218657   3.559   3.315   2.350
 5920SOL     OW18658   4.383   0.427   6.432
 5920SOL    HW118659   4.322   0.482   6.489
 5920SOL    HW218660   4.357   0.331   6.438
 5921SOL     OW18661   3.948   5.419   6.649
 5921SOL    HW118662   4.014   5.417   6.573
 5921SOL    HW218663   3.919   5.326   6.670
 5922SOL     OW18664   5.596   5.231   2.796
 5922SOL    HW118665   5.686   5.231   2.838
 5922SOL    HW218666   5.593   5.301   2.724
 5923SOL     OW18667   6.428   1.042   1.370
 5923SOL    HW118668   6.488   1.007   1.299
 5923SOL    HW218669   6.380   1.123   1.336
 5924SOL     OW18670   6.583   0.896   2.904
 5924SOL    HW118671   6.494   0.894   2.950
 5924SOL    HW218672   6.587   0.823   2.835
 5925SOL     OW18673   3.970   6.627   1.986
 5925SOL    HW118674   3.889   6.621   2.043
 5925SOL    HW218675   3.969   6.712   1.933
 5926SOL     OW18676   3.979   5.522   1.330
 5926SOL    HW118677   3.912   5.460   1.372
 5926SOL    HW218678   3.977   5.610   1.378
 5927SOL     OW18679   1.186   4.124   2.642
 5927SOL    HW118680   1.128   4.054   2.602
 5927SOL    HW218681   1.263   4.080   2.690
 5928SOL     OW18682   4.008   0.389   0.981
 5928SOL    HW118683   3.941   0.316   0.970
 5928SOL    HW218684   4.100   0.351   0.969
 5929SOL     OW18685   0.481   6.961   6.933
 5929SOL    HW118686   0.559   6.928   6.986
 5929SOL    HW218687   0.431   6.883   6.895
 5930SOL     OW18688   6.578   3.415   3.669
 5930SOL    HW118689   6.554   3.366   3.584
 5930SOL    HW218690   6.677   3.418   3.678
 5931SOL     OW18691   6.468   5.307   3.202
 5931SOL    HW118692   6.543   5.241   3.206
 5931SOL    HW218693   6.386   5.268   3.243
 5932SOL     OW18694   3.295   0.637   0.817
 5932SOL    HW118695   3.344   0.725   0.814
 5932SOL    HW218696   3.240   0.627   0.735
 5933SOL     OW18697   6.475   6.254   3.115
 5933SOL    HW118698   6.484   6.286   3.021
 5933SOL    HW218699   6.564   6.226   3.149
 5934SOL     OW18700   3.665   2.901   4.175
 5934SOL    HW118701   3.695   2.926   4.267
 5934SOL    HW218702   3.744   2.898   4.114
 5935SOL     OW18703   5.274   5.211   6.404
 5935SOL    HW118704   5.259   5.221   6.305
 5935SOL    HW218705   5.213   5.139   6.439
 5936SOL     OW18706   3.805   2.944   1.071
 5936SOL    HW118707   3.776   2.972   0.979
 5936SOL    HW218708   3.732   2.964   1.136
 5937SOL     OW18709   0.332   4.164   2.492
 5937SOL    HW118710   0.289   4.230   2.431
 5937SOL    HW218711   0.420   4.136   2.454
 5938SOL     OW18712   0.495   5.598   2.990
 5938SOL    HW118713   0.529   5.524   3.048
 5938SOL    HW218714   0.555   5.608   2.911
 5939SOL     OW18715   3.295   6.816   2.764
 5939SOL    HW118716   3.208   6.785   2.727
 5939SOL    HW218717   3.300   6.793   2.861
 5940SOL     OW18718   5.114   5.790   0.823
 5940SOL    HW118719   5.036   5.741   0.860
 5940SOL    HW218720   5.098   5.809   0.726
 5941SOL     OW18721   6.082   2.956   2.191
 5941SOL    HW118722   6.020   2.887   2.227
 5941SOL    HW218723   6.158   2.970   2.254
 5942SOL     OW18724   4.766   3.483   6.765
 5942SOL    HW118725   4.807   3.393   6.752
 5942SOL    HW218726   4.670   3.473   6.792
 5943SOL     OW18727   3.040   4.832   6.836
 5943SOL    HW118728   2.942   4.839   6.816
 5943SOL    HW218729   3.078   4.923   6.851
 5944SOL     OW18730   6.338   2.838   1.176
 5944SOL    HW118731   6.420   2.888   1.149
 5944SOL    HW218732   6.303   2.786   1.098
 5945SOL     OW18733   6.084   5.438   5.008
 5945SOL    HW118734   6.048   5.410   4.919
 5945SOL    HW218735   6.089   5.537   5.013
 5946SOL     OW18736   3.676   3.138   6.457
 5946SOL    HW118737   3.717   3.049   6.438
 5946SOL    HW218738   3.700   3.167   6.549
 5947SOL     OW18739   3.801   3.658   2.076
 5947SOL    HW118740   3.711   3.627   2.044
 5947SOL    HW218741   3.869   3.641   2.005
 5948SOL     OW18742   4.623   5.370   3.750
 5948SOL    HW118743   4.540   5.394   3.701
 5948SOL    HW218744   4.602   5.348   3.845
 5949SOL     OW18745   5.157   3.502   1.969
 5949SOL    HW118746   5.180   3.513   2.066
 5949SOL    HW218747   5.067   3.459   1.960
 5950SOL     OW18748   4.830   1.585   5.868
 5950SOL    HW118749   4.798   1.627   5.783
 5950SOL    HW218750   4.756   1.586   5.935
 5951SOL     OW18751   1.497   5.925   4.110
 5951SOL    HW118752   1.447   5.900   4.192
 5951SOL    HW218753   1.451   6.001   4.064
 5952SOL     OW18754   5.473   4.834   3.182
 5952SOL    HW118755   5.427   4.923   3.185
 5952SOL    HW218756   5.572   4.847   3.179
 5953SOL     OW18757   6.305   2.345   5.668
 5953SOL    HW118758   6.293   2.313   5.762
 5953SOL    HW218759   6.372   2.288   5.621
 5954SOL     OW18760   0.317   4.085   5.949
 5954SOL    HW118761   0.375   4.048   6.021
 5954SOL    HW218762   0.369   4.092   5.864
 5955SOL     OW18763   4.902   6.239   2.735
 5955SOL    HW118764   4.936   6.160   2.786
 5955SOL    HW218765   4.947   6.243   2.646
 5956SOL     OW18766   4.374   1.413   5.176
 5956SOL    HW118767   4.468   1.389   5.199
 5956SOL    HW218768   4.312   1.346   5.217
 5957SOL     OW18769   4.508   0.711   5.135
 5957SOL    HW118770   4.443   0.648   5.093
 5957SOL    HW218771   4.462   0.796   5.159
 5958SOL     OW18772   6.015   0.177   3.102
 5958SOL    HW118773   6.074   0.098   3.087
 5958SOL    HW218774   6.052   0.256   3.053
 5959SOL     OW18775   3.954   2.822   5.245
 5959SOL    HW118776   3.862   2.796   5.214
 5959SOL    HW218777   4.016   2.744   5.234
 5960SOL     OW18778   3.130   5.069   4.596
 5960SOL    HW118779   3.040   5.041   4.563
 5960SOL    HW218780   3.167   4.999   4.657
 5961SOL     OW18781   5.343   1.182   2.604
 5961SOL    HW118782   5.383   1.180   2.696
 5961SOL    HW218783   5.337   1.276   2.572
 5962SOL     OW18784   5.956   5.907   0.281
 5962SOL    HW118785   6.016   5.914   0.361
 5962SOL    HW218786   5.867   5.871   0.310
 5963SOL     OW18787   3.709   3.827   5.422
 5963SOL    HW118788   3.754   3.913   5.445
 5963SOL    HW218789   3.677   3.831   5.327
 5964SOL     OW18790   0.431   5.304   5.514
 5964SOL    HW118791   0.337   5.291   5.483
 5964SOL    HW218792   0.484   5.347   5.441
 5965SOL     OW18793   1.315   2.293   6.455
 5965SOL    HW118794   1.348   2.364   6.393
 5965SOL    HW218795   1.393   2.246   6.497
 5966SOL     OW18796   2.701   5.454   5.851
 5966SOL    HW118797   2.778   5.396   5.875
 5966SOL    HW218798   2.708   5.541   5.899
 5967SOL     OW18799   4.101   6.864   6.332
 5967SOL    HW118800   4.060   6.895   6.246
 5967SOL    HW218801   4.176   6.924   6.358
 5968SOL     OW18802   5.399   1.846   1.136
 5968SOL    HW118803   5.370   1.773   1.198
 5968SOL    HW218804   5.378   1.935   1.176
 5969SOL     OW18805   0.071   6.606   6.366
 5969SOL    HW118806   6.993   6.589   6.367
 5969SOL    HW218807   0.089   6.701   6.341
 5970SOL     OW18808   0.222   4.531   2.634
 5970SOL    HW118809   0.171   4.575   2.708
 5970SOL    HW218810   0.190   4.437   2.621
 5971SOL     OW18811   0.904   1.298   2.450
 5971SOL    HW118812   0.960   1.357   2.391
 5971SOL    HW218813   0.925   1.202   2.430
 5972SOL     OW18814   5.846   5.119   6.041
 5972SOL    HW118815   5.917   5.189   6.051
 5972SOL    HW218816   5.794   5.135   5.957
 5973SOL     OW18817   1.467   3.611   2.705
 5973SOL    HW118818   1.545   3.671   2.721
 5973SOL    HW218819   1.500   3.522   2.674
 5974SOL     OW18820   5.210   5.183   6.118
 5974SOL    HW118821   5.223   5.092   6.080
 5974SOL    HW218822   5.210   5.250   6.044
 5975SOL     OW18823   4.084   0.582   0.425
 5975SOL    HW118824   4.182   0.568   0.434
 5975SOL    HW218825   4.057   0.665   0.475
 5976SOL     OW18826   3.303   2.861   5.600
 5976SOL    HW118827   3.349   2.949   5.591
 5976SOL    HW218828   3.328   2.818   5.686
 5977SOL     OW18829   1.751   5.222   6.694
 5977SOL    HW118830   1.778   5.128   6.718
 5977SOL    HW218831   1.754   5.233   6.595
 5978SOL     OW18832   5.080   5.671   2.395
 5978SOL    HW118833   5.019   5.596   2.368
 5978SOL    HW218834   5.035   5.758   2.377
 5979SOL     OW18835   5.783   0.784   2.781
 5979SOL    HW118836   5.754   0.876   2.805
 5979SOL    HW218837   5.880   0.785   2.756
 5980SOL     OW18838   4.206   4.204   1.290
 5980SOL    HW118839   4.303   4.211   1.266
 5980SOL    HW218840   4.171   4.295   1.316
 5981SOL     OW18841   5.253   2.384   1.439
 5981SOL    HW118842   5.273   2.464   1.383
 5981SOL    HW218843   5.168   2.399   1.490
 5982SOL     OW18844   6.367   3.409   2.349
 5982SOL    HW118845   6.458   3.367   2.354
 5982SOL    HW218846   6.376   3.506   2.326
 5983SOL     OW18847   1.279   1.800   4.340
 5983SOL    HW118848   1.350   1.860   4.375
 5983SOL    HW218849   1.311   1.755   4.256
 5984SOL     OW18850   6.752   5.770   3.335
 5984SOL    HW118851   6.793   5.679   3.342
 5984SOL    HW218852   6.661   5.769   3.376
 5985SOL     OW18853   0.158   3.156   4.220
 5985SOL    HW118854   0.136   3.146   4.123
 5985SOL    HW218855   0.135   3.248   4.251
 5986SOL     OW18856   3.020   3.809   4.296
 5986SOL    HW118857   3.009   3.722   4.344
 5986SOL    HW218858   3.013   3.795   4.197
 5987SOL     OW18859   5.286   0.232   3.840
 5987SOL    HW118860   5.305   0.187   3.927
 5987SOL    HW218861   5.351   0.200   3.771
 5988SOL     OW18862   4.513   6.889   5.540
 5988SOL    HW118863   4.462   6.944   5.606
 5988SOL    HW218864   4.554   6.950   5.471
 5989SOL     OW18865   2.186   6.335   6.261
 5989SOL    HW118866   2.175   6.280   6.344
 5989SOL    HW218867   2.232   6.421   6.283
 5990SOL     OW18868   3.584   4.285   6.975
 5990SOL    HW118869   3.513   4.292   6.905
 5990SOL    HW218870   3.571   4.358   0.022
 5991SOL     OW18871   2.802   5.245   0.207
 5991SOL    HW118872   2.889   5.264   0.252
 5991SOL    HW218873   2.752   5.330   0.191
 5992SOL     OW18874   3.819   0.486   2.340
 5992SOL    HW118875   3.792   0.571   2.293
 5992SOL    HW218876   3.750   0.462   2.408
 5993SOL     OW18877   3.378   5.904   6.844
 5993SOL    HW118878   3.364   5.854   6.929
 5993SOL    HW218879   3.319   5.985   6.843
 5994SOL     OW18880   5.929   2.751   2.574
 5994SOL    HW118881   5.923   2.667   2.628
 5994SOL    HW218882   5.952   2.828   2.634
 5995SOL     OW18883   5.060   3.711   2.500
 5995SOL    HW118884   5.054   3.801   2.456
 5995SOL    HW218885   5.153   3.675   2.490
 5996SOL     OW18886   1.344   6.411   0.513
 5996SOL    HW118887   1.250   6.431   0.539
 5996SOL    HW218888   1.406   6.467   0.569
 5997SOL     OW18889   0.368   5.789   2.814
 5997SOL    HW118890   0.412   5.736   2.886
 5997SOL    HW218891   0.269   5.792   2.831
 5998SOL     OW18892   5.842   0.764   3.264
 5998SOL    HW118893   5.814   0.851   3.305
 5998SOL    HW218894   5.921   0.728   3.312
 5999SOL     OW18895   1.472   1.653   2.511
 5999SOL    HW118896   1.555   1.598   2.510
 5999SOL    HW218897   1.496   1.749   2.496
 6000SOL     OW18898   4.333   6.833   0.733
 6000SOL    HW118899   4.373   6.756   0.782
 6000SOL    HW218900   4.240   6.809   0.704
 6001SOL     OW18901   0.939   4.266   0.129
 6001SOL    HW118902   0.908   4.222   0.044
 6001SOL    HW218903   0.860   4.283   0.188
 6002SOL     OW18904   5.744   0.389   0.587
 6002SOL    HW118905   5.793   0.324   0.529
 6002SOL    HW218906   5.783   0.480   0.576
 6003SOL     OW18907   5.780   2.561   5.198
 6003SOL    HW118908   5.803   2.476   5.245
 6003SOL    HW218909   5.741   2.540   5.108
 6004SOL     OW18910   0.142   3.597   2.780
 6004SOL    HW118911   0.128   3.648   2.695
 6004SOL    HW218912   0.237   3.565   2.784
 6005SOL     OW18913   4.702   5.820   4.232
 6005SOL    HW118914   4.690   5.770   4.146
 6005SOL    HW218915   4.664   5.912   4.223
 6006SOL     OW18916   2.459   0.666   5.436
 6006SOL    HW118917   2.449   0.682   5.338
 6006SOL    HW218918   2.495   0.748   5.480
 6007SOL     OW18919   4.635   3.581   5.812
 6007SOL    HW118920   4.656   3.580   5.714
 6007SOL    HW218921   4.643   3.675   5.847
 6008SOL     OW18922   2.310   4.288   5.656
 6008SOL    HW118923   2.260   4.314   5.739
 6008SOL    HW218924   2.246   4.268   5.583
 6009SOL     OW18925   3.010   0.283   3.405
 6009SOL    HW118926   3.020   0.223   3.484
 6009SOL    HW218927   2.915   0.310   3.395
 6010SOL     OW18928   1.329   4.278   4.387
 6010SOL    HW118929   1.363   4.347   4.451
 6010SOL    HW218930   1.404   4.218   4.360
 6011SOL     OW18931   4.916   3.034   2.996
 6011SOL    HW118932   4.933   3.064   2.902
 6011SOL    HW218933   4.889   3.112   3.051
 6012SOL     OW18934   5.271   1.056   0.074
 6012SOL    HW118935   5.242   1.029   0.166
 6012SOL    HW218936   5.276   1.155   0.068
 6013SOL     OW18937   4.723   1.947   2.472
 6013SOL    HW118938   4.741   2.040   2.438
 6013SOL    HW218939   4.697   1.888   2.396
 6014SOL     OW18940   3.961   3.605   1.865
 6014SOL    HW118941   3.935   3.627   1.771
 6014SOL    HW218942   4.045   3.551   1.864
 6015SOL     OW18943   5.852   3.827   4.266
 6015SOL    HW118944   5.890   3.912   4.231
 6015SOL    HW218945   5.852   3.758   4.193
 6016SOL     OW18946   6.039   1.818   6.044
 6016SOL    HW118947   6.020   1.755   5.969
 6016SOL    HW218948   5.968   1.808   6.115
 6017SOL     OW18949   6.669   4.317   3.336
 6017SOL    HW118950   6.572   4.296   3.344
 6017SOL    HW218951   6.689   4.346   3.242
 6018SOL     OW18952   3.758   0.609   6.557
 6018SOL    HW118953   3.695   0.533   6.541
 6018SOL    HW218954   3.836   0.601   6.495
 6019SOL     OW18955   6.957   1.476   4.294
 6019SOL    HW118956   6.867   1.497   4.331
 6019SOL    HW218957   7.011   1.560   4.287
 6020SOL     OW18958   0.648   4.954   0.807
 6020SOL    HW118959   0.697   5.012   0.742
 6020SOL    HW218960   0.591   5.010   0.866
 6021SOL     OW18961   4.700   0.471   2.574
 6021SOL    HW118962   4.761   0.395   2.596
 6021SOL    HW218963   4.633   0.483   2.647
 6022SOL     OW18964   4.555   2.183   4.239
 6022SOL    HW118965   4.641   2.145   4.274
 6022SOL    HW218966   4.572   2.226   4.150
 6023SOL     OW18967   6.109   0.526   2.209
 6023SOL    HW118968   6.166   0.505   2.130
 6023SOL    HW218969   6.107   0.448   2.271
 6024SOL     OW18970   1.363   4.240   3.194
 6024SOL    HW118971   1.375   4.317   3.132
 6024SOL    HW218972   1.308   4.268   3.273
 6025SOL     OW18973   3.715   1.434   2.867
 6025SOL    HW118974   3.671   1.357   2.820
 6025SOL    HW218975   3.742   1.503   2.800
 6026SOL     OW18976   0.369   4.503   5.587
 6026SOL    HW118977   0.458   4.544   5.567
 6026SOL    HW218978   0.298   4.551   5.536
 6027SOL     OW18979   1.288   3.956   6.644
 6027SOL    HW118980   1.212   3.965   6.709
 6027SOL    HW218981   1.372   3.937   6.693
 6028SOL     OW18982   6.892   4.861   6.907
 6028SOL    HW118983   6.985   4.896   6.912
 6028SOL    HW218984   6.829   4.936   6.886
 6029SOL     OW18985   2.365   6.172   5.323
 6029SOL    HW118986   2.398   6.120   5.402
 6029SOL    HW218987   2.394   6.127   5.239
 6030SOL     OW18988   4.060   5.994   2.518
 6030SOL    HW118989   3.972   5.970   2.476
 6030SOL    HW218990   4.095   5.916   2.568
 6031SOL     OW18991   2.794   5.508   3.538
 6031SOL    HW118992   2.838   5.535   3.453
 6031SOL    HW218993   2.818   5.574   3.610
 6032SOL     OW18994   2.166   4.295   2.780
 6032SOL    HW118995   2.191   4.269   2.873
 6032SOL    HW218996   2.222   4.372   2.750
 6033SOL     OW18997   3.282   2.073   3.260
 6033SOL    HW118998   3.377   2.050   3.282
 6033SOL    HW218999   3.276   2.100   3.164
 6034SOL     OW19000   1.266   5.536   4.487
 6034SOL    HW119001   1.217   5.462   4.441
 6034SOL    HW219002   1.204   5.585   4.548
 6035SOL     OW19003   0.327   1.006   2.717
 6035SOL    HW119004   0.384   1.062   2.777
 6035SOL    HW219005   0.245   0.976   2.767
 6036SOL     OW19006   5.559   5.858   3.285
 6036SOL    HW119007   5.525   5.919   3.357
 6036SOL    HW219008   5.482   5.805   3.248
 6037SOL     OW19009   4.259   5.206   0.046
 6037SOL    HW119010   4.316   5.190   0.126
 6037SOL    HW219011   4.165   5.227   0.075
 6038SOL     OW19012   1.492   2.039   5.671
 6038SOL    HW119013   1.529   2.124   5.709
 6038SOL    HW219014   1.460   2.056   5.578
 6039SOL     OW19015   2.954   3.546   2.500
 6039SOL    HW119016   2.968   3.644   2.484
 6039SOL    HW219017   3.033   3.508   2.548
 6040SOL     OW19018   0.968   1.668   6.909
 6040SOL    HW119019   0.969   1.734   6.834
 6040SOL    HW219020   1.007   1.582   6.878
 6041SOL     OW19021   2.799   0.153   4.893
 6041SOL    HW119022   2.720   0.214   4.900
 6041SOL    HW219023   2.832   0.130   4.984
 6042SOL     OW19024   4.927   6.059   2.052
 6042SOL    HW119025   4.987   5.979   2.059
 6042SOL    HW219026   4.900   6.072   1.957
 6043SOL     OW19027   0.974   4.502   5.452
 6043SOL    HW119028   0.905   4.568   5.422
 6043SOL    HW219029   1.054   4.550   5.486
 6044SOL     OW19030   1.118   2.200   1.485
 6044SOL    HW119031   1.025   2.165   1.492
 6044SOL    HW219032   1.159   2.205   1.577
 6045SOL     OW19033   5.921   4.982   2.106
 6045SOL    HW119034   5.920   5.032   2.193
 6045SOL    HW219035   5.835   4.934   2.094
 6046SOL     OW19036   3.843   2.013   0.238
 6046SOL    HW119037   3.857   1.915   0.252
 6046SOL    HW219038   3.931   2.058   0.227
 6047SOL     OW19039   5.176   1.725   1.935
 6047SOL    HW119040   5.239   1.801   1.919
 6047SOL    HW219041   5.094   1.759   1.981
 6048SOL     OW19042   4.517   5.272   5.281
 6048SOL    HW119043   4.479   5.278   5.374
 6048SOL    HW219044   4.606   5.226   5.285
 6049SOL     OW19045   5.379   3.243   6.469
 6049SOL    HW119046   5.466   3.289   6.488
 6049SOL    HW219047   5.336   3.215   6.554
 6050SOL     OW19048   3.760   5.822   4.895
 6050SOL    HW119049   3.673   5.871   4.887
 6050SOL    HW219050   3.760   5.744   4.832
 6051SOL     OW19051   2.696   0.593   4.148
 6051SOL    HW119052   2.704   0.627   4.242
 6051SOL    HW219053   2.600   0.577   4.127
 6052SOL     OW19054   6.642   0.272   0.443
 6052SOL    HW119055   6.604   0.329   0.516
 6052SOL    HW219056   6.579   0.197   0.423
 6053SOL     OW19057   3.972   1.572   6.873
 6053SOL    HW119058   3.949   1.648   6.933
 6053SOL    HW219059   3.908   1.572   6.795
 6054SOL     OW19060   2.576   3.921   0.364
 6054SOL    HW119061   2.583   3.962   0.274
 6054SOL    HW219062   2.626   3.834   0.365
 6055SOL     OW19063   4.345   0.444   5.365
 6055SOL    HW119064   4.325   0.457   5.268
 6055SOL    HW219065   4.437   0.407   5.376
 6056SOL     OW19066   4.693   2.805   4.760
 6056SOL    HW119067   4.683   2.896   4.720
 6056SOL    HW219068   4.703   2.813   4.859
 6057SOL     OW19069   5.284   3.301   4.105
 6057SOL    HW119070   5.304   3.389   4.149
 6057SOL    HW219071   5.369   3.250   4.091
 6058SOL     OW19072   5.081   2.736   1.711
 6058SOL    HW119073   5.066   2.798   1.788
 6058SOL    HW219074   5.044   2.646   1.733
 6059SOL     OW19075   5.015   4.582   4.795
 6059SOL    HW119076   5.110   4.597   4.819
 6059SOL    HW219077   4.956   4.636   4.856
 6060SOL     OW19078   3.133   4.631   0.333
 6060SOL    HW119079   3.068   4.556   0.317
 6060SOL    HW219080   3.084   4.718   0.332
 6061SOL     OW19081   3.801   1.850   1.010
 6061SOL    HW119082   3.845   1.776   0.958
 6061SOL    HW219083   3.722   1.814   1.059
 6062SOL     OW19084   2.758   0.955   5.124
 6062SOL    HW119085   2.834   0.978   5.063
 6062SOL    HW219086   2.758   1.017   5.202
 6063SOL     OW19087   3.486   1.769   6.110
 6063SOL    HW119088   3.574   1.797   6.150
 6063SOL    HW219089   3.478   1.669   6.116
 6064SOL     OW19090   1.983   5.979   0.924
 6064SOL    HW119091   1.931   6.047   0.872
 6064SOL    HW219092   1.944   5.969   1.015
 6065SOL     OW19093   6.608   0.187   1.821
 6065SOL    HW119094   6.659   0.101   1.824
 6065SOL    HW219095   6.581   0.212   1.914
 6066SOL     OW19096   4.449   1.219   6.018
 6066SOL    HW119097   4.525   1.215   6.083
 6066SOL    HW219098   4.451   1.137   5.960
 6067SOL     OW19099   5.407   1.323   5.483
 6067SOL    HW119100   5.451   1.356   5.567
 6067SOL    HW219101   5.429   1.226   5.471
 6068SOL     OW19102   5.313   3.418   4.532
 6068SOL    HW119103   5.262   3.421   4.445
 6068SOL    HW219104   5.400   3.466   4.521
 6069SOL     OW19105   6.557   2.853   5.483
 6069SOL    HW119106   6.602   2.849   5.394
 6069SOL    HW219107   6.476   2.795   5.482
 6070SOL     OW19108   2.336   2.972   0.395
 6070SOL    HW119109   2.341   3.022   0.481
 6070SOL    HW219110   2.249   2.923   0.389
 6071SOL     OW19111   5.361   5.438   4.077
 6071SOL    HW119112   5.289   5.485   4.129
 6071SOL    HW219113   5.450   5.468   4.109
 6072SOL     OW19114   0.098   0.478   1.889
 6072SOL    HW119115   0.033   0.530   1.834
 6072SOL    HW219116   0.180   0.533   1.905
 6073SOL     OW19117   5.630   3.766   0.016
 6073SOL    HW119118   5.662   3.723   0.100
 6073SOL    HW219119   5.697   3.751   6.964
 6074SOL     OW19120   1.437   6.706   4.569
 6074SOL    HW119121   1.389   6.759   4.639
 6074SOL    HW219122   1.484   6.767   4.506
 6075SOL     OW19123   6.771   1.455   6.382
 6075SOL    HW119124   6.836   1.512   6.432
 6075SOL    HW219125   6.690   1.508   6.359
 6076SOL     OW19126   2.543   5.720   4.095
 6076SOL    HW119127   2.597   5.738   4.178
 6076SOL    HW219128   2.499   5.631   4.102
 6077SOL     OW19129   5.564   6.169   0.828
 6077SOL    HW119130   5.621   6.228   0.771
 6077SOL    HW219131   5.592   6.179   0.924
 6078SOL     OW19132   4.139   4.485   0.726
 6078SOL    HW119133   4.105   4.474   0.820
 6078SOL    HW219134   4.062   4.493   0.663
 6079SOL     OW19135   3.977   3.640   6.030
 6079SOL    HW119136   4.022   3.610   6.114
 6079SOL    HW219137   3.897   3.583   6.013
 6080SOL     OW19138   0.096   1.310   0.972
 6080SOL    HW119139   0.063   1.290   0.880
 6080SOL    HW219140   0.076   1.232   1.032
 6081SOL     OW19141   6.769   3.264   5.893
 6081SOL    HW119142   6.806   3.337   5.951
 6081SOL    HW219143   6.679   3.291   5.860
 6082SOL     OW19144   2.236   1.959   3.878
 6082SOL    HW119145   2.145   1.949   3.918
 6082SOL    HW219146   2.231   1.943   3.779
 6083SOL     OW19147   0.077   5.023   0.030
 6083SOL    HW119148   0.064   5.118   0.057
 6083SOL    HW219149   0.141   5.019   6.974
 6084SOL     OW19150   0.815   0.009   3.667
 6084SOL    HW119151   0.733   6.999   3.617
 6084SOL    HW219152   0.850   6.953   3.722
 6085SOL     OW19153   0.859   4.569   0.525
 6085SOL    HW119154   0.883   4.637   0.594
 6085SOL    HW219155   0.815   4.491   0.569
 6086SOL     OW19156   3.506   0.645   6.267
 6086SOL    HW119157   3.527   0.680   6.358
 6086SOL    HW219158   3.587   0.602   6.228
 6087SOL     OW19159   3.816   5.511   0.921
 6087SOL    HW119160   3.774   5.585   0.974
 6087SOL    HW219161   3.744   5.458   0.877
 6088SOL     OW19162   5.627   5.655   3.959
 6088SOL    HW119163   5.660   5.617   4.045
 6088SOL    HW219164   5.593   5.582   3.901
 6089SOL     OW19165   5.612   3.315   0.474
 6089SOL    HW119166   5.648   3.243   0.416
 6089SOL    HW219167   5.534   3.358   0.429
 6090SOL     OW19168   2.181   5.725   6.126
 6090SOL    HW119169   2.200   5.755   6.220
 6090SOL    HW219170   2.267   5.707   6.079
 6091SOL     OW19171   1.540   1.760   0.864
 6091SOL    HW119172   1.563   1.753   0.767
 6091SOL    HW219173   1.619   1.733   0.919
 6092SOL     OW19174   4.010   6.751   2.758
 6092SOL    HW119175   3.968   6.833   2.797
 6092SOL    HW219176   4.080   6.777   2.691
 6093SOL     OW19177   1.859   3.658   2.634
 6093SOL    HW119178   1.909   3.683   2.551
 6093SOL    HW219179   1.809   3.573   2.618
 6094SOL     OW19180   3.236   0.238   1.691
 6094SOL    HW119181   3.152   0.274   1.651
 6094SOL    HW219182   3.220   0.218   1.788
 6095SOL     OW19183   4.595   3.458   0.338
 6095SOL    HW119184   4.612   3.523   0.412
 6095SOL    HW219185   4.603   3.504   0.250
 6096SOL     OW19186   0.197   0.283   3.375
 6096SOL    HW119187   0.264   0.348   3.338
 6096SOL    HW219188   0.237   0.191   3.377
 6097SOL     OW19189   2.526   6.955   2.326
 6097SOL    HW119190   2.448   7.004   2.366
 6097SOL    HW219191   2.493   6.875   2.276
 6098SOL     OW19192   1.615   2.652   5.433
 6098SOL    HW119193   1.653   2.605   5.353
 6098SOL    HW219194   1.683   2.655   5.506
 6099SOL     OW19195   6.561   6.472   0.191
 6099SOL    HW119196   6.519   6.487   0.280
 6099SOL    HW219197   6.613   6.553   0.164
 6100SOL     OW19198   4.290   4.435   6.912
 6100SOL    HW119199   4.301   4.485   6.826
 6100SOL    HW219200   4.364   4.461   6.975
 6101SOL     OW19201   6.398   2.268   4.896
 6101SOL    HW119202   6.477   2.328   4.886
 6101SOL    HW219203   6.315   2.322   4.904
 6102SOL     OW19204   3.443   6.405   3.420
 6102SOL    HW119205   3.374   6.348   3.466
 6102SOL    HW219206   3.480   6.356   3.341
 6103SOL     OW19207   6.753   2.591   2.029
 6103SOL    HW119208   6.755   2.518   2.098
 6103SOL    HW219209   6.686   2.568   1.959
 6104SOL     OW19210   6.004   0.915   5.542
 6104SOL    HW119211   5.982   0.987   5.477
 6104SOL    HW219212   6.103   0.898   5.541
 6105SOL     OW19213   2.832   6.959   6.128
 6105SOL    HW119214   2.740   6.933   6.099
 6105SOL    HW219215   2.830   0.028   6.171
 6106SOL     OW19216   2.653   4.545   6.105
 6106SOL    HW119217   2.613   4.578   6.019
 6106SOL    HW219218   2.661   4.446   6.101
 6107SOL     OW19219   2.241   4.761   4.627
 6107SOL    HW119220   2.198   4.697   4.691
 6107SOL    HW219221   2.190   4.762   4.541
 6108SOL     OW19222   0.995   2.325   2.001
 6108SOL    HW119223   1.021   2.378   1.920
 6108SOL    HW219224   1.058   2.345   2.076
 6109SOL     OW19225   5.475   2.747   5.490
 6109SOL    HW119226   5.401   2.796   5.445
 6109SOL    HW219227   5.491   2.660   5.442
 6110SOL     OW19228   4.128   3.784   0.450
 6110SOL    HW119229   4.158   3.689   0.465
 6110SOL    HW219230   4.040   3.784   0.404
 6111SOL     OW19231   2.314   4.216   2.391
 6111SOL    HW119232   2.266   4.139   2.349
 6111SOL    HW219233   2.327   4.198   2.489
 6112SOL     OW19234   4.151   0.306   2.692
 6112SOL    HW119235   4.099   0.376   2.742
 6112SOL    HW219236   4.129   0.311   2.595
 6113SOL     OW19237   2.140   0.926   6.498
 6113SOL    HW119238   2.176   1.006   6.450
 6113SOL    HW219239   2.215   0.873   6.538
 6114SOL     OW19240   5.032   5.692   1.211
 6114SOL    HW119241   5.106   5.759   1.206
 6114SOL    HW219242   5.068   5.606   1.248
 6115SOL     OW19243   5.520   6.909   3.968
 6115SOL    HW119244   5.500   6.837   3.902
 6115SOL    HW219245   5.619   6.920   3.977
 6116SOL     OW19246   3.353   0.526   6.715
 6116SOL    HW119247   3.256   0.507   6.705
 6116SOL    HW219248   3.365   0.612   6.765
 6117SOL     OW19249   1.183   1.374   5.136
 6117SOL    HW119250   1.197   1.330   5.225
 6117SOL    HW219251   1.118   1.320   5.082
 6118SOL     OW19252   6.458   0.951   2.256
 6118SOL    HW119253   6.414   0.866   2.228
 6118SOL    HW219254   6.437   0.969   2.352
 6119SOL     OW19255   1.999   3.473   5.855
 6119SOL    HW119256   2.036   3.405   5.918
 6119SOL    HW219257   1.950   3.543   5.906
 6120SOL     OW19258   3.680   6.576   4.736
 6120SOL    HW119259   3.706   6.482   4.715
 6120SOL    HW219260   3.670   6.627   4.650
 6121SOL     OW19261   1.446   3.207   5.717
 6121SOL    HW119262   1.532   3.246   5.686
 6121SOL    HW219263   1.373   3.231   5.653
 6122SOL     OW19264   4.401   6.119   0.369
 6122SOL    HW119265   4.479   6.132   0.431
 6122SOL    HW219266   4.419   6.041   0.309
 6123SOL     OW19267   6.551   6.891   6.475
 6123SOL    HW119268   6.484   6.903   6.402
 6123SOL    HW219269   6.572   6.794   6.487
 6124SOL     OW19270   2.112   0.451   5.816
 6124SOL    HW119271   2.091   0.547   5.830
 6124SOL    HW219272   2.134   0.435   5.720
 6125SOL     OW19273   1.058   6.030   0.297
 6125SOL    HW119274   1.103   5.974   0.367
 6125SOL    HW219275   1.033   5.973   0.219
 6126SOL     OW19276   1.098   0.812   4.252
 6126SOL    HW119277   1.039   0.893   4.255
 6126SOL    HW219278   1.046   0.735   4.216
 6127SOL     OW19279   3.742   0.178   1.554
 6127SOL    HW119280   3.752   0.081   1.530
 6127SOL    HW219281   3.646   0.197   1.576
 6128SOL     OW19282   6.301   3.413   6.952
 6128SOL    HW119283   6.393   3.391   6.921
 6128SOL    HW219284   6.237   3.344   6.920
 6129SOL     OW19285   6.323   3.726   3.449
 6129SOL    HW119286   6.223   3.726   3.447
 6129SOL    HW219287   6.358   3.746   3.357
 6130SOL     OW19288   6.006   2.135   3.809
 6130SOL    HW119289   6.085   2.150   3.751
 6130SOL    HW219290   5.965   2.047   3.788
 6131SOL     OW19291   6.766   0.823   5.104
 6131SOL    HW119292   6.715   0.830   5.018
 6131SOL    HW219293   6.702   0.814   5.180
 6132SOL     OW19294   4.903   1.671   0.573
 6132SOL    HW119295   4.809   1.684   0.543
 6132SOL    HW219296   4.965   1.704   0.502
 6133SOL     OW19297   1.116   2.506   2.398
 6133SOL    HW119298   1.207   2.465   2.391
 6133SOL    HW219299   1.051   2.438   2.432
 6134SOL     OW19300   3.637   4.543   6.497
 6134SOL    HW119301   3.553   4.495   6.471
 6134SOL    HW219302   3.701   4.542   6.421
 6135SOL     OW19303   0.760   0.598   2.176
 6135SOL    HW119304   0.715   0.517   2.138
 6135SOL    HW219305   0.753   0.596   2.276
 6136SOL     OW19306   0.703   2.992   2.769
 6136SOL    HW119307   0.801   3.009   2.765
 6136SOL    HW219308   0.656   3.048   2.700
 6137SOL     OW19309   6.477   2.346   3.916
 6137SOL    HW119310   6.429   2.289   3.983
 6137SOL    HW219311   6.443   2.440   3.924
 6138SOL     OW19312   4.613   6.780   2.784
 6138SOL    HW119313   4.618   6.732   2.871
 6138SOL    HW219314   4.568   6.721   2.716
 6139SOL     OW19315   1.305   1.299   6.427
 6139SOL    HW119316   1.264   1.352   6.352
 6139SOL    HW219317   1.363   1.227   6.389
 6140SOL     OW19318   0.598   6.554   1.537
 6140SOL    HW119319   0.538   6.574   1.460
 6140SOL    HW219320   0.660   6.631   1.553
 6141SOL     OW19321   6.827   5.580   6.291
 6141SOL    HW119322   6.784   5.657   6.243
 6141SOL    HW219323   6.830   5.500   6.231
 6142SOL     OW19324   1.289   5.639   0.931
 6142SOL    HW119325   1.382   5.674   0.921
 6142SOL    HW219326   1.224   5.708   0.898
 6143SOL     OW19327   6.982   4.125   1.080
 6143SOL    HW119328   6.910   4.174   1.129
 6143SOL    HW219329   6.956   4.115   0.984
 6144SOL     OW19330   5.668   4.369   3.159
 6144SOL    HW119331   5.578   4.354   3.119
 6144SOL    HW219332   5.694   4.290   3.214
 6145SOL     OW19333   4.948   5.291   3.470
 6145SOL    HW119334   5.033   5.266   3.516
 6145SOL    HW219335   4.891   5.210   3.458
 6146SOL     OW19336   2.492   6.227   3.126
 6146SOL    HW119337   2.496   6.323   3.154
 6146SOL    HW219338   2.496   6.168   3.207
 6147SOL     OW19339   1.680   3.630   4.282
 6147SOL    HW119340   1.774   3.621   4.248
 6147SOL    HW219341   1.682   3.669   4.374
 6148SOL     OW19342   6.419   0.001   3.854
 6148SOL    HW119343   6.497   6.964   3.827
 6148SOL    HW219344   6.388   6.994   3.945
 6149SOL     OW19345   2.956   5.627   1.510
 6149SOL    HW119346   2.878   5.653   1.568
 6149SOL    HW219347   3.037   5.678   1.538
 6150SOL     OW19348   4.279   4.544   0.344
 6150SOL    HW119349   4.346   4.618   0.339
 6150SOL    HW219350   4.300   4.485   0.423
 6151SOL     OW19351   5.829   4.415   5.673
 6151SOL    HW119352   5.793   4.417   5.580
 6151SOL    HW219353   5.877   4.329   5.689
 6152SOL     OW19354   6.341   5.424   5.135
 6152SOL    HW119355   6.342   5.336   5.181
 6152SOL    HW219356   6.260   5.430   5.077
 6153SOL     OW19357   5.528   3.891   1.239
 6153SOL    HW119358   5.559   3.819   1.302
 6153SOL    HW219359   5.430   3.880   1.223
 6154SOL     OW19360   6.256   2.290   2.373
 6154SOL    HW119361   6.303   2.301   2.461
 6154SOL    HW219362   6.218   2.378   2.345
 6155SOL     OW19363   1.867   1.990   4.681
 6155SOL    HW119364   1.824   1.934   4.610
 6155SOL    HW219365   1.948   2.035   4.643
 6156SOL     OW19366   3.928   4.684   1.664
 6156SOL    HW119367   3.896   4.778   1.656
 6156SOL    HW219368   3.850   4.622   1.659
 6157SOL     OW19369   1.520   1.021   3.896
 6157SOL    HW119370   1.441   1.073   3.930
 6157SOL    HW219371   1.557   0.964   3.969
 6158SOL     OW19372   4.061   1.320   6.381
 6158SOL    HW119373   4.053   1.293   6.285
 6158SOL    HW219374   4.157   1.342   6.401
 6159SOL     OW19375   4.896   2.401   1.817
 6159SOL    HW119376   4.873   2.311   1.855
 6159SOL    HW219377   4.954   2.451   1.881
 6160SOL     OW19378   4.742   0.971   6.493
 6160SOL    HW119379   4.775   0.885   6.453
 6160SOL    HW219380   4.675   1.013   6.432
 6161SOL     OW19381   5.088   1.503   4.663
 6161SOL    HW119382   5.002   1.551   4.642
 6161SOL    HW219383   5.094   1.488   4.762
 6162SOL     OW19384   1.121   6.602   3.570
 6162SOL    HW119385   1.034   6.583   3.615
 6162SOL    HW219386   1.184   6.526   3.588
 6163SOL     OW19387   6.484   6.408   0.868
 6163SOL    HW119388   6.508   6.487   0.924
 6163SOL    HW219389   6.391   6.380   0.888
 6164SOL     OW19390   3.258   2.832   1.965
 6164SOL    HW119391   3.202   2.770   1.909
 6164SOL    HW219392   3.337   2.782   2.000
 6165SOL     OW19393   4.655   0.885   6.891
 6165SOL    HW119394   4.647   0.958   6.823
 6165SOL    HW219395   4.657   0.796   6.845
 6166SOL     OW19396   4.651   0.823   5.890
 6166SOL    HW119397   4.595   0.896   5.851
 6166SOL    HW219398   4.711   0.786   5.819
 6167SOL     OW19399   0.921   5.064   3.433
 6167SOL    HW119400   0.950   5.157   3.456
 6167SOL    HW219401   0.898   5.014   3.516
 6168SOL     OW19402   0.766   3.634   1.172
 6168SOL    HW119403   0.814   3.651   1.086
 6168SOL    HW219404   0.771   3.716   1.229
 6169SOL     OW19405   1.543   2.382   0.674
 6169SOL    HW119406   1.484   2.301   0.670
 6169SOL    HW219407   1.637   2.354   0.690
 6170SOL     OW19408   1.031   3.998   5.552
 6170SOL    HW119409   1.049   4.081   5.498
 6170SOL    HW219410   0.933   3.979   5.552
 6171SOL     OW19411   0.571   2.813   0.910
 6171SOL    HW119412   0.634   2.792   0.835
 6171SOL    HW219413   0.478   2.821   0.875
 6172SOL     OW19414   2.277   2.904   2.310
 6172SOL    HW119415   2.371   2.924   2.338
 6172SOL    HW219416   2.276   2.873   2.215
 6173SOL     OW19417   0.040   5.875   1.929
 6173SOL    HW119418   7.002   5.918   1.998
 6173SOL    HW219419   7.005   5.816   1.871
 6174SOL     OW19420   4.565   5.896   3.529
 6174SOL    HW119421   4.502   5.818   3.526
 6174SOL    HW219422   4.517   5.977   3.560
 6175SOL     OW19423   4.711   0.185   3.680
 6175SOL    HW119424   4.752   0.271   3.709
 6175SOL    HW219425   4.630   0.166   3.737
 6176SOL     OW19426   5.041   4.383   5.213
 6176SOL    HW119427   5.039   4.458   5.279
 6176SOL    HW219428   4.986   4.408   5.133
 6177SOL     OW19429   6.013   0.953   1.218
 6177SOL    HW119430   6.056   0.895   1.148
 6177SOL    HW219431   6.022   1.049   1.191
 6178SOL     OW19432   4.562   4.401   2.441
 6178SOL    HW119433   4.464   4.387   2.424
 6178SOL    HW219434   4.611   4.404   2.353
 6179SOL     OW19435   6.045   4.960   3.885
 6179SOL    HW119436   6.120   4.972   3.950
 6179SOL    HW219437   5.958   4.970   3.933
 6180SOL     OW19438   2.827   4.439   0.760
 6180SOL    HW119439   2.820   4.538   0.775
 6180SOL    HW219440   2.808   4.419   0.663
 6181SOL     OW19441   4.990   6.319   6.655
 6181SOL    HW119442   4.945   6.364   6.578
 6181SOL    HW219443   5.054   6.250   6.621
 6182SOL     OW19444   4.995   2.808   5.160
 6182SOL    HW119445   4.957   2.900   5.165
 6182SOL    HW219446   5.056   2.793   5.238
 6183SOL     OW19447   1.185   2.700   3.761
 6183SOL    HW119448   1.194   2.795   3.733
 6183SOL    HW219449   1.088   2.678   3.774
 6184SOL     OW19450   2.539   6.341   6.754
 6184SOL    HW119451   2.585   6.395   6.683
 6184SOL    HW219452   2.459   6.296   6.715
 6185SOL     OW19453   0.657   3.736   6.325
 6185SOL    HW119454   0.562   3.747   6.297
 6185SOL    HW219455   0.714   3.802   6.276
 6186SOL     OW19456   0.271   0.756   7.013
 6186SOL    HW119457   0.327   0.773   0.074
 6186SOL    HW219458   0.187   0.809   7.019
 6187SOL     OW19459   5.308   4.410   4.072
 6187SOL    HW119460   5.377   4.384   4.005
 6187SOL    HW219461   5.217   4.394   4.035
 6188SOL     OW19462   2.404   1.667   6.461
 6188SOL    HW119463   2.497   1.698   6.442
 6188SOL    HW219464   2.400   1.628   6.553
 6189SOL     OW19465   4.474   4.500   2.681
 6189SOL    HW119466   4.400   4.565   2.668
 6189SOL    HW219467   4.503   4.464   2.592
 6190SOL     OW19468   0.760   3.892   5.504
 6190SOL    HW119469   0.679   3.948   5.521
 6190SOL    HW219470   0.779   3.889   5.406
 6191SOL     OW19471   2.784   2.512   6.661
 6191SOL    HW119472   2.856   2.509   6.731
 6191SOL    HW219473   2.710   2.451   6.687
 6192SOL     OW19474   2.723   2.425   5.625
 6192SOL    HW119475   2.772   2.409   5.711
 6192SOL    HW219476   2.765   2.372   5.552
 6193SOL     OW19477   4.327   6.422   1.748
 6193SOL    HW119478   4.375   6.475   1.818
 6193SOL    HW219479   4.229   6.445   1.750
 6194SOL     OW19480   1.001   0.253   0.613
 6194SOL    HW119481   1.040   0.285   0.700
 6194SOL    HW219482   1.047   0.299   0.537
 6195SOL     OW19483   4.339   5.934   4.845
 6195SOL    HW119484   4.250   5.911   4.806
 6195SOL    HW219485   4.401   5.960   4.771
 6196SOL     OW19486   5.642   3.456   1.923
 6196SOL    HW119487   5.602   3.543   1.952
 6196SOL    HW219488   5.689   3.467   1.836
 6197SOL     OW19489   3.546   5.051   1.235
 6197SOL    HW119490   3.499   5.114   1.296
 6197SOL    HW219491   3.483   4.979   1.206
 6198SOL     OW19492   3.981   6.556   1.424
 6198SOL    HW119493   4.026   6.468   1.405
 6198SOL    HW219494   4.008   6.623   1.355
 6199SOL     OW19495   1.409   1.275   0.305
 6199SOL    HW119496   1.368   1.359   0.340
 6199SOL    HW219497   1.495   1.297   0.260
 6200SOL     OW19498   1.413   1.519   5.994
 6200SOL    HW119499   1.376   1.432   5.961
 6200SOL    HW219500   1.341   1.588   5.993
 6201SOL     OW19501   0.778   4.128   5.684
 6201SOL    HW119502   0.863   4.144   5.734
 6201SOL    HW219503   0.776   4.186   5.602
 6202SOL     OW19504   4.611   1.448   1.458
 6202SOL    HW119505   4.625   1.350   1.446
 6202SOL    HW219506   4.699   1.494   1.462
 6203SOL     OW19507   6.502   5.623   2.138
 6203SOL    HW119508   6.467   5.698   2.194
 6203SOL    HW219509   6.443   5.610   2.059
 6204SOL     OW19510   6.936   5.611   4.144
 6204SOL    HW119511   6.872   5.608   4.067
 6204SOL    HW219512   6.913   5.540   4.210
 6205SOL     OW19513   6.606   5.843   1.638
 6205SOL    HW119514   6.683   5.779   1.631
 6205SOL    HW219515   6.626   5.925   1.585
 6206SOL     OW19516   5.972   1.786   3.285
 6206SOL    HW119517   5.910   1.862   3.305
 6206SOL    HW219518   5.998   1.789   3.188
 6207SOL     OW19519   1.422   5.016   5.702
 6207SOL    HW119520   1.474   4.932   5.718
 6207SOL    HW219521   1.484   5.089   5.673
 6208SOL     OW19522   4.679   2.746   5.803
 6208SOL    HW119523   4.731   2.696   5.871
 6208SOL    HW219524   4.740   2.806   5.752
 6209SOL     OW19525   3.212   6.121   6.815
 6209SOL    HW119526   3.235   6.218   6.820
 6209SOL    HW219527   3.188   6.097   6.720
 6210SOL     OW19528   4.744   2.906   4.150
 6210SOL    HW119529   4.781   2.908   4.243
 6210SOL    HW219530   4.709   2.997   4.127
 6211SOL     OW19531   3.045   6.175   5.932
 6211SOL    HW119532   3.076   6.097   5.987
 6211SOL    HW219533   2.968   6.220   5.977
 6212SOL     OW19534   2.578   4.606   4.920
 6212SOL    HW119535   2.665   4.561   4.940
 6212SOL    HW219536   2.518   4.601   5.000
 6213SOL     OW19537   6.130   0.182   6.641
 6213SOL    HW119538   6.149   0.280   6.632
 6213SOL    HW219539   6.205   0.138   6.692
 6214SOL     OW19540   5.222   5.550   4.691
 6214SOL    HW119541   5.230   5.525   4.788
 6214SOL    HW219542   5.143   5.610   4.679
 6215SOL     OW19543   4.137   2.477   6.160
 6215SOL    HW119544   4.197   2.447   6.085
 6215SOL    HW219545   4.041   2.467   6.132
 6216SOL     OW19546   6.085   2.057   2.731
 6216SOL    HW119547   6.101   2.148   2.693
 6216SOL    HW219548   6.076   1.991   2.656
 6217SOL     OW19549   0.689   3.646   2.581
 6217SOL    HW119550   0.736   3.655   2.669
 6217SOL    HW219551   0.608   3.705   2.582
 6218SOL     OW19552   3.609   6.559   6.199
 6218SOL    HW119553   3.672   6.636   6.196
 6218SOL    HW219554   3.653   6.481   6.243
 6219SOL     OW19555   1.004   2.128   4.559
 6219SOL    HW119556   0.968   2.115   4.652
 6219SOL    HW219557   1.083   2.188   4.563
 6220SOL     OW19558   2.611   0.919   4.877
 6220SOL    HW119559   2.633   0.940   4.972
 6220SOL    HW219560   2.695   0.919   4.822
 6221SOL     OW19561   5.729   6.647   0.080
 6221SOL    HW119562   5.788   6.567   0.077
 6221SOL    HW219563   5.638   6.623   0.045
 6222SOL     OW19564   1.677   0.006   1.544
 6222SOL    HW119565   1.653   0.101   1.528
 6222SOL    HW219566   1.776   7.014   1.534
 6223SOL     OW19567   1.494   4.991   3.248
 6223SOL    HW119568   1.469   4.970   3.343
 6223SOL    HW219569   1.430   4.947   3.186
 6224SOL     OW19570   3.683   1.163   6.113
 6224SOL    HW119571   3.624   1.086   6.090
 6224SOL    HW219572   3.642   1.215   6.188
 6225SOL     OW19573   3.936   3.026   6.684
 6225SOL    HW119574   3.872   2.969   6.632
 6225SOL    HW219575   3.933   3.119   6.649
 6226SOL     OW19576   0.625   1.784   4.617
 6226SOL    HW119577   0.654   1.879   4.606
 6226SOL    HW219578   0.698   1.724   4.585
 6227SOL     OW19579   3.078   4.858   4.953
 6227SOL    HW119580   2.981   4.847   4.934
 6227SOL    HW219581   3.104   4.799   5.029
 6228SOL     OW19582   0.599   3.108   2.256
 6228SOL    HW119583   0.610   3.207   2.244
 6228SOL    HW219584   0.685   3.062   2.233
 6229SOL     OW19585   0.784   2.318   4.791
 6229SOL    HW119586   0.737   2.359   4.869
 6229SOL    HW219587   0.846   2.247   4.823
 6230SOL     OW19588   0.437   2.428   4.163
 6230SOL    HW119589   0.517   2.392   4.210
 6230SOL    HW219590   0.365   2.358   4.162
 6231SOL     OW19591   6.089   5.671   0.613
 6231SOL    HW119592   6.006   5.622   0.638
 6231SOL    HW219593   6.120   5.639   0.523
 6232SOL     OW19594   6.474   1.193   0.913
 6232SOL    HW119595   6.499   1.148   0.998
 6232SOL    HW219596   6.472   1.126   0.839
 6233SOL     OW19597   6.627   2.355   1.359
 6233SOL    HW119598   6.612   2.397   1.269
 6233SOL    HW219599   6.687   2.414   1.413
 6234SOL     OW19600   0.010   7.009   5.409
 6234SOL    HW119601   7.012   0.038   5.494
 6234SOL    HW219602   6.947   7.003   5.355
 6235SOL     OW19603   6.971   0.402   1.482
 6235SOL    HW119604   6.919   0.453   1.414
 6235SOL    HW219605   6.933   0.310   1.491
 6236SOL     OW19606   0.440   4.507   1.364
 6236SOL    HW119607   0.470   4.484   1.271
 6236SOL    HW219608   0.487   4.590   1.395
 6237SOL     OW19609   3.647   6.883   6.752
 6237SOL    HW119610   3.591   6.957   6.714
 6237SOL    HW219611   3.590   6.824   6.809
 6238SOL     OW19612   5.263   5.742   2.797
 6238SOL    HW119613   5.188   5.781   2.850
 6238SOL    HW219614   5.347   5.743   2.852
 6239SOL     OW19615   4.124   1.600   1.518
 6239SOL    HW119616   4.222   1.604   1.499
 6239SOL    HW219617   4.108   1.615   1.616
 6240SOL     OW19618   2.391   3.764   5.332
 6240SOL    HW119619   2.370   3.855   5.295
 6240SOL    HW219620   2.490   3.753   5.339
 6241SOL     OW19621   3.118   0.791   2.179
 6241SOL    HW119622   3.207   0.759   2.148
 6241SOL    HW219623   3.116   0.891   2.176
 6242SOL     OW19624   4.114   6.979   3.294
 6242SOL    HW119625   4.081   6.886   3.277
 6242SOL    HW219626   4.210   6.985   3.267
 6243SOL     OW19627   7.009   6.541   5.116
 6243SOL    HW119628   6.934   6.594   5.156
 6243SOL    HW219629   0.063   6.603   5.090
 6244SOL     OW19630   5.534   3.180   3.316
 6244SOL    HW119631   5.524   3.102   3.377
 6244SOL    HW219632   5.594   3.156   3.240
 6245SOL     OW19633   1.724   3.275   0.945
 6245SOL    HW119634   1.732   3.372   0.922
 6245SOL    HW219635   1.664   3.264   1.024
 6246SOL     OW19636   0.975   2.029   5.268
 6246SOL    HW119637   0.923   2.005   5.350
 6246SOL    HW219638   1.010   2.122   5.278
 6247SOL     OW19639   0.398   6.054   3.747
 6247SOL    HW119640   0.384   6.148   3.779
 6247SOL    HW219641   0.471   6.052   3.680
 6248SOL     OW19642   3.886   4.153   0.197
 6248SOL    HW119643   3.886   4.245   0.158
 6248SOL    HW219644   3.924   4.089   0.130
 6249SOL     OW19645   6.758   3.310   1.032
 6249SOL    HW119646   6.720   3.368   1.104
 6249SOL    HW219647   6.789   3.224   1.071
 6250SOL     OW19648   6.564   0.137   1.307
 6250SOL    HW119649   6.466   0.136   1.328
 6250SOL    HW219650   6.587   0.219   1.255
 6251SOL     OW19651   4.368   5.818   5.119
 6251SOL    HW119652   4.338   5.885   5.188
 6251SOL    HW219653   4.351   5.855   5.028
 6252SOL     OW19654   2.656   5.797   6.490
 6252SOL    HW119655   2.641   5.801   6.589
 6252SOL    HW219656   2.707   5.714   6.467
 6253SOL     OW19657   2.719   5.005   4.225
 6253SOL    HW119658   2.739   4.967   4.135
 6253SOL    HW219659   2.637   4.963   4.262
 6254SOL     OW19660   6.342   1.243   1.172
 6254SOL    HW119661   6.288   1.214   1.093
 6254SOL    HW219662   6.370   1.338   1.160
 6255SOL     OW19663   2.559   0.909   1.058
 6255SOL    HW119664   2.625   0.867   0.996
 6255SOL    HW219665   2.605   0.941   1.140
 6256SOL     OW19666   3.917   5.231   2.525
 6256SOL    HW119667   3.861   5.314   2.522
 6256SOL    HW219668   3.983   5.240   2.600
 6257SOL     OW19669   4.399   2.799   0.189
 6257SOL    HW119670   4.496   2.822   0.197
 6257SOL    HW219671   4.344   2.880   0.210
 6258SOL     OW19672   2.885   0.074   3.616
 6258SOL    HW119673   2.865   0.015   3.538
 6258SOL    HW219674   2.811   0.069   3.683
 6259SOL     OW19675   1.763   1.341   6.632
 6259SOL    HW119676   1.831   1.365   6.562
 6259SOL    HW219677   1.727   1.424   6.673
 6260SOL     OW19678   3.109   6.080   0.210
 6260SOL    HW119679   3.198   6.124   0.197
 6260SOL    HW219680   3.056   6.130   0.278
 6261SOL     OW19681   4.925   0.327   6.410
 6261SOL    HW119682   4.936   0.397   6.480
 6261SOL    HW219683   4.972   0.244   6.438
 6262SOL     OW19684   1.979   6.342   1.795
 6262SOL    HW119685   2.010   6.376   1.884
 6262SOL    HW219686   1.992   6.413   1.726
 6263SOL     OW19687   0.738   6.895   4.614
 6263SOL    HW119688   0.718   6.805   4.653
 6263SOL    HW219689   0.652   6.943   4.595
 6264SOL     OW19690   1.834   0.844   2.008
 6264SOL    HW119691   1.887   0.767   1.972
 6264SOL    HW219692   1.803   0.901   1.932
 6265SOL     OW19693   3.915   3.599   0.086
 6265SOL    HW119694   3.868   3.594   0.174
 6265SOL    HW219695   3.854   3.640   0.018
 6266SOL     OW19696   5.219   0.138   3.409
 6266SOL    HW119697   5.155   0.196   3.459
 6266SOL    HW219698   5.202   0.042   3.433
 6267SOL     OW19699   2.441   6.965   5.125
 6267SOL    HW119700   2.511   6.900   5.095
 6267SOL    HW219701   2.373   6.918   5.180
 6268SOL     OW19702   3.091   0.889   2.559
 6268SOL    HW119703   3.106   0.954   2.484
 6268SOL    HW219704   3.073   0.798   2.521
 6269SOL     OW19705   6.811   0.033   2.405
 6269SOL    HW119706   6.781   7.010   2.490
 6269SOL    HW219707   6.826   6.983   2.336
 6270SOL     OW19708   0.267   0.274   6.081
 6270SOL    HW119709   0.266   0.311   6.174
 6270SOL    HW219710   0.228   0.182   6.081
 6271SOL     OW19711   5.640   2.358   5.677
 6271SOL    HW119712   5.556   2.411   5.692
 6271SOL    HW219713   5.713   2.394   5.735
 6272SOL     OW19714   0.817   2.233   0.358
 6272SOL    HW119715   0.797   2.311   0.299
 6272SOL    HW219716   0.734   2.206   0.407
 6273SOL     OW19717   0.802   6.436   2.843
 6273SOL    HW119718   0.805   6.354   2.899
 6273SOL    HW219719   0.720   6.434   2.785
 6274SOL     OW19720   3.052   6.766   5.288
 6274SOL    HW119721   3.114   6.702   5.334
 6274SOL    HW219722   2.961   6.726   5.284
 6275SOL     OW19723   2.278   6.348   0.101
 6275SOL    HW119724   2.232   6.353   0.012
 6275SOL    HW219725   2.259   6.259   0.143
 6276SOL     OW19726   2.148   5.407   3.627
 6276SOL    HW119727   2.184   5.462   3.703
 6276SOL    HW219728   2.158   5.458   3.541
 6277SOL     OW19729   4.466   2.825   1.007
 6277SOL    HW119730   4.451   2.816   1.106
 6277SOL    HW219731   4.561   2.852   0.989
 6278SOL     OW19732   4.900   7.007   4.622
 6278SOL    HW119733   4.922   6.909   4.616
 6278SOL    HW219734   4.956   0.037   4.557
 6279SOL     OW19735   3.203   6.241   0.434
 6279SOL    HW119736   3.154   6.178   0.494
 6279SOL    HW219737   3.263   6.190   0.373
 6280SOL     OW19738   0.058   0.951   6.226
 6280SOL    HW119739   0.142   0.987   6.185
 6280SOL    HW219740   0.037   1.003   6.309
 6281SOL     OW19741   6.787   4.970   4.294
 6281SOL    HW119742   6.749   5.026   4.221
 6281SOL    HW219743   6.886   4.988   4.301
 6282SOL     OW19744   6.018   4.771   5.784
 6282SOL    HW119745   6.038   4.674   5.770
 6282SOL    HW219746   5.937   4.797   5.731
 6283SOL     OW19747   0.031   4.162   4.476
 6283SOL    HW119748   0.055   4.065   4.477
 6283SOL    HW219749   0.113   4.217   4.492
 6284SOL     OW19750   1.984   4.793   5.316
 6284SOL    HW119751   2.070   4.745   5.334
 6284SOL    HW219752   1.929   4.741   5.251
 6285SOL     OW19753   0.496   3.561   3.959
 6285SOL    HW119754   0.419   3.590   3.903
 6285SOL    HW219755   0.463   3.525   4.046
 6286SOL     OW19756   6.617   2.549   4.569
 6286SOL    HW119757   6.711   2.555   4.535
 6286SOL    HW219758   6.563   2.625   4.534
 6287SOL     OW19759   3.260   4.880   4.753
 6287SOL    HW119760   3.194   4.887   4.828
 6287SOL    HW219761   3.268   4.784   4.726
 6288SOL     OW19762   4.827   4.433   1.913
 6288SOL    HW119763   4.840   4.460   2.008
 6288SOL    HW219764   4.821   4.333   1.907
 6289SOL     OW19765   1.588   5.091   6.955
 6289SOL    HW119766   1.654   5.015   6.955
 6289SOL    HW219767   1.629   5.171   6.998
 6290SOL     OW19768   6.211   4.583   6.100
 6290SOL    HW119769   6.299   4.627   6.116
 6290SOL    HW219770   6.223   4.503   6.041
 6291SOL     OW19771   3.996   3.720   3.684
 6291SOL    HW119772   3.956   3.781   3.752
 6291SOL    HW219773   4.059   3.657   3.730
 6292SOL     OW19774   2.069   2.277   5.041
 6292SOL    HW119775   2.129   2.337   5.094
 6292SOL    HW219776   2.001   2.332   4.993
 6293SOL     OW19777   4.010   1.924   1.172
 6293SOL    HW119778   3.996   1.885   1.263
 6293SOL    HW219779   3.949   1.880   1.107
 6294SOL     OW19780   4.079   0.370   3.650
 6294SOL    HW119781   4.133   0.339   3.728
 6294SOL    HW219782   4.130   0.439   3.599
 6295SOL     OW19783   4.916   4.763   4.513
 6295SOL    HW119784   5.010   4.728   4.514
 6295SOL    HW219785   4.912   4.850   4.562
 6296SOL     OW19786   6.899   5.010   6.357
 6296SOL    HW119787   6.865   5.052   6.273
 6296SOL    HW219788   6.908   4.911   6.343
 6297SOL     OW19789   5.630   0.182   5.365
 6297SOL    HW119790   5.720   0.206   5.401
 6297SOL    HW219791   5.637   0.101   5.308
 6298SOL     OW19792   1.767   3.455   6.187
 6298SOL    HW119793   1.821   3.448   6.271
 6298SOL    HW219794   1.799   3.533   6.133
 6299SOL     OW19795   6.010   2.420   2.021
 6299SOL    HW119796   6.023   2.330   2.062
 6299SOL    HW219797   6.036   2.491   2.085
 6300SOL     OW19798   6.393   1.122   6.426
 6300SOL    HW119799   6.456   1.069   6.482
 6300SOL    HW219800   6.444   1.175   6.359
 6301SOL     OW19801   2.937   6.827   0.062
 6301SOL    HW119802   2.924   6.791   6.990
 6301SOL    HW219803   2.935   6.751   0.127
 6302SOL     OW19804   1.916   2.084   5.127
 6302SOL    HW119805   1.903   2.014   5.057
 6302SOL    HW219806   1.981   2.153   5.094
 6303SOL     OW19807   0.951   0.768   4.973
 6303SOL    HW119808   0.925   0.793   5.066
 6303SOL    HW219809   0.868   0.747   4.920
 6304SOL     OW19810   3.406   1.083   1.790
 6304SOL    HW119811   3.316   1.062   1.751
 6304SOL    HW219812   3.440   1.003   1.839
 6305SOL     OW19813   5.578   6.252   0.452
 6305SOL    HW119814   5.619   6.291   0.535
 6305SOL    HW219815   5.630   6.283   0.372
 6306SOL     OW19816   6.789   4.193   4.395
 6306SOL    HW119817   6.807   4.222   4.301
 6306SOL    HW219818   6.876   4.176   4.441
 6307SOL     OW19819   3.474   3.904   3.559
 6307SOL    HW119820   3.401   3.968   3.536
 6307SOL    HW219821   3.443   3.811   3.544
 6308SOL     OW19822   1.813   3.176   4.380
 6308SOL    HW119823   1.870   3.093   4.381
 6308SOL    HW219824   1.816   3.219   4.470
 6309SOL     OW19825   6.841   6.089   4.573
 6309SOL    HW119826   6.782   6.124   4.499
 6309SOL    HW219827   6.864   6.164   4.635
 6310SOL     OW19828   1.680   6.627   2.632
 6310SOL    HW119829   1.746   6.568   2.678
 6310SOL    HW219830   1.608   6.570   2.592
 6311SOL     OW19831   4.312   1.491   6.014
 6311SOL    HW119832   4.301   1.506   6.113
 6311SOL    HW219833   4.370   1.412   5.999
 6312SOL     OW19834   0.110   6.803   4.783
 6312SOL    HW119835   0.141   6.819   4.689
 6312SOL    HW219836   0.043   6.873   4.809
 6313SOL     OW19837   6.694   5.910   3.781
 6313SOL    HW119838   6.779   5.952   3.750
 6313SOL    HW219839   6.691   5.912   3.881
 6314SOL     OW19840   3.420   6.774   1.581
 6314SOL    HW119841   3.358   6.852   1.574
 6314SOL    HW219842   3.387   6.700   1.523
 6315SOL     OW19843   2.996   2.169   5.768
 6315SOL    HW119844   2.954   2.235   5.830
 6315SOL    HW219845   2.974   2.076   5.799
 6316SOL     OW19846   4.787   2.056   6.067
 6316SOL    HW119847   4.819   1.979   6.123
 6316SOL    HW219848   4.693   2.038   6.037
 6317SOL     OW19849   4.844   4.688   1.428
 6317SOL    HW119850   4.899   4.674   1.346
 6317SOL    HW219851   4.903   4.721   1.503
 6318SOL     OW19852   4.409   7.014   6.155
 6318SOL    HW119853   4.433   6.926   6.197
 6318SOL    HW219854   4.314   0.016   6.179
 6319SOL     OW19855   6.482   1.977   5.655
 6319SOL    HW119856   6.467   1.962   5.557
 6319SOL    HW219857   6.525   2.066   5.669
 6320SOL     OW19858   6.914   6.300   4.703
 6320SOL    HW119859   6.944   6.388   4.665
 6320SOL    HW219860   6.928   6.301   4.802
 6321SOL     OW19861   4.365   3.068   0.933
 6321SOL    HW119862   4.340   3.085   0.838
 6321SOL    HW219863   4.387   2.971   0.945
 6322SOL     OW19864   2.455   2.313   1.163
 6322SOL    HW119865   2.362   2.312   1.199
 6322SOL    HW219866   2.490   2.219   1.160
 6323SOL     OW19867   1.538   2.853   1.765
 6323SOL    HW119868   1.464   2.788   1.748
 6323SOL    HW219869   1.626   2.806   1.759
 6324SOL     OW19870   4.459   1.177   0.757
 6324SOL    HW119871   4.374   1.197   0.709
 6324SOL    HW219872   4.455   1.084   0.794
 6325SOL     OW19873   1.945   3.560   2.890
 6325SOL    HW119874   1.914   3.612   2.810
 6325SOL    HW219875   1.899   3.594   2.972
 6326SOL     OW19876   5.449   5.158   0.370
 6326SOL    HW119877   5.530   5.166   0.312
 6326SOL    HW219878   5.474   5.175   0.466
 6327SOL     OW19879   0.078   2.087   4.859
 6327SOL    HW119880   0.098   1.989   4.866
 6327SOL    HW219881   7.005   2.099   4.824
 6328SOL     OW19882   4.327   3.783   0.137
 6328SOL    HW119883   4.306   3.866   0.188
 6328SOL    HW219884   4.348   3.806   0.042
 6329SOL     OW19885   1.467   3.179   3.936
 6329SOL    HW119886   1.528   3.202   4.012
 6329SOL    HW219887   1.464   3.080   3.924
 6330SOL     OW19888   5.824   6.790   1.637
 6330SOL    HW119889   5.727   6.808   1.656
 6330SOL    HW219890   5.881   6.840   1.703
 6331SOL     OW19891   6.839   3.468   5.424
 6331SOL    HW119892   6.814   3.446   5.329
 6331SOL    HW219893   6.866   3.383   5.471
 6332SOL     OW19894   0.605   2.618   1.312
 6332SOL    HW119895   0.586   2.532   1.359
 6332SOL    HW219896   0.697   2.615   1.273
 6333SOL     OW19897   4.392   7.020   5.255
 6333SOL    HW119898   4.491   7.011   5.259
 6333SOL    HW219899   4.351   6.968   5.331
 6334SOL     OW19900   3.668   1.183   2.698
 6334SOL    HW119901   3.666   1.086   2.722
 6334SOL    HW219902   3.742   1.201   2.634
 6335SOL     OW19903   4.012   0.273   0.671
 6335SOL    HW119904   3.949   0.344   0.703
 6335SOL    HW219905   3.979   0.184   0.702
 6336SOL     OW19906   0.941   1.798   6.451
 6336SOL    HW119907   1.027   1.751   6.433
 6336SOL    HW219908   0.916   1.854   6.373
 6337SOL     OW19909   4.215   4.992   5.480
 6337SOL    HW119910   4.300   4.959   5.523
 6337SOL    HW219911   4.199   5.086   5.507
 6338SOL     OW19912   3.028   2.241   4.186
 6338SOL    HW119913   3.004   2.148   4.156
 6338SOL    HW219914   3.046   2.239   4.285
 6339SOL     OW19915   1.037   3.573   3.951
 6339SOL    HW119916   0.939   3.577   3.971
 6339SOL    HW219917   1.052   3.520   3.868
 6340SOL     OW19918   1.800   4.891   1.227
 6340SOL    HW119919   1.744   4.965   1.190
 6340SOL    HW219920   1.829   4.830   1.153
 6341SOL     OW19921   6.702   3.432   4.897
 6341SOL    HW119922   6.704   3.341   4.856
 6341SOL    HW219923   6.710   3.424   4.996
 6342SOL     OW19924   2.852   1.702   1.122
 6342SOL    HW119925   2.921   1.774   1.131
 6342SOL    HW219926   2.881   1.622   1.175
 6343SOL     OW19927   4.373   0.775   6.106
 6343SOL    HW119928   4.411   0.684   6.123
 6343SOL    HW219929   4.339   0.813   6.193
 6344SOL     OW19930   5.277   2.214   4.674
 6344SOL    HW119931   5.247   2.152   4.602
 6344SOL    HW219932   5.197   2.250   4.721
 6345SOL     OW19933   5.487   2.588   2.202
 6345SOL    HW119934   5.440   2.520   2.259
 6345SOL    HW219935   5.422   2.626   2.136
 6346SOL     OW19936   6.450   5.625   4.016
 6346SOL    HW119937   6.498   5.621   4.104
 6346SOL    HW219938   6.471   5.544   3.962
 6347SOL     OW19939   2.323   1.418   0.369
 6347SOL    HW119940   2.411   1.447   0.407
 6347SOL    HW219941   2.318   1.319   0.369
 6348SOL     OW19942   1.780   2.663   6.138
 6348SOL    HW119943   1.836   2.622   6.210
 6348SOL    HW219944   1.838   2.720   6.080
 6349SOL     OW19945   1.917   1.212   0.877
 6349SOL    HW119946   1.868   1.134   0.840
 6349SOL    HW219947   2.002   1.181   0.919
 6350SOL     OW19948   0.151   5.323   4.004
 6350SOL    HW119949   0.213   5.310   3.926
 6350SOL    HW219950   0.198   5.299   4.089
 6351SOL     OW19951   6.101   3.502   3.742
 6351SOL    HW119952   6.048   3.569   3.794
 6351SOL    HW219953   6.196   3.532   3.735
 6352SOL     OW19954   2.809   6.826   5.069
 6352SOL    HW119955   2.828   6.826   4.971
 6352SOL    HW219956   2.826   6.735   5.107
 6353SOL     OW19957   0.889   5.868   5.545
 6353SOL    HW119958   0.942   5.947   5.515
 6353SOL    HW219959   0.940   5.818   5.615
 6354SOL     OW19960   3.588   5.669   3.016
 6354SOL    HW119961   3.538   5.678   2.930
 6354SOL    HW219962   3.589   5.572   3.043
 6355SOL     OW19963   1.843   5.452   6.900
 6355SOL    HW119964   1.755   5.407   6.887
 6355SOL    HW219965   1.830   5.551   6.904
 6356SOL     OW19966   4.750   5.219   1.245
 6356SOL    HW119967   4.780   5.281   1.317
 6356SOL    HW219968   4.674   5.163   1.278
 6357SOL     OW19969   6.085   3.556   3.019
 6357SOL    HW119970   6.030   3.531   2.939
 6357SOL    HW219971   6.025   3.567   3.098
 6358SOL     OW19972   0.325   1.624   6.294
 6358SOL    HW119973   0.249   1.654   6.236
 6358SOL    HW219974   0.330   1.524   6.292
 6359SOL     OW19975   6.508   0.018   0.370
 6359SOL    HW119976   6.598   0.025   0.413
 6359SOL    HW219977   6.493   6.945   0.339
 6360SOL     OW19978   1.118   3.544   5.481
 6360SOL    HW119979   1.181   3.620   5.470
 6360SOL    HW219980   1.027   3.579   5.501
 6361SOL     OW19981   1.118   0.873   0.894
 6361SOL    HW119982   1.207   0.837   0.922
 6361SOL    HW219983   1.061   0.797   0.862
 6362SOL     OW19984   0.716   5.435   6.548
 6362SOL    HW119985   0.706   5.453   6.646
 6362SOL    HW219986   0.629   5.455   6.502
 6363SOL     OW19987   2.274   5.957   3.528
 6363SOL    HW119988   2.349   5.977   3.465
 6363SOL    HW219989   2.310   5.942   3.620
 6364SOL     OW19990   2.952   1.896   5.611
 6364SOL    HW119991   2.876   1.946   5.652
 6364SOL    HW219992   2.921   1.805   5.584
 6365SOL     OW19993   5.024   6.654   4.003
 6365SOL    HW119994   4.952   6.649   3.934
 6365SOL    HW219995   5.079   6.571   4.001
 6366SOL     OW19996   0.972   5.233   5.392
 6366SOL    HW119997   1.054   5.284   5.420
 6366SOL    HW219998   1.000   5.144   5.355
 6367SOL     OW19999   4.189   1.284   3.854
 6367SOL    HW120000   4.207   1.273   3.756
 6367SOL    HW220001   4.165   1.379   3.873
 6368SOL     OW20002   3.509   5.083   3.710
 6368SOL    HW120003   3.477   5.176   3.691
 6368SOL    HW220004   3.519   5.033   3.624
 6369SOL     OW20005   2.187   0.497   4.687
 6369SOL    HW120006   2.277   0.541   4.689
 6369SOL    HW220007   2.117   0.563   4.715
 6370SOL     OW20008   5.877   3.428   3.864
 6370SOL    HW120009   5.952   3.389   3.916
 6370SOL    HW220010   5.895   3.417   3.766
 6371SOL     OW20011   5.293   4.599   3.183
 6371SOL    HW120012   5.225   4.660   3.142
 6371SOL    HW220013   5.378   4.649   3.198
 6372SOL     OW20014   1.480   1.667   2.101
 6372SOL    HW120015   1.563   1.712   2.132
 6372SOL    HW220016   1.493   1.633   2.008
 6373SOL     OW20017   5.143   4.113   2.530
 6373SOL    HW120018   5.048   4.142   2.535
 6373SOL    HW220019   5.192   4.143   2.612
 6374SOL     OW20020   4.167   3.402   1.878
 6374SOL    HW120021   4.205   3.446   1.796
 6374SOL    HW220022   4.145   3.306   1.857
 6375SOL     OW20023   0.024   1.916   2.334
 6375SOL    HW120024   6.980   1.959   2.272
 6375SOL    HW220025   6.996   1.883   2.415
 6376SOL     OW20026   4.918   2.289   6.126
 6376SOL    HW120027   4.860   2.208   6.112
 6376SOL    HW220028   4.889   2.336   6.210
 6377SOL     OW20029   6.866   1.029   5.578
 6377SOL    HW120030   6.786   0.972   5.561
 6377SOL    HW220031   6.936   0.975   5.624
 6378SOL     OW20032   4.574   4.371   3.688
 6378SOL    HW120033   4.511   4.378   3.765
 6378SOL    HW220034   4.666   4.396   3.718
 6379SOL     OW20035   0.487   4.037   5.208
 6379SOL    HW120036   0.574   3.987   5.212
 6379SOL    HW220037   0.437   4.022   5.293
 6380SOL     OW20038   0.218   1.674   5.299
 6380SOL    HW120039   0.133   1.630   5.325
 6380SOL    HW220040   0.200   1.749   5.235
 6381SOL     OW20041   4.080   2.986   1.249
 6381SOL    HW120042   4.162   2.999   1.305
 6381SOL    HW220043   4.028   3.071   1.246
 6382SOL     OW20044   3.266   2.004   0.767
 6382SOL    HW120045   3.253   2.060   0.685
 6382SOL    HW220046   3.364   1.987   0.781
 6383SOL     OW20047   2.518   2.429   3.223
 6383SOL    HW120048   2.500   2.527   3.210
 6383SOL    HW220049   2.449   2.376   3.175
 6384SOL     OW20050   6.400   3.731   3.155
 6384SOL    HW120051   6.495   3.763   3.159
 6384SOL    HW220052   6.397   3.642   3.109
 6385SOL     OW20053   6.863   3.351   3.617
 6385SOL    HW120054   6.853   3.388   3.525
 6385SOL    HW220055   6.923   3.271   3.614
 6386SOL     OW20056   2.869   3.427   6.700
 6386SOL    HW120057   2.871   3.521   6.734
 6386SOL    HW220058   2.852   3.365   6.777
 6387SOL     OW20059   6.887   1.574   6.790
 6387SOL    HW120060   6.844   1.539   6.874
 6387SOL    HW220061   6.963   1.634   6.814
 6388SOL     OW20062   4.451   6.480   1.492
 6388SOL    HW120063   4.545   6.494   1.524
 6388SOL    HW220064   4.396   6.447   1.569
 6389SOL     OW20065   0.900   6.787   0.700
 6389SOL    HW120066   0.877   6.807   0.605
 6389SOL    HW220067   0.895   6.688   0.716
 6390SOL     OW20068   0.257   0.401   5.734
 6390SOL    HW120069   0.267   0.302   5.744
 6390SOL    HW220070   0.177   0.432   5.785
 6391SOL     OW20071   1.345   0.518   6.255
 6391SOL    HW120072   1.399   0.511   6.171
 6391SOL    HW220073   1.359   0.609   6.296
 6392SOL     OW20074   2.765   5.174   2.620
 6392SOL    HW120075   2.674   5.202   2.589
 6392SOL    HW220076   2.831   5.189   2.546
 6393SOL     OW20077   0.459   6.032   2.110
 6393SOL    HW120078   0.543   5.980   2.127
 6393SOL    HW220079   0.469   6.125   2.145
 6394SOL     OW20080   1.489   5.902   0.716
 6394SOL    HW120081   1.492   5.871   0.811
 6394SOL    HW220082   1.405   5.954   0.701
 6395SOL     OW20083   0.426   2.791   1.601
 6395SOL    HW120084   0.449   2.757   1.693
 6395SOL    HW220085   0.373   2.875   1.609
 6396SOL     OW20086   6.137   3.173   6.879
 6396SOL    HW120087   6.191   3.104   6.832
 6396SOL    HW220088   6.100   3.136   6.964
 6397SOL     OW20089   5.789   1.060   1.857
 6397SOL    HW120090   5.790   0.989   1.927
 6397SOL    HW220091   5.774   1.149   1.900
 6398SOL     OW20092   3.037   6.749   1.955
 6398SOL    HW120093   2.975   6.811   1.905
 6398SOL    HW220094   3.064   6.792   2.041
 6399SOL     OW20095   1.556   0.519   6.851
 6399SOL    HW120096   1.587   0.535   6.757
 6399SOL    HW220097   1.468   0.472   6.849
 6400SOL     OW20098   2.063   5.035   2.424
 6400SOL    HW120099   2.058   5.019   2.325
 6400SOL    HW220100   2.148   4.997   2.460
 6401SOL     OW20101   5.673   6.141   3.222
 6401SOL    HW120102   5.719   6.063   3.180
 6401SOL    HW220103   5.663   6.126   3.320
 6402SOL     OW20104   2.169   3.160   3.319
 6402SOL    HW120105   2.227   3.081   3.296
 6402SOL    HW220106   2.075   3.130   3.331
 6403SOL     OW20107   6.563   5.165   6.259
 6403SOL    HW120108   6.580   5.081   6.311
 6403SOL    HW220109   6.523   5.234   6.319
 6404SOL     OW20110   4.102   1.163   2.407
 6404SOL    HW120111   4.068   1.096   2.340
 6404SOL    HW220112   4.178   1.214   2.366
 6405SOL     OW20113   3.832   0.851   3.896
 6405SOL    HW120114   3.773   0.771   3.889
 6405SOL    HW220115   3.776   0.933   3.904
 6406SOL     OW20116   0.270   2.704   2.936
 6406SOL    HW120117   0.222   2.782   2.979
 6406SOL    HW220118   0.356   2.736   2.897
 6407SOL     OW20119   2.459   7.005   4.016
 6407SOL    HW120120   2.551   6.996   4.054
 6407SOL    HW220121   2.392   6.997   4.091
 6408SOL     OW20122   5.479   0.837   0.644
 6408SOL    HW120123   5.456   0.931   0.619
 6408SOL    HW220124   5.467   0.826   0.742
 6409SOL     OW20125   6.440   4.574   4.352
 6409SOL    HW120126   6.467   4.486   4.313
 6409SOL    HW220127   6.513   4.641   4.335
 6410SOL     OW20128   1.976   1.146   5.956
 6410SOL    HW120129   1.956   1.082   6.030
 6410SOL    HW220130   1.927   1.119   5.874
 6411SOL     OW20131   0.454   2.955   3.079
 6411SOL    HW120132   0.357   2.946   3.104
 6411SOL    HW220133   0.473   2.900   2.998
 6412SOL     OW20134   1.753   1.366   5.084
 6412SOL    HW120135   1.709   1.317   5.160
 6412SOL    HW220136   1.752   1.465   5.104
 6413SOL     OW20137   3.781   4.919   3.668
 6413SOL    HW120138   3.694   4.935   3.714
 6413SOL    HW220139   3.771   4.941   3.571
 6414SOL     OW20140   5.415   1.086   0.372
 6414SOL    HW120141   5.478   1.054   0.443
 6414SOL    HW220142   5.344   1.016   0.357
 6415SOL     OW20143   1.489   3.580   3.794
 6415SOL    HW120144   1.477   3.598   3.892
 6415SOL    HW220145   1.403   3.547   3.755
 6416SOL     OW20146   1.877   0.017   6.634
 6416SOL    HW120147   1.858   0.103   6.681
 6416SOL    HW220148   1.945   0.033   6.562
 6417SOL     OW20149   5.611   4.509   0.590
 6417SOL    HW120150   5.709   4.490   0.590
 6417SOL    HW220151   5.561   4.431   0.552
 6418SOL     OW20152   4.892   3.515   2.574
 6418SOL    HW120153   4.841   3.499   2.490
 6418SOL    HW220154   4.985   3.543   2.552
 6419SOL     OW20155   0.721   5.319   2.791
 6419SOL    HW120156   0.756   5.235   2.748
 6419SOL    HW220157   0.683   5.297   2.881
 6420SOL     OW20158   2.291   6.879   4.237
 6420SOL    HW120159   2.302   6.816   4.160
 6420SOL    HW220160   2.199   6.871   4.274
 6421SOL     OW20161   4.675   0.532   2.313
 6421SOL    HW120162   4.658   0.482   2.398
 6421SOL    HW220163   4.663   0.630   2.328
 6422SOL     OW20164   6.815   0.096   5.067
 6422SOL    HW120165   6.734   0.137   5.026
 6422SOL    HW220166   6.894   0.155   5.053
 6423SOL     OW20167   4.979   5.649   3.474
 6423SOL    HW120168   4.963   5.743   3.505
 6423SOL    HW220169   4.913   5.587   3.518
 6424SOL     OW20170   0.573   4.148   4.355
 6424SOL    HW120171   0.578   4.223   4.421
 6424SOL    HW220172   0.516   4.075   4.392
 6425SOL     OW20173   6.700   6.519   2.910
 6425SOL    HW120174   6.790   6.481   2.890
 6425SOL    HW220175   6.630   6.457   2.875
 6426SOL     OW20176   0.497   5.171   2.647
 6426SOL    HW120177   0.408   5.216   2.635
 6426SOL    HW220178   0.540   5.157   2.558
 6427SOL     OW20179   3.885   3.910   3.861
 6427SOL    HW120180   3.806   3.967   3.838
 6427SOL    HW220181   3.916   3.930   3.954
 6428SOL     OW20182   5.589   3.339   6.606
 6428SOL    HW120183   5.674   3.366   6.561
 6428SOL    HW220184   5.598   3.245   6.641
 6429SOL     OW20185   0.093   1.432   5.747
 6429SOL    HW120186   0.136   1.515   5.714
 6429SOL    HW220187   7.014   1.444   5.748
 6430SOL     OW20188   6.160   0.877   4.075
 6430SOL    HW120189   6.254   0.889   4.104
 6430SOL    HW220190   6.138   0.779   4.072
 6431SOL     OW20191   3.732   5.949   3.659
 6431SOL    HW120192   3.644   5.909   3.686
 6431SOL    HW220193   3.793   5.953   3.738
 6432SOL     OW20194   4.592   4.477   5.944
 6432SOL    HW120195   4.639   4.544   6.002
 6432SOL    HW220196   4.614   4.384   5.976
 6433SOL     OW20197   1.562   5.253   5.682
 6433SOL    HW120198   1.660   5.234   5.687
 6433SOL    HW220199   1.541   5.297   5.594
 6434SOL     OW20200   2.896   6.502   6.247
 6434SOL    HW120201   2.963   6.523   6.177
 6434SOL    HW220202   2.895   6.576   6.315
 6435SOL     OW20203   5.669   6.941   0.521
 6435SOL    HW120204   5.604   6.869   0.546
 6435SOL    HW220205   5.625   0.010   0.532
 6436SOL     OW20206   1.247   2.983   2.468
 6436SOL    HW120207   1.181   3.058   2.460
 6436SOL    HW220208   1.293   2.989   2.557
 6437SOL     OW20209   1.524   2.630   6.905
 6437SOL    HW120210   1.617   2.610   6.937
 6437SOL    HW220211   1.489   2.551   6.855
 6438SOL     OW20212   0.474   3.976   5.480
 6438SOL    HW120213   0.450   3.879   5.480
 6438SOL    HW220214   0.461   4.013   5.572
 6439SOL     OW20215   5.366   0.841   1.897
 6439SOL    HW120216   5.383   0.744   1.877
 6439SOL    HW220217   5.386   0.858   1.994
 6440SOL     OW20218   2.396   1.352   5.967
 6440SOL    HW120219   2.437   1.262   5.980
 6440SOL    HW220220   2.466   1.422   5.980
 6441SOL     OW20221   0.235   0.223   1.356
 6441SOL    HW120222   0.319   0.179   1.326
 6441SOL    HW220223   0.157   0.178   1.313
 6442SOL     OW20224   2.624   1.626   5.142
 6442SOL    HW120225   2.571   1.711   5.144
 6442SOL    HW220226   2.718   1.644   5.171
 6443SOL     OW20227   3.740   2.692   5.532
 6443SOL    HW120228   3.707   2.784   5.555
 6443SOL    HW220229   3.668   2.643   5.483
 6444SOL     OW20230   5.580   3.077   4.746
 6444SOL    HW120231   5.633   3.154   4.710
 6444SOL    HW220232   5.504   3.056   4.685
 6445SOL     OW20233   4.068   3.398   4.561
 6445SOL    HW120234   4.098   3.474   4.619
 6445SOL    HW220235   4.054   3.317   4.618
 6446SOL     OW20236   1.041   1.153   6.873
 6446SOL    HW120237   1.056   1.060   6.908
 6446SOL    HW220238   1.102   1.170   6.797
 6447SOL     OW20239   6.306   4.997   2.758
 6447SOL    HW120240   6.352   4.954   2.836
 6447SOL    HW220241   6.318   4.939   2.677
 6448SOL     OW20242   5.084   5.420   1.454
 6448SOL    HW120243   5.111   5.466   1.538
 6448SOL    HW220244   4.986   5.405   1.454
 6449SOL     OW20245   3.755   6.078   1.545
 6449SOL    HW120246   3.740   6.057   1.642
 6449SOL    HW220247   3.667   6.094   1.501
 6450SOL     OW20248   1.492   2.962   0.785
 6450SOL    HW120249   1.423   2.981   0.715
 6450SOL    HW220250   1.548   2.884   0.756
 6451SOL     OW20251   2.418   0.264   5.521
 6451SOL    HW120252   2.427   0.171   5.484
 6451SOL    HW220253   2.328   0.300   5.498
 6452SOL     OW20254   4.555   4.561   2.955
 6452SOL    HW120255   4.543   4.550   2.857
 6452SOL    HW220256   4.626   4.498   2.987
 6453SOL     OW20257   2.233   6.916   1.895
 6453SOL    HW120258   2.313   6.966   1.860
 6453SOL    HW220259   2.184   6.973   1.961
 6454SOL     OW20260   0.752   1.580   3.583
 6454SOL    HW120261   0.751   1.488   3.544
 6454SOL    HW220262   0.665   1.625   3.564
 6455SOL     OW20263   0.461   3.193   4.134
 6455SOL    HW120264   0.424   3.279   4.099
 6455SOL    HW220265   0.405   3.160   4.209
 6456SOL     OW20266   1.585   1.335   3.016
 6456SOL    HW120267   1.571   1.391   2.934
 6456SOL    HW220268   1.497   1.319   3.060
 6457SOL     OW20269   4.833   0.711   1.631
 6457SOL    HW120270   4.891   0.705   1.550
 6457SOL    HW220271   4.737   0.700   1.605
 6458SOL     OW20272   1.150   5.747   4.078
 6458SOL    HW120273   1.218   5.787   4.015
 6458SOL    HW220274   1.063   5.794   4.066
 6459SOL     OW20275   6.464   3.447   1.481
 6459SOL    HW120276   6.453   3.502   1.564
 6459SOL    HW220277   6.404   3.482   1.409
 6460SOL     OW20278   6.235   6.082   6.385
 6460SOL    HW120279   6.225   6.028   6.302
 6460SOL    HW220280   6.284   6.030   6.454
 6461SOL     OW20281   2.431   4.581   0.058
 6461SOL    HW120282   2.345   4.617   0.095
 6461SOL    HW220283   2.425   4.577   6.979
 6462SOL     OW20284   1.970   3.003   4.673
 6462SOL    HW120285   1.937   3.097   4.674
 6462SOL    HW220286   2.061   3.000   4.632
 6463SOL     OW20287   5.469   1.471   0.426
 6463SOL    HW120288   5.507   1.560   0.401
 6463SOL    HW220289   5.497   1.449   0.520
 6464SOL     OW20290   1.648   4.965   4.993
 6464SOL    HW120291   1.653   4.925   5.085
 6464SOL    HW220292   1.727   4.936   4.940
 6465SOL     OW20293   6.865   3.218   2.475
 6465SOL    HW120294   6.898   3.289   2.537
 6465SOL    HW220295   6.914   3.132   2.494
 6466SOL     OW20296   6.064   1.408   5.841
 6466SOL    HW120297   6.017   1.461   5.911
 6466SOL    HW220298   6.053   1.311   5.859
 6467SOL     OW20299   3.878   0.254   0.009
 6467SOL    HW120300   3.891   0.157   0.030
 6467SOL    HW220301   3.940   0.308   0.065
 6468SOL     OW20302   2.606   6.383   1.121
 6468SOL    HW120303   2.556   6.470   1.118
 6468SOL    HW220304   2.635   6.358   1.029
 6469SOL     OW20305   4.530   2.098   3.944
 6469SOL    HW120306   4.609   2.158   3.958
 6469SOL    HW220307   4.446   2.153   3.947
 6470SOL     OW20308   5.330   2.710   0.968
 6470SOL    HW120309   5.296   2.644   1.035
 6470SOL    HW220310   5.418   2.746   0.999
 6471SOL     OW20311   0.309   6.372   5.668
 6471SOL    HW120312   0.390   6.431   5.662
 6471SOL    HW220313   0.227   6.428   5.660
 6472SOL     OW20314   6.790   6.284   1.677
 6472SOL    HW120315   6.702   6.239   1.694
 6472SOL    HW220316   6.850   6.272   1.756
 6473SOL     OW20317   2.727   1.566   4.762
 6473SOL    HW120318   2.794   1.637   4.783
 6473SOL    HW220319   2.670   1.596   4.685
 6474SOL     OW20320   3.668   5.428   6.494
 6474SOL    HW120321   3.757   5.440   6.537
 6474SOL    HW220322   3.606   5.381   6.557
 6475SOL     OW20323   5.958   4.740   3.742
 6475SOL    HW120324   5.967   4.830   3.786
 6475SOL    HW220325   6.048   4.696   3.739
 6476SOL     OW20326   4.950   3.534   0.674
 6476SOL    HW120327   4.897   3.449   0.670
 6476SOL    HW220328   5.046   3.515   0.657
 6477SOL     OW20329   6.007   4.857   0.355
 6477SOL    HW120330   6.076   4.797   0.314
 6477SOL    HW220331   5.962   4.909   0.283
 6478SOL     OW20332   3.454   6.909   2.166
 6478SOL    HW120333   3.415   7.001   2.162
 6478SOL    HW220334   3.547   6.915   2.203
 6479SOL     OW20335   4.346   5.570   3.995
 6479SOL    HW120336   4.332   5.649   4.056
 6479SOL    HW220337   4.263   5.552   3.944
 6480SOL     OW20338   3.023   1.024   6.997
 6480SOL    HW120339   3.096   1.041   0.042
 6480SOL    HW220340   2.977   0.938   7.019
 6481SOL     OW20341   3.323   2.039   2.338
 6481SOL    HW120342   3.339   2.084   2.426
 6481SOL    HW220343   3.225   2.035   2.320
 6482SOL     OW20344   6.604   1.824   5.852
 6482SOL    HW120345   6.597   1.725   5.835
 6482SOL    HW220346   6.540   1.873   5.793
 6483SOL     OW20347   0.790   0.323   3.279
 6483SOL    HW120348   0.819   0.242   3.228
 6483SOL    HW220349   0.857   0.396   3.266
 6484SOL     OW20350   3.435   0.208   1.516
 6484SOL    HW120351   3.364   0.220   1.585
 6484SOL    HW220352   3.397   0.158   1.438
 6485SOL     OW20353   1.888   5.432   3.722
 6485SOL    HW120354   1.975   5.400   3.685
 6485SOL    HW220355   1.822   5.443   3.648
 6486SOL     OW20356   0.491   4.181   3.118
 6486SOL    HW120357   0.479   4.085   3.090
 6486SOL    HW220358   0.582   4.194   3.157
 6487SOL     OW20359   0.921   6.762   4.878
 6487SOL    HW120360   1.012   6.722   4.890
 6487SOL    HW220361   0.894   6.807   4.964
 6488SOL     OW20362   4.119   6.304   4.440
 6488SOL    HW120363   4.140   6.219   4.392
 6488SOL    HW220364   4.127   6.289   4.538
 6489SOL     OW20365   3.105   3.473   6.061
 6489SOL    HW120366   3.081   3.565   6.090
 6489SOL    HW220367   3.198   3.473   6.024
 6490SOL     OW20368   3.893   1.230   6.559
 6490SOL    HW120369   3.949   1.261   6.482
 6490SOL    HW220370   3.864   1.309   6.613
 6491SOL     OW20371   3.700   0.789   1.309
 6491SOL    HW120372   3.775   0.856   1.317
 6491SOL    HW220373   3.633   0.823   1.244
 6492SOL     OW20374   3.878   4.753   6.083
 6492SOL    HW120375   3.896   4.700   6.000
 6492SOL    HW220376   3.906   4.848   6.069
 6493SOL     OW20377   1.772   4.551   6.049
 6493SOL    HW120378   1.825   4.468   6.068
 6493SOL    HW220379   1.695   4.527   5.991
 6494SOL     OW20380   6.785   0.408   3.220
 6494SOL    HW120381   6.875   0.394   3.179
 6494SOL    HW220382   6.789   0.484   3.284
 6495SOL     OW20383   6.591   0.438   4.853
 6495SOL    HW120384   6.597   0.345   4.817
 6495SOL    HW220385   6.539   0.495   4.789
 6496SOL     OW20386   5.979   0.906   3.009
 6496SOL    HW120387   6.043   0.872   2.940
 6496SOL    HW220388   5.948   0.829   3.066
 6497SOL     OW20389   0.813   1.037   1.320
 6497SOL    HW120390   0.842   0.946   1.350
 6497SOL    HW220391   0.717   1.033   1.291
 6498SOL     OW20392   1.698   3.159   4.102
 6498SOL    HW120393   1.690   3.112   4.190
 6498SOL    HW220394   1.764   3.111   4.044
 6499SOL     OW20395   5.302   4.328   5.195
 6499SOL    HW120396   5.208   4.359   5.182
 6499SOL    HW220397   5.301   4.236   5.236
 6500SOL     OW20398   6.725   3.763   5.067
 6500SOL    HW120399   6.805   3.807   5.028
 6500SOL    HW220400   6.651   3.763   5.000
 6501SOL     OW20401   6.719   0.965   6.396
 6501SOL    HW120402   6.710   0.869   6.424
 6501SOL    HW220403   6.741   0.969   6.299
 6502SOL     OW20404   6.629   3.231   2.361
 6502SOL    HW120405   6.723   3.217   2.392
 6502SOL    HW220406   6.613   3.178   2.278
 6503SOL     OW20407   5.525   1.257   3.752
 6503SOL    HW120408   5.545   1.335   3.811
 6503SOL    HW220409   5.434   1.268   3.713
 6504SOL     OW20410   4.336   6.298   5.361
 6504SOL    HW120411   4.251   6.265   5.401
 6504SOL    HW220412   4.351   6.254   5.272
 6505SOL     OW20413   5.508   5.773   6.255
 6505SOL    HW120414   5.468   5.819   6.334
 6505SOL    HW220415   5.580   5.710   6.285
 6506SOL     OW20416   6.773   2.797   2.720
 6506SOL    HW120417   6.689   2.840   2.753
 6506SOL    HW220418   6.752   2.734   2.646
 6507SOL     OW20419   1.662   5.556   6.372
 6507SOL    HW120420   1.633   5.516   6.285
 6507SOL    HW220421   1.642   5.654   6.372
 6508SOL     OW20422   1.758   1.080   2.683
 6508SOL    HW120423   1.821   1.150   2.717
 6508SOL    HW220424   1.739   1.097   2.586
 6509SOL     OW20425   4.026   1.842   4.571
 6509SOL    HW120426   4.068   1.869   4.658
 6509SOL    HW220427   4.055   1.905   4.499
 6510SOL     OW20428   6.626   5.243   0.361
 6510SOL    HW120429   6.726   5.231   0.367
 6510SOL    HW220430   6.583   5.153   0.348
 6511SOL     OW20431   3.700   1.274   4.812
 6511SOL    HW120432   3.794   1.262   4.842
 6511SOL    HW220433   3.660   1.354   4.858
 6512SOL     OW20434   3.891   6.293   1.992
 6512SOL    HW120435   3.975   6.257   1.952
 6512SOL    HW220436   3.909   6.323   2.086
 6513SOL     OW20437   2.613   4.981   3.223
 6513SOL    HW120438   2.654   4.995   3.133
 6513SOL    HW220439   2.513   4.980   3.214
 6514SOL     OW20440   6.289   1.401   4.153
 6514SOL    HW120441   6.236   1.444   4.226
 6514SOL    HW220442   6.320   1.310   4.182
 6515SOL     OW20443   0.628   4.518   3.609
 6515SOL    HW120444   0.620   4.616   3.590
 6515SOL    HW220445   0.714   4.484   3.571
 6516SOL     OW20446   0.572   3.433   1.737
 6516SOL    HW120447   0.526   3.522   1.731
 6516SOL    HW220448   0.603   3.418   1.830
 6517SOL     OW20449   0.049   1.145   1.866
 6517SOL    HW120450   0.083   1.057   1.899
 6517SOL    HW220451   6.996   1.177   1.926
 6518SOL     OW20452   0.200   0.515   0.362
 6518SOL    HW120453   0.114   0.497   0.314
 6518SOL    HW220454   0.261   0.436   0.353
 6519SOL     OW20455   0.750   2.219   3.046
 6519SOL    HW120456   0.759   2.120   3.056
 6519SOL    HW220457   0.783   2.246   2.956
 6520SOL     OW20458   6.399   5.276   1.320
 6520SOL    HW120459   6.358   5.249   1.407
 6520SOL    HW220460   6.367   5.215   1.248
 6521SOL     OW20461   1.836   2.791   3.861
 6521SOL    HW120462   1.780   2.782   3.943
 6521SOL    HW220463   1.867   2.701   3.833
 6522SOL     OW20464   3.054   4.861   5.496
 6522SOL    HW120465   3.141   4.814   5.511
 6522SOL    HW220466   3.057   4.951   5.538
 6523SOL     OW20467   3.328   1.305   6.884
 6523SOL    HW120468   3.259   1.267   6.823
 6523SOL    HW220469   3.283   1.352   6.960
 6524SOL     OW20470   2.943   3.491   1.475
 6524SOL    HW120471   2.964   3.415   1.537
 6524SOL    HW220472   3.027   3.536   1.447
 6525SOL     OW20473   2.234   5.176   3.271
 6525SOL    HW120474   2.273   5.190   3.362
 6525SOL    HW220475   2.187   5.260   3.242
 6526SOL     OW20476   2.392   0.788   0.823
 6526SOL    HW120477   2.427   0.842   0.900
 6526SOL    HW220478   2.323   0.724   0.856
 6527SOL     OW20479   0.216   1.618   5.572
 6527SOL    HW120480   0.210   1.718   5.569
 6527SOL    HW220481   0.296   1.589   5.520
 6528SOL     OW20482   5.882   0.909   4.798
 6528SOL    HW120483   5.808   0.920   4.865
 6528SOL    HW220484   5.846   0.867   4.715
 6529SOL     OW20485   2.154   0.986   2.627
 6529SOL    HW120486   2.068   0.976   2.577
 6529SOL    HW220487   2.228   0.944   2.575
 6530SOL     OW20488   6.941   2.123   0.092
 6530SOL    HW120489   6.977   2.102   0.183
 6530SOL    HW220490   7.017   2.130   0.027
 6531SOL     OW20491   4.914   3.062   5.236
 6531SOL    HW120492   4.927   3.112   5.322
 6531SOL    HW220493   4.916   3.126   5.160
 6532SOL     OW20494   0.312   1.230   1.262
 6532SOL    HW120495   0.353   1.197   1.348
 6532SOL    HW220496   0.318   1.158   1.193
 6533SOL     OW20497   4.567   6.992   0.957
 6533SOL    HW120498   4.480   0.004   0.920
 6533SOL    HW220499   4.606   6.922   0.897
 6534SOL     OW20500   4.724   3.997   1.522
 6534SOL    HW120501   4.708   4.063   1.595
 6534SOL    HW220502   4.711   4.041   1.433
 6535SOL     OW20503   6.389   4.568   3.921
 6535SOL    HW120504   6.299   4.587   3.958
 6535SOL    HW220505   6.458   4.621   3.971
 6536SOL     OW20506   0.517   1.136   5.754
 6536SOL    HW120507   0.486   1.150   5.660
 6536SOL    HW220508   0.546   1.041   5.766
 6537SOL     OW20509   6.732   5.073   6.832
 6537SOL    HW120510   6.705   5.161   6.872
 6537SOL    HW220511   6.791   5.089   6.753
 6538SOL     OW20512   2.584   3.544   6.240
 6538SOL    HW120513   2.496   3.588   6.222
 6538SOL    HW220514   2.625   3.514   6.154
 6539SOL     OW20515   5.265   0.997   6.762
 6539SOL    HW120516   5.277   0.898   6.775
 6539SOL    HW220517   5.263   1.042   6.851
 6540SOL     OW20518   4.272   1.617   6.280
 6540SOL    HW120519   4.286   1.715   6.264
 6540SOL    HW220520   4.174   1.598   6.284
 6541SOL     OW20521   4.809   1.575   4.603
 6541SOL    HW120522   4.831   1.507   4.533
 6541SOL    HW220523   4.743   1.537   4.667
 6542SOL     OW20524   6.468   3.216   4.454
 6542SOL    HW120525   6.505   3.125   4.438
 6542SOL    HW220526   6.373   3.220   4.424
 6543SOL     OW20527   4.790   3.076   5.876
 6543SOL    HW120528   4.798   3.174   5.854
 6543SOL    HW220529   4.734   3.065   5.958
 6544SOL     OW20530   1.287   6.652   2.972
 6544SOL    HW120531   1.363   6.612   3.023
 6544SOL    HW220532   1.322   6.702   2.893
 6545SOL     OW20533   4.290   0.567   1.049
 6545SOL    HW120534   4.228   0.593   0.975
 6545SOL    HW220535   4.302   0.468   1.050
 6546SOL     OW20536   2.791   4.335   0.257
 6546SOL    HW120537   2.694   4.323   0.234
 6546SOL    HW220538   2.845   4.337   0.174
 6547SOL     OW20539   4.710   1.150   6.128
 6547SOL    HW120540   4.691   1.052   6.122
 6547SOL    HW220541   4.739   1.172   6.221
 6548SOL     OW20542   0.533   4.040   0.944
 6548SOL    HW120543   0.565   3.945   0.943
 6548SOL    HW220544   0.447   4.045   0.994
 6549SOL     OW20545   3.800   0.435   1.780
 6549SOL    HW120546   3.827   0.522   1.737
 6549SOL    HW220547   3.775   0.451   1.875
 6550SOL     OW20548   0.221   6.993   3.215
 6550SOL    HW120549   0.296   0.007   3.273
 6550SOL    HW220550   0.153   0.045   3.204
 6551SOL     OW20551   1.456   4.735   2.035
 6551SOL    HW120552   1.528   4.666   2.039
 6551SOL    HW220553   1.481   4.806   1.969
 6552SOL     OW20554   1.998   0.015   0.464
 6552SOL    HW120555   1.972   0.076   0.539
 6552SOL    HW220556   2.048   0.066   0.395
 6553SOL     OW20557   6.723   2.427   3.262
 6553SOL    HW120558   6.787   2.493   3.223
 6553SOL    HW220559   6.748   2.334   3.235
 6554SOL     OW20560   0.749   0.616   4.800
 6554SOL    HW120561   0.800   0.589   4.718
 6554SOL    HW220562   0.731   0.714   4.797
 6555SOL     OW20563   5.500   1.331   3.243
 6555SOL    HW120564   5.486   1.392   3.322
 6555SOL    HW220565   5.434   1.256   3.247
 6556SOL     OW20566   4.942   4.252   4.080
 6556SOL    HW120567   4.965   4.279   4.174
 6556SOL    HW220568   4.990   4.167   4.058
 6557SOL     OW20569   3.232   6.643   2.469
 6557SOL    HW120570   3.142   6.675   2.440
 6557SOL    HW220571   3.227   6.546   2.492
 6558SOL     OW20572   0.000   5.047   0.544
 6558SOL    HW120573   0.028   5.019   0.636
 6558SOL    HW220574   6.986   4.967   0.495
 6559SOL     OW20575   0.739   3.988   0.138
 6559SOL    HW120576   0.754   4.055   0.211
 6559SOL    HW220577   0.826   3.946   0.112
 6560SOL     OW20578   4.650   4.997   1.559
 6560SOL    HW120579   4.624   5.022   1.653
 6560SOL    HW220580   4.603   4.912   1.534
 6561SOL     OW20581   3.142   4.156   1.618
 6561SOL    HW120582   3.055   4.159   1.669
 6561SOL    HW220583   3.188   4.069   1.636
 6562SOL     OW20584   6.294   3.091   0.535
 6562SOL    HW120585   6.363   3.148   0.579
 6562SOL    HW220586   6.320   3.073   0.441
 6563SOL     OW20587   5.183   5.614   6.272
 6563SOL    HW120588   5.248   5.667   6.326
 6563SOL    HW220589   5.099   5.667   6.258
 6564SOL     OW20590   6.938   3.797   3.044
 6564SOL    HW120591   6.944   3.811   3.143
 6564SOL    HW220592   6.972   3.706   3.021
 6565SOL     OW20593   5.532   1.770   2.845
 6565SOL    HW120594   5.622   1.754   2.886
 6565SOL    HW220595   5.540   1.771   2.745
 6566SOL     OW20596   4.152   5.991   2.082
 6566SOL    HW120597   4.157   6.047   2.000
 6566SOL    HW220598   4.163   6.049   2.163
 6567SOL     OW20599   4.865   0.954   2.730
 6567SOL    HW120600   4.814   1.034   2.762
 6567SOL    HW220601   4.808   0.872   2.737
 6568SOL     OW20602   2.656   1.059   3.815
 6568SOL    HW120603   2.670   0.964   3.843
 6568SOL    HW220604   2.711   1.079   3.734
 6569SOL     OW20605   2.866   3.494   0.684
 6569SOL    HW120606   2.788   3.439   0.712
 6569SOL    HW220607   2.907   3.455   0.601
 6570SOL     OW20608   3.535   0.944   2.788
 6570SOL    HW120609   3.435   0.944   2.784
 6570SOL    HW220610   3.571   0.882   2.718
 6571SOL     OW20611   3.132   5.347   1.947
 6571SOL    HW120612   3.151   5.263   1.897
 6571SOL    HW220613   3.197   5.357   2.023
 6572SOL     OW20614   0.268   4.934   4.901
 6572SOL    HW120615   0.353   4.964   4.858
 6572SOL    HW220616   0.286   4.854   4.958
 6573SOL     OW20617   0.902   1.976   2.028
 6573SOL    HW120618   0.918   1.924   1.944
 6573SOL    HW220619   0.849   2.058   2.006
 6574SOL     OW20620   2.477   5.143   2.160
 6574SOL    HW120621   2.449   5.180   2.249
 6574SOL    HW220622   2.508   5.218   2.101
 6575SOL     OW20623   1.003   0.177   3.190
 6575SOL    HW120624   1.000   0.112   3.266
 6575SOL    HW220625   1.045   0.133   3.110
 6576SOL     OW20626   2.100   6.339   6.873
 6576SOL    HW120627   2.020   6.296   6.916
 6576SOL    HW220628   2.083   6.437   6.861
 6577SOL     OW20629   0.662   1.776   4.170
 6577SOL    HW120630   0.738   1.710   4.170
 6577SOL    HW220631   0.577   1.729   4.149
 6578SOL     OW20632   0.797   6.147   3.286
 6578SOL    HW120633   0.850   6.068   3.254
 6578SOL    HW220634   0.860   6.218   3.318
 6579SOL     OW20635   0.060   3.748   4.276
 6579SOL    HW120636   0.141   3.698   4.306
 6579SOL    HW220637   7.008   3.683   4.252
 6580SOL     OW20638   1.004   2.183   1.016
 6580SOL    HW120639   0.974   2.278   1.008
 6580SOL    HW220640   0.974   2.131   0.936
 6581SOL     OW20641   2.707   0.984   0.641
 6581SOL    HW120642   2.678   0.891   0.619
 6581SOL    HW220643   2.777   1.013   0.575
 6582SOL     OW20644   0.403   1.315   3.458
 6582SOL    HW120645   0.306   1.335   3.447
 6582SOL    HW220646   0.415   1.247   3.531
 6583SOL     OW20647   4.162   6.976   5.683
 6583SOL    HW120648   4.090   7.017   5.626
 6583SOL    HW220649   4.179   6.882   5.651
 6584SOL     OW20650   4.551   2.529   1.009
 6584SOL    HW120651   4.543   2.586   0.927
 6584SOL    HW220652   4.576   2.585   1.087
 6585SOL     OW20653   6.789   6.334   0.111
 6585SOL    HW120654   6.718   6.393   0.150
 6585SOL    HW220655   6.879   6.369   0.135
 6586SOL     OW20656   5.428   0.781   5.446
 6586SOL    HW120657   5.335   0.786   5.410
 6586SOL    HW220658   5.492   0.769   5.371
 6587SOL     OW20659   2.134   5.530   5.330
 6587SOL    HW120660   2.220   5.492   5.365
 6587SOL    HW220661   2.064   5.524   5.401
 6588SOL     OW20662   0.937   3.113   1.948
 6588SOL    HW120663   0.987   3.137   1.865
 6588SOL    HW220664   0.864   3.048   1.925
 6589SOL     OW20665   4.799   0.806   0.634
 6589SOL    HW120666   4.858   0.787   0.712
 6589SOL    HW220667   4.806   0.732   0.568
 6590SOL     OW20668   0.090   1.176   5.847
 6590SOL    HW120669   0.100   1.264   5.800
 6590SOL    HW220670   0.156   1.172   5.923
 6591SOL     OW20671   6.165   5.403   2.285
 6591SOL    HW120672   6.228   5.326   2.270
 6591SOL    HW220673   6.125   5.396   2.376
 6592SOL     OW20674   5.607   7.017   3.072
 6592SOL    HW120675   5.676   0.062   3.043
 6592SOL    HW220676   5.652   6.933   3.105
 6593SOL     OW20677   1.958   2.499   2.679
 6593SOL    HW120678   1.864   2.494   2.646
 6593SOL    HW220679   2.004   2.577   2.637
 6594SOL     OW20680   3.396   1.707   6.825
 6594SOL    HW120681   3.327   1.634   6.830
 6594SOL    HW220682   3.351   1.795   6.810
 6595SOL     OW20683   1.286   4.382   6.856
 6595SOL    HW120684   1.255   4.381   6.950
 6595SOL    HW220685   1.381   4.413   6.852
 6596SOL     OW20686   3.256   6.544   4.483
 6596SOL    HW120687   3.190   6.619   4.495
 6596SOL    HW220688   3.211   6.457   4.505
 6597SOL     OW20689   1.281   5.453   1.538
 6597SOL    HW120690   1.301   5.462   1.635
 6597SOL    HW220691   1.268   5.356   1.515
 6598SOL     OW20692   1.496   5.705   4.440
 6598SOL    HW120693   1.428   5.631   4.438
 6598SOL    HW220694   1.452   5.791   4.415
 6599SOL     OW20695   3.972   6.370   6.457
 6599SOL    HW120696   3.956   6.291   6.516
 6599SOL    HW220697   3.893   6.384   6.398
 6600SOL     OW20698   4.261   5.653   5.540
 6600SOL    HW120699   4.324   5.730   5.550
 6600SOL    HW220700   4.209   5.663   5.455
 6601SOL     OW20701   1.618   2.355   4.922
 6601SOL    HW120702   1.556   2.421   4.880
 6601SOL    HW220703   1.642   2.284   4.855
 6602SOL     OW20704   1.672   1.184   2.447
 6602SOL    HW120705   1.601   1.142   2.389
 6602SOL    HW220706   1.660   1.283   2.447
 6603SOL     OW20707   6.776   2.811   3.735
 6603SOL    HW120708   6.687   2.787   3.697
 6603SOL    HW220709   6.847   2.757   3.690
 6604SOL     OW20710   1.642   0.621   0.908
 6604SOL    HW120711   1.550   0.661   0.909
 6604SOL    HW220712   1.697   0.660   0.982
 6605SOL     OW20713   5.820   5.271   1.257
 6605SOL    HW120714   5.782   5.289   1.166
 6605SOL    HW220715   5.755   5.301   1.327
 6606SOL     OW20716   0.586   5.427   2.158
 6606SOL    HW120717   0.531   5.506   2.183
 6606SOL    HW220718   0.606   5.430   2.060
 6607SOL     OW20719   1.826   3.702   2.185
 6607SOL    HW120720   1.785   3.789   2.157
 6607SOL    HW220721   1.769   3.627   2.152
 6608SOL     OW20722   6.521   6.219   1.304
 6608SOL    HW120723   6.440   6.277   1.296
 6608SOL    HW220724   6.603   6.275   1.289
 6609SOL     OW20725   5.050   0.955   6.578
 6609SOL    HW120726   4.991   1.036   6.579
 6609SOL    HW220727   5.140   0.979   6.615
 6610SOL     OW20728   2.554   6.038   0.176
 6610SOL    HW120729   2.521   6.090   0.097
 6610SOL    HW220730   2.596   5.952   0.145
 6611SOL     OW20731   4.605   2.567   3.595
 6611SOL    HW120732   4.618   2.641   3.530
 6611SOL    HW220733   4.631   2.598   3.687
 6612SOL     OW20734   6.175   2.073   6.267
 6612SOL    HW120735   6.123   2.079   6.182
 6612SOL    HW220736   6.225   1.987   6.269
 6613SOL     OW20737   6.405   6.549   5.081
 6613SOL    HW120738   6.389   6.646   5.068
 6613SOL    HW220739   6.367   6.520   5.169
 6614SOL     OW20740   4.325   5.405   6.906
 6614SOL    HW120741   4.425   5.411   6.896
 6614SOL    HW220742   4.302   5.328   6.964
 6615SOL     OW20743   1.971   5.744   1.335
 6615SOL    HW120744   2.022   5.806   1.276
 6615SOL    HW220745   1.874   5.766   1.332
 6616SOL     OW20746   5.080   0.821   6.041
 6616SOL    HW120747   5.061   0.918   6.055
 6616SOL    HW220748   4.993   0.772   6.028
 6617SOL     OW20749   4.571   4.916   3.929
 6617SOL    HW120750   4.475   4.938   3.913
 6617SOL    HW220751   4.625   4.945   3.850
 6618SOL     OW20752   1.253   2.343   2.163
 6618SOL    HW120753   1.353   2.334   2.169
 6618SOL    HW220754   1.212   2.252   2.154
 6619SOL     OW20755   5.840   0.301   4.005
 6619SOL    HW120756   5.800   0.241   4.074
 6619SOL    HW220757   5.774   0.369   3.976
 6620SOL     OW20758   1.786   2.682   5.662
 6620SOL    HW120759   1.886   2.674   5.667
 6620SOL    HW220760   1.759   2.776   5.680
 6621SOL     OW20761   3.439   3.255   5.667
 6621SOL    HW120762   3.369   3.222   5.603
 6621SOL    HW220763   3.422   3.217   5.757
 6622SOL     OW20764   5.750   6.353   1.721
 6622SOL    HW120765   5.813   6.298   1.666
 6622SOL    HW220766   5.682   6.294   1.764
 6623SOL     OW20767   3.451   2.874   4.800
 6623SOL    HW120768   3.523   2.901   4.865
 6623SOL    HW220769   3.404   2.793   4.835
 6624SOL     OW20770   0.299   4.441   5.878
 6624SOL    HW120771   0.314   4.374   5.805
 6624SOL    HW220772   0.273   4.529   5.838
 6625SOL     OW20773   5.323   1.513   5.112
 6625SOL    HW120774   5.300   1.531   5.208
 6625SOL    HW220775   5.241   1.521   5.056
 6626SOL     OW20776   3.458   5.452   5.055
 6626SOL    HW120777   3.396   5.480   5.128
 6626SOL    HW220778   3.443   5.355   5.034
 6627SOL     OW20779   2.002   6.778   5.548
 6627SOL    HW120780   1.909   6.785   5.582
 6627SOL    HW220781   2.046   6.867   5.551
 6628SOL     OW20782   5.234   5.223   4.373
 6628SOL    HW120783   5.146   5.195   4.335
 6628SOL    HW220784   5.243   5.186   4.466
 6629SOL     OW20785   4.751   6.188   6.742
 6629SOL    HW120786   4.702   6.259   6.794
 6629SOL    HW220787   4.841   6.223   6.715
 6630SOL     OW20788   3.804   1.594   1.267
 6630SOL    HW120789   3.752   1.518   1.307
 6630SOL    HW220790   3.901   1.583   1.287
 6631SOL     OW20791   2.341   5.275   3.479
 6631SOL    HW120792   2.274   5.281   3.554
 6631SOL    HW220793   2.431   5.304   3.513
 6632SOL     OW20794   0.181   0.547   0.917
 6632SOL    HW120795   0.174   0.524   0.820
 6632SOL    HW220796   0.268   0.593   0.934
 6633SOL     OW20797   1.509   4.569   6.681
 6633SOL    HW120798   1.552   4.497   6.736
 6633SOL    HW220799   1.465   4.635   6.742
 6634SOL     OW20800   5.057   2.097   5.018
 6634SOL    HW120801   5.003   2.017   5.043
 6634SOL    HW220802   5.138   2.102   5.076
 6635SOL     OW20803   4.732   5.019   2.939
 6635SOL    HW120804   4.694   4.947   2.997
 6635SOL    HW220805   4.804   4.980   2.881
 6636SOL     OW20806   4.547   1.668   6.427
 6636SOL    HW120807   4.577   1.747   6.481
 6636SOL    HW220808   4.457   1.688   6.387
 6637SOL     OW20809   1.078   0.161   6.876
 6637SOL    HW120810   1.117   0.072   6.854
 6637SOL    HW220811   0.983   0.165   6.846
 6638SOL     OW20812   2.962   3.771   3.044
 6638SOL    HW120813   3.016   3.687   3.054
 6638SOL    HW220814   3.021   3.845   3.010
 6639SOL     OW20815   4.829   4.794   6.431
 6639SOL    HW120816   4.912   4.787   6.485
 6639SOL    HW220817   4.841   4.863   6.360
 6640SOL     OW20818   0.551   2.093   4.959
 6640SOL    HW120819   0.551   2.190   4.985
 6640SOL    HW220820   0.632   2.048   4.997
 6641SOL     OW20821   2.551   1.176   6.118
 6641SOL    HW120822   2.572   1.163   6.215
 6641SOL    HW220823   2.528   1.088   6.076
 6642SOL     OW20824   1.874   5.744   6.640
 6642SOL    HW120825   1.775   5.729   6.638
 6642SOL    HW220826   1.905   5.749   6.735
 6643SOL     OW20827   5.822   5.499   0.411
 6643SOL    HW120828   5.816   5.478   0.313
 6643SOL    HW220829   5.734   5.479   0.454
 6644SOL     OW20830   2.525   5.639   1.353
 6644SOL    HW120831   2.457   5.697   1.398
 6644SOL    HW220832   2.515   5.545   1.386
 6645SOL     OW20833   6.242   4.393   0.236
 6645SOL    HW120834   6.215   4.302   0.205
 6645SOL    HW220835   6.340   4.395   0.254
 6646SOL     OW20836   4.044   0.603   4.759
 6646SOL    HW120837   4.048   0.621   4.857
 6646SOL    HW220838   4.136   0.583   4.725
 6647SOL     OW20839   4.904   0.797   0.859
 6647SOL    HW120840   4.954   0.884   0.850
 6647SOL    HW220841   4.914   0.763   0.953
 6648SOL     OW20842   3.475   6.163   3.864
 6648SOL    HW120843   3.462   6.254   3.903
 6648SOL    HW220844   3.388   6.115   3.861
 6649SOL     OW20845   5.655   1.349   6.646
 6649SOL    HW120846   5.703   1.345   6.733
 6649SOL    HW220847   5.619   1.258   6.624
 6650SOL     OW20848   3.341   1.236   5.633
 6650SOL    HW120849   3.333   1.305   5.562
 6650SOL    HW220850   3.250   1.212   5.667
 6651SOL     OW20851   2.691   0.512   5.878
 6651SOL    HW120852   2.736   0.595   5.844
 6651SOL    HW220853   2.639   0.470   5.804
 6652SOL     OW20854   0.821   4.110   0.566
 6652SOL    HW120855   0.724   4.097   0.584
 6652SOL    HW220856   0.863   4.160   0.641
 6653SOL     OW20857   4.026   3.538   1.351
 6653SOL    HW120858   4.006   3.565   1.446
 6653SOL    HW220859   3.978   3.600   1.289
 6654SOL     OW20860   0.957   5.136   1.236
 6654SOL    HW120861   1.056   5.147   1.236
 6654SOL    HW220862   0.921   5.151   1.144
 6655SOL     OW20863   0.778   0.068   3.987
 6655SOL    HW120864   0.762   6.995   4.019
 6655SOL    HW220865   0.710   0.091   3.917
 6656SOL     OW20866   4.966   1.874   3.870
 6656SOL    HW120867   4.880   1.925   3.863
 6656SOL    HW220868   4.953   1.794   3.929
 6657SOL     OW20869   6.439   4.614   6.453
 6657SOL    HW120870   6.490   4.538   6.412
 6657SOL    HW220871   6.410   4.589   6.546
 6658SOL     OW20872   6.313   0.863   4.693
 6658SOL    HW120873   6.245   0.901   4.756
 6658SOL    HW220874   6.384   0.931   4.676
 6659SOL     OW20875   2.149   3.711   0.097
 6659SOL    HW120876   2.237   3.733   0.056
 6659SOL    HW220877   2.135   3.612   0.097
 6660SOL     OW20878   0.962   5.359   1.483
 6660SOL    HW120879   0.877   5.388   1.440
 6660SOL    HW220880   0.977   5.262   1.467
 6661SOL     OW20881   1.207   6.853   5.186
 6661SOL    HW120882   1.189   6.861   5.284
 6661SOL    HW220883   1.120   6.851   5.136
 6662SOL     OW20884   1.545   6.973   0.164
 6662SOL    HW120885   1.505   6.995   0.075
 6662SOL    HW220886   1.639   7.008   0.167
 6663SOL     OW20887   6.016   5.482   4.669
 6663SOL    HW120888   5.939   5.545   4.654
 6663SOL    HW220889   6.085   5.497   4.598
 6664SOL     OW20890   2.487   6.919   0.573
 6664SOL    HW120891   2.413   6.948   0.513
 6664SOL    HW220892   2.545   6.997   0.595
 6665SOL     OW20893   1.833   5.815   4.777
 6665SOL    HW120894   1.837   5.798   4.875
 6665SOL    HW220895   1.872   5.737   4.728
 6666SOL     OW20896   6.395   6.400   6.019
 6666SOL    HW120897   6.422   6.483   5.971
 6666SOL    HW220898   6.296   6.400   6.033
 6667SOL     OW20899   6.558   6.284   6.493
 6667SOL    HW120900   6.564   6.189   6.463
 6667SOL    HW220901   6.543   6.343   6.413
 6668SOL     OW20902   6.396   5.432   0.592
 6668SOL    HW120903   6.407   5.342   0.634
 6668SOL    HW220904   6.486   5.466   0.563
 6669SOL     OW20905   1.861   2.366   3.086
 6669SOL    HW120906   1.798   2.393   3.159
 6669SOL    HW220907   1.874   2.442   3.023
 6670SOL     OW20908   3.310   1.445   5.444
 6670SOL    HW120909   3.403   1.441   5.406
 6670SOL    HW220910   3.250   1.492   5.380
 6671SOL     OW20911   4.838   6.666   0.615
 6671SOL    HW120912   4.886   6.716   0.544
 6671SOL    HW220913   4.852   6.568   0.603
 6672SOL     OW20914   6.399   2.417   6.731
 6672SOL    HW120915   6.477   2.388   6.676
 6672SOL    HW220916   6.343   2.338   6.755
 6673SOL     OW20917   4.862   4.383   4.637
 6673SOL    HW120918   4.815   4.423   4.558
 6673SOL    HW220919   4.906   4.456   4.689
 6674SOL     OW20920   0.847   3.534   6.636
 6674SOL    HW120921   0.874   3.554   6.730
 6674SOL    HW220922   0.926   3.496   6.586
 6675SOL     OW20923   5.419   3.478   0.369
 6675SOL    HW120924   5.385   3.496   0.461
 6675SOL    HW220925   5.345   3.440   0.312
 6676SOL     OW20926   1.016   4.179   5.774
 6676SOL    HW120927   1.069   4.125   5.709
 6676SOL    HW220928   1.070   4.258   5.804
 6677SOL     OW20929   1.474   1.874   5.925
 6677SOL    HW120930   1.541   1.800   5.915
 6677SOL    HW220931   1.481   1.935   5.846
 6678SOL     OW20932   3.411   3.013   6.533
 6678SOL    HW120933   3.315   3.041   6.541
 6678SOL    HW220934   3.468   3.094   6.521
 6679SOL     OW20935   3.468   1.193   3.923
 6679SOL    HW120936   3.565   1.201   3.897
 6679SOL    HW220937   3.460   1.190   4.022
 6680SOL     OW20938   5.239   6.716   6.817
 6680SOL    HW120939   5.183   6.738   6.737
 6680SOL    HW220940   5.312   6.784   6.827
 6681SOL     OW20941   3.572   5.517   1.174
 6681SOL    HW120942   3.480   5.540   1.207
 6681SOL    HW220943   3.640   5.566   1.228
 6682SOL     OW20944   1.088   4.490   2.143
 6682SOL    HW120945   1.057   4.431   2.069
 6682SOL    HW220946   1.108   4.581   2.106
 6683SOL     OW20947   6.050   3.812   5.318
 6683SOL    HW120948   6.077   3.842   5.226
 6683SOL    HW220949   6.103   3.731   5.342
 6684SOL     OW20950   2.860   0.075   1.395
 6684SOL    HW120951   2.851   0.174   1.390
 6684SOL    HW220952   2.771   0.032   1.379
 6685SOL     OW20953   6.305   2.619   5.755
 6685SOL    HW120954   6.403   2.621   5.775
 6685SOL    HW220955   6.282   2.532   5.711
 6686SOL     OW20956   4.513   6.315   4.052
 6686SOL    HW120957   4.500   6.375   4.131
 6686SOL    HW220958   4.502   6.367   3.968
 6687SOL     OW20959   1.326   3.422   0.752
 6687SOL    HW120960   1.302   3.364   0.829
 6687SOL    HW220961   1.242   3.452   0.705
 6688SOL     OW20962   5.954   4.818   2.562
 6688SOL    HW120963   5.856   4.803   2.575
 6688SOL    HW220964   6.003   4.794   2.646
 6689SOL     OW20965   3.969   3.192   6.940
 6689SOL    HW120966   4.040   3.262   6.948
 6689SOL    HW220967   3.969   3.155   6.848
 6690SOL     OW20968   0.942   1.261   0.513
 6690SOL    HW120969   0.988   1.205   0.443
 6690SOL    HW220970   0.979   1.240   0.603
 6691SOL     OW20971   3.215   6.256   2.359
 6691SOL    HW120972   3.241   6.172   2.312
 6691SOL    HW220973   3.116   6.268   2.354
 6692SOL     OW20974   3.406   2.915   4.355
 6692SOL    HW120975   3.461   2.837   4.326
 6692SOL    HW220976   3.360   2.894   4.442
 6693SOL     OW20977   4.313   3.110   5.642
 6693SOL    HW120978   4.385   3.172   5.611
 6693SOL    HW220979   4.353   3.023   5.669
 6694SOL     OW20980   4.050   5.395   1.082
 6694SOL    HW120981   4.021   5.465   1.147
 6694SOL    HW220982   3.999   5.407   0.996
 6695SOL     OW20983   2.834   2.075   6.986
 6695SOL    HW120984   2.745   2.070   0.011
 6695SOL    HW220985   2.906   2.071   0.035
 6696SOL     OW20986   3.114   3.129   5.295
 6696SOL    HW120987   3.083   3.193   5.225
 6696SOL    HW220988   3.046   3.056   5.305
 6697SOL     OW20989   5.100   2.333   2.822
 6697SOL    HW120990   5.069   2.424   2.796
 6697SOL    HW220991   5.022   2.271   2.827
 6698SOL     OW20992   3.119   2.478   0.965
 6698SOL    HW120993   3.127   2.457   1.062
 6698SOL    HW220994   3.124   2.394   0.912
 6699SOL     OW20995   2.377   5.834   5.411
 6699SOL    HW120996   2.406   5.853   5.317
 6699SOL    HW220997   2.282   5.862   5.423
 6700SOL     OW20998   0.864   0.599   1.366
 6700SOL    HW120999   0.791   0.554   1.316
 6700SOL    HW221000   0.834   0.618   1.460
 6701SOL     OW21001   5.697   4.658   2.491
 6701SOL    HW121002   5.752   4.611   2.561
 6701SOL    HW221003   5.745   4.654   2.403
 6702SOL     OW21004   3.189   2.156   1.651
 6702SOL    HW121005   3.184   2.086   1.581
 6702SOL    HW221006   3.276   2.148   1.700
 6703SOL     OW21007   6.724   1.501   7.014
 6703SOL    HW121008   6.723   1.404   0.015
 6703SOL    HW221009   6.729   1.554   0.079
 6704SOL     OW21010   3.489   1.171   3.589
 6704SOL    HW121011   3.572   1.222   3.565
 6704SOL    HW221012   3.428   1.230   3.642
 6705SOL     OW21013   6.701   3.792   1.672
 6705SOL    HW121014   6.766   3.773   1.598
 6705SOL    HW221015   6.608   3.773   1.640
 6706SOL     OW21016   1.753   4.592   2.269
 6706SOL    HW121017   1.723   4.554   2.182
 6706SOL    HW221018   1.771   4.518   2.334
 6707SOL     OW21019   6.671   6.250   3.861
 6707SOL    HW121020   6.640   6.242   3.956
 6707SOL    HW221021   6.771   6.246   3.859
 6708SOL     OW21022   6.772   5.033   1.070
 6708SOL    HW121023   6.824   5.113   1.041
 6708SOL    HW221024   6.749   5.041   1.167
 6709SOL     OW21025   2.702   6.438   2.885
 6709SOL    HW121026   2.605   6.424   2.867
 6709SOL    HW221027   2.755   6.365   2.844
 6710SOL     OW21028   3.331   0.469   6.203
 6710SOL    HW121029   3.407   0.533   6.213
 6710SOL    HW221030   3.261   0.489   6.272
 6711SOL     OW21031   4.417   5.907   5.987
 6711SOL    HW121032   4.410   5.964   6.069
 6711SOL    HW221033   4.331   5.909   5.936
 6712SOL     OW21034   5.291   4.070   0.775
 6712SOL    HW121035   5.378   4.101   0.813
 6712SOL    HW221036   5.288   3.970   0.776
 6713SOL     OW21037   2.415   0.452   2.613
 6713SOL    HW121038   2.420   0.395   2.695
 6713SOL    HW221039   2.506   0.485   2.589
 6714SOL     OW21040   6.483   0.670   5.812
 6714SOL    HW121041   6.503   0.678   5.714
 6714SOL    HW221042   6.565   0.639   5.860
 6715SOL     OW21043   0.581   0.415   6.958
 6715SOL    HW121044   0.567   0.504   7.002
 6715SOL    HW221045   0.638   0.427   6.877
 6716SOL     OW21046   0.274   5.835   2.105
 6716SOL    HW121047   0.195   5.836   2.044
 6716SOL    HW221048   0.308   5.929   2.117
 6717SOL     OW21049   4.053   2.881   6.211
 6717SOL    HW121050   4.103   2.967   6.205
 6717SOL    HW221051   4.084   2.830   6.292
 6718SOL     OW21052   5.835   0.639   0.630
 6718SOL    HW121053   5.925   0.679   0.612
 6718SOL    HW221054   5.769   0.674   0.563
 6719SOL     OW21055   2.410   6.725   6.311
 6719SOL    HW121056   2.404   6.721   6.411
 6719SOL    HW221057   2.454   6.811   6.284
 6720SOL     OW21058   1.384   0.230   4.281
 6720SOL    HW121059   1.468   0.284   4.282
 6720SOL    HW221060   1.362   0.199   4.374
 6721SOL     OW21061   6.823   0.461   0.416
 6721SOL    HW121062   6.902   0.426   0.466
 6721SOL    HW221063   6.756   0.387   0.405
 6722SOL     OW21064   6.419   2.683   1.813
 6722SOL    HW121065   6.381   2.775   1.822
 6722SOL    HW221066   6.514   2.689   1.780
 6723SOL     OW21067   2.259   6.205   2.970
 6723SOL    HW121068   2.193   6.232   3.039
 6723SOL    HW221069   2.351   6.205   3.010
 6724SOL     OW21070   2.091   3.342   6.079
 6724SOL    HW121071   2.036   3.268   6.117
 6724SOL    HW221072   2.178   3.306   6.046
 6725SOL     OW21073   0.144   3.239   1.767
 6725SOL    HW121074   0.111   3.168   1.830
 6725SOL    HW221075   0.084   3.319   1.773
 6726SOL     OW21076   0.403   2.344   5.622
 6726SOL    HW121077   0.463   2.306   5.693
 6726SOL    HW221078   0.358   2.426   5.657
 6727SOL     OW21079   0.131   4.532   5.098
 6727SOL    HW121080   0.094   4.521   5.006
 6727SOL    HW221081   0.110   4.451   5.153
 6728SOL     OW21082   3.526   2.139   2.911
 6728SOL    HW121083   3.572   2.123   2.823
 6728SOL    HW221084   3.521   2.053   2.962
 6729SOL     OW21085   0.124   0.929   2.860
 6729SOL    HW121086   0.139   0.969   2.951
 6729SOL    HW221087   0.031   0.949   2.830
 6730SOL     OW21088   1.569   6.951   1.157
 6730SOL    HW121089   1.537   6.917   1.068
 6730SOL    HW221090   1.668   6.962   1.154
 6731SOL     OW21091   0.662   6.227   0.882
 6731SOL    HW121092   0.569   6.200   0.857
 6731SOL    HW221093   0.659   6.280   0.967
 6732SOL     OW21094   5.439   4.801   4.560
 6732SOL    HW121095   5.446   4.844   4.470
 6732SOL    HW221096   5.523   4.750   4.579
 6733SOL     OW21097   3.869   5.513   0.040
 6733SOL    HW121098   3.838   5.593   0.091
 6733SOL    HW221099   3.806   5.437   0.056
 6734SOL     OW21100   5.928   2.712   4.303
 6734SOL    HW121101   5.865   2.665   4.241
 6734SOL    HW221102   5.930   2.810   4.281
 6735SOL     OW21103   6.500   4.118   5.244
 6735SOL    HW121104   6.461   4.178   5.174
 6735SOL    HW221105   6.509   4.168   5.330
 6736SOL     OW21106   3.198   3.960   0.538
 6736SOL    HW121107   3.106   3.976   0.501
 6736SOL    HW221108   3.220   3.863   0.530
 6737SOL     OW21109   1.569   2.655   0.680
 6737SOL    HW121110   1.474   2.682   0.690
 6737SOL    HW221111   1.574   2.555   0.667
 6738SOL     OW21112   1.972   5.979   3.079
 6738SOL    HW121113   1.925   5.963   3.165
 6738SOL    HW221114   2.060   5.931   3.079
 6739SOL     OW21115   3.478   5.688   5.295
 6739SOL    HW121116   3.547   5.669   5.225
 6739SOL    HW221117   3.507   5.767   5.350
 6740SOL     OW21118   1.294   0.197   4.602
 6740SOL    HW121119   1.366   0.265   4.589
 6740SOL    HW221120   1.224   0.234   4.664
 6741SOL     OW21121   3.817   1.573   5.585
 6741SOL    HW121122   3.742   1.547   5.645
 6741SOL    HW221123   3.782   1.596   5.494
 6742SOL     OW21124   5.884   6.219   2.252
 6742SOL    HW121125   5.813   6.162   2.210
 6742SOL    HW221126   5.888   6.201   2.350
 6743SOL     OW21127   3.500   5.501   0.076
 6743SOL    HW121128   3.424   5.482   0.138
 6743SOL    HW221129   3.558   5.572   0.116
 6744SOL     OW21130   5.605   3.866   5.994
 6744SOL    HW121131   5.664   3.814   6.055
 6744SOL    HW221132   5.568   3.805   5.924
 6745SOL     OW21133   6.579   6.867   3.029
 6745SOL    HW121134   6.667   6.820   3.023
 6745SOL    HW221135   6.513   6.823   2.969
 6746SOL     OW21136   0.803   1.646   3.868
 6746SOL    HW121137   0.810   1.592   3.785
 6746SOL    HW221138   0.723   1.616   3.920
 6747SOL     OW21139   5.319   1.035   5.002
 6747SOL    HW121140   5.355   0.950   5.040
 6747SOL    HW221141   5.223   1.045   5.028
 6748SOL     OW21142   2.450   0.881   3.603
 6748SOL    HW121143   2.480   0.889   3.698
 6748SOL    HW221144   2.463   0.968   3.556
 6749SOL     OW21145   2.812   5.505   0.678
 6749SOL    HW121146   2.827   5.571   0.604
 6749SOL    HW221147   2.881   5.518   0.749
 6750SOL     OW21148   3.929   2.042   5.039
 6750SOL    HW121149   3.998   2.111   5.016
 6750SOL    HW221150   3.969   1.975   5.102
 6751SOL     OW21151   4.398   6.873   3.515
 6751SOL    HW121152   4.395   6.927   3.430
 6751SOL    HW221153   4.358   6.783   3.498
 6752SOL     OW21154   0.852   1.648   3.122
 6752SOL    HW121155   0.925   1.715   3.129
 6752SOL    HW221156   0.871   1.585   3.046
 6753SOL     OW21157   2.968   0.336   6.542
 6753SOL    HW121158   3.046   0.283   6.576
 6753SOL    HW221159   2.930   0.391   6.616
 6754SOL     OW21160   0.566   1.904   0.430
 6754SOL    HW121161   0.535   1.988   0.477
 6754SOL    HW221162   0.666   1.905   0.423
 6755SOL     OW21163   4.522   0.643   3.201
 6755SOL    HW121164   4.575   0.570   3.243
 6755SOL    HW221165   4.481   0.610   3.116
 6756SOL     OW21166   3.817   5.172   4.936
 6756SOL    HW121167   3.799   5.142   4.842
 6756SOL    HW221168   3.787   5.101   5.000
 6757SOL     OW21169   4.227   2.095   1.081
 6757SOL    HW121170   4.257   2.143   1.163
 6757SOL    HW221171   4.160   2.025   1.106
 6758SOL     OW21172   6.615   2.068   1.821
 6758SOL    HW121173   6.678   1.993   1.840
 6758SOL    HW221174   6.667   2.154   1.815
 6759SOL     OW21175   1.110   4.212   4.600
 6759SOL    HW121176   1.071   4.124   4.573
 6759SOL    HW221177   1.133   4.264   4.518
 6760SOL     OW21178   6.590   3.882   2.318
 6760SOL    HW121179   6.506   3.933   2.335
 6760SOL    HW221180   6.669   3.937   2.345
 6761SOL     OW21181   6.451   2.236   6.133
 6761SOL    HW121182   6.440   2.140   6.107
 6761SOL    HW221183   6.403   2.252   6.220
 6762SOL     OW21184   0.872   5.891   4.007
 6762SOL    HW121185   0.791   5.881   4.064
 6762SOL    HW221186   0.894   5.988   3.996
 6763SOL     OW21187   1.000   5.168   2.653
 6763SOL    HW121188   1.022   5.261   2.622
 6763SOL    HW221189   1.046   5.102   2.594
 6764SOL     OW21190   1.730   5.402   0.667
 6764SOL    HW121191   1.787   5.324   0.690
 6764SOL    HW221192   1.658   5.412   0.736
 6765SOL     OW21193   5.429   4.072   3.487
 6765SOL    HW121194   5.426   4.024   3.575
 6765SOL    HW221195   5.489   4.152   3.495
 6766SOL     OW21196   5.008   6.857   6.314
 6766SOL    HW121197   5.081   6.898   6.368
 6766SOL    HW221198   4.923   6.855   6.367
 6767SOL     OW21199   1.553   2.596   1.027
 6767SOL    HW121200   1.526   2.499   1.031
 6767SOL    HW221201   1.498   2.642   0.957
 6768SOL     OW21202   1.361   6.468   3.730
 6768SOL    HW121203   1.368   6.535   3.804
 6768SOL    HW221204   1.447   6.465   3.679
 6769SOL     OW21205   2.748   0.446   5.261
 6769SOL    HW121206   2.741   0.546   5.261
 6769SOL    HW221207   2.806   0.417   5.185
 6770SOL     OW21208   5.113   1.886   3.577
 6770SOL    HW121209   5.167   1.970   3.578
 6770SOL    HW221210   5.086   1.862   3.671
 6771SOL     OW21211   4.339   1.354   2.369
 6771SOL    HW121212   4.382   1.294   2.437
 6771SOL    HW221213   4.315   1.441   2.411
 6772SOL     OW21214   4.642   2.477   2.098
 6772SOL    HW121215   4.741   2.486   2.108
 6772SOL    HW221216   4.598   2.487   2.188
 6773SOL     OW21217   0.719   6.152   2.022
 6773SOL    HW121218   0.652   6.158   1.947
 6773SOL    HW221219   0.784   6.078   2.002
 6774SOL     OW21220   2.153   3.534   4.921
 6774SOL    HW121221   2.168   3.462   4.989
 6774SOL    HW221222   2.191   3.620   4.954
 6775SOL     OW21223   1.442   2.611   3.169
 6775SOL    HW121224   1.440   2.548   3.247
 6775SOL    HW221225   1.460   2.559   3.085
 6776SOL     OW21226   4.442   3.241   0.456
 6776SOL    HW121227   4.473   3.307   0.387
 6776SOL    HW221228   4.456   3.279   0.547
 6777SOL     OW21229   5.070   4.955   0.821
 6777SOL    HW121230   5.050   4.902   0.739
 6777SOL    HW221231   5.164   4.939   0.849
 6778SOL     OW21232   6.943   5.164   1.876
 6778SOL    HW121233   6.859   5.114   1.854
 6778SOL    HW221234   6.974   5.138   1.968
 6779SOL     OW21235   5.974   4.877   6.067
 6779SOL    HW121236   5.922   4.963   6.072
 6779SOL    HW221237   5.973   4.844   5.972
 6780SOL     OW21238   1.299   3.024   2.785
 6780SOL    HW121239   1.273   2.946   2.842
 6780SOL    HW221240   1.398   3.022   2.771
 6781SOL     OW21241   6.018   1.457   4.798
 6781SOL    HW121242   5.918   1.453   4.808
 6781SOL    HW221243   6.061   1.419   4.880
 6782SOL     OW21244   1.004   1.423   3.240
 6782SOL    HW121245   0.976   1.513   3.204
 6782SOL    HW221246   1.060   1.436   3.322
 6783SOL     OW21247   0.607   1.555   5.591
 6783SOL    HW121248   0.575   1.572   5.498
 6783SOL    HW221249   0.538   1.586   5.656
 6784SOL     OW21250   1.910   3.711   0.810
 6784SOL    HW121251   1.983   3.683   0.747
 6784SOL    HW221252   1.837   3.754   0.758
 6785SOL     OW21253   6.145   5.623   5.380
 6785SOL    HW121254   6.066   5.597   5.325
 6785SOL    HW221255   6.203   5.543   5.396
 6786SOL     OW21256   1.228   2.227   0.503
 6786SOL    HW121257   1.293   2.203   0.575
 6786SOL    HW221258   1.256   2.184   0.417
 6787SOL     OW21259   3.401   3.324   0.217
 6787SOL    HW121260   3.475   3.372   0.169
 6787SOL    HW221261   3.366   3.251   0.158
 6788SOL     OW21262   1.013   4.549   1.837
 6788SOL    HW121263   1.098   4.591   1.870
 6788SOL    HW221264   1.026   4.516   1.744
 6789SOL     OW21265   0.480   4.811   3.746
 6789SOL    HW121266   0.403   4.774   3.799
 6789SOL    HW221267   0.467   4.789   3.650
 6790SOL     OW21268   0.706   3.395   0.214
 6790SOL    HW121269   0.719   3.350   0.126
 6790SOL    HW221270   0.761   3.349   0.283
 6791SOL     OW21271   3.801   2.091   2.261
 6791SOL    HW121272   3.783   2.134   2.173
 6791SOL    HW221273   3.716   2.058   2.301
 6792SOL     OW21274   5.315   0.122   5.337
 6792SOL    HW121275   5.349   0.028   5.334
 6792SOL    HW221276   5.302   0.149   5.432
 6793SOL     OW21277   2.460   1.240   6.794
 6793SOL    HW121278   2.536   1.182   6.824
 6793SOL    HW221279   2.441   1.223   6.698
 6794SOL     OW21280   5.618   1.237   5.058
 6794SOL    HW121281   5.681   1.307   5.024
 6794SOL    HW221282   5.528   1.278   5.072
 6795SOL     OW21283   0.964   6.733   1.278
 6795SOL    HW121284   0.965   6.638   1.308
 6795SOL    HW221285   0.899   6.785   1.333
 6796SOL     OW21286   6.302   0.970   3.080
 6796SOL    HW121287   6.346   0.910   3.148
 6796SOL    HW221288   6.206   0.942   3.069
 6797SOL     OW21289   0.090   2.149   1.875
 6797SOL    HW121290   0.029   2.210   1.926
 6797SOL    HW221291   0.082   2.056   1.911
 6798SOL     OW21292   5.678   6.352   1.379
 6798SOL    HW121293   5.756   6.386   1.432
 6798SOL    HW221294   5.609   6.314   1.441
 6799SOL     OW21295   6.192   1.040   2.097
 6799SOL    HW121296   6.290   1.022   2.099
 6799SOL    HW221297   6.148   0.995   2.175
 6800SOL     OW21298   2.268   2.782   2.070
 6800SOL    HW121299   2.320   2.818   1.992
 6800SOL    HW221300   2.171   2.780   2.048
 6801SOL     OW21301   1.534   0.878   3.432
 6801SOL    HW121302   1.631   0.867   3.453
 6801SOL    HW221303   1.482   0.877   3.517
 6802SOL     OW21304   3.238   5.695   1.500
 6802SOL    HW121305   3.327   5.740   1.501
 6802SOL    HW221306   3.238   5.620   1.566
 6803SOL     OW21307   3.867   3.960   6.279
 6803SOL    HW121308   3.931   3.946   6.203
 6803SOL    HW221309   3.815   3.876   6.294
 6804SOL     OW21310   3.899   5.122   3.793
 6804SOL    HW121311   3.881   5.026   3.771
 6804SOL    HW221312   3.881   5.138   3.890
 6805SOL     OW21313   0.303   4.617   6.449
 6805SOL    HW121314   0.359   4.654   6.374
 6805SOL    HW221315   0.319   4.518   6.456
 6806SOL     OW21316   6.677   1.582   3.414
 6806SOL    HW121317   6.588   1.607   3.452
 6806SOL    HW221318   6.721   1.663   3.376
 6807SOL     OW21319   3.576   3.126   1.617
 6807SOL    HW121320   3.563   3.089   1.709
 6807SOL    HW221321   3.509   3.085   1.555
 6808SOL     OW21322   6.878   1.995   5.830
 6808SOL    HW121323   6.780   1.977   5.823
 6808SOL    HW221324   6.900   2.020   5.925
 6809SOL     OW21325   0.050   3.525   1.564
 6809SOL    HW121326   0.019   3.514   1.659
 6809SOL    HW221327   0.116   3.600   1.559
 6810SOL     OW21328   3.407   1.243   2.610
 6810SOL    HW121329   3.494   1.210   2.647
 6810SOL    HW221330   3.425   1.310   2.538
 6811SOL     OW21331   5.728   3.512   1.657
 6811SOL    HW121332   5.800   3.578   1.637
 6811SOL    HW221333   5.740   3.431   1.600
 6812SOL     OW21334   3.286   4.028   4.995
 6812SOL    HW121335   3.379   3.994   4.998
 6812SOL    HW221336   3.279   4.102   4.928
 6813SOL     OW21337   5.558   3.049   2.656
 6813SOL    HW121338   5.481   3.052   2.592
 6813SOL    HW221339   5.546   3.120   2.725
 6814SOL     OW21340   3.966   1.941   6.069
 6814SOL    HW121341   4.009   1.975   5.985
 6814SOL    HW221342   4.026   1.960   6.147
 6815SOL     OW21343   2.243   5.974   6.942
 6815SOL    HW121344   2.325   6.030   6.958
 6815SOL    HW221345   2.180   6.025   6.884
 6816SOL     OW21346   6.256   0.785   5.766
 6816SOL    HW121347   6.350   0.764   5.792
 6816SOL    HW221348   6.230   0.874   5.804
 6817SOL     OW21349   2.371   2.606   3.662
 6817SOL    HW121350   2.302   2.604   3.734
 6817SOL    HW221351   2.354   2.683   3.601
 6818SOL     OW21352   2.198   6.633   0.627
 6818SOL    HW121353   2.280   6.615   0.573
 6818SOL    HW221354   2.135   6.690   0.574
 6819SOL     OW21355   4.348   1.475   2.694
 6819SOL    HW121356   4.382   1.447   2.784
 6819SOL    HW221357   4.288   1.403   2.658
 6820SOL     OW21358   1.877   6.210   1.362
 6820SOL    HW121359   1.799   6.260   1.400
 6820SOL    HW221360   1.942   6.275   1.322
 6821SOL     OW21361   3.925   2.485   5.349
 6821SOL    HW121362   3.984   2.534   5.286
 6821SOL    HW221363   3.866   2.550   5.398
 6822SOL     OW21364   5.866   2.190   5.807
 6822SOL    HW121365   5.846   2.256   5.878
 6822SOL    HW221366   5.924   2.232   5.737
 6823SOL     OW21367   5.698   3.487   5.584
 6823SOL    HW121368   5.730   3.579   5.609
 6823SOL    HW221369   5.612   3.495   5.533
 6824SOL     OW21370   0.956   1.784   0.616
 6824SOL    HW121371   0.933   1.843   0.539
 6824SOL    HW221372   0.907   1.816   0.698
 6825SOL     OW21373   6.329   0.145   0.195
 6825SOL    HW121374   6.382   0.219   0.154
 6825SOL    HW221375   6.380   0.106   0.272
 6826SOL     OW21376   1.829   3.747   3.505
 6826SOL    HW121377   1.760   3.752   3.433
 6826SOL    HW221378   1.903   3.686   3.476
 6827SOL     OW21379   4.961   4.895   6.204
 6827SOL    HW121380   5.032   4.864   6.141
 6827SOL    HW221381   5.004   4.935   6.285
 6828SOL     OW21382   3.666   1.797   1.633
 6828SOL    HW121383   3.680   1.889   1.669
 6828SOL    HW221384   3.680   1.797   1.534
 6829SOL     OW21385   5.370   6.107   5.810
 6829SOL    HW121386   5.318   6.087   5.893
 6829SOL    HW221387   5.468   6.096   5.829
 6830SOL     OW21388   5.682   0.376   3.224
 6830SOL    HW121389   5.591   0.381   3.265
 6830SOL    HW221390   5.695   0.454   3.162
 6831SOL     OW21391   1.880   1.060   6.375
 6831SOL    HW121392   1.936   0.989   6.419
 6831SOL    HW221393   1.874   1.041   6.277
 6832SOL     OW21394   2.173   4.642   0.706
 6832SOL    HW121395   2.152   4.545   0.697
 6832SOL    HW221396   2.136   4.692   0.628
 6833SOL     OW21397   2.516   4.903   0.063
 6833SOL    HW121398   2.609   4.931   0.085
 6833SOL    HW221399   2.472   4.865   0.144
 6834SOL     OW21400   6.261   0.368   0.404
 6834SOL    HW121401   6.275   0.272   0.428
 6834SOL    HW221402   6.340   0.422   0.436
 6835SOL     OW21403   3.981   0.831   4.421
 6835SOL    HW121404   4.078   0.824   4.445
 6835SOL    HW221405   3.938   0.741   4.428
 6836SOL     OW21406   3.246   4.846   0.059
 6836SOL    HW121407   3.148   4.857   0.077
 6836SOL    HW221408   3.263   4.755   0.022
 6837SOL     OW21409   0.617   2.432   3.150
 6837SOL    HW121410   0.594   2.417   3.246
 6837SOL    HW221411   0.677   2.359   3.118
 6838SOL     OW21412   3.168   6.209   6.474
 6838SOL    HW121413   3.203   6.118   6.496
 6838SOL    HW221414   3.176   6.225   6.376
 6839SOL     OW21415   5.212   1.001   5.537
 6839SOL    HW121416   5.161   1.081   5.569
 6839SOL    HW221417   5.308   1.025   5.527
 6840SOL     OW21418   3.450   6.883   4.712
 6840SOL    HW121419   3.442   6.811   4.642
 6840SOL    HW221420   3.394   6.859   4.791
 6841SOL     OW21421   3.584   4.856   0.114
 6841SOL    HW121422   3.535   4.774   0.143
 6841SOL    HW221423   3.586   4.860   0.014
 6842SOL     OW21424   2.518   2.917   0.952
 6842SOL    HW121425   2.513   2.929   1.051
 6842SOL    HW221426   2.441   2.860   0.921
 6843SOL     OW21427   5.803   0.356   2.151
 6843SOL    HW121428   5.807   0.423   2.226
 6843SOL    HW221429   5.724   0.296   2.165
 6844SOL     OW21430   5.764   6.805   3.644
 6844SOL    HW121431   5.688   6.743   3.623
 6844SOL    HW221432   5.754   6.889   3.592
 6845SOL     OW21433   5.871   5.186   2.799
 6845SOL    HW121434   5.959   5.141   2.814
 6845SOL    HW221435   5.884   5.265   2.739
 6846SOL     OW21436   4.251   3.214   1.121
 6846SOL    HW121437   4.225   3.199   1.217
 6846SOL    HW221438   4.300   3.134   1.087
 6847SOL     OW21439   6.930   5.105   3.366
 6847SOL    HW121440   0.003   5.118   3.401
 6847SOL    HW221441   6.866   5.100   3.443
 6848SOL     OW21442   3.560   6.396   4.027
 6848SOL    HW121443   3.511   6.483   4.017
 6848SOL    HW221444   3.569   6.373   4.123
 6849SOL     OW21445   3.320   5.048   5.604
 6849SOL    HW121446   3.227   5.080   5.585
 6849SOL    HW221447   3.385   5.116   5.570
 6850SOL     OW21448   5.802   3.805   2.007
 6850SOL    HW121449   5.710   3.770   1.990
 6850SOL    HW221450   5.832   3.858   1.928
 6851SOL     OW21451   0.719   2.903   3.556
 6851SOL    HW121452   0.682   2.917   3.464
 6851SOL    HW221453   0.761   2.812   3.561
 6852SOL     OW21454   1.590   5.060   0.720
 6852SOL    HW121455   1.548   4.988   0.775
 6852SOL    HW221456   1.573   5.149   0.763
 6853SOL     OW21457   6.339   3.675   6.945
 6853SOL    HW121458   6.280   3.723   6.880
 6853SOL    HW221459   6.310   3.580   6.952
 6854SOL     OW21460   4.842   1.631   6.691
 6854SOL    HW121461   4.847   1.568   6.613
 6854SOL    HW221462   4.777   1.705   6.670
 6855SOL     OW21463   3.135   5.892   3.525
 6855SOL    HW121464   3.036   5.906   3.515
 6855SOL    HW221465   3.152   5.841   3.610
 6856SOL     OW21466   5.029   3.641   5.491
 6856SOL    HW121467   5.101   3.616   5.426
 6856SOL    HW221468   5.030   3.740   5.505
 6857SOL     OW21469   3.136   2.380   0.186
 6857SOL    HW121470   3.166   2.348   0.276
 6857SOL    HW221471   3.158   2.477   0.177
 6858SOL     OW21472   3.714   3.668   3.886
 6858SOL    HW121473   3.658   3.665   3.969
 6858SOL    HW221474   3.769   3.752   3.887
 6859SOL     OW21475   0.452   0.612   0.912
 6859SOL    HW121476   0.424   0.531   0.860
 6859SOL    HW221477   0.541   0.594   0.955
 6860SOL     OW21478   6.274   5.124   1.131
 6860SOL    HW121479   6.254   5.136   1.034
 6860SOL    HW221480   6.249   5.032   1.159
 6861SOL     OW21481   4.576   4.496   0.428
 6861SOL    HW121482   4.572   4.590   0.464
 6861SOL    HW221483   4.655   4.449   0.467
 6862SOL     OW21484   1.811   4.478   5.594
 6862SOL    HW121485   1.757   4.395   5.584
 6862SOL    HW221486   1.886   4.462   5.659
 6863SOL     OW21487   5.496   0.435   5.746
 6863SOL    HW121488   5.401   0.464   5.736
 6863SOL    HW221489   5.546   0.450   5.661
 6864SOL     OW21490   2.978   5.778   4.242
 6864SOL    HW121491   3.024   5.692   4.220
 6864SOL    HW221492   2.882   5.761   4.263
 6865SOL     OW21493   0.773   5.804   2.876
 6865SOL    HW121494   0.758   5.726   2.815
 6865SOL    HW221495   0.703   5.874   2.858
 6866SOL     OW21496   6.230   4.793   3.019
 6866SOL    HW121497   6.189   4.713   2.975
 6866SOL    HW221498   6.316   4.816   2.973
 6867SOL     OW21499   2.197   4.742   1.473
 6867SOL    HW121500   2.197   4.839   1.493
 6867SOL    HW221501   2.287   4.714   1.439
 6868SOL     OW21502   1.164   5.604   6.462
 6868SOL    HW121503   1.116   5.642   6.541
 6868SOL    HW221504   1.245   5.554   6.492
 6869SOL     OW21505   5.026   0.661   4.786
 6869SOL    HW121506   4.933   0.670   4.822
 6869SOL    HW221507   5.062   0.752   4.764
 6870SOL     OW21508   6.532   4.818   2.260
 6870SOL    HW121509   6.560   4.813   2.164
 6870SOL    HW221510   6.470   4.742   2.281
 6871SOL     OW21511   6.492   4.542   3.125
 6871SOL    HW121512   6.584   4.518   3.092
 6871SOL    HW221513   6.424   4.508   3.061
 6872SOL     OW21514   0.789   3.177   1.555
 6872SOL    HW121515   0.767   3.133   1.468
 6872SOL    HW221516   0.732   3.139   1.627
 6873SOL     OW21517   6.744   4.084   5.113
 6873SOL    HW121518   6.655   4.064   5.156
 6873SOL    HW221519   6.730   4.140   5.032
 6874SOL     OW21520   0.671   5.851   2.128
 6874SOL    HW121521   0.709   5.778   2.186
 6874SOL    HW221522   0.735   5.870   2.053
 6875SOL     OW21523   1.911   2.563   3.326
 6875SOL    HW121524   1.986   2.501   3.303
 6875SOL    HW221525   1.824   2.524   3.294
 6876SOL     OW21526   3.778   6.370   3.855
 6876SOL    HW121527   3.844   6.313   3.905
 6876SOL    HW221528   3.718   6.416   3.920
 6877SOL     OW21529   2.451   3.775   0.989
 6877SOL    HW121530   2.426   3.828   1.070
 6877SOL    HW221531   2.379   3.784   0.919
 6878SOL     OW21532   3.107   1.307   5.126
 6878SOL    HW121533   3.187   1.248   5.140
 6878SOL    HW221534   3.028   1.251   5.102
 6879SOL     OW21535   1.149   2.130   0.166
 6879SOL    HW121536   1.170   2.106   0.260
 6879SOL    HW221537   1.096   2.057   0.124
 6880SOL     OW21538   1.851   4.348   5.281
 6880SOL    HW121539   1.828   4.419   5.347
 6880SOL    HW221540   1.934   4.375   5.232
 6881SOL     OW21541   1.177   3.706   1.657
 6881SOL    HW121542   1.257   3.671   1.608
 6881SOL    HW221543   1.152   3.643   1.730
 6882SOL     OW21544   3.035   0.476   6.801
 6882SOL    HW121545   2.999   0.466   6.893
 6882SOL    HW221546   2.995   0.558   6.759
 6883SOL     OW21547   4.336   1.351   0.333
 6883SOL    HW121548   4.334   1.300   0.420
 6883SOL    HW221549   4.316   1.288   0.258
 6884SOL     OW21550   2.072   4.531   4.350
 6884SOL    HW121551   1.979   4.525   4.315
 6884SOL    HW221552   2.129   4.461   4.306
 6885SOL     OW21553   3.752   5.292   3.588
 6885SOL    HW121554   3.812   5.372   3.596
 6885SOL    HW221555   3.772   5.228   3.662
 6886SOL     OW21556   6.636   0.193   4.685
 6886SOL    HW121557   6.711   0.242   4.641
 6886SOL    HW221558   6.641   0.096   4.662
 6887SOL     OW21559   5.258   5.985   6.051
 6887SOL    HW121560   5.298   6.066   6.093
 6887SOL    HW221561   5.165   5.972   6.087
 6888SOL     OW21562   5.493   6.243   6.868
 6888SOL    HW121563   5.423   6.305   6.832
 6888SOL    HW221564   5.583   6.281   6.848
 6889SOL     OW21565   1.950   1.894   4.917
 6889SOL    HW121566   1.924   1.941   4.833
 6889SOL    HW221567   2.047   1.909   4.936
 6890SOL     OW21568   3.749   6.390   1.445
 6890SOL    HW121569   3.819   6.461   1.449
 6890SOL    HW221570   3.757   6.330   1.525
 6891SOL     OW21571   2.049   4.423   3.414
 6891SOL    HW121572   2.071   4.432   3.511
 6891SOL    HW221573   2.000   4.504   3.383
 6892SOL     OW21574   3.066   2.174   3.639
 6892SOL    HW121575   3.025   2.091   3.602
 6892SOL    HW221576   3.016   2.201   3.721
 6893SOL     OW21577   4.110   4.249   7.015
 6893SOL    HW121578   4.011   4.256   7.002
 6893SOL    HW221579   4.153   4.331   6.977
 6894SOL     OW21580   6.228   4.658   0.227
 6894SOL    HW121581   6.235   4.558   0.225
 6894SOL    HW221582   6.201   4.691   0.137
 6895SOL     OW21583   2.396   5.703   0.301
 6895SOL    HW121584   2.318   5.762   0.279
 6895SOL    HW221585   2.439   5.673   0.216
 6896SOL     OW21586   1.776   6.969   3.411
 6896SOL    HW121587   1.853   0.006   3.383
 6896SOL    HW221588   1.713   0.001   3.468
 6897SOL     OW21589   3.248   3.555   6.326
 6897SOL    HW121590   3.162   3.526   6.369
 6897SOL    HW221591   3.229   3.589   6.234
 6898SOL     OW21592   3.872   1.574   2.030
 6898SOL    HW121593   3.803   1.614   1.969
 6898SOL    HW221594   3.828   1.505   2.088
 6899SOL     OW21595   5.997   6.585   1.042
 6899SOL    HW121596   5.978   6.618   0.950
 6899SOL    HW221597   5.951   6.497   1.057
 6900SOL     OW21598   6.805   6.338   5.823
 6900SOL    HW121599   6.793   6.434   5.798
 6900SOL    HW221600   6.860   6.332   5.906
 6901SOL     OW21601   0.297   6.124   6.184
 6901SOL    HW121602   0.246   6.209   6.168
 6901SOL    HW221603   0.288   6.064   6.104
 6902SOL     OW21604   6.096   6.015   0.039
 6902SOL    HW121605   6.044   5.968   0.110
 6902SOL    HW221606   6.037   6.083   7.014
 6903SOL     OW21607   3.189   5.605   4.336
 6903SOL    HW121608   3.265   5.639   4.280
 6903SOL    HW221609   3.193   5.646   4.427
 6904SOL     OW21610   6.101   0.992   4.468
 6904SOL    HW121611   6.152   0.913   4.435
 6904SOL    HW221612   6.014   0.961   4.507
 6905SOL     OW21613   6.045   6.144   6.584
 6905SOL    HW121614   6.088   6.116   6.497
 6905SOL    HW221615   5.989   6.225   6.568
 6906SOL     OW21616   4.868   1.061   3.660
 6906SOL    HW121617   4.864   1.105   3.570
 6906SOL    HW221618   4.840   0.966   3.652
 6907SOL     OW21619   5.259   2.550   1.221
 6907SOL    HW121620   5.161   2.531   1.212
 6907SOL    HW221621   5.272   2.643   1.256
 6908SOL     OW21622   0.830   5.755   6.312
 6908SOL    HW121623   0.841   5.764   6.411
 6908SOL    HW221624   0.852   5.661   6.285
 6909SOL     OW21625   6.181   4.387   1.437
 6909SOL    HW121626   6.269   4.428   1.414
 6909SOL    HW221627   6.127   4.453   1.489
 6910SOL     OW21628   6.665   2.678   3.380
 6910SOL    HW121629   6.699   2.595   3.336
 6910SOL    HW221630   6.633   2.655   3.473
 6911SOL     OW21631   4.072   6.003   3.601
 6911SOL    HW121632   4.056   6.002   3.699
 6911SOL    HW221633   4.111   6.091   3.574
 6912SOL     OW21634   3.044   5.616   0.497
 6912SOL    HW121635   3.115   5.680   0.528
 6912SOL    HW221636   3.039   5.539   0.560
 6913SOL     OW21637   4.681   5.081   4.800
 6913SOL    HW121638   4.586   5.052   4.804
 6913SOL    HW221639   4.725   5.065   4.888
 6914SOL     OW21640   6.247   3.890   5.607
 6914SOL    HW121641   6.225   3.961   5.540
 6914SOL    HW221642   6.331   3.915   5.655
 6915SOL     OW21643   6.038   3.495   1.452
 6915SOL    HW121644   6.016   3.412   1.502
 6915SOL    HW221645   6.066   3.472   1.359
 6916SOL     OW21646   6.962   3.432   0.109
 6916SOL    HW121647   6.994   3.493   0.036
 6916SOL    HW221648   6.862   3.427   0.107
 6917SOL     OW21649   2.856   5.881   1.201
 6917SOL    HW121650   2.920   5.807   1.220
 6917SOL    HW221651   2.907   5.963   1.175
 6918SOL     OW21652   6.882   3.045   4.759
 6918SOL    HW121653   6.795   3.094   4.754
 6918SOL    HW221654   6.953   3.107   4.793
 6919SOL     OW21655   0.281   6.255   2.353
 6919SOL    HW121656   0.354   6.273   2.287
 6919SOL    HW221657   0.207   6.204   2.308
 6920SOL     OW21658   4.785   4.953   5.527
 6920SOL    HW121659   4.863   4.899   5.561
 6920SOL    HW221660   4.771   5.032   5.585
 6921SOL     OW21661   5.523   5.820   2.859
 6921SOL    HW121662   5.560   5.849   2.770
 6921SOL    HW221663   5.594   5.770   2.909
 6922SOL     OW21664   1.980   5.884   6.020
 6922SOL    HW121665   2.043   5.822   6.066
 6922SOL    HW221666   2.030   5.937   5.951
 6923SOL     OW21667   4.343   5.346   3.666
 6923SOL    HW121668   4.256   5.306   3.694
 6923SOL    HW221669   4.408   5.272   3.647
 6924SOL     OW21670   2.272   4.146   6.708
 6924SOL    HW121671   2.203   4.115   6.774
 6924SOL    HW221672   2.293   4.073   6.644
 6925SOL     OW21673   4.313   6.135   5.055
 6925SOL    HW121674   4.299   6.072   4.978
 6925SOL    HW221675   4.403   6.119   5.094
 6926SOL     OW21676   3.326   2.936   1.207
 6926SOL    HW121677   3.287   2.845   1.226
 6926SOL    HW221678   3.375   2.933   1.120
 6927SOL     OW21679   5.078   2.753   6.302
 6927SOL    HW121680   5.114   2.703   6.223
 6927SOL    HW221681   5.070   2.850   6.279
 6928SOL     OW21682   6.530   5.990   1.117
 6928SOL    HW121683   6.559   5.897   1.139
 6928SOL    HW221684   6.558   6.052   1.190
 6929SOL     OW21685   5.749   4.826   0.756
 6929SOL    HW121686   5.747   4.803   0.659
 6929SOL    HW221687   5.803   4.758   0.806
 6930SOL     OW21688   0.479   6.319   2.184
 6930SOL    HW121689   0.570   6.342   2.219
 6930SOL    HW221690   0.461   6.371   2.100
 6931SOL     OW21691   2.102   0.731   2.298
 6931SOL    HW121692   2.045   0.678   2.235
 6931SOL    HW221693   2.190   0.686   2.310
 6932SOL     OW21694   4.118   6.664   0.718
 6932SOL    HW121695   4.029   6.687   0.680
 6932SOL    HW221696   4.106   6.599   0.793
 6933SOL     OW21697   3.008   6.440   4.290
 6933SOL    HW121698   2.949   6.467   4.367
 6933SOL    HW221699   3.067   6.517   4.265
 6934SOL     OW21700   4.757   3.492   6.066
 6934SOL    HW121701   4.843   3.544   6.068
 6934SOL    HW221702   4.734   3.471   5.971
 6935SOL     OW21703   4.346   4.667   3.088
 6935SOL    HW121704   4.423   4.635   3.032
 6935SOL    HW221705   4.264   4.674   3.031
 6936SOL     OW21706   6.355   2.259   4.232
 6936SOL    HW121707   6.433   2.318   4.250
 6936SOL    HW221708   6.278   2.287   4.290
 6937SOL     OW21709   0.273   6.423   0.312
 6937SOL    HW121710   0.193   6.423   0.253
 6937SOL    HW221711   0.305   6.329   0.324
 6938SOL     OW21712   5.325   3.506   5.673
 6938SOL    HW121713   5.359   3.538   5.584
 6938SOL    HW221714   5.258   3.572   5.708
 6939SOL     OW21715   0.735   4.623   2.223
 6939SOL    HW121716   0.646   4.601   2.262
 6939SOL    HW221717   0.804   4.621   2.294
 6940SOL     OW21718   4.653   0.778   0.234
 6940SOL    HW121719   4.722   0.831   0.185
 6940SOL    HW221720   4.606   0.718   0.169
 6941SOL     OW21721   3.864   3.328   1.933
 6941SOL    HW121722   3.911   3.267   1.997
 6941SOL    HW221723   3.922   3.406   1.912
 6942SOL     OW21724   5.393   1.018   1.687
 6942SOL    HW121725   5.409   0.965   1.770
 6942SOL    HW221726   5.297   1.045   1.683
 6943SOL     OW21727   4.318   6.340   6.948
 6943SOL    HW121728   4.242   6.284   6.914
 6943SOL    HW221729   4.348   6.402   6.875
 6944SOL     OW21730   0.965   3.848   0.043
 6944SOL    HW121731   0.919   3.769   0.085
 6944SOL    HW221732   1.058   3.855   0.080
 6945SOL     OW21733   6.497   2.049   6.368
 6945SOL    HW121734   6.529   1.982   6.435
 6945SOL    HW221735   6.411   2.090   6.399
 6946SOL     OW21736   6.152   6.280   1.077
 6946SOL    HW121737   6.229   6.217   1.068
 6946SOL    HW221738   6.100   6.280   0.991
 6947SOL     OW21739   3.779   6.325   6.276
 6947SOL    HW121740   3.786   6.242   6.330
 6947SOL    HW221741   3.769   6.302   6.179
 6948SOL     OW21742   6.852   0.310   6.854
 6948SOL    HW121743   6.842   0.332   6.951
 6948SOL    HW221744   6.861   0.394   6.801
 6949SOL     OW21745   4.993   6.633   2.801
 6949SOL    HW121746   4.921   6.574   2.763
 6949SOL    HW221747   4.964   6.667   2.891
 6950SOL     OW21748   2.536   1.126   4.694
 6950SOL    HW121749   2.471   1.172   4.754
 6950SOL    HW221750   2.624   1.116   4.740
 6951SOL     OW21751   6.780   5.668   5.396
 6951SOL    HW121752   6.857   5.686   5.335
 6951SOL    HW221753   6.723   5.750   5.402
 6952SOL     OW21754   0.616   6.370   3.733
 6952SOL    HW121755   0.539   6.388   3.795
 6952SOL    HW221756   0.674   6.300   3.773
 6953SOL     OW21757   5.346   6.372   0.360
 6953SOL    HW121758   5.426   6.338   0.409
 6953SOL    HW221759   5.263   6.343   0.408
 6954SOL     OW21760   0.238   4.003   3.621
 6954SOL    HW121761   0.317   3.988   3.681
 6954SOL    HW221762   0.270   4.040   3.534
 6955SOL     OW21763   6.695   0.655   2.417
 6955SOL    HW121764   6.719   0.731   2.477
 6955SOL    HW221765   6.611   0.612   2.450
 6956SOL     OW21766   5.347   5.692   3.207
 6956SOL    HW121767   5.363   5.596   3.184
 6956SOL    HW221768   5.320   5.700   3.303
 6957SOL     OW21769   6.169   5.166   0.866
 6957SOL    HW121770   6.224   5.103   0.811
 6957SOL    HW221771   6.090   5.117   0.903
 6958SOL     OW21772   2.927   3.314   4.462
 6958SOL    HW121773   2.873   3.268   4.533
 6958SOL    HW221774   2.974   3.246   4.406
 6959SOL     OW21775   1.745   1.851   4.481
 6959SOL    HW121776   1.730   1.760   4.520
 6959SOL    HW221777   1.785   1.842   4.390
 6960SOL     OW21778   2.512   5.028   1.646
 6960SOL    HW121779   2.586   5.070   1.699
 6960SOL    HW221780   2.430   5.022   1.703
 6961SOL     OW21781   5.665   2.140   4.111
 6961SOL    HW121782   5.680   2.054   4.160
 6961SOL    HW221783   5.571   2.143   4.076
 6962SOL     OW21784   4.645   6.143   1.806
 6962SOL    HW121785   4.681   6.236   1.801
 6962SOL    HW221786   4.584   6.127   1.729
 6963SOL     OW21787   5.502   5.896   1.170
 6963SOL    HW121788   5.425   5.863   1.116
 6963SOL    HW221789   5.487   5.991   1.196
 6964SOL     OW21790   3.453   0.358   4.787
 6964SOL    HW121791   3.396   0.276   4.782
 6964SOL    HW221792   3.540   0.337   4.831
 6965SOL     OW21793   0.957   3.229   1.256
 6965SOL    HW121794   0.866   3.251   1.294
 6965SOL    HW221795   1.028   3.260   1.319
 6966SOL     OW21796   6.960   2.553   3.087
 6966SOL    HW121797   0.009   2.605   3.137
 6966SOL    HW221798   6.997   2.463   3.063
 6967SOL     OW21799   2.279   6.417   5.379
 6967SOL    HW121800   2.291   6.318   5.380
 6967SOL    HW221801   2.211   6.442   5.310
 6968SOL     OW21802   4.507   6.643   2.571
 6968SOL    HW121803   4.444   6.660   2.495
 6968SOL    HW221804   4.474   6.565   2.624
 6969SOL     OW21805   2.868   2.255   1.313
 6969SOL    HW121806   2.845   2.339   1.264
 6969SOL    HW221807   2.842   2.264   1.409
 6970SOL     OW21808   3.134   4.467   6.617
 6970SOL    HW121809   3.108   4.488   6.711
 6970SOL    HW221810   3.103   4.375   6.593
 6971SOL     OW21811   6.120   4.469   2.142
 6971SOL    HW121812   6.078   4.538   2.202
 6971SOL    HW221813   6.050   4.405   2.111
 6972SOL     OW21814   4.878   3.833   3.314
 6972SOL    HW121815   4.857   3.735   3.321
 6972SOL    HW221816   4.914   3.852   3.222
 6973SOL     OW21817   0.559   2.896   4.374
 6973SOL    HW121818   0.562   2.913   4.472
 6973SOL    HW221819   0.496   2.961   4.331
 6974SOL     OW21820   3.325   4.146   2.296
 6974SOL    HW121821   3.390   4.128   2.223
 6974SOL    HW221822   3.235   4.167   2.257
 6975SOL     OW21823   2.036   6.557   6.439
 6975SOL    HW121824   1.976   6.533   6.515
 6975SOL    HW221825   2.132   6.544   6.466
 6976SOL     OW21826   4.882   5.922   4.921
 6976SOL    HW121827   4.852   5.828   4.933
 6976SOL    HW221828   4.976   5.932   4.954
 6977SOL     OW21829   4.045   2.653   1.692
 6977SOL    HW121830   4.141   2.679   1.691
 6977SOL    HW221831   3.989   2.729   1.661
 6978SOL     OW21832   4.498   1.264   2.585
 6978SOL    HW121833   4.484   1.356   2.623
 6978SOL    HW221834   4.575   1.266   2.521
 6979SOL     OW21835   0.881   4.218   1.193
 6979SOL    HW121836   0.884   4.295   1.128
 6979SOL    HW221837   0.788   4.182   1.197
 6980SOL     OW21838   1.559   1.330   3.621
 6980SOL    HW121839   1.603   1.252   3.576
 6980SOL    HW221840   1.622   1.369   3.689
 6981SOL     OW21841   3.842   2.486   5.713
 6981SOL    HW121842   3.786   2.546   5.656
 6981SOL    HW221843   3.822   2.390   5.692
 6982SOL     OW21844   1.485   0.723   4.280
 6982SOL    HW121845   1.504   0.624   4.277
 6982SOL    HW221846   1.408   0.739   4.342
 6983SOL     OW21847   3.904   2.004   3.696
 6983SOL    HW121848   3.927   1.913   3.731
 6983SOL    HW221849   3.984   2.064   3.704
 6984SOL     OW21850   2.590   1.771   3.665
 6984SOL    HW121851   2.543   1.788   3.751
 6984SOL    HW221852   2.646   1.851   3.640
 6985SOL     OW21853   4.788   5.134   2.061
 6985SOL    HW121854   4.815   5.076   2.138
 6985SOL    HW221855   4.822   5.227   2.077
 6986SOL     OW21856   1.677   6.856   6.397
 6986SOL    HW121857   1.689   6.928   6.466
 6986SOL    HW221858   1.600   6.879   6.339
 6987SOL     OW21859   6.481   1.586   5.767
 6987SOL    HW121860   6.478   1.488   5.786
 6987SOL    HW221861   6.389   1.620   5.751
 6988SOL     OW21862   0.325   0.345   5.472
 6988SOL    HW121863   0.279   0.373   5.556
 6988SOL    HW221864   0.423   0.362   5.480
 6989SOL     OW21865   0.758   4.202   2.929
 6989SOL    HW121866   0.748   4.212   3.028
 6989SOL    HW221867   0.844   4.155   2.909
 6990SOL     OW21868   4.833   2.772   1.199
 6990SOL    HW121869   4.851   2.790   1.296
 6990SOL    HW221870   4.758   2.830   1.168
 6991SOL     OW21871   3.301   4.906   3.346
 6991SOL    HW121872   3.302   4.806   3.343
 6991SOL    HW221873   3.225   4.938   3.402
 6992SOL     OW21874   5.148   6.128   6.521
 6992SOL    HW121875   5.236   6.144   6.477
 6992SOL    HW221876   5.079   6.110   6.451
 6993SOL     OW21877   6.087   0.794   2.773
 6993SOL    HW121878   6.124   0.852   2.700
 6993SOL    HW221879   6.090   0.699   2.744
 6994SOL     OW21880   0.278   2.667   4.309
 6994SOL    HW121881   0.247   2.738   4.246
 6994SOL    HW221882   0.331   2.598   4.259
 6995SOL     OW21883   0.062   4.518   6.141
 6995SOL    HW121884   0.104   4.561   6.060
 6995SOL    HW221885   0.086   4.421   6.143
 6996SOL     OW21886   1.308   0.404   6.813
 6996SOL    HW121887   1.252   0.481   6.783
 6996SOL    HW221888   1.256   0.350   6.880
 6997SOL     OW21889   0.003   5.775   5.295
 6997SOL    HW121890   7.019   5.805   5.200
 6997SOL    HW221891   7.017   5.854   5.356
 6998SOL     OW21892   2.133   0.896   1.906
 6998SOL    HW121893   2.059   0.884   1.973
 6998SOL    HW221894   2.108   0.965   1.839
 6999SOL     OW21895   2.534   2.321   6.109
 6999SOL    HW121896   2.569   2.415   6.105
 6999SOL    HW221897   2.538   2.288   6.204
 7000SOL     OW21898   5.415   6.175   1.303
 7000SOL    HW121899   5.337   6.219   1.258
 7000SOL    HW221900   5.416   6.201   1.400
 7001SOL     OW21901   1.968   2.735   5.378
 7001SOL    HW121902   1.892   2.793   5.350
 7001SOL    HW221903   2.027   2.717   5.300
 7002SOL     OW21904   1.838   5.658   3.865
 7002SOL    HW121905   1.859   5.574   3.816
 7002SOL    HW221906   1.877   5.736   3.816
 7003SOL     OW21907   3.927   5.056   0.282
 7003SOL    HW121908   3.995   5.047   0.355
 7003SOL    HW221909   3.878   4.970   0.271
 7004SOL     OW21910   0.948   4.488   2.702
 7004SOL    HW121911   0.864   4.442   2.732
 7004SOL    HW221912   0.926   4.554   2.630
 7005SOL     OW21913   1.660   0.533   0.283
 7005SOL    HW121914   1.755   0.541   0.251
 7005SOL    HW221915   1.658   0.488   0.372
 7006SOL     OW21916   5.120   4.958   3.815
 7006SOL    HW121917   5.083   4.912   3.735
 7006SOL    HW221918   5.209   4.998   3.793
 7007SOL     OW21919   5.406   6.985   3.269
 7007SOL    HW121920   5.457   7.020   3.190
 7007SOL    HW221921   5.320   0.014   3.278
 7008SOL     OW21922   0.990   3.915   4.571
 7008SOL    HW121923   0.989   3.856   4.652
 7008SOL    HW221924   0.908   3.972   4.570
 7009SOL     OW21925   5.561   6.394   2.250
 7009SOL    HW121926   5.567   6.306   2.204
 7009SOL    HW221927   5.653   6.428   2.270
 7010SOL     OW21928   5.285   4.699   4.105
 7010SOL    HW121929   5.310   4.701   4.008
 7010SOL    HW221930   5.264   4.605   4.132
 7011SOL     OW21931   3.693   6.661   6.583
 7011SOL    HW121932   3.769   6.660   6.518
 7011SOL    HW221933   3.699   6.744   6.639
 7012SOL     OW21934   1.433   2.226   1.324
 7012SOL    HW121935   1.378   2.146   1.304
 7012SOL    HW221936   1.453   2.275   1.239
 7013SOL     OW21937   0.555   0.455   0.384
 7013SOL    HW121938   0.487   0.381   0.385
 7013SOL    HW221939   0.546   0.510   0.467
 7014SOL     OW21940   4.156   3.384   0.927
 7014SOL    HW121941   4.185   3.318   0.997
 7014SOL    HW221942   4.141   3.473   0.970
 7015SOL     OW21943   5.645   4.939   2.428
 7015SOL    HW121944   5.661   4.841   2.440
 7015SOL    HW221945   5.595   4.955   2.342
 7016SOL     OW21946   3.802   4.664   1.318
 7016SOL    HW121947   3.765   4.737   1.376
 7016SOL    HW221948   3.756   4.578   1.340
 7017SOL     OW21949   2.046   4.901   2.144
 7017SOL    HW121950   2.052   4.807   2.111
 7017SOL    HW221951   2.084   4.963   2.074
 7018SOL     OW21952   5.567   3.871   4.300
 7018SOL    HW121953   5.521   3.844   4.216
 7018SOL    HW221954   5.666   3.865   4.287
 7019SOL     OW21955   3.207   4.013   0.223
 7019SOL    HW121956   3.289   3.964   0.193
 7019SOL    HW221957   3.216   4.035   0.320
 7020SOL     OW21958   6.596   5.419   0.150
 7020SOL    HW121959   6.595   5.358   0.230
 7020SOL    HW221960   6.504   5.453   0.132
 7021SOL     OW21961   1.348   1.671   5.657
 7021SOL    HW121962   1.448   1.673   5.660
 7021SOL    HW221963   1.315   1.759   5.624
 7022SOL     OW21964   4.901   6.964   6.029
 7022SOL    HW121965   4.942   6.942   6.117
 7022SOL    HW221966   4.972   6.970   5.959
 7023SOL     OW21967   0.339   1.803   4.632
 7023SOL    HW121968   0.438   1.787   4.635
 7023SOL    HW221969   0.322   1.902   4.628
 7024SOL     OW21970   2.691   3.887   5.256
 7024SOL    HW121971   2.607   3.935   5.230
 7024SOL    HW221972   2.742   3.943   5.322
 7025SOL     OW21973   2.743   1.434   0.339
 7025SOL    HW121974   2.729   1.397   0.248
 7025SOL    HW221975   2.775   1.362   0.400
 7026SOL     OW21976   3.463   1.749   2.093
 7026SOL    HW121977   3.366   1.724   2.091
 7026SOL    HW221978   3.471   1.849   2.092
 7027SOL     OW21979   2.450   5.474   4.101
 7027SOL    HW121980   2.350   5.482   4.109
 7027SOL    HW221981   2.472   5.416   4.022
 7028SOL     OW21982   3.766   1.207   3.852
 7028SOL    HW121983   3.852   1.165   3.880
 7028SOL    HW221984   3.769   1.226   3.754
 7029SOL     OW21985   5.084   4.725   5.161
 7029SOL    HW121986   5.025   4.706   5.083
 7029SOL    HW221987   5.041   4.691   5.245
 7030SOL     OW21988   1.447   1.039   5.178
 7030SOL    HW121989   1.409   1.064   5.089
 7030SOL    HW221990   1.412   0.949   5.204
 7031SOL     OW21991   2.562   5.841   4.826
 7031SOL    HW121992   2.502   5.919   4.844
 7031SOL    HW221993   2.572   5.787   4.909
 7032SOL     OW21994   4.125   0.570   3.210
 7032SOL    HW121995   4.091   0.477   3.223
 7032SOL    HW221996   4.204   0.585   3.269
 7033SOL     OW21997   1.488   2.538   3.783
 7033SOL    HW121998   1.559   2.507   3.719
 7033SOL    HW221999   1.448   2.624   3.750
 7034SOL     OW22000   6.138   0.588   4.045
 7034SOL    HW122001   6.104   0.555   3.957
 7034SOL    HW222002   6.238   0.589   4.044
 7035SOL     OW22003   1.498   6.468   1.329
 7035SOL    HW122004   1.409   6.441   1.294
 7035SOL    HW222005   1.501   6.567   1.341
 7036SOL     OW22006   0.500   0.449   2.922
 7036SOL    HW122007   0.469   0.537   2.958
 7036SOL    HW222008   0.427   0.408   2.868
 7037SOL     OW22009   1.708   1.829   6.755
 7037SOL    HW122010   1.718   1.779   6.670
 7037SOL    HW222011   1.796   1.868   6.782
 7038SOL     OW22012   2.866   3.185   5.610
 7038SOL    HW122013   2.896   3.218   5.700
 7038SOL    HW222014   2.908   3.097   5.591
 7039SOL     OW22015   3.198   5.132   1.769
 7039SOL    HW122016   3.117   5.115   1.713
 7039SOL    HW222017   3.278   5.138   1.711
 7040SOL     OW22018   6.229   1.659   5.194
 7040SOL    HW122019   6.242   1.751   5.229
 7040SOL    HW222020   6.219   1.595   5.270
 7041SOL     OW22021   6.711   1.804   1.898
 7041SOL    HW122022   6.641   1.740   1.931
 7041SOL    HW222023   6.791   1.753   1.868
 7042SOL     OW22024   4.647   5.033   5.305
 7042SOL    HW122025   4.547   5.041   5.312
 7042SOL    HW222026   4.683   4.994   5.389
 7043SOL     OW22027   2.089   3.929   2.952
 7043SOL    HW122028   1.996   3.932   2.988
 7043SOL    HW222029   2.089   3.889   2.861
 7044SOL     OW22030   4.310   4.637   4.040
 7044SOL    HW122031   4.290   4.673   4.131
 7044SOL    HW222032   4.262   4.692   3.971
 7045SOL     OW22033   4.941   5.789   3.203
 7045SOL    HW122034   4.963   5.720   3.272
 7045SOL    HW222035   4.842   5.795   3.192
 7046SOL     OW22036   3.337   0.762   3.427
 7046SOL    HW122037   3.327   0.715   3.339
 7046SOL    HW222038   3.379   0.851   3.413
 7047SOL     OW22039   6.951   1.838   2.574
 7047SOL    HW122040   6.960   1.900   2.652
 7047SOL    HW222041   6.983   1.747   2.600
 7048SOL     OW22042   5.446   6.265   3.139
 7048SOL    HW122043   5.530   6.216   3.164
 7048SOL    HW222044   5.389   6.207   3.081
 7049SOL     OW22045   3.751   1.633   0.652
 7049SOL    HW122046   3.811   1.640   0.732
 7049SOL    HW222047   3.770   1.548   0.603
 7050SOL     OW22048   4.406   3.506   1.075
 7050SOL    HW122049   4.317   3.469   1.049
 7050SOL    HW222050   4.453   3.540   0.994
 7051SOL     OW22051   6.853   0.324   1.781
 7051SOL    HW122052   6.772   0.362   1.825
 7051SOL    HW222053   6.871   0.233   1.816
 7052SOL     OW22054   5.660   2.695   3.517
 7052SOL    HW122055   5.750   2.713   3.478
 7052SOL    HW222056   5.615   2.622   3.466
 7053SOL     OW22057   0.892   3.279   5.575
 7053SOL    HW122058   0.979   3.258   5.618
 7053SOL    HW222059   0.832   3.198   5.580
 7054SOL     OW22060   1.089   6.769   0.463
 7054SOL    HW122061   1.082   6.673   0.493
 7054SOL    HW222062   1.183   6.789   0.438
 7055SOL     OW22063   2.656   6.837   5.344
 7055SOL    HW122064   2.599   6.757   5.362
 7055SOL    HW222065   2.689   6.834   5.249
 7056SOL     OW22066   6.351   4.606   2.285
 7056SOL    HW122067   6.367   4.541   2.210
 7056SOL    HW222068   6.280   4.671   2.257
 7057SOL     OW22069   1.566   5.624   4.026
 7057SOL    HW122070   1.529   5.717   4.017
 7057SOL    HW222071   1.657   5.620   3.985
 7058SOL     OW22072   5.804   4.763   5.526
 7058SOL    HW122073   5.772   4.752   5.620
 7058SOL    HW222074   5.781   4.854   5.493
 7059SOL     OW22075   6.684   1.268   3.953
 7059SOL    HW122076   6.625   1.309   4.022
 7059SOL    HW222077   6.771   1.243   3.995
 7060SOL     OW22078   4.095   0.210   1.298
 7060SOL    HW122079   4.191   0.185   1.282
 7060SOL    HW222080   4.080   0.223   1.396
 7061SOL     OW22081   0.652   2.941   3.261
 7061SOL    HW122082   0.689   2.851   3.237
 7061SOL    HW222083   0.573   2.961   3.203
 7062SOL     OW22084   4.130   0.960   5.247
 7062SOL    HW122085   4.053   1.009   5.288
 7062SOL    HW222086   4.138   0.869   5.289
 7063SOL     OW22087   1.503   0.198   1.931
 7063SOL    HW122088   1.587   0.247   1.908
 7063SOL    HW222089   1.441   0.200   1.853
 7064SOL     OW22090   4.111   1.934   0.858
 7064SOL    HW122091   4.110   1.962   0.762
 7064SOL    HW222092   4.200   1.895   0.880
 7065SOL     OW22093   4.113   3.952   5.813
 7065SOL    HW122094   4.056   3.922   5.737
 7065SOL    HW222095   4.201   3.904   5.811
 7066SOL     OW22096   4.698   0.703   6.664
 7066SOL    HW122097   4.659   0.633   6.604
 7066SOL    HW222098   4.745   0.771   6.608
 7067SOL     OW22099   1.855   2.753   5.040
 7067SOL    HW122100   1.769   2.746   5.091
 7067SOL    HW222101   1.871   2.848   5.013
 7068SOL     OW22102   6.547   4.379   4.563
 7068SOL    HW122103   6.511   4.325   4.486
 7068SOL    HW222104   6.535   4.476   4.545
 7069SOL     OW22105   5.364   1.804   4.359
 7069SOL    HW122106   5.337   1.900   4.350
 7069SOL    HW222107   5.461   1.796   4.336
 7070SOL     OW22108   6.986   6.529   4.594
 7070SOL    HW122109   6.964   6.610   4.649
 7070SOL    HW222110   6.956   6.544   4.500
 7071SOL     OW22111   3.095   5.795   6.106
 7071SOL    HW122112   3.176   5.737   6.121
 7071SOL    HW222113   3.122   5.891   6.114
 7072SOL     OW22114   1.886   6.622   0.012
 7072SOL    HW122115   1.926   6.711   7.009
 7072SOL    HW222116   1.906   6.601   0.108
 7073SOL     OW22117   5.112   6.537   4.270
 7073SOL    HW122118   5.192   6.509   4.217
 7073SOL    HW222119   5.099   6.636   4.261
 7074SOL     OW22120   5.009   2.385   1.582
 7074SOL    HW122121   5.053   2.296   1.583
 7074SOL    HW222122   4.982   2.410   1.675
 7075SOL     OW22123   1.814   4.055   5.513
 7075SOL    HW122124   1.895   4.096   5.470
 7075SOL    HW222125   1.787   3.974   5.461
 7076SOL     OW22126   5.893   2.285   6.110
 7076SOL    HW122127   5.945   2.357   6.065
 7076SOL    HW222128   5.947   2.201   6.111
 7077SOL     OW22129   2.610   4.815   3.642
 7077SOL    HW122130   2.696   4.769   3.619
 7077SOL    HW222131   2.540   4.746   3.662
 7078SOL     OW22132   0.094   6.679   1.798
 7078SOL    HW122133   0.045   6.767   1.800
 7078SOL    HW222134   0.160   6.680   1.723
 7079SOL     OW22135   0.014   5.882   4.192
 7079SOL    HW122136   6.974   5.803   4.188
 7079SOL    HW222137   7.012   5.938   4.271
 7080SOL     OW22138   3.504   0.963   5.024
 7080SOL    HW122139   3.494   1.005   4.934
 7080SOL    HW222140   3.488   0.865   5.017
 7081SOL     OW22141   2.624   6.931   6.888
 7081SOL    HW122142   2.664   6.862   6.828
 7081SOL    HW222143   2.559   6.888   6.951
 7082SOL     OW22144   6.747   4.001   0.064
 7082SOL    HW122145   6.675   3.935   0.084
 7082SOL    HW222146   6.830   3.977   0.116
 7083SOL     OW22147   2.624   0.261   0.915
 7083SOL    HW122148   2.545   0.200   0.914
 7083SOL    HW222149   2.594   0.355   0.932
 7084SOL     OW22150   0.268   5.659   5.753
 7084SOL    HW122151   0.189   5.701   5.708
 7084SOL    HW222152   0.352   5.688   5.707
 7085SOL     OW22153   1.187   1.443   1.922
 7085SOL    HW122154   1.090   1.449   1.895
 7085SOL    HW222155   1.243   1.494   1.856
 7086SOL     OW22156   5.367   6.969   5.602
 7086SOL    HW122157   5.373   0.047   5.620
 7086SOL    HW222158   5.275   6.946   5.570
 7087SOL     OW22159   6.282   4.053   4.724
 7087SOL    HW122160   6.287   4.061   4.624
 7087SOL    HW222161   6.237   3.967   4.748
 7088SOL     OW22162   5.029   2.733   3.774
 7088SOL    HW122163   4.975   2.728   3.858
 7088SOL    HW222164   5.053   2.829   3.755
 7089SOL     OW22165   2.948   1.733   4.847
 7089SOL    HW122166   2.943   1.778   4.936
 7089SOL    HW222167   3.038   1.751   4.807
 7090SOL     OW22168   2.210   0.769   0.115
 7090SOL    HW122169   2.141   0.765   0.186
 7090SOL    HW222170   2.300   0.787   0.156
 7091SOL     OW22171   0.569   2.186   0.540
 7091SOL    HW122172   0.550   2.271   0.491
 7091SOL    HW222173   0.565   2.202   0.638
 7092SOL     OW22174   3.712   3.319   5.798
 7092SOL    HW122175   3.619   3.313   5.763
 7092SOL    HW222176   3.777   3.288   5.729
 7093SOL     OW22177   3.375   3.881   2.455
 7093SOL    HW122178   3.388   3.865   2.357
 7093SOL    HW222179   3.431   3.958   2.484
 7094SOL     OW22180   0.002   6.083   5.957
 7094SOL    HW122181   6.935   6.066   5.912
 7094SOL    HW222182   0.034   6.000   6.002
 7095SOL     OW22183   4.418   4.698   5.529
 7095SOL    HW122184   4.323   4.670   5.520
 7095SOL    HW222185   4.474   4.621   5.557
 7096SOL     OW22186   6.849   0.984   3.519
 7096SOL    HW122187   6.856   1.067   3.575
 7096SOL    HW222188   6.767   0.990   3.462
 7097SOL     OW22189   5.399   1.537   1.655
 7097SOL    HW122190   5.352   1.621   1.627
 7097SOL    HW222191   5.450   1.500   1.577
 7098SOL     OW22192   1.870   5.681   5.820
 7098SOL    HW122193   1.781   5.668   5.864
 7098SOL    HW222194   1.931   5.729   5.883
 7099SOL     OW22195   3.745   1.300   5.450
 7099SOL    HW122196   3.736   1.324   5.547
 7099SOL    HW222197   3.656   1.311   5.405
 7100SOL     OW22198   6.207   3.304   0.225
 7100SOL    HW122199   6.162   3.323   0.313
 7100SOL    HW222200   6.274   3.375   0.206
 7101SOL     OW22201   2.016   1.283   5.035
 7101SOL    HW122202   2.076   1.358   5.008
 7101SOL    HW222203   1.922   1.316   5.039
 7102SOL     OW22204   5.294   7.004   0.730
 7102SOL    HW122205   5.308   6.993   0.632
 7102SOL    HW222206   5.368   0.040   0.768
 7103SOL     OW22207   5.145   4.931   2.601
 7103SOL    HW122208   5.223   4.991   2.623
 7103SOL    HW222209   5.118   4.946   2.506
 7104SOL     OW22210   7.004   3.130   3.598
 7104SOL    HW122211   6.988   3.098   3.504
 7104SOL    HW222212   0.062   3.081   3.637
 7105SOL     OW22213   3.453   3.303   5.120
 7105SOL    HW122214   3.458   3.360   5.202
 7105SOL    HW222215   3.409   3.216   5.142
 7106SOL     OW22216   3.878   3.444   2.355
 7106SOL    HW122217   3.882   3.417   2.451
 7106SOL    HW222218   3.791   3.414   2.316
 7107SOL     OW22219   4.671   1.067   0.592
 7107SOL    HW122220   4.725   0.993   0.631
 7107SOL    HW222221   4.615   1.108   0.664
 7108SOL     OW22222   3.573   6.283   2.725
 7108SOL    HW122223   3.599   6.291   2.821
 7108SOL    HW222224   3.538   6.370   2.691
 7109SOL     OW22225   2.471   0.122   5.856
 7109SOL    HW122226   2.445   0.081   5.768
 7109SOL    HW222227   2.566   0.100   5.877
 7110SOL     OW22228   2.737   5.641   4.273
 7110SOL    HW122229   2.679   5.571   4.315
 7110SOL    HW222230   2.748   5.621   4.175
 7111SOL     OW22231   1.201   2.802   5.255
 7111SOL    HW122232   1.243   2.761   5.337
 7111SOL    HW222233   1.270   2.851   5.203
 7112SOL     OW22234   1.783   5.054   4.520
 7112SOL    HW122235   1.771   5.144   4.562
 7112SOL    HW222236   1.739   4.984   4.576
 7113SOL     OW22237   3.532   3.877   4.893
 7113SOL    HW122238   3.551   3.913   4.801
 7113SOL    HW222239   3.464   3.804   4.887
 7114SOL     OW22240   5.163   5.964   1.223
 7114SOL    HW122241   5.154   6.055   1.263
 7114SOL    HW222242   5.144   5.970   1.125
 7115SOL     OW22243   5.172   3.272   0.786
 7115SOL    HW122244   5.248   3.229   0.834
 7115SOL    HW222245   5.086   3.226   0.811
 7116SOL     OW22246   5.833   4.153   2.974
 7116SOL    HW122247   5.758   4.163   3.039
 7116SOL    HW222248   5.862   4.058   2.970
 7117SOL     OW22249   0.553   6.469   5.474
 7117SOL    HW122250   0.642   6.499   5.441
 7117SOL    HW222251   0.487   6.475   5.399
 7118SOL     OW22252   2.880   4.934   0.781
 7118SOL    HW122253   2.866   5.008   0.847
 7118SOL    HW222254   2.809   4.864   0.794
 7119SOL     OW22255   4.497   1.918   4.139
 7119SOL    HW122256   4.407   1.938   4.177
 7119SOL    HW222257   4.514   1.978   4.061
 7120SOL     OW22258   3.570   1.953   2.420
 7120SOL    HW122259   3.583   1.854   2.431
 7120SOL    HW222260   3.474   1.972   2.399
 7121SOL     OW22261   0.826   0.291   3.640
 7121SOL    HW122262   0.850   0.196   3.662
 7121SOL    HW222263   0.747   0.292   3.579
 7122SOL     OW22264   1.634   0.451   5.821
 7122SOL    HW122265   1.610   0.500   5.737
 7122SOL    HW222266   1.699   0.378   5.799
 7123SOL     OW22267   1.652   4.636   2.859
 7123SOL    HW122268   1.589   4.657   2.933
 7123SOL    HW222269   1.604   4.586   2.787
 7124SOL     OW22270   6.814   2.023   1.451
 7124SOL    HW122271   6.745   2.087   1.485
 7124SOL    HW222272   6.780   1.929   1.460
 7125SOL     OW22273   0.741   0.190   0.930
 7125SOL    HW122274   0.716   0.094   0.914
 7125SOL    HW222275   0.838   0.202   0.910
 7126SOL     OW22276   3.354   4.952   0.447
 7126SOL    HW122277   3.328   4.971   0.542
 7126SOL    HW222278   3.407   5.029   0.411
 7127SOL     OW22279   1.658   5.005   5.967
 7127SOL    HW122280   1.727   5.005   5.895
 7127SOL    HW222281   1.670   4.925   6.026
 7128SOL     OW22282   2.778   5.009   0.022
 7128SOL    HW122283   2.798   5.087   0.082
 7128SOL    HW222284   2.809   5.030   6.950
 7129SOL     OW22285   2.279   1.792   0.165
 7129SOL    HW122286   2.336   1.714   0.139
 7129SOL    HW222287   2.286   1.864   0.096
 7130SOL     OW22288   3.682   5.461   4.897
 7130SOL    HW122289   3.761   5.456   4.958
 7130SOL    HW222290   3.602   5.492   4.949
 7131SOL     OW22291   2.678   0.539   1.261
 7131SOL    HW122292   2.716   0.631   1.272
 7131SOL    HW222293   2.752   0.474   1.243
 7132SOL     OW22294   3.887   3.838   0.314
 7132SOL    HW122295   3.927   3.885   0.235
 7132SOL    HW222296   3.836   3.903   0.370
 7133SOL     OW22297   4.826   5.620   5.937
 7133SOL    HW122298   4.922   5.616   5.909
 7133SOL    HW222299   4.820   5.653   6.031
 7134SOL     OW22300   5.151   6.670   1.528
 7134SOL    HW122301   5.112   6.583   1.500
 7134SOL    HW222302   5.117   6.743   1.469
 7135SOL     OW22303   1.397   2.471   3.396
 7135SOL    HW122304   1.416   2.385   3.443
 7135SOL    HW222305   1.328   2.522   3.448
 7136SOL     OW22306   2.267   1.984   0.374
 7136SOL    HW122307   2.350   1.970   0.428
 7136SOL    HW222308   2.248   1.903   0.319
 7137SOL     OW22309   3.585   0.365   6.500
 7137SOL    HW122310   3.576   0.344   6.597
 7137SOL    HW222311   3.515   0.316   6.448
 7138SOL     OW22312   2.797   2.242   0.275
 7138SOL    HW122313   2.855   2.215   0.353
 7138SOL    HW222314   2.733   2.168   0.255
 7139SOL     OW22315   6.213   3.907   1.655
 7139SOL    HW122316   6.301   3.922   1.609
 7139SOL    HW222317   6.207   3.812   1.685
 7140SOL     OW22318   6.386   3.678   2.319
 7140SOL    HW122319   6.318   3.745   2.349
 7140SOL    HW222320   6.477   3.719   2.323
 7141SOL     OW22321   3.953   6.087   0.563
 7141SOL    HW122322   4.037   6.137   0.542
 7141SOL    HW222323   3.877   6.125   0.509
 7142SOL     OW22324   4.503   0.017   2.907
 7142SOL    HW122325   4.526   6.955   2.854
 7142SOL    HW222326   4.412   0.049   2.881
 7143SOL     OW22327   1.544   2.547   5.742
 7143SOL    HW122328   1.626   2.599   5.721
 7143SOL    HW222329   1.493   2.530   5.657
 7144SOL     OW22330   2.063   2.275   2.757
 7144SOL    HW122331   2.018   2.362   2.737
 7144SOL    HW222332   2.132   2.256   2.687
 7145SOL     OW22333   4.417   6.868   0.211
 7145SOL    HW122334   4.441   6.902   0.302
 7145SOL    HW222335   4.332   6.910   0.181
 7146SOL     OW22336   2.040   6.776   0.479
 7146SOL    HW122337   1.974   6.749   0.409
 7146SOL    HW222338   2.041   6.875   0.488
 7147SOL     OW22339   6.889   0.149   2.889
 7147SOL    HW122340   6.858   0.238   2.924
 7147SOL    HW222341   6.910   0.088   2.965
 7148SOL     OW22342   0.248   6.614   1.067
 7148SOL    HW122343   0.294   6.703   1.069
 7148SOL    HW222344   0.316   6.542   1.056
 7149SOL     OW22345   6.596   6.839   3.502
 7149SOL    HW122346   6.510   6.805   3.465
 7149SOL    HW222347   6.653   6.761   3.530
 7150SOL     OW22348   3.627   2.681   1.286
 7150SOL    HW122349   3.717   2.654   1.320
 7150SOL    HW222350   3.622   2.781   1.281
 7151SOL     OW22351   3.097   6.784   0.382
 7151SOL    HW122352   3.028   6.823   0.443
 7151SOL    HW222353   3.067   6.693   0.353
 7152SOL     OW22354   0.389   0.858   5.988
 7152SOL    HW122355   0.334   0.894   6.064
 7152SOL    HW222356   0.386   0.758   5.990
 7153SOL     OW22357   4.162   5.275   1.580
 7153SOL    HW122358   4.172   5.247   1.675
 7153SOL    HW222359   4.158   5.375   1.575
 7154SOL     OW22360   4.806   6.410   3.308
 7154SOL    HW122361   4.857   6.454   3.383
 7154SOL    HW222362   4.845   6.438   3.221
 7155SOL     OW22363   2.126   3.627   0.981
 7155SOL    HW122364   2.063   3.574   0.924
 7155SOL    HW222365   2.085   3.715   1.003
 7156SOL     OW22366   6.641   3.383   4.316
 7156SOL    HW122367   6.593   3.366   4.230
 7156SOL    HW222368   6.595   3.334   4.390
 7157SOL     OW22369   0.348   3.312   1.607
 7157SOL    HW122370   0.409   3.362   1.669
 7157SOL    HW222371   0.266   3.284   1.657
 7158SOL     OW22372   1.500   0.089   3.831
 7158SOL    HW122373   1.447   0.090   3.915
 7158SOL    HW222374   1.508   7.016   3.797
 7159SOL     OW22375   0.773   4.648   3.309
 7159SOL    HW122376   0.861   4.693   3.296
 7159SOL    HW222377   0.725   4.690   3.385
 7160SOL     OW22378   5.748   0.503   2.799
 7160SOL    HW122379   5.667   0.469   2.847
 7160SOL    HW222380   5.744   0.603   2.793
 7161SOL     OW22381   3.342   4.143   3.207
 7161SOL    HW122382   3.363   4.045   3.218
 7161SOL    HW222383   3.254   4.163   3.250
 7162SOL     OW22384   1.081   5.456   6.820
 7162SOL    HW122385   1.046   5.541   6.781
 7162SOL    HW222386   1.178   5.446   6.796
 7163SOL     OW22387   2.911   6.378   2.559
 7163SOL    HW122388   2.952   6.362   2.649
 7163SOL    HW222389   2.837   6.313   2.543
 7164SOL     OW22390   3.037   0.639   4.243
 7164SOL    HW122391   3.085   0.555   4.218
 7164SOL    HW222392   3.085   0.684   4.318
 7165SOL     OW22393   6.861   0.929   2.768
 7165SOL    HW122394   6.789   0.928   2.698
 7165SOL    HW222395   6.825   0.894   2.854
 7166SOL     OW22396   5.074   2.188   0.895
 7166SOL    HW122397   5.010   2.177   0.971
 7166SOL    HW222398   5.032   2.152   0.811
 7167SOL     OW22399   5.684   3.335   4.522
 7167SOL    HW122400   5.699   3.399   4.598
 7167SOL    HW222401   5.701   3.382   4.435
 7168SOL     OW22402   1.717   2.759   2.772
 7168SOL    HW122403   1.656   2.838   2.763
 7168SOL    HW222404   1.738   2.723   2.681
 7169SOL     OW22405   0.786   3.019   5.875
 7169SOL    HW122406   0.836   3.006   5.790
 7169SOL    HW222407   0.843   2.990   5.952
 7170SOL     OW22408   5.199   6.574   3.759
 7170SOL    HW122409   5.205   6.476   3.740
 7170SOL    HW222410   5.106   6.598   3.786
 7171SOL     OW22411   6.552   3.800   0.010
 7171SOL    HW122412   6.581   3.761   0.097
 7171SOL    HW222413   6.475   3.746   6.994
 7172SOL     OW22414   0.966   0.003   4.688
 7172SOL    HW122415   0.875   6.984   4.680
 7172SOL    HW222416   1.035   6.951   4.676
 7173SOL     OW22417   6.706   4.199   6.567
 7173SOL    HW122418   6.733   4.157   6.654
 7173SOL    HW222419   6.788   4.212   6.510
 7174SOL     OW22420   1.646   3.261   0.664
 7174SOL    HW122421   1.641   3.229   0.759
 7174SOL    HW222422   1.604   3.351   0.657
 7175SOL     OW22423   5.581   3.037   6.671
 7175SOL    HW122424   5.516   3.044   6.596
 7175SOL    HW222425   5.584   2.943   6.704
 7176SOL     OW22426   6.781   0.784   3.142
 7176SOL    HW122427   6.822   0.871   3.114
 7176SOL    HW222428   6.683   0.787   3.126
 7177SOL     OW22429   1.419   4.956   4.832
 7177SOL    HW122430   1.414   5.047   4.791
 7177SOL    HW222431   1.506   4.947   4.882
 7178SOL     OW22432   0.512   1.657   5.878
 7178SOL    HW122433   0.562   1.572   5.894
 7178SOL    HW222434   0.423   1.652   5.925
 7179SOL     OW22435   2.214   3.025   4.314
 7179SOL    HW122436   2.235   3.055   4.407
 7179SOL    HW222437   2.167   2.936   4.317
 7180SOL     OW22438   2.007   5.210   0.379
 7180SOL    HW122439   2.044   5.203   0.286
 7180SOL    HW222440   2.082   5.202   0.445
 7181SOL     OW22441   2.260   0.414   0.459
 7181SOL    HW122442   2.304   0.504   0.465
 7181SOL    HW222443   2.215   0.405   0.370
 7182SOL     OW22444   0.432   3.274   4.939
 7182SOL    HW122445   0.506   3.232   4.991
 7182SOL    HW222446   0.467   3.352   4.888
 7183SOL     OW22447   1.513   5.627   1.230
 7183SOL    HW122448   1.447   5.664   1.295
 7183SOL    HW222449   1.517   5.527   1.239
 7184SOL     OW22450   6.596   0.928   3.388
 7184SOL    HW122451   6.565   0.860   3.321
 7184SOL    HW222452   6.517   0.978   3.424
 7185SOL     OW22453   5.678   0.141   4.683
 7185SOL    HW122454   5.582   0.145   4.658
 7185SOL    HW222455   5.706   0.228   4.724
 7186SOL     OW22456   6.383   1.708   1.491
 7186SOL    HW122457   6.413   1.613   1.496
 7186SOL    HW222458   6.323   1.728   1.568
 7187SOL     OW22459   3.684   4.498   5.969
 7187SOL    HW122460   3.756   4.456   5.914
 7187SOL    HW222461   3.628   4.557   5.912
 7188SOL     OW22462   5.425   0.421   0.025
 7188SOL    HW122463   5.480   0.414   0.108
 7188SOL    HW222464   5.388   0.331   0.001
 7189SOL     OW22465   6.408   0.877   5.328
 7189SOL    HW122466   6.357   0.962   5.337
 7189SOL    HW222467   6.397   0.841   5.235
 7190SOL     OW22468   0.063   3.960   2.334
 7190SOL    HW122469   0.156   3.998   2.327
 7190SOL    HW222470   0.039   3.914   2.248
 7191SOL     OW22471   1.514   5.441   2.744
 7191SOL    HW122472   1.478   5.447   2.651
 7191SOL    HW222473   1.515   5.532   2.786
 7192SOL     OW22474   2.684   4.463   5.682
 7192SOL    HW122475   2.771   4.484   5.637
 7192SOL    HW222476   2.697   4.388   5.747
 7193SOL     OW22477   1.032   2.764   2.647
 7193SOL    HW122478   1.029   2.852   2.696
 7193SOL    HW222479   1.015   2.780   2.550
 7194SOL     OW22480   2.718   2.717   0.847
 7194SOL    HW122481   2.647   2.648   0.863
 7194SOL    HW222482   2.688   2.805   0.883
 7195SOL     OW22483   1.195   4.365   0.122
 7195SOL    HW122484   1.105   4.326   0.104
 7195SOL    HW222485   1.259   4.292   0.147
 7196SOL     OW22486   2.681   3.878   1.285
 7196SOL    HW122487   2.667   3.929   1.200
 7196SOL    HW222488   2.773   3.841   1.286
 7197SOL     OW22489   0.537   2.447   6.203
 7197SOL    HW122490   0.564   2.369   6.147
 7197SOL    HW222491   0.612   2.471   6.265
 7198SOL     OW22492   0.110   0.931   0.858
 7198SOL    HW122493   0.167   0.947   0.939
 7198SOL    HW222494   0.063   1.016   0.834
 7199SOL     OW22495   1.736   0.835   2.307
 7199SOL    HW122496   1.778   0.815   2.218
 7199SOL    HW222497   1.664   0.903   2.296
 7200SOL     OW22498   2.492   2.614   6.896
 7200SOL    HW122499   2.413   2.586   6.841
 7200SOL    HW222500   2.540   2.688   6.850
 7201SOL     OW22501   0.480   5.700   4.373
 7201SOL    HW122502   0.407   5.643   4.335
 7201SOL    HW222503   0.522   5.652   4.450
 7202SOL     OW22504   5.493   6.926   0.034
 7202SOL    HW122505   5.553   6.967   0.103
 7202SOL    HW222506   5.426   6.867   0.079
 7203SOL     OW22507   0.325   1.873   0.683
 7203SOL    HW122508   0.423   1.858   0.693
 7203SOL    HW222509   0.275   1.796   0.725
 7204SOL     OW22510   0.203   0.106   5.782
 7204SOL    HW122511   0.266   0.031   5.763
 7204SOL    HW222512   0.133   0.109   5.710
 7205SOL     OW22513   1.251   3.998   4.120
 7205SOL    HW122514   1.281   3.991   4.215
 7205SOL    HW222515   1.163   4.044   4.117
 7206SOL     OW22516   1.400   1.074   1.669
 7206SOL    HW122517   1.375   1.164   1.704
 7206SOL    HW222518   1.371   1.003   1.733
 7207SOL     OW22519   3.790   0.597   2.723
 7207SOL    HW122520   3.758   0.641   2.807
 7207SOL    HW222521   3.868   0.648   2.687
 7208SOL     OW22522   4.272   6.868   3.785
 7208SOL    HW122523   4.317   6.903   3.702
 7208SOL    HW222524   4.292   6.771   3.796
 7209SOL     OW22525   2.601   3.518   1.684
 7209SOL    HW122526   2.534   3.517   1.758
 7209SOL    HW222527   2.650   3.431   1.683
 7210SOL     OW22528   4.470   1.217   3.498
 7210SOL    HW122529   4.535   1.234   3.424
 7210SOL    HW222530   4.520   1.193   3.582
 7211SOL     OW22531   2.525   6.997   4.677
 7211SOL    HW122532   2.601   0.018   4.627
 7211SOL    HW222533   2.465   6.949   4.613
 7212SOL     OW22534   0.201   6.384   4.926
 7212SOL    HW122535   0.240   6.476   4.929
 7212SOL    HW222536   0.118   6.382   4.982
 7213SOL     OW22537   4.713   5.614   0.084
 7213SOL    HW122538   4.811   5.628   0.077
 7213SOL    HW222539   4.678   5.661   0.165
 7214SOL     OW22540   6.363   6.632   5.369
 7214SOL    HW122541   6.297   6.556   5.366
 7214SOL    HW222542   6.315   6.717   5.390
 7215SOL     OW22543   6.841   3.607   4.521
 7215SOL    HW122544   6.927   3.635   4.564
 7215SOL    HW222545   6.860   3.562   4.434
 7216SOL     OW22546   3.144   0.172   0.079
 7216SOL    HW122547   3.178   0.252   0.129
 7216SOL    HW222548   3.162   0.089   0.132
 7217SOL     OW22549   2.170   3.865   3.572
 7217SOL    HW122550   2.212   3.927   3.505
 7217SOL    HW222551   2.135   3.784   3.524
 7218SOL     OW22552   5.382   3.210   5.364
 7218SOL    HW122553   5.344   3.229   5.274
 7218SOL    HW222554   5.312   3.170   5.423
 7219SOL     OW22555   4.943   0.055   3.279
 7219SOL    HW122556   5.019   0.038   3.216
 7219SOL    HW222557   4.952   0.147   3.318
 7220SOL     OW22558   1.329   4.564   5.172
 7220SOL    HW122559   1.363   4.537   5.261
 7220SOL    HW222560   1.313   4.663   5.170
 7221SOL     OW22561   3.708   6.063   4.403
 7221SOL    HW122562   3.667   6.132   4.463
 7221SOL    HW222563   3.763   6.000   4.457
 7222SOL     OW22564   6.134   6.883   3.410
 7222SOL    HW122565   6.063   6.842   3.467
 7222SOL    HW222566   6.195   6.812   3.376
 7223SOL     OW22567   2.774   1.247   0.521
 7223SOL    HW122568   2.782   1.281   0.615
 7223SOL    HW222569   2.685   1.205   0.508
 7224SOL     OW22570   5.596   1.651   4.054
 7224SOL    HW122571   5.496   1.643   4.052
 7224SOL    HW222572   5.637   1.561   4.064
 7225SOL     OW22573   0.723   5.599   0.700
 7225SOL    HW122574   0.767   5.569   0.616
 7225SOL    HW222575   0.792   5.621   0.768
 7226SOL     OW22576   6.510   1.605   1.812
 7226SOL    HW122577   6.512   1.525   1.871
 7226SOL    HW222578   6.420   1.614   1.770
 7227SOL     OW22579   1.885   2.218   1.168
 7227SOL    HW122580   1.956   2.151   1.191
 7227SOL    HW222581   1.886   2.292   1.235
 7228SOL     OW22582   1.026   2.431   2.961
 7228SOL    HW122583   0.984   2.467   2.877
 7228SOL    HW222584   1.066   2.341   2.942
 7229SOL     OW22585   1.272   6.201   5.365
 7229SOL    HW122586   1.195   6.186   5.304
 7229SOL    HW222587   1.357   6.207   5.311
 7230SOL     OW22588   3.375   5.311   4.306
 7230SOL    HW122589   3.291   5.351   4.341
 7230SOL    HW222590   3.432   5.280   4.383
 7231SOL     OW22591   4.039   1.028   6.721
 7231SOL    HW122592   3.973   1.094   6.686
 7231SOL    HW222593   4.023   1.014   6.819
 7232SOL     OW22594   5.294   5.981   3.233
 7232SOL    HW122595   5.272   5.886   3.257
 7232SOL    HW222596   5.341   6.024   3.310
 7233SOL     OW22597   0.971   2.077   3.634
 7233SOL    HW122598   0.958   2.016   3.712
 7233SOL    HW222599   0.897   2.146   3.633
 7234SOL     OW22600   5.460   2.743   4.187
 7234SOL    HW122601   5.490   2.837   4.200
 7234SOL    HW222602   5.382   2.724   4.247
 7235SOL     OW22603   6.966   4.732   2.430
 7235SOL    HW122604   6.970   4.766   2.524
 7235SOL    HW222605   0.038   4.724   2.393
 7236SOL     OW22606   2.120   2.326   1.815
 7236SOL    HW122607   2.104   2.264   1.738
 7236SOL    HW222608   2.215   2.359   1.812
 7237SOL     OW22609   3.925   0.243   4.938
 7237SOL    HW122610   3.967   0.208   4.854
 7237SOL    HW222611   3.974   0.206   5.017
 7238SOL     OW22612   3.483   1.814   0.297
 7238SOL    HW122613   3.439   1.892   0.253
 7238SOL    HW222614   3.558   1.846   0.354
 7239SOL     OW22615   1.283   2.638   2.715
 7239SOL    HW122616   1.199   2.692   2.716
 7239SOL    HW222617   1.333   2.652   2.800
 7240SOL     OW22618   1.160   0.010   5.780
 7240SOL    HW122619   1.243   0.048   5.740
 7240SOL    HW222620   1.080   0.049   5.734
 7241SOL     OW22621   1.232   0.589   1.040
 7241SOL    HW122622   1.237   0.586   1.140
 7241SOL    HW222623   1.301   0.652   1.005
 7242SOL     OW22624   6.646   5.942   0.510
 7242SOL    HW122625   6.649   5.919   0.412
 7242SOL    HW222626   6.669   6.038   0.522
 7243SOL     OW22627   6.847   4.422   6.241
 7243SOL    HW122628   6.875   4.351   6.305
 7243SOL    HW222629   6.928   4.461   6.197
 7244SOL     OW22630   6.084   1.075   1.705
 7244SOL    HW122631   6.047   1.018   1.779
 7244SOL    HW222632   6.030   1.062   1.622
 7245SOL     OW22633   0.601   2.348   5.371
 7245SOL    HW122634   0.586   2.299   5.285
 7245SOL    HW222635   0.523   2.334   5.432
 7246SOL     OW22636   0.189   0.010   4.151
 7246SOL    HW122637   0.184   0.093   4.207
 7246SOL    HW222638   0.262   0.019   4.083
 7247SOL     OW22639   1.988   0.655   4.393
 7247SOL    HW122640   2.069   0.597   4.391
 7247SOL    HW222641   2.013   0.747   4.425
 7248SOL     OW22642   2.230   1.230   3.669
 7248SOL    HW122643   2.225   1.320   3.711
 7248SOL    HW222644   2.317   1.221   3.620
 7249SOL     OW22645   6.308   4.817   2.508
 7249SOL    HW122646   6.400   4.777   2.506
 7249SOL    HW222647   6.280   4.842   2.416
 7250SOL     OW22648   4.692   6.610   6.050
 7250SOL    HW122649   4.774   6.603   5.992
 7250SOL    HW222650   4.674   6.706   6.070
 7251SOL     OW22651   0.553   6.628   5.772
 7251SOL    HW122652   0.616   6.583   5.836
 7251SOL    HW222653   0.466   6.646   5.818
 7252SOL     OW22654   3.868   3.414   2.646
 7252SOL    HW122655   3.839   3.507   2.668
 7252SOL    HW222656   3.967   3.412   2.632
 7253SOL     OW22657   1.715   6.074   6.785
 7253SOL    HW122658   1.718   6.057   6.687
 7253SOL    HW222659   1.670   6.162   6.802
 7254SOL     OW22660   4.755   5.000   4.268
 7254SOL    HW122661   4.763   5.061   4.188
 7254SOL    HW222662   4.673   4.945   4.259
 7255SOL     OW22663   2.937   3.792   1.363
 7255SOL    HW122664   3.015   3.854   1.369
 7255SOL    HW222665   2.934   3.734   1.444
 7256SOL     OW22666   3.378   5.109   4.131
 7256SOL    HW122667   3.295   5.055   4.147
 7256SOL    HW222668   3.387   5.178   4.203
 7257SOL     OW22669   5.947   2.660   3.706
 7257SOL    HW122670   6.027   2.719   3.695
 7257SOL    HW222671   5.950   2.586   3.639
 7258SOL     OW22672   4.128   1.553   3.917
 7258SOL    HW122673   4.189   1.617   3.964
 7258SOL    HW222674   4.045   1.541   3.971
 7259SOL     OW22675   2.795   3.501   1.243
 7259SOL    HW122676   2.735   3.422   1.231
 7259SOL    HW222677   2.850   3.488   1.326
 7260SOL     OW22678   3.654   1.679   1.874
 7260SOL    HW122679   3.575   1.694   1.933
 7260SOL    HW222680   3.636   1.717   1.784
 7261SOL     OW22681   1.717   2.734   1.432
 7261SOL    HW122682   1.637   2.721   1.372
 7261SOL    HW222683   1.712   2.669   1.507
 7262SOL     OW22684   4.925   1.804   5.552
 7262SOL    HW122685   4.843   1.792   5.607
 7262SOL    HW222686   4.941   1.723   5.496
 7263SOL     OW22687   0.777   0.505   0.731
 7263SOL    HW122688   0.776   0.418   0.682
 7263SOL    HW222689   0.705   0.564   0.695
 7264SOL     OW22690   5.800   1.778   6.529
 7264SOL    HW122691   5.736   1.841   6.486
 7264SOL    HW222692   5.785   1.685   6.494
 7265SOL     OW22693   5.504   5.629   5.858
 7265SOL    HW122694   5.595   5.607   5.822
 7265SOL    HW222695   5.462   5.546   5.895
 7266SOL     OW22696   5.545   0.006   1.308
 7266SOL    HW122697   5.579   0.026   1.216
 7266SOL    HW222698   5.622   7.014   1.371
 7267SOL     OW22699   6.533   5.681   4.986
 7267SOL    HW122700   6.610   5.737   5.015
 7267SOL    HW222701   6.456   5.695   5.048
 7268SOL     OW22702   5.358   5.064   3.734
 7268SOL    HW122703   5.413   5.050   3.651
 7268SOL    HW222704   5.391   5.145   3.783
 7269SOL     OW22705   0.392   6.765   0.319
 7269SOL    HW122706   0.297   6.750   0.290
 7269SOL    HW222707   0.418   6.860   0.299
 7270SOL     OW22708   1.662   3.349   5.625
 7270SOL    HW122709   1.757   3.363   5.598
 7270SOL    HW222710   1.616   3.437   5.635
 7271SOL     OW22711   0.440   6.211   2.932
 7271SOL    HW122712   0.439   6.128   2.988
 7271SOL    HW222713   0.352   6.257   2.940
 7272SOL     OW22714   5.650   5.560   2.045
 7272SOL    HW122715   5.675   5.487   1.981
 7272SOL    HW222716   5.633   5.645   1.994
 7273SOL     OW22717   5.667   4.929   1.992
 7273SOL    HW122718   5.590   4.916   2.054
 7273SOL    HW222719   5.675   4.850   1.931
 7274SOL     OW22720   1.003   6.005   6.628
 7274SOL    HW122721   1.058   6.013   6.546
 7274SOL    HW222722   1.024   5.918   6.673
 7275SOL     OW22723   6.969   6.891   2.830
 7275SOL    HW122724   6.947   6.828   2.904
 7275SOL    HW222725   6.922   6.978   2.843
 7276SOL     OW22726   3.778   1.668   2.741
 7276SOL    HW122727   3.831   1.666   2.656
 7276SOL    HW222728   3.815   1.738   2.802
 7277SOL     OW22729   4.993   0.217   3.576
 7277SOL    HW122730   4.996   0.305   3.622
 7277SOL    HW222731   4.914   0.165   3.608
 7278SOL     OW22732   3.181   2.708   1.252
 7278SOL    HW122733   3.098   2.690   1.200
 7278SOL    HW222734   3.235   2.624   1.258
 7279SOL     OW22735   3.772   4.066   5.766
 7279SOL    HW122736   3.797   3.992   5.827
 7279SOL    HW222737   3.817   4.054   5.678
 7280SOL     OW22738   0.005   2.173   3.918
 7280SOL    HW122739   7.017   2.160   3.819
 7280SOL    HW222740   6.934   2.174   3.960
 7281SOL     OW22741   1.531   1.220   0.599
 7281SOL    HW122742   1.622   1.248   0.629
 7281SOL    HW222743   1.523   1.231   0.500
 7282SOL     OW22744   5.801   6.005   1.210
 7282SOL    HW122745   5.845   5.977   1.295
 7282SOL    HW222746   5.869   6.013   1.138
 7283SOL     OW22747   3.817   0.795   1.916
 7283SOL    HW122748   3.813   0.758   1.823
 7283SOL    HW222749   3.910   0.828   1.935
 7284SOL     OW22750   6.918   2.163   5.625
 7284SOL    HW122751   6.892   2.121   5.712
 7284SOL    HW222752   6.841   2.158   5.562
 7285SOL     OW22753   5.450   3.407   2.100
 7285SOL    HW122754   5.517   3.422   2.027
 7285SOL    HW222755   5.404   3.494   2.122
 7286SOL     OW22756   0.984   0.812   1.229
 7286SOL    HW122757   0.947   0.736   1.282
 7286SOL    HW222758   1.083   0.801   1.220
 7287SOL     OW22759   6.315   2.726   5.500
 7287SOL    HW122760   6.230   2.758   5.458
 7287SOL    HW222761   6.297   2.692   5.592
 7288SOL     OW22762   1.639   1.852   1.765
 7288SOL    HW122763   1.573   1.875   1.837
 7288SOL    HW222764   1.595   1.862   1.675
 7289SOL     OW22765   5.527   2.383   4.342
 7289SOL    HW122766   5.475   2.368   4.258
 7289SOL    HW222767   5.621   2.351   4.329
 7290SOL     OW22768   2.358   1.262   4.861
 7290SOL    HW122769   2.365   1.337   4.927
 7290SOL    HW222770   2.312   1.184   4.905
 7291SOL     OW22771   1.707   0.105   0.446
 7291SOL    HW122772   1.695   0.106   0.347
 7291SOL    HW222773   1.704   0.199   0.481
 7292SOL     OW22774   3.351   0.356   3.184
 7292SOL    HW122775   3.392   0.296   3.253
 7292SOL    HW222776   3.256   0.331   3.170
 7293SOL     OW22777   0.824   1.946   5.059
 7293SOL    HW122778   0.822   1.853   5.094
 7293SOL    HW222779   0.884   2.002   5.117
 7294SOL     OW22780   3.093   4.888   0.327
 7294SOL    HW122781   3.061   4.955   0.393
 7294SOL    HW222782   3.175   4.921   0.282
 7295SOL     OW22783   6.458   4.214   0.860
 7295SOL    HW122784   6.376   4.192   0.806
 7295SOL    HW222785   6.528   4.253   0.799
 7296SOL     OW22786   4.340   5.800   1.708
 7296SOL    HW122787   4.406   5.872   1.683
 7296SOL    HW222788   4.376   5.747   1.784
 7297SOL     OW22789   2.960   6.658   1.201
 7297SOL    HW122790   3.001   6.661   1.110
 7297SOL    HW222791   3.009   6.721   1.261
 7298SOL     OW22792   4.784   5.149   5.751
 7298SOL    HW122793   4.726   5.098   5.814
 7298SOL    HW222794   4.749   5.241   5.740
 7299SOL     OW22795   1.258   2.424   0.745
 7299SOL    HW122796   1.351   2.445   0.717
 7299SOL    HW222797   1.259   2.355   0.817
 7300SOL     OW22798   0.366   6.993   2.268
 7300SOL    HW122799   0.351   6.989   2.169
 7300SOL    HW222800   0.291   0.022   2.312
 7301SOL     OW22801   5.630   2.266   4.927
 7301SOL    HW122802   5.645   2.365   4.940
 7301SOL    HW222803   5.625   2.222   5.017
 7302SOL     OW22804   0.062   2.460   6.169
 7302SOL    HW122805   7.012   2.429   6.233
 7302SOL    HW222806   0.019   2.479   6.080
 7303SOL     OW22807   3.304   1.250   0.381
 7303SOL    HW122808   3.238   1.308   0.334
 7303SOL    HW222809   3.391   1.299   0.389
 7304SOL     OW22810   2.972   5.058   1.664
 7304SOL    HW122811   2.887   5.061   1.717
 7304SOL    HW222812   2.953   5.022   1.573
 7305SOL     OW22813   5.232   1.708   1.504
 7305SOL    HW122814   5.211   1.690   1.408
 7305SOL    HW222815   5.150   1.694   1.560
 7306SOL     OW22816   3.965   1.961   1.745
 7306SOL    HW122817   3.901   1.974   1.820
 7306SOL    HW222818   3.974   2.046   1.693
 7307SOL     OW22819   3.489   6.552   2.634
 7307SOL    HW122820   3.414   6.499   2.595
 7307SOL    HW222821   3.465   6.580   2.727
 7308SOL     OW22822   6.469   1.515   4.685
 7308SOL    HW122823   6.427   1.450   4.747
 7308SOL    HW222824   6.470   1.606   4.727
 7309SOL     OW22825   3.746   5.682   1.491
 7309SOL    HW122826   3.795   5.746   1.550
 7309SOL    HW222827   3.687   5.733   1.428
 7310SOL     OW22828   1.940   3.812   6.958
 7310SOL    HW122829   2.014   3.780   7.017
 7310SOL    HW222830   1.913   3.739   6.896
 7311SOL     OW22831   1.729   2.067   1.396
 7311SOL    HW122832   1.715   2.103   1.304
 7311SOL    HW222833   1.803   2.001   1.395
 7312SOL     OW22834   0.912   2.643   4.726
 7312SOL    HW122835   0.860   2.704   4.666
 7312SOL    HW222836   0.999   2.686   4.750
 7313SOL     OW22837   2.091   1.521   0.336
 7313SOL    HW122838   2.182   1.487   0.358
 7313SOL    HW222839   2.036   1.527   0.420
 7314SOL     OW22840   0.062   3.991   6.437
 7314SOL    HW122841   0.035   3.895   6.434
 7314SOL    HW222842   0.148   4.001   6.487
 7315SOL     OW22843   5.110   5.554   1.674
 7315SOL    HW122844   5.113   5.647   1.638
 7315SOL    HW222845   5.190   5.537   1.731
 7316SOL     OW22846   3.017   3.414   6.473
 7316SOL    HW122847   3.055   3.329   6.512
 7316SOL    HW222848   2.976   3.468   6.547
 7317SOL     OW22849   3.992   1.862   1.454
 7317SOL    HW122850   4.006   1.777   1.505
 7317SOL    HW222851   3.989   1.939   1.517
 7318SOL     OW22852   3.042   0.067   2.280
 7318SOL    HW122853   3.017   0.143   2.220
 7318SOL    HW222854   2.960   0.026   2.318
 7319SOL     OW22855   6.047   3.799   7.005
 7319SOL    HW122856   6.060   3.709   0.025
 7319SOL    HW222857   6.103   3.808   6.923
 7320SOL     OW22858   0.657   3.647   1.534
 7320SOL    HW122859   0.732   3.712   1.521
 7320SOL    HW222860   0.597   3.679   1.607
 7321SOL     OW22861   2.024   6.598   5.825
 7321SOL    HW122862   2.113   6.581   5.782
 7321SOL    HW222863   2.017   6.694   5.851
 7322SOL     OW22864   6.560   2.971   2.735
 7322SOL    HW122865   6.525   3.051   2.686
 7322SOL    HW222866   6.511   2.961   2.821
 7323SOL     OW22867   2.318   3.098   1.691
 7323SOL    HW122868   2.230   3.077   1.649
 7323SOL    HW222869   2.356   3.181   1.649
 7324SOL     OW22870   5.454   5.204   1.651
 7324SOL    HW122871   5.493   5.213   1.743
 7324SOL    HW222872   5.393   5.125   1.648
 7325SOL     OW22873   2.451   0.198   6.371
 7325SOL    HW122874   2.499   0.155   6.295
 7325SOL    HW222875   2.501   0.278   6.402
 7326SOL     OW22876   3.452   6.046   6.238
 7326SOL    HW122877   3.534   6.059   6.294
 7326SOL    HW222878   3.449   5.951   6.205
 7327SOL     OW22879   6.126   2.342   5.258
 7327SOL    HW122880   6.119   2.420   5.320
 7327SOL    HW222881   6.162   2.373   5.170
 7328SOL     OW22882   4.623   6.908   5.996
 7328SOL    HW122883   4.566   6.927   6.076
 7328SOL    HW222884   4.719   6.925   6.019
 7329SOL     OW22885   0.595   4.326   0.564
 7329SOL    HW122886   0.553   4.235   0.555
 7329SOL    HW222887   0.592   4.354   0.660
 7330SOL     OW22888   2.543   3.504   0.433
 7330SOL    HW122889   2.555   3.465   0.525
 7330SOL    HW222890   2.540   3.430   0.366
 7331SOL     OW22891   5.468   6.744   0.612
 7331SOL    HW122892   5.476   6.647   0.638
 7331SOL    HW222893   5.402   6.753   0.537
 7332SOL     OW22894   3.183   5.198   0.186
 7332SOL    HW122895   3.188   5.272   0.119
 7332SOL    HW222896   3.122   5.225   0.261
 7333SOL     OW22897   6.181   3.042   3.147
 7333SOL    HW122898   6.232   3.107   3.090
 7333SOL    HW222899   6.085   3.069   3.151
 7334SOL     OW22900   1.361   6.304   6.177
 7334SOL    HW122901   1.339   6.291   6.081
 7334SOL    HW222902   1.277   6.322   6.228
 7335SOL     OW22903   0.240   3.184   3.290
 7335SOL    HW122904   0.264   3.150   3.381
 7335SOL    HW222905   0.304   3.256   3.264
 7336SOL     OW22906   2.265   6.873   2.241
 7336SOL    HW122907   2.290   6.826   2.325
 7336SOL    HW222908   2.168   6.895   2.242
 7337SOL     OW22909   1.787   2.941   2.036
 7337SOL    HW122910   1.876   2.975   2.065
 7337SOL    HW222911   1.752   2.998   1.961
 7338SOL     OW22912   5.573   1.364   1.817
 7338SOL    HW122913   5.500   1.428   1.793
 7338SOL    HW222914   5.539   1.299   1.886
 7339SOL     OW22915   5.891   0.308   5.109
 7339SOL    HW122916   5.956   0.259   5.051
 7339SOL    HW222917   5.897   0.406   5.090
 7340SOL     OW22918   3.104   1.443   0.361
 7340SOL    HW122919   3.194   1.485   0.374
 7340SOL    HW222920   3.040   1.479   0.429
 7341SOL     OW22921   0.891   4.379   4.678
 7341SOL    HW122922   0.978   4.348   4.639
 7341SOL    HW222923   0.875   4.332   4.765
 7342SOL     OW22924   0.335   6.788   6.175
 7342SOL    HW122925   0.271   6.786   6.251
 7342SOL    HW222926   0.357   6.883   6.152
 7343SOL     OW22927   5.611   4.441   1.642
 7343SOL    HW122928   5.526   4.414   1.687
 7343SOL    HW222929   5.623   4.540   1.652
 7344SOL     OW22930   1.150   0.640   5.842
 7344SOL    HW122931   1.052   0.660   5.842
 7344SOL    HW222932   1.194   0.692   5.915
 7345SOL     OW22933   5.013   5.727   5.262
 7345SOL    HW122934   5.085   5.791   5.236
 7345SOL    HW222935   5.034   5.688   5.352
 7346SOL     OW22936   5.095   3.740   1.802
 7346SOL    HW122937   5.009   3.696   1.779
 7346SOL    HW222938   5.147   3.683   1.866
 7347SOL     OW22939   0.678   2.997   1.354
 7347SOL    HW122940   0.678   2.956   1.263
 7347SOL    HW222941   0.587   3.032   1.376
 7348SOL     OW22942   1.090   3.872   3.434
 7348SOL    HW122943   1.092   3.852   3.336
 7348SOL    HW222944   1.120   3.791   3.486
 7349SOL     OW22945   4.460   2.006   0.425
 7349SOL    HW122946   4.411   2.092   0.410
 7349SOL    HW222947   4.428   1.938   0.359
 7350SOL     OW22948   2.090   2.898   5.572
 7350SOL    HW122949   2.106   2.984   5.523
 7350SOL    HW222950   2.051   2.830   5.510
 7351SOL     OW22951   4.810   5.981   5.352
 7351SOL    HW122952   4.843   6.069   5.316
 7351SOL    HW222953   4.884   5.914   5.349
 7352SOL     OW22954   1.792   3.084   2.965
 7352SOL    HW122955   1.748   3.157   3.017
 7352SOL    HW222956   1.850   3.030   3.025
 7353SOL     OW22957   0.651   0.120   5.772
 7353SOL    HW122958   0.584   0.146   5.842
 7353SOL    HW222959   0.609   0.127   5.681
 7354SOL     OW22960   0.687   1.718   6.543
 7354SOL    HW122961   0.624   1.737   6.619
 7354SOL    HW222962   0.770   1.772   6.555
 7355SOL     OW22963   2.237   1.102   0.363
 7355SOL    HW122964   2.183   1.079   0.444
 7355SOL    HW222965   2.176   1.116   0.285
 7356SOL     OW22966   3.763   3.449   6.020
 7356SOL    HW122967   3.677   3.417   6.061
 7356SOL    HW222968   3.776   3.404   5.932
 7357SOL     OW22969   4.275   6.779   1.623
 7357SOL    HW122970   4.294   6.786   1.721
 7357SOL    HW222971   4.258   6.684   1.599
 7358SOL     OW22972   6.840   3.197   3.166
 7358SOL    HW122973   6.899   3.197   3.085
 7358SOL    HW222974   6.886   3.150   3.241
 7359SOL     OW22975   2.348   2.466   6.383
 7359SOL    HW122976   2.268   2.430   6.336
 7359SOL    HW222977   2.334   2.458   6.482
 7360SOL     OW22978   3.399   4.435   5.917
 7360SOL    HW122979   3.462   4.360   5.939
 7360SOL    HW222980   3.418   4.468   5.825
 7361SOL     OW22981   4.914   0.204   1.615
 7361SOL    HW122982   4.988   0.141   1.639
 7361SOL    HW222983   4.832   0.182   1.669
 7362SOL     OW22984   1.174   5.077   4.325
 7362SOL    HW122985   1.130   5.091   4.414
 7362SOL    HW222986   1.271   5.103   4.332
 7363SOL     OW22987   4.377   1.261   1.045
 7363SOL    HW122988   4.345   1.356   1.052
 7363SOL    HW222989   4.456   1.257   0.983
 7364SOL     OW22990   4.549   0.713   1.264
 7364SOL    HW122991   4.583   0.666   1.182
 7364SOL    HW222992   4.487   0.786   1.237
 7365SOL     OW22993   1.659   0.269   1.442
 7365SOL    HW122994   1.618   0.288   1.352
 7365SOL    HW222995   1.717   0.345   1.470
 7366SOL     OW22996   2.173   5.753   0.103
 7366SOL    HW122997   2.189   5.769   0.006
 7366SOL    HW222998   2.090   5.801   0.131
 7367SOL     OW22999   5.039   3.486   1.151
 7367SOL    HW123000   4.947   3.474   1.188
 7367SOL    HW223001   5.088   3.399   1.153
 7368SOL     OW23002   3.851   2.953   3.309
 7368SOL    HW123003   3.886   3.044   3.330
 7368SOL    HW223004   3.796   2.920   3.386
 7369SOL     OW23005   3.891   2.622   6.808
 7369SOL    HW123006   3.919   2.542   6.862
 7369SOL    HW223007   3.963   2.691   6.812
 7370SOL     OW23008   2.341   0.923   4.819
 7370SOL    HW123009   2.343   0.858   4.743
 7370SOL    HW223010   2.435   0.946   4.846
 7371SOL     OW23011   2.017   6.257   3.698
 7371SOL    HW123012   2.101   6.297   3.736
 7371SOL    HW223013   1.959   6.225   3.773
 7372SOL     OW23014   4.456   1.280   4.943
 7372SOL    HW123015   4.489   1.194   4.982
 7372SOL    HW223016   4.405   1.331   5.013
 7373SOL     OW23017   5.801   1.429   4.494
 7373SOL    HW123018   5.838   1.338   4.514
 7373SOL    HW223019   5.747   1.460   4.573
 7374SOL     OW23020   2.840   1.448   5.316
 7374SOL    HW123021   2.749   1.432   5.354
 7374SOL    HW223022   2.853   1.393   5.233
 7375SOL     OW23023   2.107   3.425   3.306
 7375SOL    HW123024   2.143   3.334   3.327
 7375SOL    HW223025   2.132   3.449   3.212
 7376SOL     OW23026   3.356   2.017   0.130
 7376SOL    HW123027   3.405   2.102   0.153
 7376SOL    HW223028   3.395   1.977   0.047
 7377SOL     OW23029   5.455   4.262   0.543
 7377SOL    HW123030   5.357   4.270   0.565
 7377SOL    HW223031   5.490   4.175   0.577
 7378SOL     OW23032   0.586   0.888   5.805
 7378SOL    HW123033   0.514   0.872   5.872
 7378SOL    HW223034   0.665   0.829   5.826
 7379SOL     OW23035   3.265   2.090   2.944
 7379SOL    HW123036   3.358   2.125   2.934
 7379SOL    HW223037   3.265   1.991   2.935
 7380SOL     OW23038   0.433   3.729   5.071
 7380SOL    HW123039   0.400   3.642   5.036
 7380SOL    HW223040   0.374   3.803   5.037
 7381SOL     OW23041   4.533   3.465   1.688
 7381SOL    HW123042   4.584   3.551   1.695
 7381SOL    HW223043   4.589   3.396   1.643
 7382SOL     OW23044   0.307   5.688   6.337
 7382SOL    HW123045   0.272   5.781   6.348
 7382SOL    HW223046   0.385   5.688   6.275
 7383SOL     OW23047   0.771   6.684   1.091
 7383SOL    HW123048   0.834   6.720   1.160
 7383SOL    HW223049   0.746   6.590   1.115
 7384SOL     OW23050   5.646   0.809   3.567
 7384SOL    HW123051   5.732   0.758   3.571
 7384SOL    HW223052   5.666   0.906   3.550
 7385SOL     OW23053   4.462   5.672   1.898
 7385SOL    HW123054   4.482   5.761   1.937
 7385SOL    HW223055   4.540   5.642   1.843
 7386SOL     OW23056   0.592   2.169   5.718
 7386SOL    HW123057   0.669   2.111   5.745
 7386SOL    HW223058   0.561   2.142   5.627
 7387SOL     OW23059   4.673   6.326   4.389
 7387SOL    HW123060   4.707   6.393   4.324
 7387SOL    HW223061   4.748   6.267   4.419
 7388SOL     OW23062   0.206   5.048   2.485
 7388SOL    HW123063   0.209   5.134   2.535
 7388SOL    HW223064   0.138   4.988   2.527
 7389SOL     OW23065   0.479   3.373   6.127
 7389SOL    HW123066   0.485   3.451   6.065
 7389SOL    HW223067   0.388   3.369   6.168
 7390SOL     OW23068   1.761   2.050   0.273
 7390SOL    HW123069   1.780   2.142   0.305
 7390SOL    HW223070   1.817   1.985   0.325
 7391SOL     OW23071   4.108   3.639   4.710
 7391SOL    HW123072   4.129   3.685   4.624
 7391SOL    HW223073   4.046   3.696   4.764
 7392SOL     OW23074   2.482   6.139   6.948
 7392SOL    HW123075   2.530   6.056   6.920
 7392SOL    HW223076   2.518   6.217   6.896
 7393SOL     OW23077   5.390   4.767   2.587
 7393SOL    HW123078   5.293   4.785   2.572
 7393SOL    HW223079   5.434   4.742   2.501
 7394SOL     OW23080   3.212   1.972   5.493
 7394SOL    HW123081   3.121   1.950   5.528
 7394SOL    HW223082   3.249   2.050   5.545
 7395SOL     OW23083   1.923   2.353   6.911
 7395SOL    HW123084   1.861   2.400   6.973
 7395SOL    HW223085   1.917   2.395   6.820
 7396SOL     OW23086   1.322   6.901   0.317
 7396SOL    HW123087   1.344   6.857   0.404
 7396SOL    HW223088   1.407   6.932   0.274
 7397SOL     OW23089   4.358   5.147   5.043
 7397SOL    HW123090   4.299   5.075   5.078
 7397SOL    HW223091   4.427   5.170   5.112
 7398SOL     OW23092   2.528   4.870   4.340
 7398SOL    HW123093   2.543   4.790   4.398
 7398SOL    HW223094   2.491   4.842   4.252
 7399SOL     OW23095   0.903   2.192   5.674
 7399SOL    HW123096   0.854   2.120   5.624
 7399SOL    HW223097   0.964   2.150   5.741
 7400SOL     OW23098   4.167   2.811   5.762
 7400SOL    HW123099   4.112   2.893   5.749
 7400SOL    HW223100   4.255   2.836   5.803
 7401SOL     OW23101   1.688   0.826   4.617
 7401SOL    HW123102   1.621   0.883   4.568
 7401SOL    HW223103   1.780   0.860   4.598
 7402SOL     OW23104   2.798   5.789   6.174
 7402SOL    HW123105   2.766   5.732   6.250
 7402SOL    HW223106   2.896   5.773   6.160
 7403SOL     OW23107   2.143   3.921   2.409
 7403SOL    HW123108   2.195   3.969   2.481
 7403SOL    HW223109   2.083   3.853   2.451
 7404SOL     OW23110   1.684   5.073   1.044
 7404SOL    HW123111   1.744   5.079   0.965
 7404SOL    HW223112   1.625   5.154   1.048
 7405SOL     OW23113   3.606   5.124   3.984
 7405SOL    HW123114   3.537   5.125   4.056
 7405SOL    HW223115   3.565   5.092   3.899
 7406SOL     OW23116   0.317   3.179   3.551
 7406SOL    HW123117   0.273   3.113   3.612
 7406SOL    HW223118   0.414   3.159   3.544
 7407SOL     OW23119   0.273   6.258   4.323
 7407SOL    HW123120   0.224   6.254   4.410
 7407SOL    HW223121   0.357   6.310   4.334
 7408SOL     OW23122   2.509   4.217   6.500
 7408SOL    HW123123   2.539   4.193   6.593
 7408SOL    HW223124   2.575   4.278   6.458
 7409SOL     OW23125   0.251   1.544   5.949
 7409SOL    HW123126   0.192   1.485   5.894
 7409SOL    HW223127   0.208   1.562   6.037
 7410SOL     OW23128   0.423   6.953   0.678
 7410SOL    HW123129   0.444   6.932   0.773
 7410SOL    HW223130   0.341   6.903   0.650
 7411SOL     OW23131   2.577   0.185   5.073
 7411SOL    HW123132   2.509   0.111   5.072
 7411SOL    HW223133   2.655   0.157   5.128
 7412SOL     OW23134   5.034   0.122   1.892
 7412SOL    HW123135   4.967   0.196   1.896
 7412SOL    HW223136   5.063   0.107   1.798
 7413SOL     OW23137   4.975   5.860   4.311
 7413SOL    HW123138   4.883   5.829   4.287
 7413SOL    HW223139   5.010   5.920   4.239
 7414SOL     OW23140   7.010   0.357   3.542
 7414SOL    HW123141   0.083   0.333   3.518
 7414SOL    HW223142   6.949   0.280   3.519
 7415SOL     OW23143   1.831   4.276   4.437
 7415SOL    HW123144   1.766   4.228   4.379
 7415SOL    HW223145   1.783   4.316   4.515
 7416SOL     OW23146   2.042   1.682   3.493
 7416SOL    HW123147   1.996   1.640   3.415
 7416SOL    HW223148   2.092   1.764   3.464
 7417SOL     OW23149   1.902   0.499   0.139
 7417SOL    HW123150   1.891   0.453   0.051
 7417SOL    HW223151   1.893   0.598   0.126
 7418SOL     OW23152   3.023   5.662   1.251
 7418SOL    HW123153   3.068   5.575   1.235
 7418SOL    HW223154   2.976   5.659   1.340
 7419SOL     OW23155   5.612   2.980   5.133
 7419SOL    HW123156   5.692   2.954   5.187
 7419SOL    HW223157   5.629   2.959   5.036
 7420SOL     OW23158   0.745   6.870   1.573
 7420SOL    HW123159   0.747   6.924   1.489
 7420SOL    HW223160   0.699   6.923   1.644
 7421SOL     OW23161   3.612   4.071   0.745
 7421SOL    HW123162   3.520   4.101   0.720
 7421SOL    HW223163   3.608   3.978   0.781
 7422SOL     OW23164   6.956   3.179   2.934
 7422SOL    HW123165   0.027   3.211   2.908
 7422SOL    HW223166   6.941   3.088   2.895
 7423SOL     OW23167   6.069   3.705   5.706
 7423SOL    HW123168   6.145   3.754   5.663
 7423SOL    HW223169   6.043   3.753   5.790
 7424SOL     OW23170   6.982   6.862   5.743
 7424SOL    HW123171   6.975   6.854   5.843
 7424SOL    HW223172   0.057   6.852   5.715
 7425SOL     OW23173   4.235   5.261   6.706
 7425SOL    HW123174   4.151   5.210   6.726
 7425SOL    HW223175   4.271   5.299   6.791
 7426SOL     OW23176   2.133   1.080   5.564
 7426SOL    HW123177   2.192   1.159   5.545
 7426SOL    HW223178   2.038   1.103   5.544
 7427SOL     OW23179   4.005   0.228   4.002
 7427SOL    HW123180   4.036   0.317   4.035
 7427SOL    HW223181   3.966   0.176   4.078
 7428SOL     OW23182   3.478   1.502   6.094
 7428SOL    HW123183   3.460   1.441   6.017
 7428SOL    HW223184   3.492   1.448   6.177
 7429SOL     OW23185   0.062   6.786   3.889
 7429SOL    HW123186   0.028   6.863   3.943
 7429SOL    HW223187   0.069   6.813   3.793
 7430SOL     OW23188   0.898   2.906   6.970
 7430SOL    HW123189   0.825   2.841   6.991
 7430SOL    HW223190   0.944   2.879   6.886
 7431SOL     OW23191   0.785   2.862   3.008
 7431SOL    HW123192   0.718   2.915   2.955
 7431SOL    HW223193   0.860   2.921   3.036
 7432SOL     OW23194   1.199   0.922   3.188
 7432SOL    HW123195   1.232   0.831   3.162
 7432SOL    HW223196   1.274   0.976   3.226
 7433SOL     OW23197   4.666   5.492   6.226
 7433SOL    HW123198   4.688   5.427   6.153
 7433SOL    HW223199   4.714   5.467   6.310
 7434SOL     OW23200   4.984   6.250   5.985
 7434SOL    HW123201   4.934   6.302   6.053
 7434SOL    HW223202   4.988   6.302   5.899
 7435SOL     OW23203   4.192   5.652   0.719
 7435SOL    HW123204   4.092   5.647   0.712
 7435SOL    HW223205   4.226   5.726   0.661
 7436SOL     OW23206   5.694   3.903   6.370
 7436SOL    HW123207   5.676   3.919   6.467
 7436SOL    HW223208   5.619   3.852   6.329
 7437SOL     OW23209   0.942   6.259   7.005
 7437SOL    HW123210   1.033   6.287   0.014
 7437SOL    HW223211   0.943   6.162   6.981
 7438SOL     OW23212   1.120   5.641   0.173
 7438SOL    HW123213   1.210   5.602   0.194
 7438SOL    HW223214   1.066   5.646   0.257
 7439SOL     OW23215   1.624   5.635   5.431
 7439SOL    HW123216   1.647   5.732   5.422
 7439SOL    HW223217   1.564   5.622   5.510
 7440SOL     OW23218   0.109   3.902   4.527
 7440SOL    HW123219   0.090   3.854   4.441
 7440SOL    HW223220   0.094   3.840   4.604
 7441SOL     OW23221   5.465   6.169   3.837
 7441SOL    HW123222   5.401   6.124   3.899
 7441SOL    HW223223   5.414   6.212   3.762
 7442SOL     OW23224   6.277   1.078   5.782
 7442SOL    HW123225   6.212   1.123   5.843
 7442SOL    HW223226   6.344   1.027   5.837
 7443SOL     OW23227   7.017   0.161   1.948
 7443SOL    HW123228   6.969   0.151   2.034
 7443SOL    HW223229   0.019   0.258   1.933
 7444SOL     OW23230   6.166   2.862   5.791
 7444SOL    HW123231   6.075   2.849   5.832
 7444SOL    HW223232   6.198   2.775   5.753
 7445SOL     OW23233   3.717   1.381   1.410
 7445SOL    HW123234   3.717   1.408   1.506
 7445SOL    HW223235   3.667   1.295   1.399
 7446SOL     OW23236   5.794   3.369   1.104
 7446SOL    HW123237   5.813   3.315   1.185
 7446SOL    HW223238   5.787   3.309   1.024
 7447SOL     OW23239   0.866   3.280   6.385
 7447SOL    HW123240   0.836   3.371   6.355
 7447SOL    HW223241   0.789   3.230   6.423
 7448SOL     OW23242   6.884   6.170   5.573
 7448SOL    HW123243   6.895   6.120   5.488
 7448SOL    HW223244   6.882   6.106   5.650
 7449SOL     OW23245   6.452   3.550   1.730
 7449SOL    HW123246   6.389   3.495   1.784
 7449SOL    HW223247   6.492   3.621   1.788
 7450SOL     OW23248   5.144   2.057   4.490
 7450SOL    HW123249   5.059   2.087   4.448
 7450SOL    HW223250   5.219   2.065   4.424
 7451SOL     OW23251   7.018   0.368   3.056
 7451SOL    HW123252   0.069   0.340   3.119
 7451SOL    HW223253   0.027   0.350   2.962
 7452SOL     OW23254   0.718   6.035   4.710
 7452SOL    HW123255   0.751   6.115   4.660
 7452SOL    HW223256   0.723   6.053   4.808
 7453SOL     OW23257   4.722   6.922   5.728
 7453SOL    HW123258   4.658   6.916   5.805
 7453SOL    HW223259   4.673   6.903   5.642
 7454SOL     OW23260   0.441   2.381   2.770
 7454SOL    HW123261   0.523   2.431   2.799
 7454SOL    HW223262   0.444   2.370   2.670
 7455SOL     OW23263   0.031   1.607   2.296
 7455SOL    HW123264   0.085   1.616   2.213
 7455SOL    HW223265   0.086   1.632   2.375
 7456SOL     OW23266   1.054   1.255   4.243
 7456SOL    HW123267   1.096   1.261   4.152
 7456SOL    HW223268   0.960   1.291   4.238
 7457SOL     OW23269   3.828   0.225   5.748
 7457SOL    HW123270   3.898   0.241   5.819
 7457SOL    HW223271   3.747   0.184   5.789
 7458SOL     OW23272   1.820   6.462   6.010
 7458SOL    HW123273   1.795   6.384   5.954
 7458SOL    HW223274   1.903   6.504   5.974
 7459SOL     OW23275   4.528   0.486   1.883
 7459SOL    HW123276   4.531   0.586   1.882
 7459SOL    HW223277   4.482   0.455   1.966
 7460SOL     OW23278   0.935   5.352   0.700
 7460SOL    HW123279   0.945   5.442   0.743
 7460SOL    HW223280   0.963   5.358   0.604
 7461SOL     OW23281   5.749   1.295   5.924
 7461SOL    HW123282   5.775   1.374   5.979
 7461SOL    HW223283   5.656   1.308   5.889
 7462SOL     OW23284   1.986   3.917   2.676
 7462SOL    HW123285   1.935   3.995   2.710
 7462SOL    HW223286   1.924   3.839   2.663
 7463SOL     OW23287   2.220   4.456   1.023
 7463SOL    HW123288   2.123   4.430   1.024
 7463SOL    HW223289   2.240   4.508   0.940
 7464SOL     OW23290   4.769   0.288   6.757
 7464SOL    HW123291   4.684   0.262   6.803
 7464SOL    HW223292   4.799   0.378   6.790
 7465SOL     OW23293   0.559   5.528   0.334
 7465SOL    HW123294   0.515   5.549   0.246
 7465SOL    HW223295   0.622   5.452   0.322
 7466SOL     OW23296   0.002   0.624   5.565
 7466SOL    HW123297   0.062   0.639   5.486
 7466SOL    HW223298   7.016   0.708   5.618
 7467SOL     OW23299   0.235   1.981   1.062
 7467SOL    HW123300   0.274   1.917   0.997
 7467SOL    HW223301   0.190   2.056   1.013
 7468SOL     OW23302   5.571   2.658   3.756
 7468SOL    HW123303   5.611   2.687   3.669
 7468SOL    HW223304   5.642   2.625   3.817
 7469SOL     OW23305   0.010   1.154   0.763
 7469SOL    HW123306   0.035   1.125   0.671
 7469SOL    HW223307   6.943   1.202   0.761
 7470SOL     OW23308   6.660   3.667   4.006
 7470SOL    HW123309   6.574   3.695   3.963
 7470SOL    HW223310   6.643   3.589   4.066
 7471SOL     OW23311   6.761   5.777   6.070
 7471SOL    HW123312   6.833   5.783   6.000
 7471SOL    HW223313   6.672   5.769   6.026
 7472SOL     OW23314   6.434   6.823   5.027
 7472SOL    HW123315   6.534   6.831   5.020
 7472SOL    HW223316   6.391   6.872   4.951
 7473SOL     OW23317   6.187   5.047   3.107
 7473SOL    HW123318   6.215   4.951   3.102
 7473SOL    HW223319   6.218   5.087   3.193
 7474SOL     OW23320   1.435   1.390   5.514
 7474SOL    HW123321   1.508   1.437   5.564
 7474SOL    HW223322   1.403   1.312   5.568
 7475SOL     OW23323   4.903   1.861   1.990
 7475SOL    HW123324   4.813   1.901   2.008
 7475SOL    HW223325   4.894   1.764   1.970
 7476SOL     OW23326   3.291   6.611   4.018
 7476SOL    HW123327   3.265   6.642   3.927
 7476SOL    HW223328   3.280   6.512   4.025
 7477SOL     OW23329   0.458   0.832   4.988
 7477SOL    HW123330   0.505   0.753   5.027
 7477SOL    HW223331   0.408   0.880   5.060
 7478SOL     OW23332   5.043   5.444   6.432
 7478SOL    HW123333   5.046   5.489   6.522
 7478SOL    HW223334   5.090   5.502   6.365
 7479SOL     OW23335   4.520   2.171   1.812
 7479SOL    HW123336   4.522   2.119   1.897
 7479SOL    HW223337   4.529   2.269   1.833
 7480SOL     OW23338   0.463   4.079   1.877
 7480SOL    HW123339   0.396   4.153   1.879
 7480SOL    HW223340   0.468   4.036   1.967
 7481SOL     OW23341   5.955   4.974   1.268
 7481SOL    HW123342   5.942   4.993   1.171
 7481SOL    HW223343   5.932   5.055   1.322
 7482SOL     OW23344   4.580   2.240   2.915
 7482SOL    HW123345   4.630   2.175   2.857
 7482SOL    HW223346   4.602   2.222   3.011
 7483SOL     OW23347   4.506   2.563   4.793
 7483SOL    HW123348   4.568   2.641   4.798
 7483SOL    HW223349   4.484   2.531   4.885
 7484SOL     OW23350   1.773   0.682   3.644
 7484SOL    HW123351   1.784   0.756   3.711
 7484SOL    HW223352   1.835   0.698   3.567
 7485SOL     OW23353   4.087   0.133   4.739
 7485SOL    HW123354   4.048   0.041   4.750
 7485SOL    HW223355   4.110   0.148   4.643
 7486SOL     OW23356   2.089   0.131   0.825
 7486SOL    HW123357   2.077   0.170   0.733
 7486SOL    HW223358   2.020   0.170   0.886
 7487SOL     OW23359   2.380   6.403   2.755
 7487SOL    HW123360   2.406   6.348   2.677
 7487SOL    HW223361   2.321   6.350   2.816
 7488SOL     OW23362   2.346   6.862   3.781
 7488SOL    HW123363   2.274   6.930   3.788
 7488SOL    HW223364   2.357   6.816   3.869
 7489SOL     OW23365   4.975   2.462   5.270
 7489SOL    HW123366   4.946   2.445   5.176
 7489SOL    HW223367   5.052   2.401   5.292
 7490SOL     OW23368   1.215   0.893   2.122
 7490SOL    HW123369   1.138   0.830   2.122
 7490SOL    HW223370   1.288   0.856   2.180
 7491SOL     OW23371   5.554   2.163   6.003
 7491SOL    HW123372   5.506   2.205   6.080
 7491SOL    HW223373   5.569   2.231   5.932
 7492SOL     OW23374   2.222   0.606   2.862
 7492SOL    HW123375   2.270   0.693   2.871
 7492SOL    HW223376   2.258   0.541   2.929
 7493SOL     OW23377   0.418   3.788   6.499
 7493SOL    HW123378   0.482   3.861   6.521
 7493SOL    HW223379   0.405   3.783   6.400
 7494SOL     OW23380   4.678   1.172   2.791
 7494SOL    HW123381   4.646   1.095   2.847
 7494SOL    HW223382   4.607   1.197   2.725
 7495SOL     OW23383   2.132   1.474   0.062
 7495SOL    HW123384   2.119   1.504   0.157
 7495SOL    HW223385   2.206   1.407   0.058
 7496SOL     OW23386   5.892   3.420   6.038
 7496SOL    HW123387   5.944   3.409   5.954
 7496SOL    HW223388   5.913   3.345   6.100
 7497SOL     OW23389   2.106   4.307   0.024
 7497SOL    HW123390   2.191   4.332   6.998
 7497SOL    HW223391   2.029   4.325   6.984
 7498SOL     OW23392   2.825   0.615   5.649
 7498SOL    HW123393   2.754   0.548   5.629
 7498SOL    HW223394   2.885   0.623   5.569
 7499SOL     OW23395   3.305   1.693   3.126
 7499SOL    HW123396   3.210   1.665   3.113
 7499SOL    HW223397   3.356   1.618   3.168
 7500SOL     OW23398   3.049   5.303   2.931
 7500SOL    HW123399   3.112   5.300   2.854
 7500SOL    HW223400   3.075   5.233   2.998
 7501SOL     OW23401   5.456   4.071   4.619
 7501SOL    HW123402   5.446   4.168   4.641
 7501SOL    HW223403   5.428   4.056   4.524
 7502SOL     OW23404   1.591   0.647   3.839
 7502SOL    HW123405   1.672   0.634   3.782
 7502SOL    HW223406   1.562   0.559   3.876
 7503SOL     OW23407   2.443   0.814   1.333
 7503SOL    HW123408   2.534   0.823   1.375
 7503SOL    HW223409   2.450   0.826   1.234
 7504SOL     OW23410   1.520   0.249   2.825
 7504SOL    HW123411   1.606   0.216   2.865
 7504SOL    HW223412   1.444   0.222   2.884
 7505SOL     OW23413   2.168   1.399   5.284
 7505SOL    HW123414   2.225   1.478   5.263
 7505SOL    HW223415   2.072   1.427   5.291
 7506SOL     OW23416   5.698   0.609   3.086
 7506SOL    HW123417   5.625   0.639   3.023
 7506SOL    HW223418   5.729   0.687   3.140
 7507SOL     OW23419   0.437   1.126   2.478
 7507SOL    HW123420   0.521   1.077   2.453
 7507SOL    HW223421   0.386   1.074   2.546
 7508SOL     OW23422   1.157   0.085   1.466
 7508SOL    HW123423   1.127   0.019   1.535
 7508SOL    HW223424   1.175   0.037   1.380
 7509SOL     OW23425   5.095   4.340   0.535
 7509SOL    HW123426   5.092   4.304   0.628
 7509SOL    HW223427   5.113   4.265   0.471
 7510SOL     OW23428   3.900   3.985   5.516
 7510SOL    HW123429   3.965   3.915   5.487
 7510SOL    HW223430   3.933   4.075   5.488
 7511SOL     OW23431   2.672   6.919   3.791
 7511SOL    HW123432   2.703   6.880   3.705
 7511SOL    HW223433   2.579   6.954   3.782
 7512SOL     OW23434   2.939   6.364   6.462
 7512SOL    HW123435   3.005   6.289   6.458
 7512SOL    HW223436   2.943   6.417   6.377
 7513SOL     OW23437   2.658   0.923   1.573
 7513SOL    HW123438   2.732   0.955   1.513
 7513SOL    HW223439   2.685   0.936   1.669
 7514SOL     OW23440   2.595   6.070   1.793
 7514SOL    HW123441   2.544   6.003   1.739
 7514SOL    HW223442   2.534   6.110   1.862
 7515SOL     OW23443   6.915   5.092   2.866
 7515SOL    HW123444   6.967   5.131   2.942
 7515SOL    HW223445   6.855   5.163   2.827
 7516SOL     OW23446   6.797   6.689   5.281
 7516SOL    HW123447   6.806   6.787   5.261
 7516SOL    HW223448   6.750   6.678   5.369
 7517SOL     OW23449   0.290   2.767   0.863
 7517SOL    HW123450   0.261   2.671   0.859
 7517SOL    HW223451   0.256   2.808   0.948
 7518SOL     OW23452   3.961   4.810   4.084
 7518SOL    HW123453   4.039   4.790   4.143
 7518SOL    HW223454   3.952   4.737   4.015
 7519SOL     OW23455   0.493   6.705   3.144
 7519SOL    HW123456   0.496   6.752   3.232
 7519SOL    HW223457   0.567   6.638   3.139
 7520SOL     OW23458   2.268   0.134   2.228
 7520SOL    HW123459   2.292   0.038   2.212
 7520SOL    HW223460   2.309   0.165   2.314
 7521SOL     OW23461   4.893   4.259   6.092
 7521SOL    HW123462   4.836   4.232   6.015
 7521SOL    HW223463   4.838   4.258   6.176
 7522SOL     OW23464   1.687   0.709   6.263
 7522SOL    HW123465   1.757   0.771   6.225
 7522SOL    HW223466   1.604   0.761   6.280
 7523SOL     OW23467   5.885   0.441   5.633
 7523SOL    HW123468   5.815   0.504   5.599
 7523SOL    HW223469   5.949   0.491   5.690
 7524SOL     OW23470   1.388   2.050   5.420
 7524SOL    HW123471   1.323   1.984   5.458
 7524SOL    HW223472   1.465   2.002   5.379
 7525SOL     OW23473   3.129   0.554   6.360
 7525SOL    HW123474   3.067   0.516   6.428
 7525SOL    HW223475   3.077   0.577   6.278
 7526SOL     OW23476   2.866   3.226   1.985
 7526SOL    HW123477   2.861   3.256   2.080
 7526SOL    HW223478   2.950   3.175   1.970
 7527SOL     OW23479   3.131   6.003   3.180
 7527SOL    HW123480   3.133   5.909   3.212
 7527SOL    HW223481   3.191   6.013   3.100
 7528SOL     OW23482   5.637   1.979   0.121
 7528SOL    HW123483   5.579   2.019   0.192
 7528SOL    HW223484   5.699   1.912   0.162
 7529SOL     OW23485   4.971   1.136   4.502
 7529SOL    HW123486   5.039   1.158   4.572
 7529SOL    HW223487   4.905   1.070   4.539
 7530SOL     OW23488   6.938   2.901   2.907
 7530SOL    HW123489   6.884   2.891   2.991
 7530SOL    HW223490   6.887   2.860   2.831
 7531SOL     OW23491   5.201   3.135   4.529
 7531SOL    HW123492   5.253   3.219   4.542
 7531SOL    HW223493   5.123   3.134   4.591
 7532SOL     OW23494   5.155   5.617   6.905
 7532SOL    HW123495   5.226   5.680   6.936
 7532SOL    HW223496   5.197   5.531   6.875
 7533SOL     OW23497   2.597   1.560   1.886
 7533SOL    HW123498   2.685   1.564   1.838
 7533SOL    HW223499   2.536   1.499   1.838
 7534SOL     OW23500   4.591   6.064   5.506
 7534SOL    HW123501   4.681   6.052   5.463
 7534SOL    HW223502   4.581   6.159   5.537
 7535SOL     OW23503   1.749   0.345   4.721
 7535SOL    HW123504   1.770   0.356   4.818
 7535SOL    HW223505   1.786   0.423   4.670
 7536SOL     OW23506   4.507   4.449   4.755
 7536SOL    HW123507   4.445   4.498   4.816
 7536SOL    HW223508   4.528   4.505   4.676
 7537SOL     OW23509   3.033   5.918   2.457
 7537SOL    HW123510   2.957   5.853   2.465
 7537SOL    HW223511   3.001   6.002   2.414
 7538SOL     OW23512   2.165   3.579   1.365
 7538SOL    HW123513   2.207   3.533   1.287
 7538SOL    HW223514   2.227   3.649   1.400
 7539SOL     OW23515   1.398   3.813   4.318
 7539SOL    HW123516   1.486   3.840   4.357
 7539SOL    HW223517   1.406   3.807   4.218
 7540SOL     OW23518   4.030   0.245   4.426
 7540SOL    HW123519   4.078   0.328   4.400
 7540SOL    HW223520   3.943   0.269   4.471
 7541SOL     OW23521   0.341   4.704   5.054
 7541SOL    HW123522   0.280   4.627   5.068
 7541SOL    HW223523   0.390   4.724   5.139
 7542SOL     OW23524   1.073   5.035   6.536
 7542SOL    HW123525   0.998   5.098   6.559
 7542SOL    HW223526   1.034   4.951   6.499
 7543SOL     OW23527   3.661   2.027   6.609
 7543SOL    HW123528   3.642   2.121   6.578
 7543SOL    HW223529   3.632   1.963   6.538
 7544SOL     OW23530   6.712   2.616   2.976
 7544SOL    HW123531   6.722   2.715   2.964
 7544SOL    HW223532   6.795   2.580   3.018
 7545SOL     OW23533   0.277   5.761   1.026
 7545SOL    HW123534   0.227   5.724   0.947
 7545SOL    HW223535   0.369   5.786   0.998
 7546SOL     OW23536   3.427   2.161   1.801
 7546SOL    HW123537   3.430   2.085   1.866
 7546SOL    HW223538   3.494   2.230   1.829
 7547SOL     OW23539   5.354   1.073   0.960
 7547SOL    HW123540   5.382   1.084   1.055
 7547SOL    HW223541   5.370   0.979   0.931
 7548SOL     OW23542   4.262   1.179   0.097
 7548SOL    HW123543   4.331   1.230   0.045
 7548SOL    HW223544   4.174   1.227   0.093
 7549SOL     OW23545   4.585   2.632   0.746
 7549SOL    HW123546   4.647   2.709   0.731
 7549SOL    HW223547   4.637   2.547   0.742
 7550SOL     OW23548   2.514   4.981   2.407
 7550SOL    HW123549   2.520   4.942   2.315
 7550SOL    HW223550   2.493   5.078   2.401
 7551SOL     OW23551   5.728   3.599   6.337
 7551SOL    HW123552   5.787   3.677   6.316
 7551SOL    HW223553   5.697   3.557   6.252
 7552SOL     OW23554   1.498   6.491   2.464
 7552SOL    HW123555   1.551   6.407   2.453
 7552SOL    HW223556   1.403   6.474   2.438
 7553SOL     OW23557   4.430   6.214   5.763
 7553SOL    HW123558   4.491   6.175   5.832
 7553SOL    HW223559   4.482   6.238   5.681
 7554SOL     OW23560   4.755   1.263   0.415
 7554SOL    HW123561   4.685   1.219   0.471
 7554SOL    HW223562   4.832   1.290   0.472
 7555SOL     OW23563   2.327   4.602   5.892
 7555SOL    HW123564   2.322   4.632   5.987
 7555SOL    HW223565   2.421   4.609   5.860
 7556SOL     OW23566   2.111   3.170   0.174
 7556SOL    HW123567   2.081   3.131   0.087
 7556SOL    HW223568   2.202   3.211   0.164
 7557SOL     OW23569   5.193   0.782   5.249
 7557SOL    HW123570   5.142   0.697   5.237
 7557SOL    HW223571   5.140   0.858   5.211
 7558SOL     OW23572   1.260   2.775   4.014
 7558SOL    HW123573   1.246   2.758   3.917
 7558SOL    HW223574   1.202   2.850   4.044
 7559SOL     OW23575   4.927   3.562   7.020
 7559SOL    HW123576   4.868   3.556   6.939
 7559SOL    HW223577   5.004   3.500   7.009
 7560SOL     OW23578   5.369   0.220   0.904
 7560SOL    HW123579   5.310   0.253   0.977
 7560SOL    HW223580   5.424   0.295   0.868
 7561SOL     OW23581   0.866   3.545   6.907
 7561SOL    HW123582   0.815   3.463   6.933
 7561SOL    HW223583   0.868   3.609   6.984
 7562SOL     OW23584   0.262   6.676   4.034
 7562SOL    HW123585   0.180   6.721   3.998
 7562SOL    HW223586   0.255   6.577   4.022
 7563SOL     OW23587   3.166   0.394   1.216
 7563SOL    HW123588   3.124   0.435   1.135
 7563SOL    HW223589   3.242   0.336   1.188
 7564SOL     OW23590   4.835   0.211   3.075
 7564SOL    HW123591   4.857   0.149   2.999
 7564SOL    HW223592   4.864   0.169   3.161
 7565SOL     OW23593   5.164   3.356   0.358
 7565SOL    HW123594   5.168   3.389   0.452
 7565SOL    HW223595   5.072   3.369   0.322
 7566SOL     OW23596   6.027   4.690   2.807
 7566SOL    HW123597   6.034   4.603   2.758
 7566SOL    HW223598   5.949   4.687   2.869
 7567SOL     OW23599   2.118   2.100   4.604
 7567SOL    HW123600   2.122   2.192   4.643
 7567SOL    HW223601   2.101   2.107   4.505
 7568SOL     OW23602   5.365   6.020   2.981
 7568SOL    HW123603   5.323   5.993   3.068
 7568SOL    HW223604   5.411   5.942   2.940
 7569SOL     OW23605   3.726   5.023   6.240
 7569SOL    HW123606   3.818   4.986   6.251
 7569SOL    HW223607   3.729   5.123   6.245
 7570SOL     OW23608   5.483   3.473   5.393
 7570SOL    HW123609   5.447   3.379   5.397
 7570SOL    HW223610   5.554   3.479   5.324
 7571SOL     OW23611   4.063   5.103   3.437
 7571SOL    HW123612   4.104   5.152   3.360
 7571SOL    HW223613   4.103   5.012   3.444
 7572SOL     OW23614   4.689   1.017   1.290
 7572SOL    HW123615   4.696   0.918   1.282
 7572SOL    HW223616   4.605   1.041   1.339
 7573SOL     OW23617   0.296   0.430   5.197
 7573SOL    HW123618   0.315   0.403   5.291
 7573SOL    HW223619   0.379   0.423   5.142
 7574SOL     OW23620   4.918   0.214   5.399
 7574SOL    HW123621   4.846   0.284   5.402
 7574SOL    HW223622   5.006   0.259   5.388
 7575SOL     OW23623   5.114   0.242   6.141
 7575SOL    HW123624   5.170   0.294   6.078
 7575SOL    HW223625   5.018   0.249   6.114
 7576SOL     OW23626   4.611   4.377   6.857
 7576SOL    HW123627   4.594   4.423   6.944
 7576SOL    HW223628   4.629   4.280   6.873
 7577SOL     OW23629   0.726   6.843   0.041
 7577SOL    HW123630   0.806   6.806   7.014
 7577SOL    HW223631   0.717   6.800   0.131
 7578SOL     OW23632   1.902   5.204   1.583
 7578SOL    HW123633   1.916   5.141   1.660
 7578SOL    HW223634   1.805   5.211   1.562
 7579SOL     OW23635   0.383   1.162   1.957
 7579SOL    HW123636   0.392   1.109   2.041
 7579SOL    HW223637   0.378   1.100   1.878
 7580SOL     OW23638   0.482   3.882   4.196
 7580SOL    HW123639   0.536   3.799   4.185
 7580SOL    HW223640   0.441   3.884   4.287
 7581SOL     OW23641   0.017   1.166   1.214
 7581SOL    HW123642   0.077   1.087   1.221
 7581SOL    HW223643   6.964   1.159   1.282
 7582SOL     OW23644   4.062   1.172   1.893
 7582SOL    HW123645   4.135   1.239   1.877
 7582SOL    HW223646   3.973   1.218   1.892
 7583SOL     OW23647   6.124   3.511   2.103
 7583SOL    HW123648   6.031   3.478   2.092
 7583SOL    HW223649   6.143   3.527   2.200
 7584SOL     OW23650   3.299   0.024   1.364
 7584SOL    HW123651   3.210   7.001   1.376
 7584SOL    HW223652   3.371   6.975   1.366
 7585SOL     OW23653   1.727   2.987   6.676
 7585SOL    HW123654   1.667   2.922   6.629
 7585SOL    HW223655   1.821   2.975   6.645
 7586SOL     OW23656   2.615   0.255   3.540
 7586SOL    HW123657   2.627   0.244   3.638
 7586SOL    HW223658   2.690   0.311   3.503
 7587SOL     OW23659   2.372   2.816   0.079
 7587SOL    HW123660   2.377   2.740   0.014
 7587SOL    HW223661   2.399   2.783   0.170
 7588SOL     OW23662   1.718   2.918   3.334
 7588SOL    HW123663   1.635   2.916   3.279
 7588SOL    HW223664   1.705   2.864   3.417
 7589SOL     OW23665   0.832   0.676   2.618
 7589SOL    HW123666   0.798   0.598   2.670
 7589SOL    HW223667   0.825   0.759   2.674
 7590SOL     OW23668   3.777   1.501   5.980
 7590SOL    HW123669   3.697   1.485   6.038
 7590SOL    HW223670   3.817   1.413   5.953
 7591SOL     OW23671   0.107   3.485   0.825
 7591SOL    HW123672   0.013   3.483   0.791
 7591SOL    HW223673   0.156   3.404   0.793
 7592SOL     OW23674   6.494   4.915   4.705
 7592SOL    HW123675   6.580   4.965   4.707
 7592SOL    HW223676   6.443   4.931   4.789
 7593SOL     OW23677   6.141   3.250   0.885
 7593SOL    HW123678   6.120   3.334   0.835
 7593SOL    HW223679   6.057   3.212   0.922
 7594SOL     OW23680   1.282   5.225   2.463
 7594SOL    HW123681   1.204   5.164   2.459
 7594SOL    HW223682   1.360   5.177   2.505
 7595SOL     OW23683   6.329   2.801   6.161
 7595SOL    HW123684   6.305   2.884   6.110
 7595SOL    HW223685   6.411   2.760   6.120
 7596SOL     OW23686   3.762   5.374   3.892
 7596SOL    HW123687   3.843   5.379   3.951
 7596SOL    HW223688   3.709   5.292   3.914
 7597SOL     OW23689   2.433   6.215   2.578
 7597SOL    HW123690   2.444   6.119   2.551
 7597SOL    HW223691   2.499   6.271   2.528
 7598SOL     OW23692   6.997   1.200   3.343
 7598SOL    HW123693   0.032   1.122   3.372
 7598SOL    HW223694   6.944   1.175   3.262
 7599SOL     OW23695   5.542   2.264   2.149
 7599SOL    HW123696   5.466   2.292   2.207
 7599SOL    HW223697   5.619   2.236   2.207
 7600SOL     OW23698   1.472   1.794   2.994
 7600SOL    HW123699   1.542   1.830   3.056
 7600SOL    HW223700   1.457   1.858   2.919
 7601SOL     OW23701   2.196   5.462   2.594
 7601SOL    HW123702   2.243   5.551   2.599
 7601SOL    HW223703   2.098   5.476   2.606
 7602SOL     OW23704   2.114   3.955   6.414
 7602SOL    HW123705   2.039   3.988   6.357
 7602SOL    HW223706   2.077   3.908   6.494
 7603SOL     OW23707   1.414   6.097   6.361
 7603SOL    HW123708   1.415   6.174   6.298
 7603SOL    HW223709   1.379   6.126   6.450
 7604SOL     OW23710   2.143   3.789   4.565
 7604SOL    HW123711   2.125   3.780   4.467
 7604SOL    HW223712   2.242   3.785   4.581
 7605SOL     OW23713   1.336   0.547   1.324
 7605SOL    HW123714   1.271   0.563   1.399
 7605SOL    HW223715   1.337   0.449   1.303
 7606SOL     OW23716   5.916   4.171   5.103
 7606SOL    HW123717   5.872   4.258   5.080
 7606SOL    HW223718   5.897   4.104   5.032
 7607SOL     OW23719   3.311   5.496   0.297
 7607SOL    HW123720   3.267   5.578   0.336
 7607SOL    HW223721   3.303   5.421   0.362
 7608SOL     OW23722   4.124   3.867   1.882
 7608SOL    HW123723   4.084   3.780   1.855
 7608SOL    HW223724   4.151   3.918   1.801
 7609SOL     OW23725   1.244   3.333   4.457
 7609SOL    HW123726   1.319   3.392   4.489
 7609SOL    HW223727   1.275   3.280   4.378
 7610SOL     OW23728   4.662   4.899   6.155
 7610SOL    HW123729   4.613   4.883   6.240
 7610SOL    HW223730   4.733   4.968   6.170
 7611SOL     OW23731   6.217   3.447   1.852
 7611SOL    HW123732   6.201   3.477   1.947
 7611SOL    HW223733   6.147   3.381   1.826
 7612SOL     OW23734   4.724   2.865   3.089
 7612SOL    HW123735   4.801   2.916   3.051
 7612SOL    HW223736   4.710   2.781   3.037
 7613SOL     OW23737   6.554   2.970   1.129
 7613SOL    HW123738   6.636   2.914   1.130
 7613SOL    HW223739   6.535   3.002   1.036
 7614SOL     OW23740   4.886   3.247   0.442
 7614SOL    HW123741   4.886   3.337   0.398
 7614SOL    HW223742   4.857   3.256   0.537
 7615SOL     OW23743   3.921   5.654   0.727
 7615SOL    HW123744   3.870   5.620   0.649
 7615SOL    HW223745   3.914   5.590   0.803
 7616SOL     OW23746   5.648   6.112   4.671
 7616SOL    HW123747   5.571   6.165   4.637
 7616SOL    HW223748   5.734   6.153   4.638
 7617SOL     OW23749   4.019   5.682   2.444
 7617SOL    HW123750   4.078   5.715   2.518
 7617SOL    HW223751   4.062   5.704   2.356
 7618SOL     OW23752   7.001   1.224   5.431
 7618SOL    HW123753   6.982   1.200   5.527
 7618SOL    HW223754   6.986   1.144   5.373
 7619SOL     OW23755   5.837   2.688   5.424
 7619SOL    HW123756   5.807   2.635   5.346
 7619SOL    HW223757   5.758   2.720   5.476
 7620SOL     OW23758   4.140   5.885   0.965
 7620SOL    HW123759   4.054   5.889   0.915
 7620SOL    HW223760   4.202   5.821   0.920
 7621SOL     OW23761   6.778   1.443   1.218
 7621SOL    HW123762   6.789   1.369   1.286
 7621SOL    HW223763   6.866   1.463   1.176
 7622SOL     OW23764   4.546   5.068   6.919
 7622SOL    HW123765   4.571   5.136   6.988
 7622SOL    HW223766   4.494   4.995   6.963
 7623SOL     OW23767   4.511   4.295   0.236
 7623SOL    HW123768   4.418   4.260   0.244
 7623SOL    HW223769   4.535   4.345   0.319
 7624SOL     OW23770   7.009   3.228   4.940
 7624SOL    HW123771   6.933   3.234   5.005
 7624SOL    HW223772   0.000   3.315   4.893
 7625SOL     OW23773   4.456   0.308   1.686
 7625SOL    HW123774   4.364   0.338   1.660
 7625SOL    HW223775   4.497   0.375   1.748
 7626SOL     OW23776   5.868   0.388   4.342
 7626SOL    HW123777   5.795   0.449   4.373
 7626SOL    HW223778   5.829   0.305   4.303
 7627SOL     OW23779   4.735   3.161   6.769
 7627SOL    HW123780   4.702   3.204   6.686
 7627SOL    HW223781   4.802   3.220   6.813
 7628SOL     OW23782   3.487   2.031   2.091
 7628SOL    HW123783   3.568   2.083   2.065
 7628SOL    HW223784   3.445   2.072   2.172
 7629SOL     OW23785   6.957   6.380   3.074
 7629SOL    HW123786   6.969   6.284   3.100
 7629SOL    HW223787   6.980   6.391   2.977
 7630SOL     OW23788   0.155   6.865   1.357
 7630SOL    HW123789   0.118   6.956   1.340
 7630SOL    HW223790   0.188   6.825   1.272
 7631SOL     OW23791   0.975   1.051   5.923
 7631SOL    HW123792   0.911   1.125   5.903
 7631SOL    HW223793   0.983   0.991   5.842
 7632SOL     OW23794   4.231   3.381   1.411
 7632SOL    HW123795   4.214   3.374   1.510
 7632SOL    HW223796   4.160   3.436   1.369
 7633SOL     OW23797   5.210   0.723   1.004
 7633SOL    HW123798   5.263   0.667   1.068
 7633SOL    HW223799   5.113   0.721   1.029
 7634SOL     OW23800   1.811   1.835   2.548
 7634SOL    HW123801   1.868   1.800   2.473
 7634SOL    HW223802   1.860   1.909   2.595
 7635SOL     OW23803   3.048   5.125   5.025
 7635SOL    HW123804   3.028   5.170   5.112
 7635SOL    HW223805   3.069   5.028   5.042
 7636SOL     OW23806   1.506   2.856   3.920
 7636SOL    HW123807   1.426   2.833   3.975
 7636SOL    HW223808   1.589   2.847   3.975
 7637SOL     OW23809   1.787   5.170   2.354
 7637SOL    HW123810   1.850   5.101   2.391
 7637SOL    HW223811   1.777   5.155   2.256
 7638SOL     OW23812   2.549   6.123   1.254
 7638SOL    HW123813   2.572   6.032   1.219
 7638SOL    HW223814   2.590   6.193   1.195
 7639SOL     OW23815   0.970   2.153   0.568
 7639SOL    HW123816   1.068   2.174   0.573
 7639SOL    HW223817   0.930   2.198   0.488
 7640SOL     OW23818   2.427   0.962   6.002
 7640SOL    HW123819   2.398   0.958   5.906
 7640SOL    HW223820   2.447   0.870   6.035
 7641SOL     OW23821   1.490   3.891   2.532
 7641SOL    HW123822   1.405   3.883   2.480
 7641SOL    HW223823   1.470   3.929   2.622
 7642SOL     OW23824   3.476   1.495   2.971
 7642SOL    HW123825   3.483   1.529   3.064
 7642SOL    HW223826   3.567   1.494   2.929
 7643SOL     OW23827   4.374   2.473   3.242
 7643SOL    HW123828   4.307   2.406   3.211
 7643SOL    HW223829   4.405   2.527   3.165
 7644SOL     OW23830   5.800   1.577   1.869
 7644SOL    HW123831   5.726   1.521   1.831
 7644SOL    HW223832   5.762   1.660   1.909
 7645SOL     OW23833   4.659   3.620   5.536
 7645SOL    HW123834   4.733   3.651   5.476
 7645SOL    HW223835   4.579   3.596   5.480
 7646SOL     OW23836   1.382   3.454   3.492
 7646SOL    HW123837   1.395   3.390   3.568
 7646SOL    HW223838   1.471   3.478   3.453
 7647SOL     OW23839   6.530   2.861   3.221
 7647SOL    HW123840   6.585   2.789   3.264
 7647SOL    HW223841   6.447   2.821   3.182
 7648SOL     OW23842   3.265   1.210   3.142
 7648SOL    HW123843   3.225   1.129   3.184
 7648SOL    HW223844   3.258   1.203   3.042
 7649SOL     OW23845   0.707   0.895   3.057
 7649SOL    HW123846   0.611   0.864   3.057
 7649SOL    HW223847   0.714   0.981   3.108
 7650SOL     OW23848   4.918   1.334   0.619
 7650SOL    HW123849   4.998   1.381   0.582
 7650SOL    HW223850   4.901   1.364   0.712
 7651SOL     OW23851   2.183   0.539   3.511
 7651SOL    HW123852   2.123   0.617   3.490
 7651SOL    HW223853   2.193   0.531   3.610
 7652SOL     OW23854   6.140   3.245   5.807
 7652SOL    HW123855   6.063   3.181   5.811
 7652SOL    HW223856   6.175   3.250   5.714
 7653SOL     OW23857   1.177   1.548   0.104
 7653SOL    HW123858   1.271   1.545   0.070
 7653SOL    HW223859   1.123   1.608   0.046
 7654SOL     OW23860   4.850   2.883   4.396
 7654SOL    HW123861   4.820   2.794   4.430
 7654SOL    HW223862   4.842   2.951   4.469
 7655SOL     OW23863   4.586   6.631   3.020
 7655SOL    HW123864   4.584   6.657   3.116
 7655SOL    HW223865   4.587   6.532   3.011
 7656SOL     OW23866   3.032   3.736   6.124
 7656SOL    HW123867   2.975   3.770   6.048
 7656SOL    HW223868   3.128   3.747   6.100
 7657SOL     OW23869   1.417   2.563   4.052
 7657SOL    HW123870   1.429   2.540   3.955
 7657SOL    HW223871   1.363   2.646   4.060
 7658SOL     OW23872   4.274   6.623   6.294
 7658SOL    HW123873   4.209   6.684   6.338
 7658SOL    HW223874   4.233   6.532   6.285
 7659SOL     OW23875   5.907   4.825   6.416
 7659SOL    HW123876   6.007   4.831   6.420
 7659SOL    HW223877   5.874   4.879   6.338
 7660SOL     OW23878   0.184   5.894   3.487
 7660SOL    HW123879   0.244   5.948   3.546
 7660SOL    HW223880   0.136   5.826   3.542
 7661SOL     OW23881   5.666   2.163   5.179
 7661SOL    HW123882   5.758   2.190   5.152
 7661SOL    HW223883   5.671   2.093   5.250
 7662SOL     OW23884   1.035   2.935   3.432
 7662SOL    HW123885   1.116   2.977   3.472
 7662SOL    HW223886   0.953   2.968   3.479
 7663SOL     OW23887   0.288   4.988   5.314
 7663SOL    HW123888   0.236   4.971   5.231
 7663SOL    HW223889   0.381   5.016   5.291
 7664SOL     OW23890   4.019   0.253   1.572
 7664SOL    HW123891   4.073   0.287   1.650
 7664SOL    HW223892   3.930   0.223   1.604
 7665SOL     OW23893   6.223   0.203   4.917
 7665SOL    HW123894   6.234   0.265   4.994
 7665SOL    HW223895   6.151   0.136   4.937
 7666SOL     OW23896   0.748   5.344   1.862
 7666SOL    HW123897   0.664   5.396   1.878
 7666SOL    HW223898   0.749   5.308   1.769
 7667SOL     OW23899   4.402   6.808   2.127
 7667SOL    HW123900   4.375   6.904   2.142
 7667SOL    HW223901   4.490   6.806   2.079
 7668SOL     OW23902   3.383   4.699   0.358
 7668SOL    HW123903   3.382   4.798   0.367
 7668SOL    HW223904   3.290   4.666   0.344
 7669SOL     OW23905   4.388   1.395   4.535
 7669SOL    HW123906   4.392   1.308   4.485
 7669SOL    HW223907   4.478   1.439   4.533
 7670SOL     OW23908   0.617   4.763   0.228
 7670SOL    HW123909   0.536   4.809   0.190
 7670SOL    HW223910   0.675   4.830   0.275
 7671SOL     OW23911   4.585   1.106   1.619
 7671SOL    HW123912   4.639   1.160   1.684
 7671SOL    HW223913   4.498   1.152   1.602
 7672SOL     OW23914   0.492   6.777   2.351
 7672SOL    HW123915   0.440   6.863   2.343
 7672SOL    HW223916   0.584   6.791   2.315
 7673SOL     OW23917   1.486   6.540   0.710
 7673SOL    HW123918   1.558   6.487   0.753
 7673SOL    HW223919   1.427   6.580   0.780
 7674SOL     OW23920   5.484   0.927   3.140
 7674SOL    HW123921   5.579   0.959   3.145
 7674SOL    HW223922   5.466   0.865   3.216
 7675SOL     OW23923   6.027   6.829   2.315
 7675SOL    HW123924   5.962   6.757   2.341
 7675SOL    HW223925   6.073   6.803   2.230
 7676SOL     OW23926   3.091   2.275   0.769
 7676SOL    HW123927   3.138   2.190   0.791
 7676SOL    HW223928   3.109   2.300   0.674
 7677SOL     OW23929   0.243   4.868   1.464
 7677SOL    HW123930   0.235   4.784   1.518
 7677SOL    HW223931   0.267   4.944   1.524
 7678SOL     OW23932   1.597   3.149   5.096
 7678SOL    HW123933   1.536   3.193   5.161
 7678SOL    HW223934   1.685   3.130   5.140
 7679SOL     OW23935   3.213   5.874   5.599
 7679SOL    HW123936   3.132   5.924   5.630
 7679SOL    HW223937   3.293   5.934   5.601
 7680SOL     OW23938   0.773   1.066   6.848
 7680SOL    HW123939   0.752   0.985   6.903
 7680SOL    HW223940   0.842   1.121   6.895
 7681SOL     OW23941   3.053   1.160   0.986
 7681SOL    HW123942   3.039   1.152   0.888
 7681SOL    HW223943   3.150   1.169   1.006
 7682SOL     OW23944   3.415   0.201   2.187
 7682SOL    HW123945   3.423   0.265   2.264
 7682SOL    HW223946   3.483   0.224   2.117
 7683SOL     OW23947   5.615   2.057   4.458
 7683SOL    HW123948   5.573   2.097   4.539
 7683SOL    HW223949   5.648   1.965   4.479
 7684SOL     OW23950   2.763   1.955   1.827
 7684SOL    HW123951   2.833   2.025   1.843
 7684SOL    HW223952   2.786   1.904   1.744
 7685SOL     OW23953   2.706   2.182   5.894
 7685SOL    HW123954   2.705   2.158   5.991
 7685SOL    HW223955   2.749   2.272   5.883
 7686SOL     OW23956   6.760   6.489   3.267
 7686SOL    HW123957   6.832   6.472   3.200
 7686SOL    HW223958   6.686   6.423   3.254
 7687SOL     OW23959   5.813   4.819   3.524
 7687SOL    HW123960   5.809   4.745   3.458
 7687SOL    HW223961   5.850   4.785   3.611
 7688SOL     OW23962   0.801   6.130   5.240
 7688SOL    HW123963   0.787   6.152   5.337
 7688SOL    HW223964   0.756   6.044   5.219
 7689SOL     OW23965   5.479   6.490   2.616
 7689SOL    HW123966   5.427   6.442   2.545
 7689SOL    HW223967   5.486   6.587   2.593
 7690SOL     OW23968   5.209   5.252   0.282
 7690SOL    HW123969   5.291   5.230   0.335
 7690SOL    HW223970   5.234   5.308   0.204
 7691SOL     OW23971   5.254   3.811   4.624
 7691SOL    HW123972   5.261   3.854   4.534
 7691SOL    HW223973   5.249   3.712   4.613
 7692SOL     OW23974   0.602   6.182   1.784
 7692SOL    HW123975   0.519   6.165   1.731
 7692SOL    HW223976   0.673   6.220   1.724
 7693SOL     OW23977   3.042   6.582   1.646
 7693SOL    HW123978   3.128   6.535   1.664
 7693SOL    HW223979   3.016   6.568   1.551
 7694SOL     OW23980   5.785   3.683   4.517
 7694SOL    HW123981   5.808   3.719   4.426
 7694SOL    HW223982   5.866   3.641   4.557
 7695SOL     OW23983   5.195   0.347   0.629
 7695SOL    HW123984   5.223   0.280   0.698
 7695SOL    HW223985   5.223   0.439   0.659
 7696SOL     OW23986   0.716   0.700   5.387
 7696SOL    HW123987   0.688   0.784   5.341
 7696SOL    HW223988   0.733   0.718   5.484
 7697SOL     OW23989   2.308   6.751   2.500
 7697SOL    HW123990   2.401   6.715   2.500
 7697SOL    HW223991   2.303   6.830   2.561
 7698SOL     OW23992   5.777   1.097   4.029
 7698SOL    HW123993   5.709   1.028   4.054
 7698SOL    HW223994   5.855   1.090   4.092
 7699SOL     OW23995   3.488   5.315   6.670
 7699SOL    HW123996   3.516   5.254   6.744
 7699SOL    HW223997   3.436   5.263   6.602
 7700SOL     OW23998   4.422   5.989   2.977
 7700SOL    HW123999   4.411   5.964   3.073
 7700SOL    HW224000   4.360   6.065   2.955
 7701SOL     OW24001   6.213   2.210   0.691
 7701SOL    HW124002   6.134   2.150   0.702
 7701SOL    HW224003   6.292   2.170   0.736
 7702SOL     OW24004   3.075   6.362   5.169
 7702SOL    HW124005   3.155   6.422   5.162
 7702SOL    HW224006   3.067   6.327   5.262
 7703SOL     OW24007   6.844   6.283   6.624
 7703SOL    HW124008   6.770   6.300   6.560
 7703SOL    HW224009   6.821   6.323   6.713
 7704SOL     OW24010   5.885   6.754   4.601
 7704SOL    HW124011   5.938   6.675   4.633
 7704SOL    HW224012   5.934   6.838   4.623
 7705SOL     OW24013   2.819   5.846   0.560
 7705SOL    HW124014   2.736   5.829   0.507
 7705SOL    HW224015   2.870   5.921   0.519
 7706SOL     OW24016   3.893   3.748   4.948
 7706SOL    HW124017   3.871   3.805   4.869
 7706SOL    HW224018   3.811   3.739   5.006
 7707SOL     OW24019   7.003   4.818   5.979
 7707SOL    HW124020   0.012   4.803   6.074
 7707SOL    HW224021   6.903   4.809   5.973
 7708SOL     OW24022   0.885   6.627   5.837
 7708SOL    HW124023   0.848   6.535   5.827
 7708SOL    HW224024   0.900   6.646   5.935
 7709SOL     OW24025   6.292   4.235   2.135
 7709SOL    HW124026   6.265   4.164   2.070
 7709SOL    HW224027   6.230   4.313   2.127
 7710SOL     OW24028   3.067   2.086   0.113
 7710SOL    HW124029   3.015   2.163   0.150
 7710SOL    HW224030   3.165   2.106   0.119
 7711SOL     OW24031   5.608   6.269   6.052
 7711SOL    HW124032   5.644   6.227   5.970
 7711SOL    HW224033   5.615   6.369   6.044
 7712SOL     OW24034   6.441   5.264   1.733
 7712SOL    HW124035   6.507   5.336   1.755
 7712SOL    HW224036   6.369   5.263   1.802
 7713SOL     OW24037   2.278   4.196   1.147
 7713SOL    HW124038   2.255   4.288   1.114
 7713SOL    HW224039   2.239   4.183   1.238
 7714SOL     OW24040   0.044   3.519   5.737
 7714SOL    HW124041   0.083   3.475   5.818
 7714SOL    HW224042   0.013   3.611   5.761
 7715SOL     OW24043   2.943   2.157   0.502
 7715SOL    HW124044   3.037   2.149   0.471
 7715SOL    HW224045   2.907   2.066   0.523
 7716SOL     OW24046   6.806   4.434   2.115
 7716SOL    HW124047   6.742   4.509   2.100
 7716SOL    HW224048   6.887   4.447   2.057
 7717SOL     OW24049   1.972   0.830   5.234
 7717SOL    HW124050   1.901   0.899   5.245
 7717SOL    HW224051   2.032   0.831   5.314
 7718SOL     OW24052   0.058   3.814   3.569
 7718SOL    HW124053   0.120   3.883   3.606
 7718SOL    HW224054   0.103   3.725   3.569
 7719SOL     OW24055   0.074   4.424   5.419
 7719SOL    HW124056   6.995   4.440   5.419
 7719SOL    HW224057   0.092   4.327   5.439
 7720SOL     OW24058   6.910   1.661   6.546
 7720SOL    HW124059   6.868   1.635   6.633
 7720SOL    HW224060   6.976   1.735   6.562
 7721SOL     OW24061   0.468   5.067   2.391
 7721SOL    HW124062   0.386   5.075   2.448
 7721SOL    HW224063   0.458   5.123   2.309
 7722SOL     OW24064   1.185   4.135   3.513
 7722SOL    HW124065   1.282   4.111   3.520
 7722SOL    HW224066   1.132   4.052   3.496
 7723SOL     OW24067   4.401   3.497   5.918
 7723SOL    HW124068   4.486   3.520   5.871
 7723SOL    HW224069   4.422   3.466   6.011
 7724SOL     OW24070   3.382   3.795   1.103
 7724SOL    HW124071   3.404   3.729   1.031
 7724SOL    HW224072   3.285   3.816   1.102
 7725SOL     OW24073   6.660   1.881   3.038
 7725SOL    HW124074   6.607   1.907   2.957
 7725SOL    HW224075   6.632   1.790   3.068
 7726SOL     OW24076   1.347   4.842   5.482
 7726SOL    HW124077   1.423   4.815   5.541
 7726SOL    HW224078   1.355   4.939   5.458
 7727SOL     OW24079   0.044   2.470   2.687
 7727SOL    HW124080   0.095   2.400   2.638
 7727SOL    HW224081   0.061   2.461   2.785
 7728SOL     OW24082   1.937   3.283   4.954
 7728SOL    HW124083   1.866   3.352   4.940
 7728SOL    HW224084   1.986   3.303   5.039
 7729SOL     OW24085   5.786   2.272   1.542
 7729SOL    HW124086   5.723   2.195   1.555
 7729SOL    HW224087   5.878   2.237   1.528
 7730SOL     OW24088   6.378   5.709   0.762
 7730SOL    HW124089   6.380   5.633   0.698
 7730SOL    HW224090   6.428   5.685   0.845
 7731SOL     OW24091   0.085   1.272   6.837
 7731SOL    HW124092   7.006   1.264   6.827
 7731SOL    HW224093   0.127   1.184   6.815
 7732SOL     OW24094   4.878   0.012   0.427
 7732SOL    HW124095   4.939   0.079   0.469
 7732SOL    HW224096   4.787   0.019   0.468
 7733SOL     OW24097   5.173   6.012   2.586
 7733SOL    HW124098   5.161   5.921   2.628
 7733SOL    HW224099   5.206   6.076   2.655
 7734SOL     OW24100   1.315   4.980   3.854
 7734SOL    HW124101   1.327   4.885   3.883
 7734SOL    HW224102   1.404   5.025   3.851
 7735SOL     OW24103   4.859   6.441   6.863
 7735SOL    HW124104   4.912   6.407   6.940
 7735SOL    HW224105   4.890   6.398   6.779
 7736SOL     OW24106   3.433   2.952   6.930
 7736SOL    HW124107   3.500   2.968   6.858
 7736SOL    HW224108   3.382   2.869   6.910
 7737SOL     OW24109   3.265   6.384   2.603
 7737SOL    HW124110   3.191   6.360   2.665
 7737SOL    HW224111   3.261   6.326   2.522
 7738SOL     OW24112   2.651   5.457   0.065
 7738SOL    HW124113   2.570   5.515   0.063
 7738SOL    HW224114   2.724   5.499   0.012
 7739SOL     OW24115   0.311   2.327   0.923
 7739SOL    HW124116   0.234   2.388   0.943
 7739SOL    HW224117   0.358   2.304   1.008
 7740SOL     OW24118   2.604   1.395   3.074
 7740SOL    HW124119   2.526   1.449   3.041
 7740SOL    HW224120   2.648   1.349   2.997
 7741SOL     OW24121   0.159   4.675   5.793
 7741SOL    HW124122   0.081   4.735   5.810
 7741SOL    HW224123   0.238   4.731   5.767
 7742SOL     OW24124   4.243   1.713   3.358
 7742SOL    HW124125   4.215   1.792   3.305
 7742SOL    HW224126   4.174   1.641   3.351
 7743SOL     OW24127   5.526   1.488   0.073
 7743SOL    HW124128   5.462   1.546   0.023
 7743SOL    HW224129   5.617   1.530   0.070
 7744SOL     OW24130   0.272   0.297   4.248
 7744SOL    HW124131   0.257   0.316   4.345
 7744SOL    HW224132   0.370   0.283   4.231
 7745SOL     OW24133   3.683   1.326   0.136
 7745SOL    HW124134   3.760   1.271   0.169
 7745SOL    HW224135   3.704   1.360   0.045
 7746SOL     OW24136   1.683   0.403   0.525
 7746SOL    HW124137   1.588   0.398   0.558
 7746SOL    HW224138   1.746   0.399   0.602
 7747SOL     OW24139   5.276   5.727   1.350
 7747SOL    HW124140   5.206   5.763   1.412
 7747SOL    HW224141   5.315   5.803   1.297
 7748SOL     OW24142   2.950   3.583   4.532
 7748SOL    HW124143   3.011   3.576   4.611
 7748SOL    HW224144   2.913   3.492   4.511
 7749SOL     OW24145   3.038   3.475   5.609
 7749SOL    HW124146   3.045   3.377   5.626
 7749SOL    HW224147   3.090   3.525   5.677
 7750SOL     OW24148   0.241   6.417   1.418
 7750SOL    HW124149   0.200   6.499   1.456
 7750SOL    HW224150   0.285   6.365   1.491
 7751SOL     OW24151   1.771   2.584   2.302
 7751SOL    HW124152   1.857   2.544   2.270
 7751SOL    HW224153   1.764   2.574   2.401
 7752SOL     OW24154   5.625   6.042   5.831
 7752SOL    HW124155   5.623   5.955   5.881
 7752SOL    HW224156   5.720   6.066   5.812
 7753SOL     OW24157   1.799   0.592   4.197
 7753SOL    HW124158   1.793   0.625   4.102
 7753SOL    HW224159   1.855   0.656   4.250
 7754SOL     OW24160   3.766   6.632   2.174
 7754SOL    HW124161   3.836   6.666   2.237
 7754SOL    HW224162   3.696   6.584   2.225
 7755SOL     OW24163   1.143   2.074   5.828
 7755SOL    HW124164   1.115   2.035   5.916
 7755SOL    HW224165   1.197   2.156   5.845
 7756SOL     OW24166   2.430   5.907   2.559
 7756SOL    HW124167   2.390   5.914   2.467
 7756SOL    HW224168   2.485   5.824   2.565
 7757SOL     OW24169   6.436   4.744   6.159
 7757SOL    HW124170   6.460   4.679   6.231
 7757SOL    HW224171   6.393   4.825   6.200
 7758SOL     OW24172   1.673   0.950   5.861
 7758SOL    HW124173   1.672   0.948   5.761
 7758SOL    HW224174   1.623   0.871   5.897
 7759SOL     OW24175   1.177   1.532   5.470
 7759SOL    HW124176   1.262   1.573   5.502
 7759SOL    HW224177   1.179   1.433   5.488
 7760SOL     OW24178   5.249   3.258   3.369
 7760SOL    HW124179   5.193   3.175   3.363
 7760SOL    HW224180   5.341   3.239   3.336
 7761SOL     OW24181   0.192   0.413   4.928
 7761SOL    HW124182   0.282   0.405   4.886
 7761SOL    HW224183   0.202   0.442   5.024
 7762SOL     OW24184   3.674   0.086   4.281
 7762SOL    HW124185   3.742   0.074   4.208
 7762SOL    HW224186   3.700   0.165   4.337
 7763SOL     OW24187   1.696   1.118   6.717
 7763SOL    HW124188   1.657   1.065   6.642
 7763SOL    HW224189   1.742   1.199   6.681
 7764SOL     OW24190   3.800   2.952   3.573
 7764SOL    HW124191   3.727   3.006   3.615
 7764SOL    HW224192   3.888   2.977   3.612
 7765SOL     OW24193   6.361   3.337   5.425
 7765SOL    HW124194   6.437   3.283   5.460
 7765SOL    HW224195   6.344   3.415   5.485
 7766SOL     OW24196   6.897   3.615   0.344
 7766SOL    HW124197   6.933   3.545   0.283
 7766SOL    HW224198   6.970   3.649   0.403
 7767SOL     OW24199   5.003   6.246   2.476
 7767SOL    HW124200   4.940   6.228   2.400
 7767SOL    HW224201   5.067   6.170   2.483
 7768SOL     OW24202   4.255   4.648   2.635
 7768SOL    HW124203   4.211   4.704   2.565
 7768SOL    HW224204   4.197   4.643   2.716
 7769SOL     OW24205   4.468   2.175   3.308
 7769SOL    HW124206   4.477   2.232   3.390
 7769SOL    HW224207   4.376   2.137   3.305
 7770SOL     OW24208   1.653   4.471   3.160
 7770SOL    HW124209   1.741   4.498   3.120
 7770SOL    HW224210   1.590   4.549   3.158
 7771SOL     OW24211   3.466   2.230   5.299
 7771SOL    HW124212   3.395   2.264   5.237
 7771SOL    HW224213   3.528   2.170   5.249
 7772SOL     OW24214   4.589   0.170   2.086
 7772SOL    HW124215   4.620   0.139   2.176
 7772SOL    HW224216   4.529   0.249   2.097
 7773SOL     OW24217   2.850   6.177   4.778
 7773SOL    HW124218   2.851   6.145   4.683
 7773SOL    HW224219   2.786   6.253   4.787
 7774SOL     OW24220   5.242   1.780   5.329
 7774SOL    HW124221   5.146   1.761   5.313
 7774SOL    HW224222   5.255   1.809   5.424
 7775SOL     OW24223   4.747   5.424   0.991
 7775SOL    HW124224   4.694   5.392   0.913
 7775SOL    HW224225   4.688   5.435   1.071
 7776SOL     OW24226   1.095   5.466   6.224
 7776SOL    HW124227   1.115   5.535   6.294
 7776SOL    HW224228   0.996   5.451   6.221
 7777SOL     OW24229   6.269   6.448   4.834
 7777SOL    HW124230   6.303   6.449   4.928
 7777SOL    HW224231   6.234   6.357   4.812
 7778SOL     OW24232   5.520   4.219   0.878
 7778SOL    HW124233   5.547   4.314   0.862
 7778SOL    HW224234   5.475   4.212   0.967
 7779SOL     OW24235   2.759   2.460   1.729
 7779SOL    HW124236   2.702   2.521   1.785
 7779SOL    HW224237   2.842   2.437   1.779
 7780SOL     OW24238   1.320   4.858   5.066
 7780SOL    HW124239   1.222   4.840   5.071
 7780SOL    HW224240   1.352   4.849   4.972
 7781SOL     OW24241   1.522   5.303   0.888
 7781SOL    HW124242   1.430   5.331   0.913
 7781SOL    HW224243   1.586   5.379   0.904
 7782SOL     OW24244   5.746   5.141   4.259
 7782SOL    HW124245   5.801   5.195   4.323
 7782SOL    HW224246   5.654   5.131   4.295
 7783SOL     OW24247   1.197   5.850   5.447
 7783SOL    HW124248   1.240   5.805   5.525
 7783SOL    HW224249   1.141   5.927   5.478
 7784SOL     OW24250   3.672   2.070   1.648
 7784SOL    HW124251   3.580   2.056   1.684
 7784SOL    HW224252   3.725   2.124   1.713
 7785SOL     OW24253   1.975   6.007   4.616
 7785SOL    HW124254   1.943   6.029   4.524
 7785SOL    HW224255   1.919   5.933   4.654
 7786SOL     OW24256   2.744   6.386   0.154
 7786SOL    HW124257   2.674   6.446   0.115
 7786SOL    HW224258   2.808   6.358   0.083
 7787SOL     OW24259   1.929   2.798   5.948
 7787SOL    HW124260   1.888   2.884   5.918
 7787SOL    HW224261   1.968   2.750   5.869
 7788SOL     OW24262   2.378   5.075   1.157
 7788SOL    HW124263   2.450   5.030   1.105
 7788SOL    HW224264   2.292   5.024   1.149
 7789SOL     OW24265   1.772   6.264   6.217
 7789SOL    HW124266   1.769   6.343   6.157
 7789SOL    HW224267   1.840   6.199   6.183
 7790SOL     OW24268   5.626   5.723   3.504
 7790SOL    HW124269   5.604   5.751   3.410
 7790SOL    HW224270   5.721   5.746   3.524
 7791SOL     OW24271   2.756   4.965   2.984
 7791SOL    HW124272   2.854   4.982   2.989
 7791SOL    HW224273   2.738   4.889   2.921
 7792SOL     OW24274   1.875   5.373   5.089
 7792SOL    HW124275   1.942   5.428   5.040
 7792SOL    HW224276   1.817   5.432   5.145
 7793SOL     OW24277   3.564   0.790   1.065
 7793SOL    HW124278   3.540   0.693   1.073
 7793SOL    HW224279   3.550   0.820   0.971
 7794SOL     OW24280   6.198   3.761   2.844
 7794SOL    HW124281   6.239   3.841   2.887
 7794SOL    HW224282   6.170   3.696   2.915
 7795SOL     OW24283   1.955   3.766   5.705
 7795SOL    HW124284   2.014   3.845   5.687
 7795SOL    HW224285   2.010   3.683   5.710
 7796SOL     OW24286   4.013   3.128   3.620
 7796SOL    HW124287   4.083   3.198   3.611
 7796SOL    HW224288   3.980   3.101   3.529
 7797SOL     OW24289   1.923   0.446   1.640
 7797SOL    HW124290   1.910   0.373   1.707
 7797SOL    HW224291   1.978   0.518   1.680
 7798SOL     OW24292   2.089   3.534   4.600
 7798SOL    HW124293   2.130   3.483   4.677
 7798SOL    HW224294   2.114   3.630   4.607
 7799SOL     OW24295   1.735   5.965   2.151
 7799SOL    HW124296   1.687   5.892   2.200
 7799SOL    HW224297   1.742   5.941   2.055
 7800SOL     OW24298   0.832   5.829   1.425
 7800SOL    HW124299   0.853   5.870   1.513
 7800SOL    HW224300   0.818   5.731   1.435
 7801SOL     OW24301   2.508   2.095   2.232
 7801SOL    HW124302   2.547   2.031   2.165
 7801SOL    HW224303   2.452   2.163   2.184
 7802SOL     OW24304   5.384   3.147   0.919
 7802SOL    HW124305   5.424   3.102   0.999
 7802SOL    HW224306   5.443   3.132   0.840
 7803SOL     OW24307   4.167   1.887   5.873
 7803SOL    HW124308   4.217   1.898   5.788
 7803SOL    HW224309   4.089   1.826   5.858
 7804SOL     OW24310   4.119   1.916   4.811
 7804SOL    HW124311   4.080   2.008   4.813
 7804SOL    HW224312   4.101   1.870   4.898
 7805SOL     OW24313   5.406   2.263   1.658
 7805SOL    HW124314   5.496   2.232   1.628
 7805SOL    HW224315   5.360   2.311   1.583
 7806SOL     OW24316   6.582   1.864   0.144
 7806SOL    HW124317   6.498   1.809   0.140
 7806SOL    HW224318   6.659   1.806   0.169
 7807SOL     OW24319   0.845   4.873   5.827
 7807SOL    HW124320   0.777   4.807   5.857
 7807SOL    HW224321   0.819   4.911   5.738
 7808SOL     OW24322   6.358   3.602   4.604
 7808SOL    HW124323   6.414   3.638   4.529
 7808SOL    HW224324   6.285   3.546   4.566
 7809SOL     OW24325   3.323   4.973   4.416
 7809SOL    HW124326   3.275   5.026   4.486
 7809SOL    HW224327   3.259   4.947   4.344
 7810SOL     OW24328   3.201   0.210   4.523
 7810SOL    HW124329   3.146   0.168   4.450
 7810SOL    HW224330   3.186   0.309   4.522
 7811SOL     OW24331   1.558   5.805   1.660
 7811SOL    HW124332   1.562   5.882   1.595
 7811SOL    HW224333   1.482   5.820   1.723
 7812SOL     OW24334   0.012   2.370   4.118
 7812SOL    HW124335   6.974   2.447   4.092
 7812SOL    HW224336   0.033   2.315   4.038
 7813SOL     OW24337   4.648   2.406   0.466
 7813SOL    HW124338   4.551   2.405   0.446
 7813SOL    HW224339   4.662   2.407   0.565
 7814SOL     OW24340   0.383   3.916   3.854
 7814SOL    HW124341   0.472   3.933   3.895
 7814SOL    HW224342   0.317   3.888   3.924
 7815SOL     OW24343   6.108   1.351   5.044
 7815SOL    HW124344   6.208   1.360   5.037
 7815SOL    HW224345   6.081   1.353   5.140
 7816SOL     OW24346   1.439   2.349   6.117
 7816SOL    HW124347   1.520   2.405   6.101
 7816SOL    HW224348   1.382   2.392   6.187
 7817SOL     OW24349   4.512   4.481   3.956
 7817SOL    HW124350   4.574   4.559   3.944
 7817SOL    HW224351   4.418   4.515   3.964
 7818SOL     OW24352   4.394   0.376   2.085
 7818SOL    HW124353   4.306   0.400   2.042
 7818SOL    HW224354   4.382   0.368   2.184
 7819SOL     OW24355   6.846   4.099   3.097
 7819SOL    HW124356   6.897   4.118   3.180
 7819SOL    HW224357   6.846   4.000   3.080
 7820SOL     OW24358   1.251   1.373   5.767
 7820SOL    HW124359   1.153   1.391   5.759
 7820SOL    HW224360   1.302   1.456   5.743
 7821SOL     OW24361   5.872   5.287   6.960
 7821SOL    HW124362   5.854   5.277   6.863
 7821SOL    HW224363   5.948   5.227   6.987
 7822SOL     OW24364   1.317   1.647   6.880
 7822SOL    HW124365   1.233   1.600   6.853
 7822SOL    HW224366   1.299   1.744   6.892
 7823SOL     OW24367   2.882   3.704   5.171
 7823SOL    HW124368   2.932   3.764   5.108
 7823SOL    HW224369   2.809   3.755   5.216
 7824SOL     OW24370   5.879   1.028   3.780
 7824SOL    HW124371   5.835   1.056   3.865
 7824SOL    HW224372   5.811   1.027   3.706
 7825SOL     OW24373   1.285   3.270   0.966
 7825SOL    HW124374   1.299   3.172   0.981
 7825SOL    HW224375   1.347   3.322   1.026
 7826SOL     OW24376   6.177   1.343   0.096
 7826SOL    HW124377   6.196   1.361   7.020
 7826SOL    HW224378   6.096   1.394   0.124
 7827SOL     OW24379   3.096   4.778   1.644
 7827SOL    HW124380   3.118   4.780   1.547
 7827SOL    HW224381   3.070   4.869   1.675
 7828SOL     OW24382   0.604   5.126   0.053
 7828SOL    HW124383   0.566   5.034   0.046
 7828SOL    HW224384   0.618   5.163   6.982
 7829SOL     OW24385   1.855   2.997   0.793
 7829SOL    HW124386   1.789   3.028   0.725
 7829SOL    HW224387   1.947   3.028   0.766
 7830SOL     OW24388   2.736   4.242   5.839
 7830SOL    HW124389   2.680   4.260   5.920
 7830SOL    HW224390   2.740   4.144   5.823
 7831SOL     OW24391   1.525   5.793   0.984
 7831SOL    HW124392   1.548   5.745   1.069
 7831SOL    HW224393   1.513   5.890   1.004
 7832SOL     OW24394   4.519   1.036   3.724
 7832SOL    HW124395   4.590   1.078   3.780
 7832SOL    HW224396   4.561   0.981   3.652
 7833SOL     OW24397   0.789   0.683   6.356
 7833SOL    HW124398   0.727   0.641   6.290
 7833SOL    HW224399   0.754   0.671   6.448
 7834SOL     OW24400   6.388   1.103   3.427
 7834SOL    HW124401   6.323   1.142   3.362
 7834SOL    HW224402   6.414   1.174   3.493
 7835SOL     OW24403   2.638   1.829   5.473
 7835SOL    HW124404   2.636   1.863   5.379
 7835SOL    HW224405   2.641   1.906   5.537
 7836SOL     OW24406   3.180   3.070   4.993
 7836SOL    HW124407   3.095   3.088   5.042
 7836SOL    HW224408   3.165   3.079   4.895
 7837SOL     OW24409   5.942   5.943   0.962
 7837SOL    HW124410   6.017   5.882   0.935
 7837SOL    HW224411   5.857   5.890   0.968
 7838SOL     OW24412   4.644   6.916   6.755
 7838SOL    HW124413   4.594   6.890   6.837
 7838SOL    HW224414   4.710   6.844   6.732
 7839SOL     OW24415   5.985   4.082   5.447
 7839SOL    HW124416   6.048   4.145   5.401
 7839SOL    HW224417   5.975   3.999   5.392
 7840SOL     OW24418   6.132   2.744   4.055
 7840SOL    HW124419   6.122   2.644   4.063
 7840SOL    HW224420   6.110   2.787   4.142
 7841SOL     OW24421   4.011   1.888   6.483
 7841SOL    HW124422   4.002   1.965   6.420
 7841SOL    HW224423   3.960   1.907   6.567
 7842SOL     OW24424   1.673   2.147   2.713
 7842SOL    HW124425   1.768   2.120   2.726
 7842SOL    HW224426   1.666   2.205   2.631
 7843SOL     OW24427   5.584   5.423   2.525
 7843SOL    HW124428   5.526   5.504   2.519
 7843SOL    HW224429   5.595   5.384   2.433
 7844SOL     OW24430   3.889   6.362   2.265
 7844SOL    HW124431   3.829   6.441   2.277
 7844SOL    HW224432   3.846   6.281   2.305
 7845SOL     OW24433   5.376   1.813   3.775
 7845SOL    HW124434   5.366   1.750   3.851
 7845SOL    HW224435   5.317   1.893   3.790
 7846SOL     OW24436   1.067   1.201   3.053
 7846SOL    HW124437   1.016   1.121   3.085
 7846SOL    HW224438   1.038   1.281   3.105
 7847SOL     OW24439   7.011   1.560   3.127
 7847SOL    HW124440   6.999   1.466   3.094
 7847SOL    HW224441   6.988   1.624   3.054
 7848SOL     OW24442   3.241   3.276   0.440
 7848SOL    HW124443   3.291   3.201   0.483
 7848SOL    HW224444   3.291   3.308   0.360
 7849SOL     OW24445   5.534   4.064   3.087
 7849SOL    HW124446   5.580   4.058   3.176
 7849SOL    HW224447   5.468   3.990   3.079
 7850SOL     OW24448   0.345   2.106   5.321
 7850SOL    HW124449   0.331   2.166   5.243
 7850SOL    HW224450   0.288   2.136   5.397
 7851SOL     OW24451   6.732   1.274   1.869
 7851SOL    HW124452   6.744   1.318   1.779
 7851SOL    HW224453   6.716   1.176   1.856
 7852SOL     OW24454   2.242   1.420   5.770
 7852SOL    HW124455   2.299   1.387   5.845
 7852SOL    HW224456   2.269   1.374   5.685
 7853SOL     OW24457   4.633   2.134   1.555
 7853SOL    HW124458   4.628   2.189   1.472
 7853SOL    HW224459   4.553   2.153   1.612
 7854SOL     OW24460   3.414   3.851   0.140
 7854SOL    HW124461   3.500   3.901   0.132
 7854SOL    HW224462   3.422   3.761   0.097
 7855SOL     OW24463   4.011   5.356   5.384
 7855SOL    HW124464   4.023   5.455   5.371
 7855SOL    HW224465   4.005   5.311   5.295
 7856SOL     OW24466   6.465   4.288   5.461
 7856SOL    HW124467   6.476   4.302   5.560
 7856SOL    HW224468   6.461   4.376   5.415
 7857SOL     OW24469   5.752   1.994   5.402
 7857SOL    HW124470   5.709   2.062   5.461
 7857SOL    HW224471   5.847   1.980   5.432
 7858SOL     OW24472   5.231   5.719   3.448
 7858SOL    HW124473   5.290   5.688   3.523
 7858SOL    HW224474   5.140   5.677   3.459
 7859SOL     OW24475   5.375   2.422   6.452
 7859SOL    HW124476   5.285   2.466   6.445
 7859SOL    HW224477   5.447   2.491   6.447
 7860SOL     OW24478   4.445   0.215   2.643
 7860SOL    HW124479   4.347   0.217   2.666
 7860SOL    HW224480   4.496   0.268   2.711
 7861SOL     OW24481   3.646   5.152   1.856
 7861SOL    HW124482   3.569   5.088   1.857
 7861SOL    HW224483   3.658   5.192   1.946
 7862SOL     OW24484   3.316   3.799   1.878
 7862SOL    HW124485   3.234   3.741   1.883
 7862SOL    HW224486   3.319   3.858   1.959
 7863SOL     OW24487   0.539   5.777   3.641
 7863SOL    HW124488   0.475   5.736   3.706
 7863SOL    HW224489   0.495   5.785   3.551
 7864SOL     OW24490   0.555   5.410   5.305
 7864SOL    HW124491   0.590   5.472   5.375
 7864SOL    HW224492   0.523   5.463   5.226
 7865SOL     OW24493   5.741   6.597   4.403
 7865SOL    HW124494   5.765   6.672   4.464
 7865SOL    HW224495   5.707   6.520   4.456
 7866SOL     OW24496   1.460   1.872   6.709
 7866SOL    HW124497   1.553   1.838   6.723
 7866SOL    HW224498   1.404   1.849   6.788
 7867SOL     OW24499   5.130   6.731   3.206
 7867SOL    HW124500   5.170   6.693   3.290
 7867SOL    HW224501   5.201   6.736   3.135
 7868SOL     OW24502   5.569   6.878   1.652
 7868SOL    HW124503   5.571   6.862   1.751
 7868SOL    HW224504   5.521   6.803   1.607
 7869SOL     OW24505   5.994   3.940   0.224
 7869SOL    HW124506   6.007   3.909   0.130
 7869SOL    HW224507   6.065   3.901   0.283
 7870SOL     OW24508   3.801   4.873   4.278
 7870SOL    HW124509   3.873   4.898   4.342
 7870SOL    HW224510   3.839   4.860   4.187
 7871SOL     OW24511   4.903   2.985   2.464
 7871SOL    HW124512   4.853   2.932   2.396
 7871SOL    HW224513   4.982   3.029   2.421
 7872SOL     OW24514   2.466   4.443   3.277
 7872SOL    HW124515   2.565   4.449   3.264
 7872SOL    HW224516   2.429   4.535   3.292
 7873SOL     OW24517   5.507   0.244   6.111
 7873SOL    HW124518   5.512   0.145   6.094
 7873SOL    HW224519   5.577   0.290   6.057
 7874SOL     OW24520   5.565   1.801   0.663
 7874SOL    HW124521   5.488   1.789   0.599
 7874SOL    HW224522   5.531   1.842   0.748
 7875SOL     OW24523   5.729   2.259   6.690
 7875SOL    HW124524   5.720   2.237   6.593
 7875SOL    HW224525   5.759   2.178   6.740
 7876SOL     OW24526   0.086   6.861   4.501
 7876SOL    HW124527   0.057   6.793   4.433
 7876SOL    HW224528   0.019   6.936   4.504
 7877SOL     OW24529   0.621   2.567   2.888
 7877SOL    HW124530   0.696   2.574   2.823
 7877SOL    HW224531   0.658   2.570   2.981
 7878SOL     OW24532   5.648   5.282   4.062
 7878SOL    HW124533   5.655   5.232   4.148
 7878SOL    HW224534   5.651   5.380   4.080
 7879SOL     OW24535   4.659   5.192   4.447
 7879SOL    HW124536   4.686   5.112   4.393
 7879SOL    HW224537   4.635   5.267   4.386
 7880SOL     OW24538   2.077   4.942   1.196
 7880SOL    HW124539   1.980   4.938   1.220
 7880SOL    HW224540   2.133   4.927   1.277
 7881SOL     OW24541   5.671   4.634   4.538
 7881SOL    HW124542   5.699   4.538   4.548
 7881SOL    HW224543   5.686   4.663   4.443
 7882SOL     OW24544   0.855   3.158   3.256
 7882SOL    HW124545   0.911   3.138   3.176
 7882SOL    HW224546   0.789   3.084   3.270
 7883SOL     OW24547   1.084   0.278   0.889
 7883SOL    HW124548   1.029   0.344   0.939
 7883SOL    HW224549   1.181   0.299   0.901
 7884SOL     OW24550   1.980   4.116   3.926
 7884SOL    HW124551   1.948   4.193   3.980
 7884SOL    HW224552   1.924   4.107   3.844
 7885SOL     OW24553   6.200   5.603   1.497
 7885SOL    HW124554   6.272   5.633   1.560
 7885SOL    HW224555   6.239   5.592   1.406
 7886SOL     OW24556   3.261   5.789   0.595
 7886SOL    HW124557   3.347   5.838   0.581
 7886SOL    HW224558   3.239   5.787   0.693
 7887SOL     OW24559   3.312   2.564   5.322
 7887SOL    HW124560   3.299   2.481   5.268
 7887SOL    HW224561   3.226   2.590   5.365
 7888SOL     OW24562   6.269   6.369   5.321
 7888SOL    HW124563   6.205   6.305   5.278
 7888SOL    HW224564   6.342   6.319   5.367
 7889SOL     OW24565   1.001   4.796   0.944
 7889SOL    HW124566   0.993   4.880   0.891
 7889SOL    HW224567   0.974   4.718   0.887
 7890SOL     OW24568   0.313   3.644   3.788
 7890SOL    HW124569   0.335   3.742   3.785
 7890SOL    HW224570   0.306   3.608   3.695
 7891SOL     OW24571   2.390   4.368   4.340
 7891SOL    HW124572   2.365   4.381   4.436
 7891SOL    HW224573   2.345   4.286   4.304
 7892SOL     OW24574   2.139   1.629   3.759
 7892SOL    HW124575   2.124   1.655   3.664
 7892SOL    HW224576   2.052   1.632   3.808
 7893SOL     OW24577   6.770   6.303   2.120
 7893SOL    HW124578   6.724   6.359   2.052
 7893SOL    HW224579   6.868   6.324   2.119
 7894SOL     OW24580   4.140   6.333   0.703
 7894SOL    HW124581   4.048   6.345   0.740
 7894SOL    HW224582   4.134   6.312   0.605
 7895SOL     OW24583   5.620   0.491   5.513
 7895SOL    HW124584   5.656   0.431   5.441
 7895SOL    HW224585   5.629   0.586   5.484
 7896SOL     OW24586   3.640   3.424   1.165
 7896SOL    HW124587   3.563   3.361   1.156
 7896SOL    HW224588   3.655   3.445   1.261
 7897SOL     OW24589   3.315   2.923   0.320
 7897SOL    HW124590   3.261   2.910   0.404
 7897SOL    HW224591   3.260   2.972   0.252
 7898SOL     OW24592   3.943   1.768   3.458
 7898SOL    HW124593   3.845   1.784   3.449
 7898SOL    HW224594   3.968   1.771   3.555
 7899SOL     OW24595   5.785   6.999   0.865
 7899SOL    HW124596   5.849   6.997   0.942
 7899SOL    HW224597   5.727   6.917   0.868
 7900SOL     OW24598   1.350   5.469   2.027
 7900SOL    HW124599   1.380   5.480   1.932
 7900SOL    HW224600   1.281   5.398   2.032
 7901SOL     OW24601   4.538   1.030   6.349
 7901SOL    HW124602   4.573   0.967   6.280
 7901SOL    HW224603   4.438   1.029   6.347
 7902SOL     OW24604   6.242   6.945   1.156
 7902SOL    HW124605   6.339   6.962   1.138
 7902SOL    HW224606   6.230   6.912   1.249
 7903SOL     OW24607   4.857   1.353   1.624
 7903SOL    HW124608   4.845   1.296   1.543
 7903SOL    HW224609   4.874   1.447   1.596
 7904SOL     OW24610   5.920   7.017   3.260
 7904SOL    HW124611   5.960   0.071   3.206
 7904SOL    HW224612   5.993   6.966   3.306
 7905SOL     OW24613   5.577   1.705   0.370
 7905SOL    HW124614   5.651   1.714   0.303
 7905SOL    HW224615   5.508   1.775   0.354
 7906SOL     OW24616   0.200   5.375   1.049
 7906SOL    HW124617   0.283   5.421   1.016
 7906SOL    HW224618   0.123   5.401   0.992
 7907SOL     OW24619   5.253   1.852   2.806
 7907SOL    HW124620   5.193   1.784   2.849
 7907SOL    HW224621   5.347   1.837   2.835
 7908SOL     OW24622   1.638   0.657   5.627
 7908SOL    HW124623   1.635   0.725   5.553
 7908SOL    HW224624   1.546   0.645   5.664
 7909SOL     OW24625   5.176   4.688   4.400
 7909SOL    HW124626   5.265   4.734   4.408
 7909SOL    HW224627   5.166   4.650   4.308
 7910SOL     OW24628   2.938   3.843   5.861
 7910SOL    HW124629   2.887   3.914   5.910
 7910SOL    HW224630   2.892   3.755   5.872
 7911SOL     OW24631   1.832   4.081   0.326
 7911SOL    HW124632   1.896   4.005   0.318
 7911SOL    HW224633   1.883   4.167   0.324
 7912SOL     OW24634   6.522   4.766   0.756
 7912SOL    HW124635   6.534   4.820   0.839
 7912SOL    HW224636   6.527   4.826   0.676
 7913SOL     OW24637   1.412   4.519   1.765
 7913SOL    HW124638   1.383   4.610   1.793
 7913SOL    HW224639   1.480   4.528   1.692
 7914SOL     OW24640   0.574   4.488   0.261
 7914SOL    HW124641   0.582   4.587   0.248
 7914SOL    HW224642   0.567   4.468   0.359
 7915SOL     OW24643   4.930   2.674   2.165
 7915SOL    HW124644   4.920   2.691   2.067
 7915SOL    HW224645   4.846   2.700   2.212
 7916SOL     OW24646   1.057   4.828   5.122
 7916SOL    HW124647   0.971   4.783   5.096
 7916SOL    HW224648   1.056   4.849   5.220
 7917SOL     OW24649   3.210   3.289   4.601
 7917SOL    HW124650   3.292   3.265   4.653
 7917SOL    HW224651   3.220   3.258   4.506
 7918SOL     OW24652   0.514   1.137   5.016
 7918SOL    HW124653   0.523   1.215   4.953
 7918SOL    HW224654   0.495   1.054   4.963
 7919SOL     OW24655   2.107   4.576   2.930
 7919SOL    HW124656   2.201   4.548   2.947
 7919SOL    HW224657   2.079   4.544   2.839
 7920SOL     OW24658   0.181   6.839   0.615
 7920SOL    HW124659   0.177   6.741   0.596
 7920SOL    HW224660   0.167   6.889   0.529
 7921SOL     OW24661   5.184   6.062   1.650
 7921SOL    HW124662   5.170   6.153   1.688
 7921SOL    HW224663   5.245   6.067   1.571
 7922SOL     OW24664   0.025   6.527   0.883
 7922SOL    HW124665   0.001   6.623   0.875
 7922SOL    HW224666   0.095   6.516   0.954
 7923SOL     OW24667   3.418   0.176   0.921
 7923SOL    HW124668   3.340   0.225   0.880
 7923SOL    HW224669   3.406   0.173   1.020
 7924SOL     OW24670   4.907   6.828   1.747
 7924SOL    HW124671   5.007   6.830   1.737
 7924SOL    HW224672   4.884   6.822   1.844
 7925SOL     OW24673   1.260   1.484   6.227
 7925SOL    HW124674   1.343   1.508   6.177
 7925SOL    HW224675   1.180   1.513   6.175
 7926SOL     OW24676   4.665   1.589   5.433
 7926SOL    HW124677   4.724   1.522   5.477
 7926SOL    HW224678   4.642   1.662   5.497
 7927SOL     OW24679   4.554   5.531   2.725
 7927SOL    HW124680   4.543   5.622   2.765
 7927SOL    HW224681   4.650   5.505   2.727
 7928SOL     OW24682   1.076   1.623   4.987
 7928SOL    HW124683   1.088   1.622   4.888
 7928SOL    HW224684   1.130   1.549   5.028
 7929SOL     OW24685   4.831   4.354   5.640
 7929SOL    HW124686   4.845   4.306   5.553
 7929SOL    HW224687   4.821   4.452   5.623
 7930SOL     OW24688   4.143   5.497   4.996
 7930SOL    HW124689   4.099   5.414   5.032
 7930SOL    HW224690   4.200   5.538   5.066
 7931SOL     OW24691   2.713   2.787   0.136
 7931SOL    HW124692   2.714   2.828   0.045
 7931SOL    HW224693   2.785   2.718   0.143
 7932SOL     OW24694   1.253   6.434   6.599
 7932SOL    HW124695   1.155   6.455   6.600
 7932SOL    HW224696   1.303   6.512   6.561
 7933SOL     OW24697   0.334   5.961   5.922
 7933SOL    HW124698   0.432   5.944   5.910
 7933SOL    HW224699   0.299   6.008   5.841
 7934SOL     OW24700   1.790   4.912   6.888
 7934SOL    HW124701   1.839   4.936   6.971
 7934SOL    HW224702   1.845   4.849   6.834
 7935SOL     OW24703   5.743   6.344   0.658
 7935SOL    HW124704   5.787   6.423   0.617
 7935SOL    HW224705   5.809   6.269   0.666
 7936SOL     OW24706   3.509   5.986   2.640
 7936SOL    HW124707   3.556   6.054   2.696
 7936SOL    HW224708   3.473   5.913   2.698
 7937SOL     OW24709   6.523   6.497   3.807
 7937SOL    HW124710   6.466   6.500   3.726
 7937SOL    HW224711   6.571   6.409   3.811
 7938SOL     OW24712   6.892   5.543   3.413
 7938SOL    HW124713   6.847   5.483   3.479
 7938SOL    HW224714   6.991   5.533   3.421
 7939SOL     OW24715   1.346   2.942   4.792
 7939SOL    HW124716   1.330   3.024   4.737
 7939SOL    HW224717   1.441   2.942   4.824
 7940SOL     OW24718   1.744   3.605   1.664
 7940SOL    HW124719   1.717   3.532   1.601
 7940SOL    HW224720   1.742   3.571   1.758
 7941SOL     OW24721   5.650   0.903   1.326
 7941SOL    HW124722   5.637   0.928   1.423
 7941SOL    HW224723   5.694   0.814   1.321
 7942SOL     OW24724   6.766   5.768   2.332
 7942SOL    HW124725   6.804   5.791   2.422
 7942SOL    HW224726   6.713   5.684   2.339
 7943SOL     OW24727   5.875   3.491   0.258
 7943SOL    HW124728   5.917   3.437   0.331
 7943SOL    HW224729   5.942   3.508   0.186
 7944SOL     OW24730   0.778   2.371   1.448
 7944SOL    HW124731   0.824   2.448   1.404
 7944SOL    HW224732   0.769   2.296   1.383
 7945SOL     OW24733   5.684   5.258   0.990
 7945SOL    HW124734   5.625   5.182   0.962
 7945SOL    HW224735   5.633   5.320   1.050
 7946SOL     OW24736   2.952   0.675   5.413
 7946SOL    HW124737   2.992   0.760   5.447
 7946SOL    HW224738   2.898   0.693   5.331
 7947SOL     OW24739   3.717   2.061   6.157
 7947SOL    HW124740   3.671   2.105   6.080
 7947SOL    HW224741   3.788   1.999   6.122
 7948SOL     OW24742   0.880   0.075   1.148
 7948SOL    HW124743   0.831   0.096   1.064
 7948SOL    HW224744   0.931   0.155   1.178
 7949SOL     OW24745   4.286   4.705   4.709
 7949SOL    HW124746   4.211   4.650   4.672
 7949SOL    HW224747   4.302   4.682   4.805
 7950SOL     OW24748   4.972   5.100   4.379
 7950SOL    HW124749   4.886   5.088   4.329
 7950SOL    HW224750   4.964   5.060   4.470
 7951SOL     OW24751   2.168   4.155   2.031
 7951SOL    HW124752   2.198   4.063   2.055
 7951SOL    HW224753   2.124   4.154   1.942
 7952SOL     OW24754   0.278   3.700   0.263
 7952SOL    HW124755   0.190   3.664   0.296
 7952SOL    HW224756   0.342   3.624   0.250
 7953SOL     OW24757   2.716   2.130   4.002
 7953SOL    HW124758   2.740   2.222   3.970
 7953SOL    HW224759   2.665   2.083   3.930
 7954SOL     OW24760   3.397   4.279   6.737
 7954SOL    HW124761   3.373   4.198   6.683
 7954SOL    HW224762   3.405   4.358   6.676
 7955SOL     OW24763   1.504   0.149   6.470
 7955SOL    HW124764   1.519   0.244   6.443
 7955SOL    HW224765   1.449   0.147   6.553
 7956SOL     OW24766   3.750   6.119   2.112
 7956SOL    HW124767   3.663   6.165   2.131
 7956SOL    HW224768   3.791   6.158   2.029
 7957SOL     OW24769   1.051   1.193   1.722
 7957SOL    HW124770   1.018   1.190   1.628
 7957SOL    HW224771   0.977   1.163   1.784
 7958SOL     OW24772   3.276   5.296   4.664
 7958SOL    HW124773   3.218   5.215   4.659
 7958SOL    HW224774   3.363   5.278   4.618
 7959SOL     OW24775   4.537   5.855   0.692
 7959SOL    HW124776   4.494   5.830   0.606
 7959SOL    HW224777   4.636   5.864   0.679
 7960SOL     OW24778   2.627   1.133   6.368
 7960SOL    HW124779   2.554   1.065   6.375
 7960SOL    HW224780   2.694   1.118   6.441
 7961SOL     OW24781   6.806   1.351   0.741
 7961SOL    HW124782   6.721   1.338   0.793
 7961SOL    HW224783   6.784   1.380   0.648
 7962SOL     OW24784   1.172   0.766   6.352
 7962SOL    HW124785   1.186   0.839   6.419
 7962SOL    HW224786   1.130   0.687   6.396
 7963SOL     OW24787   6.182   6.151   4.440
 7963SOL    HW124788   6.185   6.143   4.340
 7963SOL    HW224789   6.112   6.090   4.476
 7964SOL     OW24790   0.465   4.603   2.251
 7964SOL    HW124791   0.452   4.649   2.339
 7964SOL    HW224792   0.401   4.641   2.184
 7965SOL     OW24793   4.092   2.162   5.882
 7965SOL    HW124794   4.142   2.075   5.879
 7965SOL    HW224795   4.154   2.235   5.910
 7966SOL     OW24796   1.547   2.735   6.009
 7966SOL    HW124797   1.629   2.707   6.058
 7966SOL    HW224798   1.530   2.672   5.933
 7967SOL     OW24799   2.856   6.530   3.352
 7967SOL    HW124800   2.800   6.463   3.302
 7967SOL    HW224801   2.907   6.585   3.286
 7968SOL     OW24802   1.659   2.879   3.691
 7968SOL    HW124803   1.755   2.856   3.706
 7968SOL    HW224804   1.604   2.849   3.768
 7969SOL     OW24805   3.975   6.225   0.047
 7969SOL    HW124806   3.973   6.281   0.129
 7969SOL    HW224807   3.882   6.201   0.019
 7970SOL     OW24808   6.018   2.957   2.742
 7970SOL    HW124809   6.117   2.952   2.727
 7970SOL    HW224810   5.987   3.051   2.730
 7971SOL     OW24811   3.475   2.080   0.438
 7971SOL    HW124812   3.541   2.012   0.469
 7971SOL    HW224813   3.484   2.162   0.494
 7972SOL     OW24814   1.926   3.046   0.334
 7972SOL    HW124815   1.981   3.104   0.275
 7972SOL    HW224816   1.881   3.102   0.404
 7973SOL     OW24817   4.221   4.725   4.281
 7973SOL    HW124818   4.189   4.796   4.343
 7973SOL    HW224819   4.290   4.669   4.328
 7974SOL     OW24820   5.931   1.215   5.407
 7974SOL    HW124821   5.844   1.209   5.358
 7974SOL    HW224822   6.004   1.174   5.351
 7975SOL     OW24823   6.374   1.460   2.532
 7975SOL    HW124824   6.355   1.557   2.517
 7975SOL    HW224825   6.463   1.450   2.577
 7976SOL     OW24826   0.504   7.008   6.076
 7976SOL    HW124827   0.583   6.954   6.046
 7976SOL    HW224828   0.510   0.080   6.038
 7977SOL     OW24829   4.773   6.379   2.141
 7977SOL    HW124830   4.783   6.319   2.220
 7977SOL    HW224831   4.802   6.471   2.165
 7978SOL     OW24832   5.612   3.875   6.643
 7978SOL    HW124833   5.558   3.794   6.621
 7978SOL    HW224834   5.676   3.854   6.717
 7979SOL     OW24835   4.249   6.014   5.298
 7979SOL    HW124836   4.166   6.031   5.352
 7979SOL    HW224837   4.242   6.062   5.210
 7980SOL     OW24838   2.487   5.298   6.936
 7980SOL    HW124839   2.390   5.304   6.960
 7980SOL    HW224840   2.540   5.355   6.999
 7981SOL     OW24841   0.494   5.590   1.461
 7981SOL    HW124842   0.467   5.503   1.419
 7981SOL    HW224843   0.448   5.665   1.415
 7982SOL     OW24844   1.022   1.302   0.088
 7982SOL    HW124845   1.066   1.392   0.096
 7982SOL    HW224846   1.019   1.275   7.012
 7983SOL     OW24847   6.025   2.204   1.613
 7983SOL    HW124848   5.974   2.169   1.692
 7983SOL    HW224849   6.076   2.130   1.570
 7984SOL     OW24850   1.920   1.460   1.054
 7984SOL    HW124851   2.010   1.499   1.074
 7984SOL    HW224852   1.922   1.414   0.966
 7985SOL     OW24853   2.647   0.985   4.191
 7985SOL    HW124854   2.726   0.938   4.153
 7985SOL    HW224855   2.648   0.977   4.291
 7986SOL     OW24856   2.873   1.290   6.392
 7986SOL    HW124857   2.773   1.284   6.389
 7986SOL    HW224858   2.908   1.311   6.301
 7987SOL     OW24859   1.579   2.664   6.354
 7987SOL    HW124860   1.544   2.752   6.386
 7987SOL    HW224861   1.644   2.679   6.280
 7988SOL     OW24862   0.672   2.322   4.278
 7988SOL    HW124863   0.720   2.342   4.363
 7988SOL    HW224864   0.639   2.228   4.279
 7989SOL     OW24865   3.685   2.935   5.656
 7989SOL    HW124866   3.703   3.003   5.585
 7989SOL    HW224867   3.740   2.956   5.737
 7990SOL     OW24868   0.068   3.683   4.696
 7990SOL    HW124869   0.000   3.657   4.765
 7990SOL    HW224870   0.160   3.671   4.733
 7991SOL     OW24871   5.983   6.676   3.548
 7991SOL    HW124872   5.946   6.591   3.512
 7991SOL    HW224873   5.911   6.728   3.593
 7992SOL     OW24874   1.467   0.782   1.412
 7992SOL    HW124875   1.403   0.709   1.389
 7992SOL    HW224876   1.503   0.767   1.504
 7993SOL     OW24877   0.836   0.092   0.234
 7993SOL    HW124878   0.924   0.045   0.234
 7993SOL    HW224879   0.778   0.056   0.160
 7994SOL     OW24880   4.403   6.629   3.808
 7994SOL    HW124881   4.360   6.563   3.869
 7994SOL    HW224882   4.475   6.583   3.755
 7995SOL     OW24883   4.663   5.676   3.709
 7995SOL    HW124884   4.734   5.615   3.673
 7995SOL    HW224885   4.578   5.661   3.659
 7996SOL     OW24886   3.174   6.890   4.478
 7996SOL    HW124887   3.270   6.877   4.456
 7996SOL    HW224888   3.145   6.981   4.448
 7997SOL     OW24889   0.329   1.499   1.223
 7997SOL    HW124890   0.396   1.547   1.280
 7997SOL    HW224891   0.346   1.400   1.228
 7998SOL     OW24892   3.214   6.199   1.247
 7998SOL    HW124893   3.184   6.264   1.317
 7998SOL    HW224894   3.263   6.247   1.175
 7999SOL     OW24895   0.798   0.215   6.316
 7999SOL    HW124896   0.727   0.145   6.311
 7999SOL    HW224897   0.757   0.306   6.304
 8000SOL     OW24898   5.067   0.111   6.491
 8000SOL    HW124899   5.141   0.118   6.558
 8000SOL    HW224900   4.992   0.058   6.531
 8001SOL     OW24901   4.198   6.402   1.101
 8001SOL    HW124902   4.222   6.327   1.039
 8001SOL    HW224903   4.135   6.368   1.172
 8002SOL     OW24904   0.737   1.925   5.942
 8002SOL    HW124905   0.643   1.892   5.954
 8002SOL    HW224906   0.801   1.859   5.983
 8003SOL     OW24907   2.939   5.191   2.410
 8003SOL    HW124908   2.908   5.135   2.334
 8003SOL    HW224909   2.948   5.286   2.380
 8004SOL     OW24910   2.164   3.543   3.071
 8004SOL    HW124911   2.081   3.531   3.017
 8004SOL    HW224912   2.243   3.513   3.018
 8005SOL     OW24913   2.972   0.880   1.585
 8005SOL    HW124914   2.983   0.804   1.649
 8005SOL    HW224915   2.923   0.849   1.504
 8006SOL     OW24916   1.770   0.453   6.284
 8006SOL    HW124917   1.821   0.407   6.211
 8006SOL    HW224918   1.743   0.544   6.254
 8007SOL     OW24919   6.914   0.415   4.297
 8007SOL    HW124920   6.866   0.445   4.214
 8007SOL    HW224921   6.983   0.483   4.322
 8008SOL     OW24922   4.235   5.618   6.705
 8008SOL    HW124923   4.142   5.653   6.711
 8008SOL    HW224924   4.241   5.531   6.753
 8009SOL     OW24925   5.441   1.012   2.407
 8009SOL    HW124926   5.438   0.934   2.470
 8009SOL    HW224927   5.403   1.093   2.452
 8010SOL     OW24928   0.600   1.137   6.144
 8010SOL    HW124929   0.642   1.151   6.054
 8010SOL    HW224930   0.596   1.039   6.164
 8011SOL     OW24931   3.558   2.626   0.957
 8011SOL    HW124932   3.469   2.619   1.004
 8011SOL    HW224933   3.588   2.534   0.931
 8012SOL     OW24934   1.432   4.244   1.832
 8012SOL    HW124935   1.431   4.344   1.824
 8012SOL    HW224936   1.508   4.207   1.779
 8013SOL     OW24937   1.124   5.300   3.541
 8013SOL    HW124938   1.098   5.289   3.445
 8013SOL    HW224939   1.223   5.298   3.549
 8014SOL     OW24940   0.770   6.571   5.240
 8014SOL    HW124941   0.730   6.650   5.193
 8014SOL    HW224942   0.865   6.560   5.212
 8015SOL     OW24943   2.769   0.864   0.027
 8015SOL    HW124944   2.750   0.768   0.006
 8015SOL    HW224945   2.718   0.891   0.108
 8016SOL     OW24946   5.453   6.775   5.983
 8016SOL    HW124947   5.534   6.791   5.925
 8016SOL    HW224948   5.371   6.801   5.933
 8017SOL     OW24949   5.630   0.063   0.209
 8017SOL    HW124950   5.624   0.163   0.209
 8017SOL    HW224951   5.663   0.032   0.298
 8018SOL     OW24952   3.201   1.705   5.775
 8018SOL    HW124953   3.149   1.706   5.689
 8018SOL    HW224954   3.212   1.799   5.807
 8019SOL     OW24955   2.185   4.603   6.635
 8019SOL    HW124956   2.154   4.509   6.620
 8019SOL    HW224957   2.209   4.645   6.547
 8020SOL     OW24958   5.450   0.808   0.910
 8020SOL    HW124959   5.526   0.779   0.969
 8020SOL    HW224960   5.365   0.805   0.963
 8021SOL     OW24961   1.267   2.807   1.170
 8021SOL    HW124962   1.255   2.717   1.129
 8021SOL    HW224963   1.177   2.846   1.192
 8022SOL     OW24964   5.218   6.459   2.809
 8022SOL    HW124965   5.303   6.490   2.765
 8022SOL    HW224966   5.142   6.514   2.775
 8023SOL     OW24967   5.856   5.679   2.788
 8023SOL    HW124968   5.799   5.735   2.728
 8023SOL    HW224969   5.808   5.664   2.875
 8024SOL     OW24970   2.117   4.984   6.806
 8024SOL    HW124971   2.206   4.946   6.831
 8024SOL    HW224972   2.109   4.987   6.706
 8025SOL     OW24973   2.032   6.617   6.721
 8025SOL    HW124974   2.045   6.714   6.743
 8025SOL    HW224975   1.936   6.602   6.696
 8026SOL     OW24976   0.825   4.186   6.908
 8026SOL    HW124977   0.777   4.103   6.880
 8026SOL    HW224978   0.918   4.185   6.870
 8027SOL     OW24979   4.711   0.422   5.461
 8027SOL    HW124980   4.739   0.502   5.515
 8027SOL    HW224981   4.659   0.451   5.381
 8028SOL     OW24982   2.841   5.516   4.744
 8028SOL    HW124983   2.829   5.582   4.669
 8028SOL    HW224984   2.856   5.425   4.706
 8029SOL     OW24985   4.878   2.828   1.485
 8029SOL    HW124986   4.942   2.780   1.543
 8029SOL    HW224987   4.846   2.911   1.532
 8030SOL     OW24988   4.376   4.476   1.065
 8030SOL    HW124989   4.343   4.395   1.017
 8030SOL    HW224990   4.321   4.555   1.038
 8031SOL     OW24991   5.811   6.552   1.903
 8031SOL    HW124992   5.750   6.629   1.885
 8031SOL    HW224993   5.807   6.487   1.828
 8032SOL     OW24994   6.736   5.037   1.334
 8032SOL    HW124995   6.650   5.034   1.384
 8032SOL    HW224996   6.812   5.049   1.398
 8033SOL     OW24997   5.018   1.415   5.724
 8033SOL    HW124998   4.980   1.493   5.774
 8033SOL    HW224999   5.066   1.354   5.787
 8034SOL     OW25000   5.405   6.644   4.485
 8034SOL    HW125001   5.438   6.651   4.391
 8034SOL    HW225002   5.465   6.582   4.537
 8035SOL     OW25003   5.171   1.778   4.149
 8035SOL    HW125004   5.119   1.863   4.150
 8035SOL    HW225005   5.225   1.771   4.233
 8036SOL     OW25006   6.925   3.891   3.344
 8036SOL    HW125007   6.928   3.990   3.331
 8036SOL    HW225008   6.912   3.871   3.441
 8037SOL     OW25009   1.600   3.422   0.120
 8037SOL    HW125010   1.546   3.482   0.179
 8037SOL    HW225011   1.555   3.333   0.113
 8038SOL     OW25012   4.204   6.868   2.591
 8038SOL    HW125013   4.250   6.781   2.575
 8038SOL    HW225014   4.203   6.921   2.506
 8039SOL     OW25015   0.730   2.031   4.549
 8039SOL    HW125016   0.710   2.064   4.456
 8039SOL    HW225017   0.829   2.032   4.564
 8040SOL     OW25018   1.472   5.834   0.199
 8040SOL    HW125019   1.526   5.913   0.168
 8040SOL    HW225020   1.469   5.765   0.127
 8041SOL     OW25021   2.524   1.729   2.882
 8041SOL    HW125022   2.491   1.680   2.963
 8041SOL    HW225023   2.507   1.827   2.894
 8042SOL     OW25024   2.915   3.487   3.759
 8042SOL    HW125025   2.914   3.463   3.662
 8042SOL    HW225026   2.846   3.558   3.776
 8043SOL     OW25027   3.535   0.072   1.759
 8043SOL    HW125028   3.491   0.101   1.674
 8043SOL    HW225029   3.591   7.012   1.742
 8044SOL     OW25030   4.004   2.430   1.366
 8044SOL    HW125031   3.978   2.341   1.329
 8044SOL    HW225032   4.103   2.442   1.358
 8045SOL     OW25033   5.387   1.448   2.527
 8045SOL    HW125034   5.411   1.471   2.622
 8045SOL    HW225035   5.346   1.528   2.483
 8046SOL     OW25036   0.198   5.464   1.600
 8046SOL    HW125037   0.200   5.526   1.679
 8046SOL    HW225038   0.211   5.516   1.516
 8047SOL     OW25039   4.053   5.595   4.752
 8047SOL    HW125040   4.122   5.546   4.699
 8047SOL    HW225041   4.056   5.565   4.847
 8048SOL     OW25042   5.011   0.818   5.533
 8048SOL    HW125043   4.967   0.847   5.448
 8048SOL    HW225044   5.086   0.880   5.555
 8049SOL     OW25045   1.026   0.336   0.064
 8049SOL    HW125046   1.063   0.273   7.017
 8049SOL    HW225047   0.927   0.345   0.052
 8050SOL     OW25048   1.667   4.368   3.427
 8050SOL    HW125049   1.683   4.407   3.336
 8050SOL    HW225050   1.705   4.276   3.432
 8051SOL     OW25051   4.438   5.573   3.549
 8051SOL    HW125052   4.368   5.644   3.556
 8051SOL    HW225053   4.395   5.483   3.561
 8052SOL     OW25054   4.630   1.344   1.784
 8052SOL    HW125055   4.591   1.408   1.850
 8052SOL    HW225056   4.696   1.392   1.726
 8053SOL     OW25057   2.954   3.610   3.267
 8053SOL    HW125058   2.925   3.695   3.222
 8053SOL    HW225059   3.017   3.632   3.342
 8054SOL     OW25060   5.170   6.569   4.658
 8054SOL    HW125061   5.099   6.638   4.644
 8054SOL    HW225062   5.245   6.585   4.593
 8055SOL     OW25063   0.545   0.131   5.532
 8055SOL    HW125064   0.452   0.154   5.502
 8055SOL    HW225065   0.607   0.136   5.454
 8056SOL     OW25066   2.817   1.343   4.307
 8056SOL    HW125067   2.734   1.351   4.252
 8056SOL    HW225068   2.831   1.427   4.359
 8057SOL     OW25069   3.034   1.653   3.135
 8057SOL    HW125070   3.010   1.750   3.127
 8057SOL    HW225071   3.016   1.608   3.047
 8058SOL     OW25072   3.850   0.138   2.249
 8058SOL    HW125073   3.822   0.228   2.281
 8058SOL    HW225074   3.949   0.137   2.234
 8059SOL     OW25075   3.381   1.798   4.829
 8059SOL    HW125076   3.313   1.869   4.808
 8059SOL    HW225077   3.371   1.770   4.924
 8060SOL     OW25078   6.215   2.201   4.697
 8060SOL    HW125079   6.284   2.198   4.769
 8060SOL    HW225080   6.216   2.114   4.647
 8061SOL     OW25081   0.496   1.095   2.947
 8061SOL    HW125082   0.534   1.187   2.957
 8061SOL    HW225083   0.456   1.066   3.034
 8062SOL     OW25084   3.876   5.085   4.055
 8062SOL    HW125085   3.919   4.996   4.041
 8062SOL    HW225086   3.776   5.074   4.054
 8063SOL     OW25087   0.930   2.526   1.258
 8063SOL    HW125088   0.938   2.526   1.159
 8063SOL    HW225089   1.013   2.487   1.299
 8064SOL     OW25090   0.258   3.815   1.953
 8064SOL    HW125091   0.172   3.803   2.002
 8064SOL    HW225092   0.322   3.867   2.010
 8065SOL     OW25093   2.065   5.814   3.445
 8065SOL    HW125094   2.136   5.876   3.480
 8065SOL    HW225095   2.071   5.809   3.346
 8066SOL     OW25096   0.160   2.193   5.515
 8066SOL    HW125097   0.070   2.154   5.537
 8066SOL    HW225098   0.161   2.290   5.539
 8067SOL     OW25099   4.550   2.770   1.736
 8067SOL    HW125100   4.553   2.855   1.789
 8067SOL    HW225101   4.638   2.757   1.691
 8068SOL     OW25102   0.202   3.674   1.291
 8068SOL    HW125103   0.167   3.761   1.257
 8068SOL    HW225104   0.160   3.599   1.238
 8069SOL     OW25105   2.152   6.624   1.601
 8069SOL    HW125106   2.187   6.717   1.616
 8069SOL    HW225107   2.055   6.621   1.626
 8070SOL     OW25108   3.950   3.078   0.160
 8070SOL    HW125109   3.963   3.130   0.076
 8070SOL    HW225110   3.864   3.104   0.204
 8071SOL     OW25111   2.926   6.093   5.056
 8071SOL    HW125112   2.886   6.126   4.970
 8071SOL    HW225113   2.999   6.154   5.085
 8072SOL     OW25114   3.563   1.254   0.775
 8072SOL    HW125115   3.544   1.249   0.677
 8072SOL    HW225116   3.640   1.195   0.797
 8073SOL     OW25117   2.870   5.285   4.579
 8073SOL    HW125118   2.852   5.189   4.604
 8073SOL    HW225119   2.861   5.296   4.480
 8074SOL     OW25120   3.976   2.359   0.720
 8074SOL    HW125121   3.972   2.328   0.815
 8074SOL    HW225122   4.067   2.343   0.683
 8075SOL     OW25123   6.952   0.646   1.049
 8075SOL    HW125124   0.008   0.595   1.009
 8075SOL    HW225125   6.923   0.718   0.986
 8076SOL     OW25126   6.727   1.293   5.226
 8076SOL    HW125127   6.822   1.289   5.259
 8076SOL    HW225128   6.721   1.359   5.151
 8077SOL     OW25129   2.698   5.870   2.142
 8077SOL    HW125130   2.723   5.915   2.227
 8077SOL    HW225131   2.608   5.902   2.112
 8078SOL     OW25132   0.299   1.263   0.078
 8078SOL    HW125133   0.201   1.252   0.093
 8078SOL    HW225134   0.315   1.312   7.012
 8079SOL     OW25135   4.637   1.499   3.401
 8079SOL    HW125136   4.584   1.499   3.486
 8079SOL    HW225137   4.649   1.592   3.368
 8080SOL     OW25138   0.413   2.632   0.347
 8080SOL    HW125139   0.330   2.592   0.385
 8080SOL    HW225140   0.399   2.730   0.330
 8081SOL     OW25141   5.521   6.006   5.370
 8081SOL    HW125142   5.496   5.946   5.295
 8081SOL    HW225143   5.552   5.951   5.448
 8082SOL     OW25144   4.693   6.649   1.762
 8082SOL    HW125145   4.762   6.719   1.743
 8082SOL    HW225146   4.625   6.685   1.826
 8083SOL     OW25147   4.951   3.326   2.771
 8083SOL    HW125148   5.051   3.315   2.768
 8083SOL    HW225149   4.925   3.406   2.718
 8084SOL     OW25150   4.648   0.076   0.564
 8084SOL    HW125151   4.627   0.154   0.622
 8084SOL    HW225152   4.567   0.050   0.511
 8085SOL     OW25153   6.504   6.567   1.775
 8085SOL    HW125154   6.547   6.647   1.734
 8085SOL    HW225155   6.409   6.561   1.744
 8086SOL     OW25156   5.085   1.012   3.070
 8086SOL    HW125157   4.998   1.001   3.118
 8086SOL    HW225158   5.096   0.939   3.003
 8087SOL     OW25159   2.832   1.680   0.469
 8087SOL    HW125160   2.781   1.605   0.427
 8087SOL    HW225161   2.910   1.643   0.520
 8088SOL     OW25162   5.114   2.124   1.354
 8088SOL    HW125163   5.180   2.194   1.380
 8088SOL    HW225164   5.031   2.134   1.410
 8089SOL     OW25165   5.570   2.233   0.797
 8089SOL    HW125166   5.495   2.168   0.793
 8089SOL    HW225167   5.649   2.190   0.841
 8090SOL     OW25168   4.862   1.476   0.061
 8090SOL    HW125169   4.845   1.548   0.127
 8090SOL    HW225170   4.789   1.407   0.066
 8091SOL     OW25171   2.577   3.434   5.307
 8091SOL    HW125172   2.517   3.508   5.276
 8091SOL    HW225173   2.672   3.467   5.307
 8092SOL     OW25174   6.300   1.920   5.286
 8092SOL    HW125175   6.214   1.906   5.236
 8092SOL    HW225176   6.347   2.000   5.249
 8093SOL     OW25177   3.979   5.226   2.900
 8093SOL    HW125178   3.897   5.219   2.844
 8093SOL    HW225179   4.016   5.319   2.893
 8094SOL     OW25180   1.779   3.648   5.050
 8094SOL    HW125181   1.739   3.557   5.060
 8094SOL    HW225182   1.816   3.678   5.137
 8095SOL     OW25183   6.964   4.308   5.098
 8095SOL    HW125184   6.907   4.290   5.018
 8095SOL    HW225185   6.993   4.222   5.139
 8096SOL     OW25186   2.583   6.664   3.195
 8096SOL    HW125187   2.522   6.666   3.116
 8096SOL    HW225188   2.656   6.598   3.180
 8097SOL     OW25189   4.796   0.151   4.036
 8097SOL    HW125190   4.860   0.177   3.963
 8097SOL    HW225191   4.743   0.071   4.008
 8098SOL     OW25192   1.897   0.409   3.266
 8098SOL    HW125193   1.857   0.495   3.233
 8098SOL    HW225194   1.996   0.421   3.278
 8099SOL     OW25195   3.677   7.014   4.571
 8099SOL    HW125196   3.603   0.018   4.633
 8099SOL    HW225197   3.662   0.036   4.481
 8100SOL     OW25198   5.974   1.180   0.701
 8100SOL    HW125199   6.055   1.125   0.721
 8100SOL    HW225200   6.000   1.261   0.649
 8101SOL     OW25201   2.219   0.006   3.154
 8101SOL    HW125202   2.206   0.088   3.097
 8101SOL    HW225203   2.140   6.967   3.145
 8102SOL     OW25204   0.522   4.663   4.082
 8102SOL    HW125205   0.528   4.627   4.175
 8102SOL    HW225206   0.460   4.605   4.028
 8103SOL     OW25207   4.035   6.950   1.172
 8103SOL    HW125208   4.006   0.021   1.200
 8103SOL    HW225209   4.097   6.912   1.241
 8104SOL     OW25210   3.171   0.143   6.170
 8104SOL    HW125211   3.138   0.092   6.249
 8104SOL    HW225212   3.173   0.240   6.192
 8105SOL     OW25213   0.343   2.541   3.139
 8105SOL    HW125214   0.424   2.485   3.123
 8105SOL    HW225215   0.322   2.594   3.056
 8106SOL     OW25216   2.201   5.754   2.623
 8106SOL    HW125217   2.101   5.766   2.621
 8106SOL    HW225218   2.245   5.831   2.578
 8107SOL     OW25219   0.536   5.077   4.336
 8107SOL    HW125220   0.559   4.982   4.313
 8107SOL    HW225221   0.600   5.139   4.289
 8108SOL     OW25222   5.897   3.116   5.259
 8108SOL    HW125223   5.972   3.179   5.280
 8108SOL    HW225224   5.884   3.053   5.335
 8109SOL     OW25225   1.683   3.795   4.499
 8109SOL    HW125226   1.660   3.744   4.582
 8109SOL    HW225227   1.691   3.892   4.522
 8110SOL     OW25228   3.262   6.478   0.915
 8110SOL    HW125229   3.319   6.425   0.978
 8110SOL    HW225230   3.320   6.527   0.850
 8111SOL     OW25231   4.579   0.304   4.971
 8111SOL    HW125232   4.483   0.293   4.944
 8111SOL    HW225233   4.623   0.215   4.974
 8112SOL     OW25234   2.523   2.598   4.938
 8112SOL    HW125235   2.463   2.644   4.873
 8112SOL    HW225236   2.599   2.554   4.889
 8113SOL     OW25237   3.048   3.319   0.868
 8113SOL    HW125238   3.008   3.388   0.808
 8113SOL    HW225239   3.101   3.364   0.940
 8114SOL     OW25240   1.865   3.898   1.859
 8114SOL    HW125241   1.954   3.858   1.878
 8114SOL    HW225242   1.875   3.974   1.795
 8115SOL     OW25243   3.510   0.466   0.106
 8115SOL    HW125244   3.503   0.549   0.050
 8115SOL    HW225245   3.572   0.482   0.182
 8116SOL     OW25246   4.327   5.587   5.794
 8116SOL    HW125247   4.369   5.497   5.792
 8116SOL    HW225248   4.293   5.610   5.703
 8117SOL     OW25249   1.785   0.963   3.752
 8117SOL    HW125250   1.800   1.019   3.670
 8117SOL    HW225251   1.717   1.007   3.810
 8118SOL     OW25252   5.888   4.316   6.003
 8118SOL    HW125253   5.897   4.290   5.907
 8118SOL    HW225254   5.872   4.415   6.009
 8119SOL     OW25255   6.156   6.083   5.652
 8119SOL    HW125256   6.190   6.000   5.609
 8119SOL    HW225257   6.214   6.105   5.731
 8120SOL     OW25258   2.213   5.223   0.557
 8120SOL    HW125259   2.267   5.304   0.533
 8120SOL    HW225260   2.274   5.152   0.592
 8121SOL     OW25261   0.969   4.315   1.941
 8121SOL    HW125262   0.872   4.293   1.957
 8121SOL    HW225263   0.976   4.400   1.889
 8122SOL     OW25264   1.047   5.877   2.164
 8122SOL    HW125265   1.115   5.818   2.206
 8122SOL    HW225266   0.973   5.896   2.229
 8123SOL     OW25267   6.345   0.748   6.403
 8123SOL    HW125268   6.303   0.671   6.356
 8123SOL    HW225269   6.352   0.826   6.340
 8124SOL     OW25270   6.259   6.671   1.069
 8124SOL    HW125271   6.240   6.765   1.097
 8124SOL    HW225272   6.173   6.621   1.058
 8125SOL     OW25273   1.377   1.232   3.952
 8125SOL    HW125274   1.283   1.206   3.933
 8125SOL    HW225275   1.400   1.315   3.900
 8126SOL     OW25276   5.378   4.812   2.847
 8126SOL    HW125277   5.450   4.785   2.912
 8126SOL    HW225278   5.402   4.780   2.756
 8127SOL     OW25279   3.258   5.938   6.550
 8127SOL    HW125280   3.202   5.855   6.543
 8127SOL    HW225281   3.345   5.923   6.503
 8128SOL     OW25282   2.864   1.850   1.610
 8128SOL    HW125283   2.930   1.776   1.619
 8128SOL    HW225284   2.855   1.877   1.514
 8129SOL     OW25285   4.174   0.747   5.922
 8129SOL    HW125286   4.267   0.745   5.958
 8129SOL    HW225287   4.130   0.832   5.950
 8130SOL     OW25288   0.477   3.565   5.954
 8130SOL    HW125289   0.571   3.576   5.923
 8130SOL    HW225290   0.428   3.506   5.890
 8131SOL     OW25291   3.551   2.035   0.764
 8131SOL    HW125292   3.601   2.039   0.850
 8131SOL    HW225293   3.593   2.096   0.697
 8132SOL     OW25294   6.107   6.298   6.057
 8132SOL    HW125295   6.129   6.340   6.145
 8132SOL    HW225296   6.065   6.367   5.998
 8133SOL     OW25297   2.875   4.483   1.369
 8133SOL    HW125298   2.820   4.512   1.447
 8133SOL    HW225299   2.829   4.406   1.324
 8134SOL     OW25300   0.412   2.736   5.427
 8134SOL    HW125301   0.393   2.760   5.332
 8134SOL    HW225302   0.327   2.708   5.472
 8135SOL     OW25303   2.317   5.823   1.396
 8135SOL    HW125304   2.241   5.824   1.330
 8135SOL    HW225305   2.285   5.855   1.485
 8136SOL     OW25306   4.363   4.950   3.221
 8136SOL    HW125307   4.389   4.907   3.135
 8136SOL    HW225308   4.287   4.899   3.262
 8137SOL     OW25309   3.515   1.336   5.286
 8137SOL    HW125310   3.442   1.276   5.253
 8137SOL    HW225311   3.554   1.386   5.209
 8138SOL     OW25312   5.977   1.474   0.257
 8138SOL    HW125313   5.948   1.548   0.317
 8138SOL    HW225314   5.897   1.422   0.228
 8139SOL     OW25315   0.664   1.369   3.384
 8139SOL    HW125316   0.733   1.300   3.405
 8139SOL    HW225317   0.576   1.341   3.424
 8140SOL     OW25318   4.903   0.276   0.737
 8140SOL    HW125319   4.962   0.298   0.659
 8140SOL    HW225320   4.953   0.216   0.800
 8141SOL     OW25321   4.553   6.319   5.548
 8141SOL    HW125322   4.479   6.324   5.481
 8141SOL    HW225323   4.568   6.409   5.588
 8142SOL     OW25324   1.630   4.731   6.967
 8142SOL    HW125325   1.538   4.743   6.930
 8142SOL    HW225326   1.691   4.800   6.926
 8143SOL     OW25327   0.007   4.569   0.714
 8143SOL    HW125328   6.985   4.498   0.657
 8143SOL    HW225329   0.018   4.535   0.807
 8144SOL     OW25330   7.002   6.333   6.012
 8144SOL    HW125331   6.981   6.361   6.105
 8144SOL    HW225332   7.015   6.234   6.009
 8145SOL     OW25333   5.640   5.848   1.451
 8145SOL    HW125334   5.623   5.869   1.355
 8145SOL    HW225335   5.575   5.777   1.481
 8146SOL     OW25336   4.751   0.886   5.050
 8146SOL    HW125337   4.828   0.844   5.001
 8146SOL    HW225338   4.672   0.826   5.046
 8147SOL     OW25339   6.942   1.401   1.990
 8147SOL    HW125340   6.852   1.371   1.959
 8147SOL    HW225341   6.950   1.385   2.089
 8148SOL     OW25342   5.187   4.351   1.042
 8148SOL    HW125343   5.158   4.332   0.949
 8148SOL    HW225344   5.249   4.280   1.073
 8149SOL     OW25345   2.055   6.156   2.778
 8149SOL    HW125346   2.128   6.159   2.847
 8149SOL    HW225347   1.966   6.164   2.824
 8150SOL     OW25348   1.910   3.904   1.309
 8150SOL    HW125349   1.890   3.806   1.307
 8150SOL    HW225350   1.947   3.932   1.221
 8151SOL     OW25351   5.517   4.447   2.583
 8151SOL    HW125352   5.420   4.448   2.561
 8151SOL    HW225353   5.556   4.538   2.568
 8152SOL     OW25354   5.983   2.068   2.987
 8152SOL    HW125355   5.981   2.157   3.034
 8152SOL    HW225356   6.026   2.079   2.897
 8153SOL     OW25357   1.256   1.951   3.950
 8153SOL    HW125358   1.162   1.931   3.978
 8153SOL    HW225359   1.256   1.995   3.860
 8154SOL     OW25360   4.097   5.422   2.750
 8154SOL    HW125361   4.107   5.481   2.669
 8154SOL    HW225362   4.184   5.376   2.768
 8155SOL     OW25363   1.764   3.115   1.735
 8155SOL    HW125364   1.669   3.135   1.713
 8155SOL    HW225365   1.805   3.061   1.661
 8156SOL     OW25366   5.086   6.326   0.427
 8156SOL    HW125367   5.079   6.375   0.513
 8156SOL    HW225368   4.997   6.324   0.382
 8157SOL     OW25369   6.263   4.830   5.872
 8157SOL    HW125370   6.171   4.808   5.841
 8157SOL    HW225371   6.286   4.773   5.951
 8158SOL     OW25372   4.851   4.579   0.053
 8158SOL    HW125373   4.770   4.623   0.091
 8158SOL    HW225374   4.843   4.576   6.973
 8159SOL     OW25375   2.612   5.727   2.645
 8159SOL    HW125376   2.624   5.713   2.743
 8159SOL    HW225377   2.588   5.640   2.601
 8160SOL     OW25378   5.354   0.542   3.501
 8160SOL    HW125379   5.359   0.465   3.438
 8160SOL    HW225380   5.391   0.624   3.457
 8161SOL     OW25381   6.128   2.498   6.447
 8161SOL    HW125382   6.038   2.509   6.491
 8161SOL    HW225383   6.121   2.523   6.351
 8162SOL     OW25384   6.424   6.520   6.861
 8162SOL    HW125385   6.384   6.590   6.802
 8162SOL    HW225386   6.423   6.432   6.815
 8163SOL     OW25387   2.664   4.143   5.419
 8163SOL    HW125388   2.741   4.119   5.479
 8163SOL    HW225389   2.680   4.234   5.380
 8164SOL     OW25390   5.156   2.349   0.296
 8164SOL    HW125391   5.068   2.393   0.275
 8164SOL    HW225392   5.230   2.416   0.285
 8165SOL     OW25393   0.801   3.912   6.195
 8165SOL    HW125394   0.830   3.976   6.266
 8165SOL    HW225395   0.811   3.955   6.105
 8166SOL     OW25396   1.509   0.648   3.272
 8166SOL    HW125397   1.431   0.634   3.210
 8166SOL    HW225398   1.488   0.722   3.336
 8167SOL     OW25399   0.157   0.192   3.810
 8167SOL    HW125400   0.210   0.127   3.756
 8167SOL    HW225401   0.061   0.166   3.809
 8168SOL     OW25402   2.184   1.706   2.814
 8168SOL    HW125403   2.098   1.671   2.853
 8168SOL    HW225404   2.261   1.656   2.854
 8169SOL     OW25405   4.980   2.054   0.685
 8169SOL    HW125406   5.073   2.050   0.649
 8169SOL    HW225407   4.928   2.122   0.635
 8170SOL     OW25408   1.164   5.258   2.009
 8170SOL    HW125409   1.159   5.163   1.979
 8170SOL    HW225410   1.092   5.311   1.963
 8171SOL     OW25411   1.766   1.844   6.476
 8171SOL    HW125412   1.675   1.887   6.472
 8171SOL    HW225413   1.834   1.909   6.442
 8172SOL     OW25414   0.431   2.424   2.479
 8172SOL    HW125415   0.527   2.399   2.464
 8172SOL    HW225416   0.418   2.520   2.453
 8173SOL     OW25417   5.633   1.633   2.422
 8173SOL    HW125418   5.629   1.556   2.486
 8173SOL    HW225419   5.610   1.602   2.330
 8174SOL     OW25420   6.533   1.389   1.989
 8174SOL    HW125421   6.610   1.335   1.954
 8174SOL    HW225422   6.484   1.337   2.059
 8175SOL     OW25423   0.705   3.091   5.539
 8175SOL    HW125424   0.748   3.002   5.525
 8175SOL    HW225425   0.675   3.128   5.452
 8176SOL     OW25426   2.141   5.015   1.518
 8176SOL    HW125427   2.061   5.031   1.575
 8176SOL    HW225428   2.179   5.102   1.487
 8177SOL     OW25429   3.532   6.474   3.705
 8177SOL    HW125430   3.618   6.477   3.757
 8177SOL    HW225431   3.536   6.399   3.639
 8178SOL     OW25432   2.779   6.142   0.304
 8178SOL    HW125433   2.698   6.089   0.280
 8178SOL    HW225434   2.761   6.239   0.290
 8179SOL     OW25435   4.883   1.879   5.066
 8179SOL    HW125436   4.803   1.835   5.107
 8179SOL    HW225437   4.912   1.829   4.985
 8180SOL     OW25438   6.484   0.458   5.115
 8180SOL    HW125439   6.531   0.421   5.035
 8180SOL    HW225440   6.542   0.447   5.196
 8181SOL     OW25441   2.306   1.474   0.726
 8181SOL    HW125442   2.310   1.574   0.720
 8181SOL    HW225443   2.395   1.436   0.699
 8182SOL     OW25444   3.153   3.680   5.773
 8182SOL    HW125445   3.091   3.751   5.807
 8182SOL    HW225446   3.208   3.717   5.698
 8183SOL     OW25447   6.515   1.920   5.037
 8183SOL    HW125448   6.525   1.841   5.097
 8183SOL    HW225449   6.494   2.001   5.091
 8184SOL     OW25450   6.480   0.793   0.336
 8184SOL    HW125451   6.492   0.798   0.435
 8184SOL    HW225452   6.395   0.838   0.309
 8185SOL     OW25453   2.496   0.476   0.164
 8185SOL    HW125454   2.439   0.418   0.106
 8185SOL    HW225455   2.522   0.425   0.246
 8186SOL     OW25456   3.741   4.854   5.314
 8186SOL    HW125457   3.735   4.903   5.227
 8186SOL    HW225458   3.707   4.761   5.303
 8187SOL     OW25459   1.403   2.087   4.624
 8187SOL    HW125460   1.350   2.172   4.613
 8187SOL    HW225461   1.341   2.014   4.653
 8188SOL     OW25462   5.887   2.779   2.949
 8188SOL    HW125463   5.950   2.824   2.886
 8188SOL    HW225464   5.793   2.798   2.921
 8189SOL     OW25465   4.701   4.313   2.732
 8189SOL    HW125466   4.708   4.286   2.829
 8189SOL    HW225467   4.621   4.371   2.720
 8190SOL     OW25468   4.917   5.016   4.623
 8190SOL    HW125469   4.984   5.085   4.651
 8190SOL    HW225470   4.825   5.046   4.648
 8191SOL     OW25471   3.463   6.379   1.463
 8191SOL    HW125472   3.561   6.365   1.474
 8191SOL    HW225473   3.415   6.291   1.470
 8192SOL     OW25474   3.664   4.814   0.531
 8192SOL    HW125475   3.647   4.820   0.433
 8192SOL    HW225476   3.640   4.723   0.564
 8193SOL     OW25477   6.780   5.819   4.565
 8193SOL    HW125478   6.817   5.912   4.561
 8193SOL    HW225479   6.724   5.809   4.647
 8194SOL     OW25480   5.578   2.442   1.173
 8194SOL    HW125481   5.483   2.465   1.150
 8194SOL    HW225482   5.589   2.440   1.272
 8195SOL     OW25483   1.422   0.617   1.956
 8195SOL    HW125484   1.395   0.701   1.909
 8195SOL    HW225485   1.340   0.563   1.977
 8196SOL     OW25486   3.787   6.076   5.859
 8196SOL    HW125487   3.773   6.068   5.958
 8196SOL    HW225488   3.878   6.043   5.835
 8197SOL     OW25489   4.396   1.879   0.184
 8197SOL    HW125490   4.358   1.961   0.142
 8197SOL    HW225491   4.363   1.798   0.136
 8198SOL     OW25492   3.680   6.841   3.032
 8198SOL    HW125493   3.769   6.877   3.056
 8198SOL    HW225494   3.661   6.858   2.936
 8199SOL     OW25495   5.840   2.882   6.501
 8199SOL    HW125496   5.858   2.961   6.560
 8199SOL    HW225497   5.757   2.899   6.448
 8200SOL     OW25498   5.274   4.456   1.992
 8200SOL    HW125499   5.239   4.369   2.026
 8200SOL    HW225500   5.328   4.500   2.063
 8201SOL     OW25501   5.833   0.378   3.620
 8201SOL    HW125502   5.788   0.296   3.655
 8201SOL    HW225503   5.860   0.363   3.525
 8202SOL     OW25504   0.656   5.708   3.927
 8202SOL    HW125505   0.742   5.743   3.965
 8202SOL    HW225506   0.581   5.770   3.950
 8203SOL     OW25507   4.310   2.408   0.105
 8203SOL    HW125508   4.390   2.451   0.063
 8203SOL    HW225509   4.248   2.479   0.139
 8204SOL     OW25510   2.450   5.083   6.712
 8204SOL    HW125511   2.424   5.180   6.710
 8204SOL    HW225512   2.487   5.060   6.802
 8205SOL     OW25513   0.279   4.524   0.765
 8205SOL    HW125514   0.342   4.586   0.810
 8205SOL    HW225515   0.186   4.562   0.769
 8206SOL     OW25516   4.879   2.759   6.006
 8206SOL    HW125517   4.837   2.798   6.089
 8206SOL    HW225518   4.881   2.828   5.934
 8207SOL     OW25519   3.388   4.177   4.731
 8207SOL    HW125520   3.326   4.120   4.677
 8207SOL    HW225521   3.344   4.264   4.752
 8208SOL     OW25522   2.352   6.991   1.238
 8208SOL    HW125523   2.293   0.025   1.299
 8208SOL    HW225524   2.295   6.948   1.167
 8209SOL     OW25525   0.761   1.285   5.455
 8209SOL    HW125526   0.798   1.368   5.495
 8209SOL    HW225527   0.663   1.280   5.473
 8210SOL     OW25528   2.370   1.393   1.229
 8210SOL    HW125529   2.394   1.297   1.246
 8210SOL    HW225530   2.343   1.436   1.315
 8211SOL     OW25531   3.779   3.951   2.062
 8211SOL    HW125532   3.870   3.989   2.046
 8211SOL    HW225533   3.781   3.852   2.047
 8212SOL     OW25534   2.037   1.892   1.905
 8212SOL    HW125535   2.117   1.869   1.960
 8212SOL    HW225536   1.954   1.887   1.961
 8213SOL     OW25537   6.295   4.455   2.516
 8213SOL    HW125538   6.311   4.492   2.425
 8213SOL    HW225539   6.350   4.372   2.529
 8214SOL     OW25540   6.932   5.556   4.878
 8214SOL    HW125541   7.009   5.616   4.901
 8214SOL    HW225542   6.883   5.531   4.961
 8215SOL     OW25543   2.452   5.885   6.046
 8215SOL    HW125544   2.406   5.974   6.043
 8215SOL    HW225545   2.493   5.871   6.136
 8216SOL     OW25546   4.935   5.439   3.880
 8216SOL    HW125547   4.877   5.503   3.830
 8216SOL    HW225548   4.905   5.435   3.976
 8217SOL     OW25549   2.134   4.209   1.395
 8217SOL    HW125550   2.216   4.253   1.432
 8217SOL    HW225551   2.103   4.138   1.459
 8218SOL     OW25552   0.822   6.244   4.578
 8218SOL    HW125553   0.861   6.283   4.495
 8218SOL    HW225554   0.895   6.210   4.637
 8219SOL     OW25555   4.246   3.056   0.692
 8219SOL    HW125556   4.149   3.032   0.696
 8219SOL    HW225557   4.256   3.150   0.660
 8220SOL     OW25558   3.228   4.000   4.300
 8220SOL    HW125559   3.138   3.966   4.272
 8220SOL    HW225560   3.233   4.001   4.400
 8221SOL     OW25561   6.221   6.011   3.368
 8221SOL    HW125562   6.265   6.098   3.348
 8221SOL    HW225563   6.288   5.949   3.410
 8222SOL     OW25564   5.422   1.081   1.217
 8222SOL    HW125565   5.500   1.026   1.247
 8222SOL    HW225566   5.448   1.177   1.210
 8223SOL     OW25567   1.577   4.281   5.243
 8223SOL    HW125568   1.674   4.296   5.261
 8223SOL    HW225569   1.524   4.357   5.280
 8224SOL     OW25570   5.610   2.781   2.369
 8224SOL    HW125571   5.561   2.713   2.314
 8224SOL    HW225572   5.643   2.854   2.309
 8225SOL     OW25573   4.073   1.509   1.210
 8225SOL    HW125574   4.116   1.556   1.287
 8225SOL    HW225575   4.130   1.522   1.128
 8226SOL     OW25576   3.452   6.342   0.721
 8226SOL    HW125577   3.458   6.440   0.701
 8226SOL    HW225578   3.379   6.302   0.666
 8227SOL     OW25579   0.263   1.540   2.518
 8227SOL    HW125580   0.224   1.585   2.598
 8227SOL    HW225581   0.247   1.442   2.524
 8228SOL     OW25582   0.131   1.707   6.136
 8228SOL    HW125583   0.188   1.788   6.149
 8228SOL    HW225584   0.034   1.734   6.134
 8229SOL     OW25585   4.415   3.706   1.459
 8229SOL    HW125586   4.420   3.746   1.367
 8229SOL    HW225587   4.425   3.607   1.454
 8230SOL     OW25588   3.335   6.688   5.430
 8230SOL    HW125589   3.433   6.669   5.434
 8230SOL    HW225590   3.320   6.787   5.436
 8231SOL     OW25591   2.924   2.954   1.716
 8231SOL    HW125592   2.834   2.916   1.738
 8231SOL    HW225593   2.917   3.008   1.632
 8232SOL     OW25594   5.571   1.881   2.529
 8232SOL    HW125595   5.581   1.799   2.473
 8232SOL    HW225596   5.658   1.932   2.528
 8233SOL     OW25597   1.471   0.021   6.232
 8233SOL    HW125598   1.407   0.068   6.171
 8233SOL    HW225599   1.499   0.083   6.305
 8234SOL     OW25600   2.735   3.946   0.109
 8234SOL    HW125601   2.731   3.846   0.105
 8234SOL    HW225602   2.827   3.976   0.087
 8235SOL     OW25603   0.286   3.503   6.838
 8235SOL    HW125604   0.315   3.596   6.814
 8235SOL    HW225605   0.186   3.500   6.843
 8236SOL     OW25606   0.227   4.827   0.496
 8236SOL    HW125607   0.289   4.837   0.573
 8236SOL    HW225608   0.227   4.911   0.442
 8237SOL     OW25609   4.576   5.769   6.206
 8237SOL    HW125610   4.516   5.776   6.126
 8237SOL    HW225611   4.608   5.675   6.215
 8238SOL     OW25612   0.394   5.555   0.103
 8238SOL    HW125613   0.384   5.624   0.032
 8238SOL    HW225614   0.386   5.464   0.062
 8239SOL     OW25615   0.326   0.863   5.322
 8239SOL    HW125616   0.321   0.764   5.335
 8239SOL    HW225617   0.270   0.890   5.244
 8240SOL     OW25618   3.901   3.993   2.592
 8240SOL    HW125619   3.820   4.019   2.645
 8240SOL    HW225620   3.889   4.020   2.497
 8241SOL     OW25621   2.771   5.589   6.404
 8241SOL    HW125622   2.736   5.503   6.369
 8241SOL    HW225623   2.869   5.581   6.424
 8242SOL     OW25624   0.713   4.095   6.380
 8242SOL    HW125625   0.703   4.194   6.373
 8242SOL    HW225626   0.660   4.062   6.458
 8243SOL     OW25627   6.509   3.477   0.853
 8243SOL    HW125628   6.592   3.440   0.812
 8243SOL    HW225629   6.511   3.577   0.848
 8244SOL     OW25630   0.170   0.842   3.228
 8244SOL    HW125631   0.158   0.915   3.161
 8244SOL    HW225632   0.147   0.876   3.319
 8245SOL     OW25633   3.638   2.050   2.675
 8245SOL    HW125634   3.632   2.048   2.575
 8245SOL    HW225635   3.722   2.004   2.704
 8246SOL     OW25636   0.686   3.758   6.639
 8246SOL    HW125637   0.640   3.763   6.550
 8246SOL    HW225638   0.733   3.671   6.648
 8247SOL     OW25639   2.261   0.696   3.175
 8247SOL    HW125640   2.320   0.728   3.101
 8247SOL    HW225641   2.173   0.743   3.170
 8248SOL     OW25642   0.229   4.777   4.580
 8248SOL    HW125643   0.168   4.856   4.569
 8248SOL    HW225644   0.275   4.782   4.668
 8249SOL     OW25645   1.780   1.419   5.548
 8249SOL    HW125646   1.727   1.493   5.588
 8249SOL    HW225647   1.833   1.454   5.471
 8250SOL     OW25648   2.388   2.476   1.711
 8250SOL    HW125649   2.460   2.544   1.727
 8250SOL    HW225650   2.419   2.412   1.641
 8251SOL     OW25651   5.122   2.906   4.388
 8251SOL    HW125652   5.024   2.905   4.368
 8251SOL    HW225653   5.146   2.992   4.434
 8252SOL     OW25654   3.608   1.933   6.359
 8252SOL    HW125655   3.515   1.970   6.353
 8252SOL    HW225656   3.669   1.986   6.301
 8253SOL     OW25657   3.881   5.447   6.009
 8253SOL    HW125658   3.878   5.536   6.053
 8253SOL    HW225659   3.792   5.401   6.019
 8254SOL     OW25660   4.698   4.661   5.264
 8254SOL    HW125661   4.720   4.628   5.355
 8254SOL    HW225662   4.754   4.741   5.242
 8255SOL     OW25663   1.695   6.186   5.381
 8255SOL    HW125664   1.785   6.230   5.374
 8255SOL    HW225665   1.624   6.250   5.352
 8256SOL     OW25666   6.962   6.616   2.335
 8256SOL    HW125667   7.015   6.691   2.295
 8256SOL    HW225668   6.866   6.644   2.345
 8257SOL     OW25669   5.366   3.712   2.451
 8257SOL    HW125670   5.349   3.763   2.535
 8257SOL    HW225671   5.454   3.739   2.413
 8258SOL     OW25672   5.099   2.512   1.942
 8258SOL    HW125673   5.179   2.465   1.903
 8258SOL    HW225674   5.130   2.590   1.996
 8259SOL     OW25675   3.926   1.451   4.961
 8259SOL    HW125676   3.954   1.540   4.926
 8259SOL    HW225677   3.957   1.380   4.898
 8260SOL     OW25678   2.603   6.962   1.309
 8260SOL    HW125679   2.514   6.967   1.263
 8260SOL    HW225680   2.638   6.869   1.304
 8261SOL     OW25681   5.709   6.406   3.057
 8261SOL    HW125682   5.636   6.337   3.064
 8261SOL    HW225683   5.701   6.471   3.132
 8262SOL     OW25684   1.188   3.602   0.309
 8262SOL    HW125685   1.162   3.639   0.398
 8262SOL    HW225686   1.166   3.504   0.306
 8263SOL     OW25687   0.240   2.614   6.383
 8263SOL    HW125688   0.145   2.642   6.368
 8263SOL    HW225689   0.297   2.695   6.392
 8264SOL     OW25690   1.765   6.699   0.843
 8264SOL    HW125691   1.821   6.652   0.775
 8264SOL    HW225692   1.816   6.775   0.883
 8265SOL     OW25693   6.190   0.317   1.573
 8265SOL    HW125694   6.162   0.392   1.512
 8265SOL    HW225695   6.130   0.314   1.652
 8266SOL     OW25696   2.203   1.045   4.611
 8266SOL    HW125697   2.244   1.110   4.547
 8266SOL    HW225698   2.272   1.013   4.675
 8267SOL     OW25699   1.641   3.870   1.628
 8267SOL    HW125700   1.556   3.860   1.575
 8267SOL    HW225701   1.687   3.781   1.632
 8268SOL     OW25702   2.678   6.468   6.540
 8268SOL    HW125703   2.698   6.562   6.569
 8268SOL    HW225704   2.760   6.427   6.503
 8269SOL     OW25705   4.435   2.181   2.413
 8269SOL    HW125706   4.464   2.116   2.483
 8269SOL    HW225707   4.509   2.195   2.348
 8270SOL     OW25708   2.952   6.474   4.694
 8270SOL    HW125709   2.873   6.445   4.748
 8270SOL    HW225710   2.966   6.572   4.705
 8271SOL     OW25711   0.218   0.112   2.833
 8271SOL    HW125712   0.142   0.093   2.771
 8271SOL    HW225713   0.253   0.026   2.870
 8272SOL     OW25714   6.342   1.869   2.844
 8272SOL    HW125715   6.351   1.820   2.931
 8272SOL    HW225716   6.258   1.924   2.846
 8273SOL     OW25717   2.818   1.828   0.865
 8273SOL    HW125718   2.824   1.919   0.905
 8273SOL    HW225719   2.813   1.760   0.938
 8274SOL     OW25720   3.711   5.376   4.623
 8274SOL    HW125721   3.800   5.369   4.579
 8274SOL    HW225722   3.723   5.393   4.721
 8275SOL     OW25723   5.367   0.129   4.573
 8275SOL    HW125724   5.380   0.156   4.669
 8275SOL    HW225725   5.348   0.031   4.568
 8276SOL     OW25726   0.865   1.678   5.166
 8276SOL    HW125727   0.781   1.632   5.137
 8276SOL    HW225728   0.941   1.649   5.107
 8277SOL     OW25729   1.117   6.064   5.752
 8277SOL    HW125730   1.047   6.125   5.715
 8277SOL    HW225731   1.205   6.084   5.710
 8278SOL     OW25732   3.303   2.147   6.813
 8278SOL    HW125733   3.299   2.133   6.714
 8278SOL    HW225734   3.379   2.095   6.851
 8279SOL     OW25735   0.641   6.348   4.899
 8279SOL    HW125736   0.605   6.363   4.991
 8279SOL    HW225737   0.638   6.434   4.848
 8280SOL     OW25738   2.907   2.956   0.345
 8280SOL    HW125739   2.820   2.935   0.299
 8280SOL    HW225740   2.904   2.922   0.439
 8281SOL     OW25741   2.530   4.745   1.638
 8281SOL    HW125742   2.491   4.723   1.549
 8281SOL    HW225743   2.516   4.843   1.657
 8282SOL     OW25744   3.936   4.104   6.588
 8282SOL    HW125745   3.892   4.124   6.501
 8282SOL    HW225746   3.991   4.182   6.617
 8283SOL     OW25747   1.848   4.835   4.817
 8283SOL    HW125748   1.886   4.743   4.823
 8283SOL    HW225749   1.922   4.902   4.815
 8284SOL     OW25750   1.424   3.821   1.472
 8284SOL    HW125751   1.398   3.725   1.473
 8284SOL    HW225752   1.342   3.878   1.473
 8285SOL     OW25753   3.659   4.193   4.757
 8285SOL    HW125754   3.562   4.173   4.740
 8285SOL    HW225755   3.669   4.290   4.778
 8286SOL     OW25756   5.344   1.985   4.846
 8286SOL    HW125757   5.314   2.076   4.820
 8286SOL    HW225758   5.326   1.970   4.943
 8287SOL     OW25759   1.122   4.866   4.164
 8287SOL    HW125760   1.153   4.950   4.208
 8287SOL    HW225761   1.065   4.889   4.085
 8288SOL     OW25762   2.894   2.185   2.440
 8288SOL    HW125763   2.981   2.149   2.474
 8288SOL    HW225764   2.890   2.172   2.340
 8289SOL     OW25765   0.497   6.369   6.025
 8289SOL    HW125766   0.557   6.447   6.007
 8289SOL    HW225767   0.516   6.297   5.958
 8290SOL     OW25768   5.334   2.107   0.770
 8290SOL    HW125769   5.293   2.069   0.688
 8290SOL    HW225770   5.283   2.189   0.798
 8291SOL     OW25771   5.138   4.892   5.999
 8291SOL    HW125772   5.118   4.946   5.917
 8291SOL    HW225773   5.169   4.801   5.973
 8292SOL     OW25774   3.244   6.407   6.660
 8292SOL    HW125775   3.212   6.337   6.597
 8292SOL    HW225776   3.324   6.453   6.621
 8293SOL     OW25777   1.958   5.514   0.900
 8293SOL    HW125778   1.990   5.433   0.852
 8293SOL    HW225779   1.999   5.518   0.991
 8294SOL     OW25780   5.431   3.641   4.820
 8294SOL    HW125781   5.428   3.720   4.760
 8294SOL    HW225782   5.475   3.665   4.906
 8295SOL     OW25783   5.066   3.347   2.276
 8295SOL    HW125784   5.144   3.377   2.332
 8295SOL    HW225785   4.992   3.414   2.283
 8296SOL     OW25786   2.304   5.161   0.185
 8296SOL    HW125787   2.276   5.253   0.155
 8296SOL    HW225788   2.358   5.118   0.113
 8297SOL     OW25789   6.970   3.427   2.639
 8297SOL    HW125790   6.904   3.502   2.631
 8297SOL    HW225791   0.012   3.444   2.715
 8298SOL     OW25792   6.977   1.597   0.397
 8298SOL    HW125793   0.007   1.542   0.331
 8298SOL    HW225794   0.016   1.669   0.433
 8299SOL     OW25795   0.495   2.811   2.840
 8299SOL    HW125796   0.554   2.885   2.809
 8299SOL    HW225797   0.544   2.724   2.832
 8300SOL     OW25798   0.359   6.278   3.908
 8300SOL    HW125799   0.383   6.241   3.998
 8300SOL    HW225800   0.305   6.361   3.920
 8301SOL     OW25801   4.507   0.915   0.403
 8301SOL    HW125802   4.568   0.968   0.462
 8301SOL    HW225803   4.562   0.867   0.335
 8302SOL     OW25804   5.364   6.229   6.122
 8302SOL    HW125805   5.461   6.244   6.101
 8302SOL    HW225806   5.319   6.318   6.133
 8303SOL     OW25807   6.023   0.440   3.831
 8303SOL    HW125808   5.995   0.435   3.735
 8303SOL    HW225809   5.966   0.378   3.885
 8304SOL     OW25810   5.569   4.091   1.471
 8304SOL    HW125811   5.594   4.058   1.380
 8304SOL    HW225812   5.532   4.183   1.464
 8305SOL     OW25813   4.864   4.707   4.259
 8305SOL    HW125814   4.869   4.720   4.358
 8305SOL    HW225815   4.845   4.795   4.215
 8306SOL     OW25816   6.022   1.252   3.451
 8306SOL    HW125817   6.061   1.199   3.376
 8306SOL    HW225818   6.045   1.349   3.439
 8307SOL     OW25819   3.991   5.490   1.711
 8307SOL    HW125820   3.985   5.583   1.675
 8307SOL    HW225821   4.045   5.490   1.795
 8308SOL     OW25822   2.181   6.042   0.178
 8308SOL    HW125823   2.208   5.986   0.257
 8308SOL    HW225824   2.180   5.985   0.096
 8309SOL     OW25825   6.415   5.851   2.268
 8309SOL    HW125826   6.373   5.901   2.343
 8309SOL    HW225827   6.500   5.897   2.241
 8310SOL     OW25828   0.759   5.582   1.563
 8310SOL    HW125829   0.746   5.640   1.644
 8310SOL    HW225830   0.680   5.591   1.502
 8311SOL     OW25831   6.571   1.601   5.501
 8311SOL    HW125832   6.521   1.616   5.586
 8311SOL    HW225833   6.668   1.622   5.516
 8312SOL     OW25834   4.993   0.835   6.847
 8312SOL    HW125835   4.958   0.832   6.753
 8312SOL    HW225836   4.989   0.929   6.880
 8313SOL     OW25837   6.036   6.967   6.194
 8313SOL    HW125838   6.052   0.039   6.230
 8313SOL    HW225839   6.000   6.973   6.101
 8314SOL     OW25840   6.033   6.510   6.708
 8314SOL    HW125841   5.993   6.596   6.676
 8314SOL    HW225842   6.088   6.527   6.789
 8315SOL     OW25843   3.944   2.959   2.344
 8315SOL    HW125844   4.038   2.927   2.331
 8315SOL    HW225845   3.921   2.958   2.441
 8316SOL     OW25846   1.394   2.752   2.258
 8316SOL    HW125847   1.331   2.730   2.183
 8316SOL    HW225848   1.452   2.829   2.231
 8317SOL     OW25849   1.535   2.505   2.934
 8317SOL    HW125850   1.551   2.412   2.900
 8317SOL    HW225851   1.622   2.556   2.934
 8318SOL     OW25852   4.053   1.228   6.085
 8318SOL    HW125853   3.976   1.260   6.031
 8318SOL    HW225854   4.138   1.241   6.033
 8319SOL     OW25855   1.230   1.492   1.486
 8319SOL    HW125856   1.194   1.564   1.427
 8319SOL    HW225857   1.201   1.403   1.451
 8320SOL     OW25858   3.196   3.819   2.619
 8320SOL    HW125859   3.215   3.843   2.714
 8320SOL    HW225860   3.276   3.838   2.563
 8321SOL     OW25861   6.276   6.940   0.047
 8321SOL    HW125862   6.312   7.019   0.098
 8321SOL    HW225863   6.329   6.859   0.070
 8322SOL     OW25864   6.589   1.073   0.592
 8322SOL    HW125865   6.591   0.973   0.587
 8322SOL    HW225866   6.638   1.111   0.513
 8323SOL     OW25867   4.459   4.718   1.698
 8323SOL    HW125868   4.503   4.692   1.612
 8323SOL    HW225869   4.481   4.651   1.769
 8324SOL     OW25870   6.010   0.146   1.227
 8324SOL    HW125871   5.973   0.148   1.320
 8324SOL    HW225872   5.970   0.069   1.177
 8325SOL     OW25873   1.436   3.346   5.178
 8325SOL    HW125874   1.414   3.319   5.084
 8325SOL    HW225875   1.416   3.443   5.190
 8326SOL     OW25876   4.453   4.244   5.561
 8326SOL    HW125877   4.436   4.225   5.464
 8326SOL    HW225878   4.412   4.172   5.616
 8327SOL     OW25879   6.645   0.312   6.102
 8327SOL    HW125880   6.578   0.283   6.170
 8327SOL    HW225881   6.708   0.237   6.081
 8328SOL     OW25882   2.398   5.899   6.683
 8328SOL    HW125883   2.376   5.986   6.639
 8328SOL    HW225884   2.454   5.916   6.764
 8329SOL     OW25885   0.982   3.002   5.257
 8329SOL    HW125886   1.053   2.933   5.239
 8329SOL    HW225887   0.932   2.977   5.340
 8330SOL     OW25888   2.867   0.806   6.420
 8330SOL    HW125889   2.787   0.808   6.360
 8330SOL    HW225890   2.938   0.866   6.382
 8331SOL     OW25891   3.238   0.764   1.135
 8331SOL    HW125892   3.146   0.725   1.132
 8331SOL    HW225893   3.295   0.719   1.066
 8332SOL     OW25894   5.794   5.424   2.242
 8332SOL    HW125895   5.886   5.425   2.203
 8332SOL    HW225896   5.735   5.486   2.189
 8333SOL     OW25897   0.652   5.283   6.851
 8333SOL    HW125898   0.710   5.328   6.919
 8333SOL    HW225899   0.603   5.351   6.798
 8334SOL     OW25900   3.268   1.606   4.660
 8334SOL    HW125901   3.335   1.603   4.585
 8334SOL    HW225902   3.313   1.638   4.743
 8335SOL     OW25903   4.709   1.236   0.139
 8335SOL    HW125904   4.745   1.147   0.115
 8335SOL    HW225905   4.717   1.250   0.238
 8336SOL     OW25906   0.656   4.736   2.700
 8336SOL    HW125907   0.639   4.663   2.766
 8336SOL    HW225908   0.574   4.793   2.691
 8337SOL     OW25909   0.981   6.461   3.932
 8337SOL    HW125910   1.030   6.374   3.940
 8337SOL    HW225911   1.027   6.530   3.988
 8338SOL     OW25912   3.851   5.231   1.668
 8338SOL    HW125913   3.767   5.215   1.720
 8338SOL    HW225914   3.894   5.316   1.700
 8339SOL     OW25915   6.756   0.584   1.965
 8339SOL    HW125916   6.816   0.615   2.039
 8339SOL    HW225917   6.680   0.532   2.005
 8340SOL     OW25918   4.958   3.870   1.384
 8340SOL    HW125919   4.892   3.917   1.443
 8340SOL    HW225920   4.951   3.772   1.397
 8341SOL     OW25921   2.132   0.010   6.456
 8341SOL    HW125922   2.152   0.073   6.381
 8341SOL    HW225923   2.084   6.950   6.421
 8342SOL     OW25924   4.843   6.966   0.155
 8342SOL    HW125925   4.841   6.867   0.139
 8342SOL    HW225926   4.840   6.984   0.254
 8343SOL     OW25927   0.604   6.107   3.579
 8343SOL    HW125928   0.669   6.031   3.574
 8343SOL    HW225929   0.604   6.156   3.491
 8344SOL     OW25930   6.190   5.860   4.579
 8344SOL    HW125931   6.112   5.815   4.535
 8344SOL    HW225932   6.173   5.867   4.677
 8345SOL     OW25933   4.116   2.118   2.598
 8345SOL    HW125934   4.108   2.163   2.509
 8345SOL    HW225935   4.095   2.183   2.670
 8346SOL     OW25936   3.602   5.003   0.720
 8346SOL    HW125937   3.625   4.953   0.636
 8346SOL    HW225938   3.512   5.046   0.709
 8347SOL     OW25939   3.260   6.826   4.883
 8347SOL    HW125940   3.312   6.745   4.911
 8347SOL    HW225941   3.180   6.797   4.831
 8348SOL     OW25942   2.161   1.554   1.145
 8348SOL    HW125943   2.237   1.496   1.175
 8348SOL    HW225944   2.149   1.629   1.211
 8349SOL     OW25945   0.888   0.037   2.474
 8349SOL    HW125946   0.894   0.035   2.574
 8349SOL    HW225947   0.949   0.108   2.438
 8350SOL     OW25948   2.803   6.087   6.223
 8350SOL    HW125949   2.823   5.990   6.204
 8350SOL    HW225950   2.792   6.099   6.321
 8351SOL     OW25951   5.032   5.741   4.550
 8351SOL    HW125952   4.943   5.708   4.584
 8351SOL    HW225953   5.028   5.752   4.451
 8352SOL     OW25954   0.424   0.120   3.316
 8352SOL    HW125955   0.424   0.138   3.217
 8352SOL    HW225956   0.517   0.097   3.345
 8353SOL     OW25957   0.304   4.001   1.540
 8353SOL    HW125958   0.391   3.976   1.498
 8353SOL    HW225959   0.282   4.096   1.519
 8354SOL     OW25960   3.304   0.112   4.758
 8354SOL    HW125961   3.302   0.012   4.755
 8354SOL    HW225962   3.285   0.149   4.667
 8355SOL     OW25963   2.614   1.362   5.481
 8355SOL    HW125964   2.582   1.456   5.496
 8355SOL    HW225965   2.626   1.317   5.569
 8356SOL     OW25966   0.969   0.498   1.818
 8356SOL    HW125967   0.986   0.593   1.790
 8356SOL    HW225968   0.975   0.438   1.739
 8357SOL     OW25969   3.264   6.940   5.457
 8357SOL    HW125970   3.285   7.006   5.529
 8357SOL    HW225971   3.193   6.977   5.397
 8358SOL     OW25972   1.935   3.940   5.194
 8358SOL    HW125973   1.843   3.951   5.155
 8358SOL    HW225974   1.998   4.004   5.149
 8359SOL     OW25975   3.311   0.903   5.282
 8359SOL    HW125976   3.399   0.917   5.327
 8359SOL    HW225977   3.281   0.809   5.294
 8360SOL     OW25978   4.019   7.008   0.409
 8360SOL    HW125979   4.088   0.059   0.422
 8360SOL    HW225980   3.928   0.029   0.409
 8361SOL     OW25981   3.237   0.624   1.616
 8361SOL    HW125982   3.305   0.561   1.653
 8361SOL    HW225983   3.148   0.606   1.658
 8362SOL     OW25984   4.602   1.385   0.865
 8362SOL    HW125985   4.701   1.384   0.878
 8362SOL    HW225986   4.572   1.299   0.823
 8363SOL     OW25987   4.723   2.754   6.736
 8363SOL    HW125988   4.755   2.662   6.759
 8363SOL    HW225989   4.788   2.822   6.771
 8364SOL     OW25990   0.276   2.126   3.997
 8364SOL    HW125991   0.295   2.043   4.049
 8364SOL    HW225992   0.188   2.118   3.952
 8365SOL     OW25993   1.772   3.202   2.575
 8365SOL    HW125994   1.807   3.173   2.486
 8365SOL    HW225995   1.807   3.141   2.646
 8366SOL     OW25996   2.285   5.340   1.096
 8366SOL    HW125997   2.300   5.247   1.129
 8366SOL    HW225998   2.282   5.340   0.996
 8367SOL     OW25999   3.903   6.053   4.867
 8367SOL    HW126000   3.928   6.076   4.961
 8367SOL    HW226001   3.837   5.977   4.867
 8368SOL     OW26002   0.637   6.795   6.728
 8368SOL    HW126003   0.697   6.787   6.648
 8368SOL    HW226004   0.692   6.793   6.811
 8369SOL     OW26005   0.499   0.246   5.956
 8369SOL    HW126006   0.505   0.321   5.889
 8369SOL    HW226007   0.415   0.255   6.008
 8370SOL     OW26008   2.604   1.553   5.976
 8370SOL    HW126009   2.645   1.642   5.996
 8370SOL    HW226010   2.617   1.530   5.880
 8371SOL     OW26011   1.728   4.582   0.891
 8371SOL    HW126012   1.699   4.519   0.963
 8371SOL    HW226013   1.726   4.535   0.803
 8372SOL     OW26014   1.444   5.463   1.773
 8372SOL    HW126015   1.467   5.371   1.803
 8372SOL    HW226016   1.514   5.496   1.710
 8373SOL     OW26017   1.975   6.693   3.870
 8373SOL    HW126018   2.040   6.688   3.795
 8373SOL    HW226019   2.024   6.707   3.956
 8374SOL     OW26020   6.970   0.446   5.175
 8374SOL    HW126021   6.969   0.359   5.126
 8374SOL    HW226022   6.970   0.521   5.109
 8375SOL     OW26023   3.964   6.417   5.056
 8375SOL    HW126024   3.913   6.496   5.021
 8375SOL    HW226025   4.054   6.414   5.011
 8376SOL     OW26026   0.575   1.427   4.468
 8376SOL    HW126027   0.668   1.439   4.431
 8376SOL    HW226028   0.523   1.511   4.456
 8377SOL     OW26029   5.413   6.059   0.638
 8377SOL    HW126030   5.441   6.106   0.554
 8377SOL    HW226031   5.465   6.094   0.716
 8378SOL     OW26032   3.845   4.930   2.911
 8378SOL    HW126033   3.903   4.996   2.958
 8378SOL    HW226034   3.835   4.956   2.815
 8379SOL     OW26035   5.116   2.839   1.145
 8379SOL    HW126036   5.199   2.842   1.200
 8379SOL    HW226037   5.036   2.836   1.204
 8380SOL     OW26038   0.931   0.760   1.782
 8380SOL    HW126039   0.906   0.794   1.873
 8380SOL    HW226040   0.995   0.824   1.739
 8381SOL     OW26041   0.644   2.774   4.160
 8381SOL    HW126042   0.623   2.805   4.253
 8381SOL    HW226043   0.559   2.759   4.110
 8382SOL     OW26044   2.052   0.071   2.546
 8382SOL    HW126045   2.031   0.023   2.460
 8382SOL    HW226046   2.038   0.009   2.623
 8383SOL     OW26047   3.085   6.866   6.041
 8383SOL    HW126048   3.147   6.944   6.038
 8383SOL    HW226049   3.002   6.891   6.090
 8384SOL     OW26050   6.526   1.465   1.451
 8384SOL    HW126051   6.517   1.462   1.352
 8384SOL    HW226052   6.492   1.379   1.490
 8385SOL     OW26053   4.919   2.708   0.089
 8385SOL    HW126054   4.920   2.760   0.004
 8385SOL    HW226055   4.836   2.652   0.093
 8386SOL     OW26056   1.635   6.457   1.764
 8386SOL    HW126057   1.622   6.531   1.829
 8386SOL    HW226058   1.610   6.370   1.807
 8387SOL     OW26059   1.202   1.689   1.732
 8387SOL    HW126060   1.215   1.635   1.649
 8387SOL    HW226061   1.121   1.747   1.723
 8388SOL     OW26062   2.417   0.488   0.729
 8388SOL    HW126063   2.441   0.394   0.706
 8388SOL    HW226064   2.458   0.513   0.816
 8389SOL     OW26065   6.958   3.866   3.855
 8389SOL    HW126066   6.941   3.776   3.814
 8389SOL    HW226067   0.027   3.865   3.899
 8390SOL     OW26068   4.526   6.434   0.114
 8390SOL    HW126069   4.487   6.354   0.068
 8390SOL    HW226070   4.537   6.414   0.212
 8391SOL     OW26071   6.017   4.666   0.714
 8391SOL    HW126072   5.995   4.621   0.628
 8391SOL    HW226073   6.107   4.710   0.707
 8392SOL     OW26074   6.983   4.739   5.123
 8392SOL    HW126075   0.039   4.675   5.116
 8392SOL    HW226076   6.898   4.689   5.142
 8393SOL     OW26077   0.404   0.315   2.699
 8393SOL    HW126078   0.386   0.290   2.604
 8393SOL    HW226079   0.357   0.251   2.760
 8394SOL     OW26080   0.163   2.830   1.886
 8394SOL    HW126081   0.150   2.747   1.832
 8394SOL    HW226082   0.246   2.821   1.941
 8395SOL     OW26083   2.335   6.325   4.626
 8395SOL    HW126084   2.372   6.349   4.716
 8395SOL    HW226085   2.375   6.238   4.596
 8396SOL     OW26086   4.234   5.216   3.201
 8396SOL    HW126087   4.274   5.132   3.165
 8396SOL    HW226088   4.190   5.267   3.127
 8397SOL     OW26089   2.498   0.848   2.672
 8397SOL    HW126090   2.587   0.858   2.718
 8397SOL    HW226091   2.481   0.929   2.616
 8398SOL     OW26092   4.292   2.499   6.681
 8398SOL    HW126093   4.233   2.448   6.744
 8398SOL    HW226094   4.248   2.503   6.591
 8399SOL     OW26095   6.299   6.108   0.219
 8399SOL    HW126096   6.330   6.195   0.179
 8399SOL    HW226097   6.204   6.092   0.194
 8400SOL     OW26098   1.628   1.334   4.184
 8400SOL    HW126099   1.593   1.243   4.208
 8400SOL    HW226100   1.727   1.329   4.168
 8401SOL     OW26101   3.199   1.637   6.406
 8401SOL    HW126102   3.119   1.695   6.393
 8401SOL    HW226103   3.209   1.574   6.329
 8402SOL     OW26104   3.617   2.063   5.776
 8402SOL    HW126105   3.585   1.974   5.809
 8402SOL    HW226106   3.576   2.083   5.687
 8403SOL     OW26107   1.625   2.749   4.386
 8403SOL    HW126108   1.582   2.723   4.472
 8403SOL    HW226109   1.572   2.821   4.342
 8404SOL     OW26110   4.375   6.748   5.865
 8404SOL    HW126111   4.288   6.738   5.914
 8404SOL    HW226112   4.433   6.812   5.915
 8405SOL     OW26113   2.747   0.056   5.857
 8405SOL    HW126114   2.822   0.077   5.919
 8405SOL    HW226115   2.783   0.024   5.770
 8406SOL     OW26116   6.119   6.950   0.372
 8406SOL    HW126117   6.064   6.952   0.288
 8406SOL    HW226118   6.062   6.978   0.450
 8407SOL     OW26119   3.758   6.246   4.212
 8407SOL    HW126120   3.680   6.239   4.150
 8407SOL    HW226121   3.748   6.179   4.286
 8408SOL     OW26122   5.664   3.755   2.441
 8408SOL    HW126123   5.737   3.819   2.462
 8408SOL    HW226124   5.662   3.736   2.343
 8409SOL     OW26125   5.540   3.171   4.097
 8409SOL    HW126126   5.578   3.080   4.079
 8409SOL    HW226127   5.525   3.182   4.195
 8410SOL     OW26128   5.096   0.878   1.867
 8410SOL    HW126129   5.190   0.848   1.877
 8410SOL    HW226130   5.089   0.941   1.790
 8411SOL     OW26131   0.347   4.683   7.010
 8411SOL    HW126132   0.277   4.624   0.029
 8411SOL    HW226133   0.341   4.681   6.910
 8412SOL     OW26134   3.215   1.941   1.480
 8412SOL    HW126135   3.150   1.878   1.436
 8412SOL    HW226136   3.252   2.003   1.411
 8413SOL     OW26137   4.126   5.564   0.344
 8413SOL    HW126138   4.149   5.569   0.247
 8413SOL    HW226139   4.171   5.639   0.393
 8414SOL     OW26140   3.337   5.300   3.158
 8414SOL    HW126141   3.339   5.283   3.257
 8414SOL    HW226142   3.296   5.221   3.112
 8415SOL     OW26143   6.960   5.948   3.678
 8415SOL    HW126144   6.960   6.040   3.639
 8415SOL    HW226145   6.960   5.955   3.778
 8416SOL     OW26146   5.258   3.780   2.698
 8416SOL    HW126147   5.271   3.879   2.698
 8416SOL    HW226148   5.326   3.737   2.758
 8417SOL     OW26149   1.601   4.365   5.891
 8417SOL    HW126150   1.617   4.316   5.805
 8417SOL    HW226151   1.529   4.433   5.878
 8418SOL     OW26152   5.472   4.552   1.291
 8418SOL    HW126153   5.533   4.496   1.347
 8418SOL    HW226154   5.466   4.514   1.199
 8419SOL     OW26155   5.417   0.397   2.189
 8419SOL    HW126156   5.371   0.349   2.115
 8419SOL    HW226157   5.377   0.488   2.199
 8420SOL     OW26158   4.494   6.399   0.410
 8420SOL    HW126159   4.461   6.306   0.429
 8420SOL    HW226160   4.423   6.449   0.361
 8421SOL     OW26161   1.950   5.554   6.481
 8421SOL    HW126162   1.876   5.548   6.414
 8421SOL    HW226163   1.936   5.634   6.538
 8422SOL     OW26164   3.897   0.992   1.265
 8422SOL    HW126165   3.891   0.996   1.166
 8422SOL    HW226166   3.934   1.079   1.299
 8423SOL     OW26167   3.338   4.725   5.894
 8423SOL    HW126168   3.433   4.720   5.863
 8423SOL    HW226169   3.332   4.692   5.988
 8424SOL     OW26170   2.137   2.688   2.898
 8424SOL    HW126171   2.112   2.785   2.903
 8424SOL    HW226172   2.054   2.633   2.894
 8425SOL     OW26173   4.969   5.204   6.974
 8425SOL    HW126174   4.957   5.111   6.938
 8425SOL    HW226175   4.919   5.268   6.915
 8426SOL     OW26176   3.335   3.564   3.858
 8426SOL    HW126177   3.367   3.603   3.944
 8426SOL    HW226178   3.276   3.485   3.876
 8427SOL     OW26179   3.821   3.222   4.640
 8427SOL    HW126180   3.773   3.134   4.635
 8427SOL    HW226181   3.906   3.211   4.692
 8428SOL     OW26182   0.382   4.514   1.660
 8428SOL    HW126183   0.437   4.478   1.585
 8428SOL    HW226184   0.433   4.585   1.708
 8429SOL     OW26185   1.407   5.786   3.593
 8429SOL    HW126186   1.506   5.791   3.611
 8429SOL    HW226187   1.366   5.875   3.611
 8430SOL     OW26188   3.102   5.033   3.514
 8430SOL    HW126189   3.038   5.039   3.437
 8430SOL    HW226190   3.060   5.072   3.595
 8431SOL     OW26191   3.314   5.064   0.709
 8431SOL    HW126192   3.240   4.999   0.727
 8431SOL    HW226193   3.349   5.100   0.795
 8432SOL     OW26194   5.896   6.761   6.299
 8432SOL    HW126195   5.911   6.754   6.398
 8432SOL    HW226196   5.939   6.846   6.266
 8433SOL     OW26197   5.256   2.642   0.300
 8433SOL    HW126198   5.174   2.653   0.355
 8433SOL    HW226199   5.335   2.629   0.360
 8434SOL     OW26200   2.714   6.412   4.788
 8434SOL    HW126201   2.666   6.455   4.712
 8434SOL    HW226202   2.676   6.444   4.874
 8435SOL     OW26203   5.942   0.943   1.480
 8435SOL    HW126204   5.851   0.974   1.506
 8435SOL    HW226205   5.956   0.957   1.383
 8436SOL     OW26206   4.083   0.021   3.550
 8436SOL    HW126207   4.178   0.027   3.582
 8436SOL    HW226208   4.081   6.995   3.462
 8437SOL     OW26209   2.001   0.310   3.740
 8437SOL    HW126210   1.927   0.346   3.682
 8437SOL    HW226211   2.089   0.331   3.698
 8438SOL     OW26212   2.635   4.758   2.529
 8438SOL    HW126213   2.600   4.842   2.487
 8438SOL    HW226214   2.676   4.780   2.617
 8439SOL     OW26215   5.942   5.091   2.346
 8439SOL    HW126216   5.992   5.160   2.399
 8439SOL    HW226217   5.913   5.017   2.406
 8440SOL     OW26218   0.700   2.516   3.792
 8440SOL    HW126219   0.607   2.530   3.759
 8440SOL    HW226220   0.720   2.418   3.793
 8441SOL     OW26221   5.942   0.011   6.696
 8441SOL    HW126222   5.889   0.058   6.767
 8441SOL    HW226223   6.019   0.069   6.668
 8442SOL     OW26224   2.848   1.650   5.506
 8442SOL    HW126225   2.770   1.708   5.484
 8442SOL    HW226226   2.867   1.589   5.428
 8443SOL     OW26227   2.151   5.555   3.396
 8443SOL    HW126228   2.237   5.583   3.353
 8443SOL    HW226229   2.095   5.635   3.415
 8444SOL     OW26230   2.588   5.952   3.588
 8444SOL    HW126231   2.595   5.855   3.563
 8444SOL    HW226232   2.680   5.989   3.602
 8445SOL     OW26233   4.289   6.615   0.405
 8445SOL    HW126234   4.279   6.632   0.503
 8445SOL    HW226235   4.238   6.684   0.354
 8446SOL     OW26236   4.340   4.798   6.542
 8446SOL    HW126237   4.390   4.885   6.542
 8446SOL    HW226238   4.391   4.731   6.596
 8447SOL     OW26239   4.662   1.941   2.054
 8447SOL    HW126240   4.668   1.893   2.141
 8447SOL    HW226241   4.566   1.952   2.029
 8448SOL     OW26242   4.519   6.064   4.167
 8448SOL    HW126243   4.503   6.131   4.095
 8448SOL    HW226244   4.461   6.084   4.245
 8449SOL     OW26245   6.619   2.769   4.030
 8449SOL    HW126246   6.683   2.753   4.106
 8449SOL    HW226247   6.669   2.810   3.953
 8450SOL     OW26248   0.564   6.380   1.139
 8450SOL    HW126249   0.545   6.292   1.181
 8450SOL    HW226250   0.520   6.453   1.191
 8451SOL     OW26251   3.966   2.436   0.009
 8451SOL    HW126252   3.887   2.488   0.041
 8451SOL    HW226253   4.045   2.456   0.067
 8452SOL     OW26254   6.627   1.370   2.986
 8452SOL    HW126255   6.661   1.305   3.054
 8452SOL    HW226256   6.619   1.461   3.029
 8453SOL     OW26257   0.374   4.240   6.294
 8453SOL    HW126258   0.346   4.219   6.388
 8453SOL    HW226259   0.407   4.157   6.249
 8454SOL     OW26260   0.026   0.069   1.286
 8454SOL    HW126261   6.980   0.057   1.360
 8454SOL    HW226262   6.999   0.098   1.203
 8455SOL     OW26263   6.085   2.911   1.709
 8455SOL    HW126264   6.182   2.932   1.703
 8455SOL    HW226265   6.068   2.818   1.677
 8456SOL     OW26266   4.583   6.334   2.434
 8456SOL    HW126267   4.565   6.366   2.527
 8456SOL    HW226268   4.678   6.302   2.428
 8457SOL     OW26269   6.490   6.266   5.004
 8457SOL    HW126270   6.525   6.304   5.090
 8457SOL    HW226271   6.510   6.328   4.929
 8458SOL     OW26272   3.412   1.588   6.560
 8458SOL    HW126273   3.324   1.610   6.519
 8458SOL    HW226274   3.426   1.643   6.642
 8459SOL     OW26275   3.343   6.478   2.154
 8459SOL    HW126276   3.309   6.503   2.063
 8459SOL    HW226277   3.281   6.513   2.223
 8460SOL     OW26278   4.428   3.608   5.339
 8460SOL    HW126279   4.396   3.695   5.375
 8460SOL    HW226280   4.511   3.623   5.285
 8461SOL     OW26281   7.005   4.595   3.760
 8461SOL    HW126282   0.056   4.575   3.693
 8461SOL    HW226283   0.026   4.634   3.843
 8462SOL     OW26284   3.045   2.560   6.300
 8462SOL    HW126285   2.948   2.551   6.324
 8462SOL    HW226286   3.090   2.472   6.310
 8463SOL     OW26287   6.697   6.880   0.894
 8463SOL    HW126288   6.793   6.885   0.868
 8463SOL    HW226289   6.642   6.856   0.814
 8464SOL     OW26290   5.575   3.685   5.042
 8464SOL    HW126291   5.656   3.631   5.019
 8464SOL    HW226292   5.553   3.672   5.139
 8465SOL     OW26293   1.332   2.687   0.886
 8465SOL    HW126294   1.308   2.666   0.791
 8465SOL    HW226295   1.284   2.624   0.947
 8466SOL     OW26296   0.523   6.650   4.920
 8466SOL    HW126297   0.442   6.633   4.864
 8466SOL    HW226298   0.600   6.676   4.861
 8467SOL     OW26299   4.343   6.661   1.099
 8467SOL    HW126300   4.330   6.662   1.000
 8467SOL    HW226301   4.310   6.575   1.137
 8468SOL     OW26302   3.982   2.090   6.313
 8468SOL    HW126303   4.071   2.114   6.274
 8468SOL    HW226304   3.910   2.140   6.263
 8469SOL     OW26305   2.982   1.277   5.976
 8469SOL    HW126306   3.017   1.220   5.901
 8469SOL    HW226307   2.984   1.373   5.948
 8470SOL     OW26308   1.703   3.894   0.009
 8470SOL    HW126309   1.789   3.873   6.982
 8470SOL    HW226310   1.712   3.874   0.106
 8471SOL     OW26311   3.939   0.736   3.573
 8471SOL    HW126312   3.901   0.778   3.655
 8471SOL    HW226313   3.868   0.726   3.503
 8472SOL     OW26314   6.994   0.696   5.038
 8472SOL    HW126315   6.908   0.744   5.051
 8472SOL    HW226316   6.986   0.632   4.962
 8473SOL     OW26317   6.687   6.232   0.463
 8473SOL    HW126318   6.785   6.235   0.446
 8473SOL    HW226319   6.660   6.311   0.518
 8474SOL     OW26320   3.494   2.989   1.864
 8474SOL    HW126321   3.421   2.925   1.884
 8474SOL    HW226322   3.564   2.985   1.935
 8475SOL     OW26323   6.424   2.614   3.911
 8475SOL    HW126324   6.476   2.699   3.921
 8475SOL    HW226325   6.330   2.635   3.886
 8476SOL     OW26326   6.828   2.096   1.004
 8476SOL    HW126327   6.863   2.021   0.948
 8476SOL    HW226328   6.896   2.123   1.072
 8477SOL     OW26329   5.296   6.806   0.899
 8477SOL    HW126330   5.304   6.876   0.971
 8477SOL    HW226331   5.299   6.850   0.810
 8478SOL     OW26332   1.783   0.072   6.207
 8478SOL    HW126333   1.752   0.061   6.302
 8478SOL    HW226334   1.733   0.009   6.148
 8479SOL     OW26335   1.031   2.945   1.204
 8479SOL    HW126336   0.951   2.931   1.146
 8479SOL    HW226337   1.030   3.038   1.242
 8480SOL     OW26338   4.522   1.902   6.791
 8480SOL    HW126339   4.569   1.986   6.819
 8480SOL    HW226340   4.423   1.912   6.806
 8481SOL     OW26341   4.028   2.199   4.635
 8481SOL    HW126342   4.092   2.183   4.559
 8481SOL    HW226343   4.078   2.233   4.714
 8482SOL     OW26344   4.450   6.095   1.620
 8482SOL    HW126345   4.356   6.102   1.651
 8482SOL    HW226346   4.453   6.093   1.520
 8483SOL     OW26347   4.450   6.088   2.227
 8483SOL    HW126348   4.359   6.129   2.228
 8483SOL    HW226349   4.513   6.146   2.278
 8484SOL     OW26350   0.319   6.524   3.628
 8484SOL    HW126351   0.391   6.592   3.646
 8484SOL    HW226352   0.340   6.475   3.544
 8485SOL     OW26353   3.766   2.590   0.093
 8485SOL    HW126354   3.813   2.678   0.102
 8485SOL    HW226355   3.667   2.605   0.091
 8486SOL     OW26356   3.117   1.523   2.903
 8486SOL    HW126357   3.056   1.506   2.826
 8486SOL    HW226358   3.195   1.461   2.898
 8487SOL     OW26359   5.665   1.143   6.204
 8487SOL    HW126360   5.654   1.239   6.228
 8487SOL    HW226361   5.598   1.117   6.134
 8488SOL     OW26362   5.100   5.845   0.275
 8488SOL    HW126363   5.162   5.922   0.288
 8488SOL    HW226364   5.102   5.787   0.356
 8489SOL     OW26365   6.567   1.941   1.071
 8489SOL    HW126366   6.559   1.910   1.166
 8489SOL    HW226367   6.662   1.966   1.051
 8490SOL     OW26368   4.600   6.460   3.734
 8490SOL    HW126369   4.609   6.398   3.655
 8490SOL    HW226370   4.690   6.480   3.771
 8491SOL     OW26371   2.878   6.239   0.941
 8491SOL    HW126372   2.882   6.245   1.040
 8491SOL    HW226373   2.788   6.203   0.913
 8492SOL     OW26374   4.989   3.931   5.549
 8492SOL    HW126375   4.986   3.993   5.627
 8492SOL    HW226376   4.935   3.969   5.474
 8493SOL     OW26377   2.231   2.587   6.813
 8493SOL    HW126378   2.142   2.623   6.784
 8493SOL    HW226379   2.222   2.546   6.903
 8494SOL     OW26380   3.217   5.430   1.657
 8494SOL    HW126381   3.141   5.382   1.615
 8494SOL    HW226382   3.299   5.373   1.654
 8495SOL     OW26383   6.025   5.311   2.506
 8495SOL    HW126384   5.945   5.355   2.547
 8495SOL    HW226385   6.091   5.287   2.577
 8496SOL     OW26386   1.262   2.793   1.610
 8496SOL    HW126387   1.221   2.844   1.534
 8496SOL    HW226388   1.278   2.698   1.581
 8497SOL     OW26389   6.334   0.891   3.671
 8497SOL    HW126390   6.315   0.966   3.608
 8497SOL    HW226391   6.253   0.873   3.727
 8498SOL     OW26392   6.848   6.726   3.024
 8498SOL    HW126393   6.891   6.677   3.100
 8498SOL    HW226394   6.797   6.662   2.967
 8499SOL     OW26395   1.692   4.945   6.444
 8499SOL    HW126396   1.722   4.996   6.364
 8499SOL    HW226397   1.771   4.899   6.486
 8500SOL     OW26398   1.702   5.908   5.357
 8500SOL    HW126399   1.698   6.005   5.382
 8500SOL    HW226400   1.669   5.896   5.263
 8501SOL     OW26401   0.732   2.260   6.664
 8501SOL    HW126402   0.640   2.220   6.664
 8501SOL    HW226403   0.766   2.264   6.757
 8502SOL     OW26404   1.390   4.007   1.175
 8502SOL    HW126405   1.350   3.976   1.089
 8502SOL    HW226406   1.486   3.979   1.179
 8503SOL     OW26407   1.349   6.189   4.023
 8503SOL    HW126408   1.261   6.207   3.979
 8503SOL    HW226409   1.421   6.187   3.954
 8504SOL     OW26410   2.540   4.813   2.117
 8504SOL    HW126411   2.635   4.790   2.092
 8504SOL    HW226412   2.481   4.799   2.038
 8505SOL     OW26413   4.985   3.389   3.967
 8505SOL    HW126414   5.066   3.436   3.932
 8505SOL    HW226415   5.004   3.291   3.976
 8506SOL     OW26416   6.921   0.701   6.477
 8506SOL    HW126417   6.945   0.682   6.382
 8506SOL    HW226418   6.920   0.800   6.492
 8507SOL     OW26419   3.488   1.023   5.510
 8507SOL    HW126420   3.563   1.042   5.447
 8507SOL    HW226421   3.445   1.109   5.537
 8508SOL     OW26422   5.918   1.617   5.160
 8508SOL    HW126423   5.864   1.700   5.169
 8508SOL    HW226424   6.012   1.640   5.138
 8509SOL     OW26425   4.872   1.720   4.289
 8509SOL    HW126426   4.972   1.709   4.292
 8509SOL    HW226427   4.839   1.695   4.198
 8510SOL     OW26428   6.114   4.048   2.711
 8510SOL    HW126429   6.073   4.122   2.764
 8510SOL    HW226430   6.211   4.040   2.734
 8511SOL     OW26431   5.673   3.610   2.212
 8511SOL    HW126432   5.753   3.653   2.170
 8511SOL    HW226433   5.684   3.511   2.211
 8512SOL     OW26434   3.194   1.919   1.989
 8512SOL    HW126435   3.201   1.861   2.071
 8512SOL    HW226436   3.152   2.006   2.014
 8513SOL     OW26437   5.946   4.450   1.269
 8513SOL    HW126438   5.872   4.420   1.209
 8513SOL    HW226439   6.000   4.370   1.298
 8514SOL     OW26440   2.746   2.371   3.876
 8514SOL    HW126441   2.687   2.407   3.949
 8514SOL    HW226442   2.716   2.409   3.788
 8515SOL     OW26443   5.617   1.668   1.193
 8515SOL    HW126444   5.583   1.756   1.161
 8515SOL    HW226445   5.653   1.615   1.116
 8516SOL     OW26446   5.965   2.490   1.679
 8516SOL    HW126447   5.984   2.393   1.693
 8516SOL    HW226448   5.887   2.517   1.734
 8517SOL     OW26449   1.149   2.696   6.101
 8517SOL    HW126450   1.216   2.750   6.151
 8517SOL    HW226451   1.057   2.728   6.122
 8518SOL     OW26452   4.332   4.135   6.833
 8518SOL    HW126453   4.339   4.205   6.762
 8518SOL    HW226454   4.260   4.161   6.897
 8519SOL     OW26455   1.246   3.988   2.048
 8519SOL    HW126456   1.307   4.016   1.975
 8519SOL    HW226457   1.271   3.896   2.079
 8520SOL     OW26458   3.496   2.530   0.135
 8520SOL    HW126459   3.513   2.446   0.186
 8520SOL    HW226460   3.474   2.604   0.200
 8521SOL     OW26461   2.278   5.328   6.152
 8521SOL    HW126462   2.339   5.301   6.226
 8521SOL    HW226463   2.333   5.352   6.071
 8522SOL     OW26464   1.399   6.212   1.711
 8522SOL    HW126465   1.438   6.173   1.627
 8522SOL    HW226466   1.471   6.222   1.780
 8523SOL     OW26467   2.265   6.492   6.594
 8523SOL    HW126468   2.200   6.533   6.658
 8523SOL    HW226469   2.311   6.415   6.639
 8524SOL     OW26470   0.451   2.765   4.793
 8524SOL    HW126471   0.365   2.816   4.793
 8524SOL    HW226472   0.459   2.712   4.708
 8525SOL     OW26473   6.218   4.025   3.370
 8525SOL    HW126474   6.303   4.074   3.391
 8525SOL    HW226475   6.152   4.089   3.331
 8526SOL     OW26476   3.622   5.713   0.214
 8526SOL    HW126477   3.679   5.794   0.198
 8526SOL    HW226478   3.625   5.688   0.310
 8527SOL     OW26479   2.530   0.361   6.033
 8527SOL    HW126480   2.596   0.416   5.981
 8527SOL    HW226481   2.476   0.306   5.970
 8528SOL     OW26482   3.853   2.440   6.156
 8528SOL    HW126483   3.787   2.413   6.226
 8528SOL    HW226484   3.806   2.447   6.068
 8529SOL     OW26485   0.359   0.363   1.565
 8529SOL    HW126486   0.322   0.403   1.649
 8529SOL    HW226487   0.284   0.340   1.503
 8530SOL     OW26488   3.270   3.515   5.058
 8530SOL    HW126489   3.337   3.441   5.065
 8530SOL    HW226490   3.236   3.520   4.964
 8531SOL     OW26491   6.515   5.153   2.625
 8531SOL    HW126492   6.458   5.086   2.672
 8531SOL    HW226493   6.547   5.114   2.539
 8532SOL     OW26494   3.866   5.363   4.314
 8532SOL    HW126495   3.883   5.291   4.247
 8532SOL    HW226496   3.947   5.374   4.372
 8533SOL     OW26497   1.929   0.043   5.753
 8533SOL    HW126498   2.027   0.064   5.760
 8533SOL    HW226499   1.908   6.983   5.809
 8534SOL     OW26500   6.039   3.250   3.990
 8534SOL    HW126501   5.985   3.183   4.041
 8534SOL    HW226502   6.136   3.230   4.004
 8535SOL     OW26503   6.646   1.294   4.583
 8535SOL    HW126504   6.666   1.304   4.485
 8535SOL    HW226505   6.589   1.371   4.613
 8536SOL     OW26506   6.023   2.121   4.903
 8536SOL    HW126507   5.956   2.125   4.829
 8536SOL    HW226508   6.115   2.138   4.865
 8537SOL     OW26509   5.911   1.894   1.678
 8537SOL    HW126510   5.894   1.991   1.695
 8537SOL    HW226511   5.940   1.850   1.763
 8538SOL     OW26512   0.654   1.325   6.360
 8538SOL    HW126513   0.642   1.265   6.281
 8538SOL    HW226514   0.738   1.300   6.408
 8539SOL     OW26515   6.031   0.871   1.938
 8539SOL    HW126516   6.089   0.921   2.002
 8539SOL    HW226517   5.942   0.854   1.979
 8540SOL     OW26518   5.031   1.075   6.956
 8540SOL    HW126519   5.019   1.160   6.905
 8540SOL    HW226520   5.113   1.081   7.013
 8541SOL     OW26521   2.747   2.248   4.579
 8541SOL    HW126522   2.755   2.311   4.656
 8541SOL    HW226523   2.755   2.299   4.493
 8542SOL     OW26524   2.864   5.062   6.806
 8542SOL    HW126525   2.867   5.002   6.726
 8542SOL    HW226526   2.957   5.086   6.833
 8543SOL     OW26527   3.206   1.059   0.191
 8543SOL    HW126528   3.275   1.100   0.251
 8543SOL    HW226529   3.116   1.095   0.213
 8544SOL     OW26530   5.631   2.900   4.444
 8544SOL    HW126531   5.646   2.801   4.447
 8544SOL    HW226532   5.555   2.924   4.505
 8545SOL     OW26533   4.836   6.477   4.182
 8545SOL    HW126534   4.875   6.444   4.096
 8545SOL    HW226535   4.909   6.496   4.246
 8546SOL     OW26536   0.628   0.531   3.371
 8546SOL    HW126537   0.557   0.491   3.314
 8546SOL    HW226538   0.715   0.486   3.352
 8547SOL     OW26539   1.302   6.927   6.405
 8547SOL    HW126540   1.368   6.974   6.346
 8547SOL    HW226541   1.246   6.996   6.452
 8548SOL     OW26542   6.419   3.333   6.015
 8548SOL    HW126543   6.406   3.284   5.929
 8548SOL    HW226544   6.385   3.426   6.006
 8549SOL     OW26545   1.303   3.197   4.709
 8549SOL    HW126546   1.237   3.224   4.779
 8549SOL    HW226547   1.283   3.246   4.624
 8550SOL     OW26548   1.806   5.035   6.229
 8550SOL    HW126549   1.902   5.016   6.206
 8550SOL    HW226550   1.781   5.125   6.194
 8551SOL     OW26551   2.653   3.402   6.519
 8551SOL    HW126552   2.728   3.405   6.585
 8551SOL    HW226553   2.640   3.493   6.479
 8552SOL     OW26554   2.895   0.184   3.075
 8552SOL    HW126555   2.978   0.144   3.113
 8552SOL    HW226556   2.826   0.193   3.147
 8553SOL     OW26557   4.256   4.278   6.582
 8553SOL    HW126558   4.260   4.180   6.565
 8553SOL    HW226559   4.186   4.320   6.524
 8554SOL     OW26560   0.512   4.812   1.101
 8554SOL    HW126561   0.604   4.774   1.105
 8554SOL    HW226562   0.495   4.848   1.009
 8555SOL     OW26563   2.200   0.874   4.065
 8555SOL    HW126564   2.141   0.885   3.985
 8555SOL    HW226565   2.283   0.928   4.052
 8556SOL     OW26566   1.318   5.906   5.217
 8556SOL    HW126567   1.362   5.996   5.221
 8556SOL    HW226568   1.278   5.885   5.307
 8557SOL     OW26569   6.371   6.978   2.702
 8557SOL    HW126570   6.344   6.957   2.608
 8557SOL    HW226571   6.380   6.893   2.753
 8558SOL     OW26572   1.859   4.637   3.064
 8558SOL    HW126573   1.938   4.632   3.003
 8558SOL    HW226574   1.775   4.646   3.010
 8559SOL     OW26575   1.666   0.588   2.412
 8559SOL    HW126576   1.713   0.673   2.387
 8559SOL    HW226577   1.731   0.524   2.452
 8560SOL     OW26578   6.858   6.676   1.937
 8560SOL    HW126579   6.916   6.714   2.010
 8560SOL    HW226580   6.908   6.675   1.851
 8561SOL     OW26581   3.950   0.434   2.857
 8561SOL    HW126582   3.919   0.438   2.952
 8561SOL    HW226583   3.894   0.496   2.801
 8562SOL     OW26584   4.099   6.013   6.067
 8562SOL    HW126585   4.053   6.101   6.058
 8562SOL    HW226586   4.065   5.951   5.996
 8563SOL     OW26587   1.147   4.510   0.910
 8563SOL    HW126588   1.215   4.497   0.839
 8563SOL    HW226589   1.181   4.473   0.997
 8564SOL     OW26590   3.478   0.678   5.047
 8564SOL    HW126591   3.422   0.678   4.964
 8564SOL    HW226592   3.419   0.669   5.127
 8565SOL     OW26593   3.678   5.281   1.094
 8565SOL    HW126594   3.665   5.205   1.158
 8565SOL    HW226595   3.650   5.366   1.138
 8566SOL     OW26596   1.291   0.288   1.337
 8566SOL    HW126597   1.241   0.211   1.376
 8566SOL    HW226598   1.342   0.259   1.256
 8567SOL     OW26599   0.516   2.691   3.591
 8567SOL    HW126600   0.535   2.769   3.651
 8567SOL    HW226601   0.600   2.639   3.575
 8568SOL     OW26602   5.735   1.312   6.889
 8568SOL    HW126603   5.755   1.402   6.929
 8568SOL    HW226604   5.683   1.257   6.955
 8569SOL     OW26605   4.388   0.969   5.897
 8569SOL    HW126606   4.382   0.915   5.981
 8569SOL    HW226607   4.296   0.982   5.860
 8570SOL     OW26608   1.797   1.604   4.739
 8570SOL    HW126609   1.739   1.595   4.657
 8570SOL    HW226610   1.893   1.599   4.712
 8571SOL     OW26611   1.110   5.912   4.800
 8571SOL    HW126612   1.095   5.855   4.720
 8571SOL    HW226613   1.033   5.904   4.863
 8572SOL     OW26614   3.229   5.129   6.560
 8572SOL    HW126615   3.258   5.210   6.508
 8572SOL    HW226616   3.286   5.051   6.535
 8573SOL     OW26617   3.415   6.609   6.574
 8573SOL    HW126618   3.390   6.573   6.484
 8573SOL    HW226619   3.513   6.627   6.576
 8574SOL     OW26620   0.344   6.006   6.421
 8574SOL    HW126621   0.322   6.041   6.330
 8574SOL    HW226622   0.441   6.019   6.439
 8575SOL     OW26623   2.381   2.720   4.166
 8575SOL    HW126624   2.330   2.771   4.096
 8575SOL    HW226625   2.379   2.770   4.252
 8576SOL     OW26626   1.195   4.403   5.881
 8576SOL    HW126627   1.225   4.348   5.959
 8576SOL    HW226628   1.147   4.484   5.914
 8577SOL     OW26629   1.100   6.415   4.701
 8577SOL    HW126630   1.161   6.399   4.623
 8577SOL    HW226631   1.081   6.329   4.747
 8578SOL     OW26632   5.943   6.307   4.165
 8578SOL    HW126633   5.984   6.279   4.251
 8578SOL    HW226634   5.861   6.253   4.147
 8579SOL     OW26635   2.188   0.215   1.833
 8579SOL    HW126636   2.170   0.258   1.922
 8579SOL    HW226637   2.106   0.221   1.776
 8580SOL     OW26638   2.602   5.908   1.482
 8580SOL    HW126639   2.637   5.819   1.454
 8580SOL    HW226640   2.531   5.937   1.417
 8581SOL     OW26641   3.265   3.910   1.615
 8581SOL    HW126642   3.308   3.867   1.695
 8581SOL    HW226643   3.275   3.851   1.535
 8582SOL     OW26644   4.689   4.243   4.357
 8582SOL    HW126645   4.609   4.277   4.408
 8582SOL    HW226646   4.706   4.303   4.279
 8583SOL     OW26647   5.565   0.202   4.392
 8583SOL    HW126648   5.502   0.170   4.463
 8583SOL    HW226649   5.607   0.123   4.347
 8584SOL     OW26650   0.529   4.903   5.896
 8584SOL    HW126651   0.573   4.814   5.888
 8584SOL    HW226652   0.436   4.898   5.862
 8585SOL     OW26653   0.579   6.659   6.063
 8585SOL    HW126654   0.642   6.638   6.139
 8585SOL    HW226655   0.497   6.702   6.099
 8586SOL     OW26656   3.217   6.556   1.923
 8586SOL    HW126657   3.235   6.535   1.827
 8586SOL    HW226658   3.158   6.636   1.929
 8587SOL     OW26659   1.059   0.232   3.891
 8587SOL    HW126660   1.045   0.175   3.972
 8587SOL    HW226661   0.975   0.280   3.868
 8588SOL     OW26662   2.973   0.728   0.399
 8588SOL    HW126663   3.003   0.681   0.482
 8588SOL    HW226664   2.972   0.827   0.415
 8589SOL     OW26665   5.179   2.965   5.749
 8589SOL    HW126666   5.174   3.018   5.834
 8589SOL    HW226667   5.212   2.873   5.769
 8590SOL     OW26668   6.690   6.193   3.272
 8590SOL    HW126669   6.773   6.164   3.320
 8590SOL    HW226670   6.638   6.112   3.245
 8591SOL     OW26671   0.380   4.168   0.422
 8591SOL    HW126672   0.422   4.164   0.331
 8591SOL    HW226673   0.402   4.085   0.472
 8592SOL     OW26674   6.718   2.843   6.532
 8592SOL    HW126675   6.755   2.880   6.618
 8592SOL    HW226676   6.762   2.888   6.455
 8593SOL     OW26677   1.619   1.775   0.596
 8593SOL    HW126678   1.550   1.831   0.551
 8593SOL    HW226679   1.710   1.813   0.578
 8594SOL     OW26680   4.300   2.503   5.542
 8594SOL    HW126681   4.246   2.509   5.625
 8594SOL    HW226682   4.378   2.566   5.549
 8595SOL     OW26683   0.443   2.303   3.729
 8595SOL    HW126684   0.471   2.248   3.808
 8595SOL    HW226685   0.446   2.245   3.647
 8596SOL     OW26686   1.050   5.201   2.922
 8596SOL    HW126687   1.026   5.179   2.827
 8596SOL    HW226688   1.140   5.244   2.924
 8597SOL     OW26689   4.535   1.819   0.953
 8597SOL    HW126690   4.490   1.730   0.946
 8597SOL    HW226691   4.528   1.867   0.865
 8598SOL     OW26692   5.869   0.204   0.428
 8598SOL    HW126693   5.922   0.219   0.345
 8598SOL    HW226694   5.904   0.123   0.476
 8599SOL     OW26695   1.613   2.732   5.142
 8599SOL    HW126696   1.597   2.638   5.174
 8599SOL    HW226697   1.534   2.789   5.164
 8600SOL     OW26698   5.258   4.616   4.913
 8600SOL    HW126699   5.341   4.570   4.881
 8600SOL    HW226700   5.269   4.640   5.010
 8601SOL     OW26701   1.065   1.581   4.369
 8601SOL    HW126702   1.145   1.634   4.339
 8601SOL    HW226703   1.093   1.485   4.383
 8602SOL     OW26704   3.202   5.810   1.961
 8602SOL    HW126705   3.139   5.755   2.016
 8602SOL    HW226706   3.267   5.751   1.915
 8603SOL     OW26707   4.881   6.065   0.567
 8603SOL    HW126708   4.974   6.093   0.591
 8603SOL    HW226709   4.856   5.983   0.618
 8604SOL     OW26710   0.227   3.179   5.083
 8604SOL    HW126711   0.309   3.195   5.029
 8604SOL    HW226712   0.146   3.204   5.029
 8605SOL     OW26713   2.616   6.203   4.033
 8605SOL    HW126714   2.694   6.261   4.009
 8605SOL    HW226715   2.559   6.189   3.952
 8606SOL     OW26716   1.964   3.111   6.179
 8606SOL    HW126717   1.865   3.124   6.176
 8606SOL    HW226718   1.999   3.141   6.268
 8607SOL     OW26719   3.646   5.640   0.489
 8607SOL    HW126720   3.727   5.589   0.462
 8607SOL    HW226721   3.588   5.583   0.547
 8608SOL     OW26722   3.836   4.994   2.647
 8608SOL    HW126723   3.737   4.984   2.642
 8608SOL    HW226724   3.865   5.068   2.586
 8609SOL     OW26725   5.334   0.849   2.625
 8609SOL    HW126726   5.257   0.908   2.601
 8609SOL    HW226727   5.353   0.858   2.723
 8610SOL     OW26728   1.161   1.944   3.010
 8610SOL    HW126729   1.237   1.917   2.950
 8610SOL    HW226730   1.194   2.011   3.077
 8611SOL     OW26731   2.741   1.607   4.317
 8611SOL    HW126732   2.715   1.670   4.390
 8611SOL    HW226733   2.819   1.644   4.267
 8612SOL     OW26734   2.696   3.679   0.872
 8612SOL    HW126735   2.668   3.593   0.829
 8612SOL    HW226736   2.624   3.711   0.932
 8613SOL     OW26737   2.926   2.161   1.076
 8613SOL    HW126738   3.016   2.123   1.052
 8613SOL    HW226739   2.926   2.187   1.172
 8614SOL     OW26740   1.011   3.030   3.048
 8614SOL    HW126741   1.082   2.981   3.099
 8614SOL    HW226742   1.036   3.035   2.952
 8615SOL     OW26743   4.524   1.001   4.657
 8615SOL    HW126744   4.550   1.059   4.734
 8615SOL    HW226745   4.437   0.956   4.676
 8616SOL     OW26746   3.077   4.505   1.688
 8616SOL    HW126747   2.997   4.489   1.746
 8616SOL    HW226748   3.093   4.603   1.680
 8617SOL     OW26749   6.246   1.728   6.264
 8617SOL    HW126750   6.169   1.758   6.208
 8617SOL    HW226751   6.329   1.726   6.209
 8618SOL     OW26752   5.934   5.064   1.004
 8618SOL    HW126753   5.862   5.128   1.030
 8618SOL    HW226754   5.905   5.013   0.922
 8619SOL     OW26755   3.601   4.904   2.201
 8619SOL    HW126756   3.558   4.858   2.124
 8619SOL    HW226757   3.625   4.998   2.175
 8620SOL     OW26758   1.614   0.219   3.321
 8620SOL    HW126759   1.525   0.262   3.305
 8620SOL    HW226760   1.627   0.204   3.419
 8621SOL     OW26761   5.689   1.654   3.208
 8621SOL    HW126762   5.615   1.718   3.187
 8621SOL    HW226763   5.690   1.635   3.306
 8622SOL     OW26764   5.809   3.147   0.930
 8622SOL    HW126765   5.766   3.135   0.841
 8622SOL    HW226766   5.814   3.059   0.977
 8623SOL     OW26767   0.777   3.921   4.322
 8623SOL    HW126768   0.846   3.936   4.252
 8623SOL    HW226769   0.751   4.010   4.361
 8624SOL     OW26770   1.655   3.892   4.926
 8624SOL    HW126771   1.622   3.946   5.003
 8624SOL    HW226772   1.693   3.806   4.960
 8625SOL     OW26773   4.448   0.514   6.198
 8625SOL    HW126774   4.436   0.483   6.293
 8625SOL    HW226775   4.482   0.438   6.143
 8626SOL     OW26776   3.451   3.076   6.182
 8626SOL    HW126777   3.499   2.994   6.151
 8626SOL    HW226778   3.362   3.050   6.219
 8627SOL     OW26779   1.227   2.027   3.247
 8627SOL    HW126780   1.153   2.085   3.283
 8627SOL    HW226781   1.222   1.937   3.289
 8628SOL     OW26782   6.319   6.408   1.264
 8628SOL    HW126783   6.250   6.357   1.212
 8628SOL    HW226784   6.345   6.490   1.213
 8629SOL     OW26785   1.049   5.515   4.885
 8629SOL    HW126786   0.954   5.496   4.912
 8629SOL    HW226787   1.105   5.434   4.902
 8630SOL     OW26788   5.767   4.486   4.126
 8630SOL    HW126789   5.693   4.494   4.060
 8630SOL    HW226790   5.762   4.397   4.172
 8631SOL     OW26791   0.479   5.224   6.377
 8631SOL    HW126792   0.576   5.247   6.385
 8631SOL    HW226793   0.441   5.270   6.296
 8632SOL     OW26794   3.498   5.205   4.539
 8632SOL    HW126795   3.533   5.117   4.506
 8632SOL    HW226796   3.574   5.262   4.569
 8633SOL     OW26797   5.148   1.603   6.092
 8633SOL    HW126798   5.143   1.702   6.079
 8633SOL    HW226799   5.056   1.564   6.088
 8634SOL     OW26800   4.648   3.119   0.059
 8634SOL    HW126801   4.658   3.116   6.980
 8634SOL    HW226802   4.718   3.060   0.101
 8635SOL     OW26803   5.530   3.628   6.529
 8635SOL    HW126804   5.512   3.542   6.577
 8635SOL    HW226805   5.606   3.615   6.465
 8636SOL     OW26806   5.596   5.603   0.916
 8636SOL    HW126807   5.500   5.576   0.909
 8636SOL    HW226808   5.603   5.688   0.969
 8637SOL     OW26809   2.299   1.275   0.029
 8637SOL    HW126810   2.245   1.194   0.050
 8637SOL    HW226811   2.377   1.250   6.991
 8638SOL     OW26812   3.604   2.534   5.345
 8638SOL    HW126813   3.611   2.435   5.350
 8638SOL    HW226814   3.516   2.559   5.305
 8639SOL     OW26815   5.356   2.858   0.183
 8639SOL    HW126816   5.344   2.937   0.243
 8639SOL    HW226817   5.300   2.782   0.215
 8640SOL     OW26818   4.017   3.810   6.819
 8640SOL    HW126819   3.995   3.832   6.724
 8640SOL    HW226820   4.008   3.711   6.834
 8641SOL     OW26821   4.685   4.791   3.680
 8641SOL    HW126822   4.707   4.888   3.669
 8641SOL    HW226823   4.764   4.742   3.717
 8642SOL     OW26824   1.566   6.000   2.911
 8642SOL    HW126825   1.517   6.013   2.825
 8642SOL    HW226826   1.540   6.071   2.975
 8643SOL     OW26827   2.345   0.124   6.895
 8643SOL    HW126828   2.436   0.099   6.928
 8643SOL    HW226829   2.335   0.094   6.800
 8644SOL     OW26830   5.527   2.497   5.354
 8644SOL    HW126831   5.613   2.459   5.388
 8644SOL    HW226832   5.467   2.423   5.325
 8645SOL     OW26833   4.470   4.189   1.296
 8645SOL    HW126834   4.519   4.130   1.231
 8645SOL    HW226835   4.534   4.254   1.336
 8646SOL     OW26836   6.997   1.913   0.874
 8646SOL    HW126837   0.044   1.984   0.854
 8646SOL    HW226838   0.013   1.852   0.945
 8647SOL     OW26839   2.844   5.347   6.822
 8647SOL    HW126840   2.786   5.272   6.852
 8647SOL    HW226841   2.900   5.317   6.745
 8648SOL     OW26842   6.789   0.542   2.778
 8648SOL    HW126843   6.866   0.591   2.820
 8648SOL    HW226844   6.720   0.607   2.749
 8649SOL     OW26845   5.220   5.433   5.779
 8649SOL    HW126846   5.286   5.446   5.853
 8649SOL    HW226847   5.136   5.481   5.800
 8650SOL     OW26848   2.170   5.544   4.105
 8650SOL    HW126849   2.148   5.478   4.177
 8650SOL    HW226850   2.096   5.611   4.098
 8651SOL     OW26851   4.395   0.145   6.521
 8651SOL    HW126852   4.339   0.155   6.602
 8651SOL    HW226853   4.463   0.073   6.536
 8652SOL     OW26854   1.762   4.790   3.531
 8652SOL    HW126855   1.809   4.875   3.551
 8652SOL    HW226856   1.739   4.744   3.617
 8653SOL     OW26857   5.871   0.295   5.917
 8653SOL    HW126858   5.962   0.333   5.935
 8653SOL    HW226859   5.804   0.344   5.973
 8654SOL     OW26860   1.153   4.749   2.025
 8654SOL    HW126861   1.114   4.826   1.973
 8654SOL    HW226862   1.252   4.745   2.008
 8655SOL     OW26863   6.867   1.136   4.139
 8655SOL    HW126864   6.829   1.047   4.113
 8655SOL    HW226865   6.797   1.189   4.187
 8656SOL     OW26866   6.869   0.149   1.056
 8656SOL    HW126867   6.844   0.068   1.003
 8656SOL    HW226868   6.872   0.228   0.996
 8657SOL     OW26869   5.415   4.397   6.731
 8657SOL    HW126870   5.416   4.306   6.774
 8657SOL    HW226871   5.325   4.439   6.744
 8658SOL     OW26872   6.116   5.937   0.515
 8658SOL    HW126873   6.215   5.954   0.506
 8658SOL    HW226874   6.102   5.855   0.571
 8659SOL     OW26875   4.355   1.971   2.675
 8659SOL    HW126876   4.313   1.880   2.684
 8659SOL    HW226877   4.283   2.040   2.669
 8660SOL     OW26878   6.771   4.070   1.740
 8660SOL    HW126879   6.728   3.981   1.721
 8660SOL    HW226880   6.785   4.119   1.654
 8661SOL     OW26881   6.401   4.152   1.242
 8661SOL    HW126882   6.386   4.236   1.190
 8661SOL    HW226883   6.395   4.073   1.180
 8662SOL     OW26884   4.516   5.755   1.416
 8662SOL    HW126885   4.568   5.799   1.342
 8662SOL    HW226886   4.418   5.760   1.395
 8663SOL     OW26887   2.819   6.098   1.486
 8663SOL    HW126888   2.733   6.047   1.477
 8663SOL    HW226889   2.816   6.152   1.571
 8664SOL     OW26890   1.695   6.399   0.781
 8664SOL    HW126891   1.730   6.427   0.871
 8664SOL    HW226892   1.768   6.404   0.714
 8665SOL     OW26893   5.489   5.899   5.118
 8665SOL    HW126894   5.486   5.806   5.079
 8665SOL    HW226895   5.535   5.960   5.053
 8666SOL     OW26896   5.737   1.542   3.782
 8666SOL    HW126897   5.741   1.557   3.880
 8666SOL    HW226898   5.814   1.485   3.754
 8667SOL     OW26899   3.985   2.164   3.188
 8667SOL    HW126900   3.918   2.174   3.115
 8667SOL    HW226901   3.940   2.173   3.277
 8668SOL     OW26902   5.053   3.432   3.466
 8668SOL    HW126903   5.124   3.375   3.425
 8668SOL    HW226904   5.044   3.410   3.563
 8669SOL     OW26905   1.187   6.481   5.839
 8669SOL    HW126906   1.231   6.432   5.763
 8669SOL    HW226907   1.189   6.579   5.821
 8670SOL     OW26908   3.627   4.365   5.279
 8670SOL    HW126909   3.535   4.334   5.256
 8670SOL    HW226910   3.621   4.445   5.340
 8671SOL     OW26911   5.006   1.598   2.857
 8671SOL    HW126912   4.958   1.565   2.938
 8671SOL    HW226913   4.980   1.541   2.778
 8672SOL     OW26914   1.022   5.476   4.068
 8672SOL    HW126915   1.087   5.551   4.071
 8672SOL    HW226916   0.928   5.512   4.071
 8673SOL     OW26917   5.733   2.774   0.051
 8673SOL    HW126918   5.791   2.709   0.101
 8673SOL    HW226919   5.780   2.862   0.043
 8674SOL     OW26920   5.071   5.849   2.965
 8674SOL    HW126921   5.045   5.945   2.976
 8674SOL    HW226922   5.034   5.795   3.041
 8675SOL     OW26923   3.760   2.111   4.430
 8675SOL    HW126924   3.798   2.161   4.508
 8675SOL    HW226925   3.671   2.073   4.455
 8676SOL     OW26926   5.252   0.053   2.617
 8676SOL    HW126927   5.182   0.006   2.670
 8676SOL    HW226928   5.215   0.079   2.528
 8677SOL     OW26929   2.056   5.215   6.015
 8677SOL    HW126930   2.137   5.265   6.046
 8677SOL    HW226931   2.062   5.119   6.042
 8678SOL     OW26932   0.128   0.281   2.283
 8678SOL    HW126933   0.188   0.246   2.211
 8678SOL    HW226934   0.173   0.274   2.371
 8679SOL     OW26935   0.230   1.927   3.323
 8679SOL    HW126936   0.316   1.966   3.291
 8679SOL    HW226937   0.166   2.000   3.347
 8680SOL     OW26938   0.450   3.463   0.237
 8680SOL    HW126939   0.406   3.445   0.150
 8680SOL    HW226940   0.545   3.433   0.233
 8681SOL     OW26941   4.826   5.123   1.017
 8681SOL    HW126942   4.801   5.177   1.098
 8681SOL    HW226943   4.845   5.184   0.941
 8682SOL     OW26944   5.333   6.348   2.407
 8682SOL    HW126945   5.258   6.292   2.372
 8682SOL    HW226946   5.414   6.336   2.350
 8683SOL     OW26947   1.896   1.894   4.237
 8683SOL    HW126948   1.915   1.866   4.143
 8683SOL    HW226949   1.947   1.977   4.259
 8684SOL     OW26950   6.086   2.786   5.366
 8684SOL    HW126951   5.999   2.738   5.377
 8684SOL    HW226952   6.085   2.869   5.423
 8685SOL     OW26953   0.493   2.114   6.656
 8685SOL    HW126954   0.435   2.088   6.579
 8685SOL    HW226955   0.516   2.033   6.710
 8686SOL     OW26956   0.394   1.215   3.197
 8686SOL    HW126957   0.383   1.270   3.280
 8686SOL    HW226958   0.486   1.174   3.197
 8687SOL     OW26959   5.238   4.713   1.313
 8687SOL    HW126960   5.329   4.673   1.310
 8687SOL    HW226961   5.170   4.641   1.300
 8688SOL     OW26962   1.277   5.124   6.378
 8688SOL    HW126963   1.198   5.081   6.423
 8688SOL    HW226964   1.249   5.157   6.288
 8689SOL     OW26965   3.641   3.756   1.181
 8689SOL    HW126966   3.628   3.661   1.152
 8689SOL    HW226967   3.574   3.815   1.135
 8690SOL     OW26968   1.575   3.840   3.629
 8690SOL    HW126969   1.599   3.835   3.532
 8690SOL    HW226970   1.509   3.768   3.651
 8691SOL     OW26971   3.464   1.840   5.843
 8691SOL    HW126972   3.486   1.821   5.939
 8691SOL    HW226973   3.465   1.755   5.791
 8692SOL     OW26974   2.804   1.290   4.755
 8692SOL    HW126975   2.755   1.376   4.767
 8692SOL    HW226976   2.899   1.301   4.783
 8693SOL     OW26977   5.746   0.702   7.018
 8693SOL    HW126978   5.769   0.615   6.976
 8693SOL    HW226979   5.826   0.762   7.018
 8694SOL     OW26980   4.788   0.613   4.938
 8694SOL    HW126981   4.820   0.520   4.957
 8694SOL    HW226982   4.689   0.612   4.923
 8695SOL     OW26983   4.343   3.382   6.352
 8695SOL    HW126984   4.324   3.396   6.449
 8695SOL    HW226985   4.436   3.347   6.341
 8696SOL     OW26986   1.830   4.964   5.704
 8696SOL    HW126987   1.866   4.955   5.611
 8696SOL    HW226988   1.817   4.873   5.743
 8697SOL     OW26989   0.400   3.140   6.371
 8697SOL    HW126990   0.417   3.158   6.274
 8697SOL    HW226991   0.485   3.152   6.423
 8698SOL     OW26992   4.778   5.659   4.927
 8698SOL    HW126993   4.726   5.713   4.861
 8698SOL    HW226994   4.719   5.588   4.965
 8699SOL     OW26995   1.590   2.418   5.192
 8699SOL    HW126996   1.611   2.394   5.097
 8699SOL    HW226997   1.661   2.381   5.251
 8700SOL     OW26998   1.144   1.623   3.997
 8700SOL    HW126999   1.243   1.627   3.991
 8700SOL    HW227000   1.109   1.708   4.036
 8701SOL     OW27001   1.382   0.894   6.846
 8701SOL    HW127002   1.395   0.992   6.860
 8701SOL    HW227003   1.464   0.846   6.878
 8702SOL     OW27004   5.324   4.956   1.456
 8702SOL    HW127005   5.391   5.011   1.405
 8702SOL    HW227006   5.308   4.871   1.406
 8703SOL     OW27007   2.418   4.541   6.779
 8703SOL    HW127008   2.327   4.566   6.748
 8703SOL    HW227009   2.477   4.524   6.700
 8704SOL     OW27010   0.156   4.478   3.595
 8704SOL    HW127011   0.233   4.437   3.546
 8704SOL    HW227012   0.074   4.474   3.538
 8705SOL     OW27013   5.330   0.906   6.305
 8705SOL    HW127014   5.314   0.854   6.221
 8705SOL    HW227015   5.378   0.849   6.372
 8706SOL     OW27016   5.408   1.910   6.978
 8706SOL    HW127017   5.396   1.817   6.944
 8706SOL    HW227018   5.490   1.915   0.016
 8707SOL     OW27019   6.852   1.324   6.159
 8707SOL    HW127020   6.857   1.378   6.243
 8707SOL    HW227021   6.937   1.274   6.147
 8708SOL     OW27022   4.657   1.509   2.174
 8708SOL    HW127023   4.570   1.545   2.140
 8708SOL    HW227024   4.715   1.486   2.096
 8709SOL     OW27025   0.520   6.500   0.309
 8709SOL    HW127026   0.496   6.594   0.286
 8709SOL    HW227027   0.437   6.448   0.327
 8710SOL     OW27028   2.178   3.141   3.676
 8710SOL    HW127029   2.150   3.047   3.695
 8710SOL    HW227030   2.234   3.144   3.593
 8711SOL     OW27031   2.025   6.839   3.144
 8711SOL    HW127032   1.997   6.757   3.194
 8711SOL    HW227033   1.945   6.897   3.129
 8712SOL     OW27034   3.685   1.937   4.747
 8712SOL    HW127035   3.709   2.032   4.727
 8712SOL    HW227036   3.724   1.910   4.835
 8713SOL     OW27037   6.456   3.418   4.108
 8713SOL    HW127038   6.415   3.490   4.164
 8713SOL    HW227039   6.390   3.385   4.041
 8714SOL     OW27040   0.612   0.466   5.473
 8714SOL    HW127041   0.635   0.562   5.457
 8714SOL    HW227042   0.656   0.409   5.403
 8715SOL     OW27043   4.200   6.813   1.337
 8715SOL    HW127044   4.235   6.824   1.430
 8715SOL    HW227045   4.274   6.783   1.277
 8716SOL     OW27046   0.062   0.226   0.796
 8716SOL    HW127047   0.107   0.173   0.869
 8716SOL    HW227048   0.002   0.294   0.837
 8717SOL     OW27049   2.911   3.358   4.877
 8717SOL    HW127050   2.938   3.317   4.965
 8717SOL    HW227051   2.812   3.353   4.867
 8718SOL     OW27052   1.907   3.377   5.318
 8718SOL    HW127053   1.921   3.364   5.416
 8718SOL    HW227054   1.860   3.297   5.280
 8719SOL     OW27055   4.029   0.155   6.704
 8719SOL    HW127056   3.984   0.070   6.730
 8719SOL    HW227057   3.975   0.233   6.737
 8720SOL     OW27058   6.791   5.343   6.108
 8720SOL    HW127059   6.791   5.378   6.015
 8720SOL    HW227060   6.788   5.243   6.106
 8721SOL     OW27061   6.821   2.438   1.584
 8721SOL    HW127062   6.823   2.375   1.661
 8721SOL    HW227063   6.915   2.455   1.552
 8722SOL     OW27064   3.601   1.179   0.511
 8722SOL    HW127065   3.678   1.134   0.465
 8722SOL    HW227066   3.518   1.126   0.496
 8723SOL     OW27067   4.801   6.408   1.857
 8723SOL    HW127068   4.777   6.382   1.951
 8723SOL    HW227069   4.737   6.476   1.823
 8724SOL     OW27070   5.012   6.828   5.369
 8724SOL    HW127071   4.957   6.746   5.386
 8724SOL    HW227072   5.109   6.805   5.377
 8725SOL     OW27073   1.373   6.393   5.642
 8725SOL    HW127074   1.454   6.431   5.597
 8725SOL    HW227075   1.390   6.299   5.670
 8726SOL     OW27076   6.995   1.859   3.884
 8726SOL    HW127077   6.956   1.843   3.793
 8726SOL    HW227078   6.945   1.934   3.928
 8727SOL     OW27079   5.798   6.985   2.188
 8727SOL    HW127080   5.853   6.918   2.237
 8727SOL    HW227081   5.809   0.055   2.230
 8728SOL     OW27082   6.460   0.691   2.172
 8728SOL    HW127083   6.430   0.625   2.104
 8728SOL    HW227084   6.550   0.664   2.207
 8729SOL     OW27085   3.625   5.200   5.309
 8729SOL    HW127086   3.610   5.297   5.330
 8729SOL    HW227087   3.543   5.161   5.268
 8730SOL     OW27088   5.910   4.430   2.676
 8730SOL    HW127089   5.857   4.371   2.615
 8730SOL    HW227090   5.938   4.378   2.757
 8731SOL     OW27091   1.849   2.615   2.958
 8731SOL    HW127092   1.851   2.692   3.022
 8731SOL    HW227093   1.825   2.649   2.867
 8732SOL     OW27094   5.877   4.740   1.463
 8732SOL    HW127095   5.783   4.761   1.435
 8732SOL    HW227096   5.914   4.817   1.514
 8733SOL     OW27097   2.213   5.331   1.522
 8733SOL    HW127098   2.227   5.416   1.572
 8733SOL    HW227099   2.124   5.334   1.476
 8734SOL     OW27100   0.917   4.015   2.103
 8734SOL    HW127101   0.847   4.079   2.074
 8734SOL    HW227102   1.005   4.041   2.064
 8735SOL     OW27103   1.051   2.587   0.403
 8735SOL    HW127104   1.060   2.515   0.472
 8735SOL    HW227105   0.966   2.574   0.352
 8736SOL     OW27106   0.050   5.400   0.763
 8736SOL    HW127107   6.975   5.382   0.738
 8736SOL    HW227108   0.109   5.385   0.684
 8737SOL     OW27109   2.081   6.807   7.006
 8737SOL    HW127110   2.097   6.830   6.910
 8737SOL    HW227111   2.168   6.787   0.031
 8738SOL     OW27112   2.755   5.268   4.359
 8738SOL    HW127113   2.741   5.173   4.331
 8738SOL    HW227114   2.667   5.309   4.381
 8739SOL     OW27115   6.578   5.759   6.915
 8739SOL    HW127116   6.485   5.742   6.882
 8739SOL    HW227117   6.574   5.808   7.002
 8740SOL     OW27118   4.736   1.299   4.415
 8740SOL    HW127119   4.812   1.267   4.471
 8740SOL    HW227120   4.711   1.227   4.350
 8741SOL     OW27121   2.384   1.180   2.169
 8741SOL    HW127122   2.296   1.141   2.197
 8741SOL    HW227123   2.388   1.277   2.195
 8742SOL     OW27124   5.090   6.402   1.489
 8742SOL    HW127125   5.057   6.328   1.430
 8742SOL    HW227126   5.099   6.368   1.583
 8743SOL     OW27127   1.907   0.216   1.826
 8743SOL    HW127128   1.855   0.274   1.887
 8743SOL    HW227129   1.862   0.126   1.819
 8744SOL     OW27130   4.097   2.827   6.798
 8744SOL    HW127131   4.050   2.899   6.746
 8744SOL    HW227132   4.196   2.843   6.796
 8745SOL     OW27133   6.559   2.266   6.545
 8745SOL    HW127134   6.631   2.223   6.600
 8745SOL    HW227135   6.525   2.201   6.477
 8746SOL     OW27136   4.436   5.406   4.870
 8746SOL    HW127137   4.349   5.449   4.892
 8746SOL    HW227138   4.500   5.420   4.945
 8747SOL     OW27139   0.277   2.305   3.311
 8747SOL    HW127140   0.367   2.262   3.321
 8747SOL    HW227141   0.280   2.370   3.235
 8748SOL     OW27142   0.133   1.350   4.427
 8748SOL    HW127143   0.146   1.254   4.452
 8748SOL    HW227144   0.040   1.363   4.392
 8749SOL     OW27145   2.173   0.296   4.847
 8749SOL    HW127146   2.104   0.231   4.816
 8749SOL    HW227147   2.192   0.363   4.775
 8750SOL     OW27148   3.315   3.720   4.787
 8750SOL    HW127149   3.217   3.729   4.805
 8750SOL    HW227150   3.340   3.623   4.782
 8751SOL     OW27151   5.838   1.775   2.091
 8751SOL    HW127152   5.879   1.722   2.165
 8751SOL    HW227153   5.762   1.830   2.127
 8752SOL     OW27154   3.304   3.304   6.713
 8752SOL    HW127155   3.390   3.258   6.736
 8752SOL    HW227156   3.242   3.299   6.792
 8753SOL     OW27157   3.648   1.635   6.434
 8753SOL    HW127158   3.639   1.722   6.387
 8753SOL    HW227159   3.567   1.619   6.491
 8754SOL     OW27160   2.153   3.557   5.646
 8754SOL    HW127161   2.097   3.511   5.716
 8754SOL    HW227162   2.245   3.573   5.682
 8755SOL     OW27163   2.304   1.233   0.860
 8755SOL    HW127164   2.306   1.326   0.822
 8755SOL    HW227165   2.392   1.213   0.904
 8756SOL     OW27166   0.950   3.158   4.342
 8756SOL    HW127167   0.925   3.065   4.315
 8756SOL    HW227168   1.038   3.182   4.301
 8757SOL     OW27169   3.789   6.071   6.397
 8757SOL    HW127170   3.888   6.054   6.403
 8757SOL    HW227171   3.740   6.004   6.452
 8758SOL     OW27172   4.821   5.772   2.550
 8758SOL    HW127173   4.829   5.683   2.504
 8758SOL    HW227174   4.822   5.759   2.649
 8759SOL     OW27175   4.969   2.856   6.867
 8759SOL    HW127176   5.009   2.945   6.892
 8759SOL    HW227177   5.021   2.815   6.793
 8760SOL     OW27178   2.212   0.535   5.240
 8760SOL    HW127179   2.267   0.471   5.186
 8760SOL    HW227180   2.270   0.611   5.271
 8761SOL     OW27181   6.294   2.277   1.939
 8761SOL    HW127182   6.261   2.352   1.882
 8761SOL    HW227183   6.311   2.197   1.881
 8762SOL     OW27184   1.372   3.985   3.093
 8762SOL    HW127185   1.341   4.072   3.132
 8762SOL    HW227186   1.308   3.913   3.120
 8763SOL     OW27187   6.917   6.358   6.254
 8763SOL    HW127188   6.989   6.332   6.319
 8763SOL    HW227189   6.872   6.441   6.286
 8764SOL     OW27190   5.491   6.786   4.977
 8764SOL    HW127191   5.450   6.699   4.951
 8764SOL    HW227192   5.566   6.808   4.914
 8765SOL     OW27193   5.437   6.717   3.734
 8765SOL    HW127194   5.371   6.649   3.767
 8765SOL    HW227195   5.389   6.804   3.716
 8766SOL     OW27196   4.679   4.619   4.549
 8766SOL    HW127197   4.615   4.686   4.586
 8766SOL    HW227198   4.766   4.664   4.529
 8767SOL     OW27199   5.032   5.385   3.236
 8767SOL    HW127200   4.990   5.308   3.187
 8767SOL    HW227201   5.000   5.385   3.331
 8768SOL     OW27202   1.249   2.653   0.042
 8768SOL    HW127203   1.347   2.672   0.030
 8768SOL    HW227204   1.237   2.559   0.071
 8769SOL     OW27205   0.440   0.544   3.583
 8769SOL    HW127206   0.351   0.588   3.571
 8769SOL    HW227207   0.493   0.553   3.498
 8770SOL     OW27208   4.653   4.459   2.187
 8770SOL    HW127209   4.651   4.389   2.116
 8770SOL    HW227210   4.603   4.540   2.155
 8771SOL     OW27211   1.240   1.873   6.479
 8771SOL    HW127212   1.335   1.905   6.471
 8771SOL    HW227213   1.239   1.774   6.492
 8772SOL     OW27214   4.779   0.732   6.386
 8772SOL    HW127215   4.717   0.656   6.408
 8772SOL    HW227216   4.874   0.702   6.399
 8773SOL     OW27217   5.205   2.326   3.591
 8773SOL    HW127218   5.195   2.383   3.673
 8773SOL    HW227219   5.141   2.358   3.521
 8774SOL     OW27220   1.834   0.743   0.060
 8774SOL    HW127221   1.872   0.820   0.111
 8774SOL    HW227222   1.755   0.774   0.007
 8775SOL     OW27223   5.690   6.936   5.546
 8775SOL    HW127224   5.593   6.916   5.557
 8775SOL    HW227225   5.709   0.010   5.574
 8776SOL     OW27226   4.141   2.635   0.186
 8776SOL    HW127227   4.216   2.698   0.207
 8776SOL    HW227228   4.084   2.673   0.113
 8777SOL     OW27229   6.767   4.365   3.072
 8777SOL    HW127230   6.811   4.409   2.994
 8777SOL    HW227231   6.803   4.272   3.081
 8778SOL     OW27232   5.874   3.101   5.791
 8778SOL    HW127233   5.790   3.095   5.738
 8778SOL    HW227234   5.871   3.033   5.865
 8779SOL     OW27235   2.789   5.047   2.202
 8779SOL    HW127236   2.692   5.071   2.191
 8779SOL    HW227237   2.798   4.948   2.210
 8780SOL     OW27238   0.210   6.350   2.922
 8780SOL    HW127239   0.214   6.429   2.860
 8780SOL    HW227240   0.217   6.382   3.017
 8781SOL     OW27241   4.837   0.908   3.182
 8781SOL    HW127242   4.817   0.814   3.209
 8781SOL    HW227243   4.754   0.951   3.145
 8782SOL     OW27244   6.561   6.674   1.357
 8782SOL    HW127245   6.610   6.756   1.326
 8782SOL    HW227246   6.611   6.592   1.326
 8783SOL     OW27247   6.573   4.727   4.049
 8783SOL    HW127248   6.653   4.681   4.087
 8783SOL    HW227249   6.530   4.784   4.119
 8784SOL     OW27250   6.073   4.527   5.766
 8784SOL    HW127251   6.125   4.460   5.819
 8784SOL    HW227252   5.980   4.493   5.752
 8785SOL     OW27253   5.527   4.010   0.058
 8785SOL    HW127254   5.549   4.025   0.154
 8785SOL    HW227255   5.593   3.946   0.018
 8786SOL     OW27256   2.663   0.718   0.824
 8786SOL    HW127257   2.653   0.639   0.764
 8786SOL    HW227258   2.577   0.768   0.827
 8787SOL     OW27259   3.269   1.523   1.810
 8787SOL    HW127260   3.262   1.621   1.791
 8787SOL    HW227261   3.302   1.476   1.728
 8788SOL     OW27262   6.155   0.735   5.380
 8788SOL    HW127263   6.077   0.773   5.330
 8788SOL    HW227264   6.240   0.765   5.338
 8789SOL     OW27265   5.948   6.436   4.579
 8789SOL    HW127266   6.001   6.412   4.660
 8789SOL    HW227267   6.002   6.496   4.519
 8790SOL     OW27268   0.450   0.301   6.294
 8790SOL    HW127269   0.485   0.210   6.316
 8790SOL    HW227270   0.373   0.323   6.354
 8791SOL     OW27271   4.917   6.207   5.244
 8791SOL    HW127272   4.995   6.252   5.201
 8791SOL    HW227273   4.842   6.272   5.255
 8792SOL     OW27274   2.709   6.001   3.020
 8792SOL    HW127275   2.651   5.932   3.061
 8792SOL    HW227276   2.677   6.022   2.928
 8793SOL     OW27277   1.134   4.589   3.017
 8793SOL    HW127278   1.073   4.511   3.007
 8793SOL    HW227279   1.228   4.562   2.996
 8794SOL     OW27280   4.637   0.079   2.339
 8794SOL    HW127281   4.724   0.125   2.359
 8794SOL    HW227282   4.601   0.038   2.423
 8795SOL     OW27283   1.150   4.688   5.574
 8795SOL    HW127284   1.166   4.686   5.673
 8795SOL    HW227285   1.218   4.747   5.531
 8796SOL     OW27286   3.766   2.178   4.705
 8796SOL    HW127287   3.863   2.177   4.683
 8796SOL    HW227288   3.747   2.253   4.768
 8797SOL     OW27289   0.258   0.411   6.579
 8797SOL    HW127290   0.184   0.413   6.647
 8797SOL    HW227291   0.306   0.324   6.584
 8798SOL     OW27292   5.551   5.238   6.353
 8798SOL    HW127293   5.455   5.235   6.380
 8798SOL    HW227294   5.566   5.317   6.294
 8799SOL     OW27295   2.423   4.616   3.650
 8799SOL    HW127296   2.376   4.630   3.737
 8799SOL    HW227297   2.424   4.519   3.627
 8800SOL     OW27298   6.805   4.210   5.636
 8800SOL    HW127299   6.843   4.291   5.681
 8800SOL    HW227300   6.876   4.165   5.583
 8801SOL     OW27301   6.998   1.035   5.233
 8801SOL    HW127302   6.912   1.013   5.186
 8801SOL    HW227303   0.053   1.030   5.167
 8802SOL     OW27304   2.075   0.158   6.997
 8802SOL    HW127305   2.170   0.171   6.966
 8802SOL    HW227306   2.018   0.231   6.960
 8803SOL     OW27307   0.208   6.279   0.007
 8803SOL    HW127308   0.300   6.268   6.989
 8803SOL    HW227309   0.149   6.324   6.961
 8804SOL     OW27310   2.472   6.736   2.074
 8804SOL    HW127311   2.400   6.765   2.137
 8804SOL    HW227312   2.509   6.816   2.027
 8805SOL     OW27313   3.268   6.003   3.841
 8805SOL    HW127314   3.339   5.949   3.797
 8805SOL    HW227315   3.218   5.946   3.906
 8806SOL     OW27316   3.259   4.883   2.129
 8806SOL    HW127317   3.182   4.856   2.071
 8806SOL    HW227318   3.337   4.823   2.111
 8807SOL     OW27319   4.870   0.593   6.844
 8807SOL    HW127320   4.927   0.670   6.872
 8807SOL    HW227321   4.801   0.624   6.778
 8808SOL     OW27322   6.119   2.563   6.894
 8808SOL    HW127323   6.123   2.463   6.902
 8808SOL    HW227324   6.091   2.587   6.801
 8809SOL     OW27325   4.523   5.002   3.431
 8809SOL    HW127326   4.457   4.965   3.367
 8809SOL    HW227327   4.485   5.001   3.523
 8810SOL     OW27328   6.052   0.694   5.025
 8810SOL    HW127329   6.122   0.725   4.961
 8810SOL    HW227330   6.081   0.608   5.067
 8811SOL     OW27331   3.675   0.746   2.962
 8811SOL    HW127332   3.618   0.706   3.033
 8811SOL    HW227333   3.627   0.822   2.919
 8812SOL     OW27334   1.753   0.841   0.367
 8812SOL    HW127335   1.711   0.812   0.453
 8812SOL    HW227336   1.691   0.904   0.320
 8813SOL     OW27337   2.166   4.973   1.834
 8813SOL    HW127338   2.198   4.879   1.847
 8813SOL    HW227339   2.236   5.037   1.864
 8814SOL     OW27340   6.232   0.125   0.563
 8814SOL    HW127341   6.205   0.070   0.484
 8814SOL    HW227342   6.217   0.072   0.646
 8815SOL     OW27343   5.879   6.633   0.796
 8815SOL    HW127344   5.801   6.691   0.821
 8815SOL    HW227345   5.873   6.609   0.699
 8816SOL     OW27346   1.455   6.801   0.559
 8816SOL    HW127347   1.548   6.837   0.554
 8816SOL    HW227348   1.455   6.716   0.613
 8817SOL     OW27349   0.201   4.996   3.662
 8817SOL    HW127350   0.181   5.035   3.573
 8817SOL    HW227351   0.289   5.030   3.695
 8818SOL     OW27352   0.528   4.576   4.392
 8818SOL    HW127353   0.597   4.627   4.442
 8818SOL    HW227354   0.573   4.514   4.327
 8819SOL     OW27355   5.885   5.330   5.478
 8819SOL    HW127356   5.913   5.372   5.392
 8819SOL    HW227357   5.788   5.349   5.495
 8820SOL     OW27358   2.809   0.589   4.823
 8820SOL    HW127359   2.786   0.577   4.727
 8820SOL    HW227360   2.751   0.528   4.879
 8821SOL     OW27361   2.049   6.239   0.616
 8821SOL    HW127362   1.955   6.210   0.632
 8821SOL    HW227363   2.111   6.183   0.671
 8822SOL     OW27364   0.465   0.324   3.828
 8822SOL    HW127365   0.457   0.367   3.738
 8822SOL    HW227366   0.398   0.365   3.891
 8823SOL     OW27367   2.417   1.043   2.525
 8823SOL    HW127368   2.413   1.128   2.577
 8823SOL    HW227369   2.368   1.053   2.439
 8824SOL     OW27370   1.474   1.815   0.068
 8824SOL    HW127371   1.378   1.827   0.041
 8824SOL    HW227372   1.527   1.894   0.035
 8825SOL     OW27373   1.961   1.089   2.066
 8825SOL    HW127374   1.889   1.021   2.077
 8825SOL    HW227375   1.951   1.161   2.135
 8826SOL     OW27376   0.404   3.887   0.411
 8826SOL    HW127377   0.362   3.813   0.359
 8826SOL    HW227378   0.399   3.866   0.509
 8827SOL     OW27379   4.339   1.426   1.710
 8827SOL    HW127380   4.316   1.482   1.631
 8827SOL    HW227381   4.423   1.375   1.692
 8828SOL     OW27382   3.929   5.698   6.145
 8828SOL    HW127383   4.029   5.699   6.154
 8828SOL    HW227384   3.895   5.792   6.144
 8829SOL     OW27385   4.984   2.855   0.902
 8829SOL    HW127386   5.030   2.852   0.991
 8829SOL    HW227387   5.029   2.791   0.839
 8830SOL     OW27388   1.699   2.265   2.444
 8830SOL    HW127389   1.777   2.222   2.399
 8830SOL    HW227390   1.635   2.296   2.374
 8831SOL     OW27391   4.540   2.532   4.352
 8831SOL    HW127392   4.481   2.454   4.375
 8831SOL    HW227393   4.538   2.546   4.253
 8832SOL     OW27394   0.336   6.915   2.985
 8832SOL    HW127395   0.290   6.955   3.064
 8832SOL    HW227396   0.392   6.837   3.014
 8833SOL     OW27397   2.594   4.672   5.834
 8833SOL    HW127398   2.606   4.595   5.771
 8833SOL    HW227399   2.637   4.754   5.795
 8834SOL     OW27400   5.712   4.369   4.794
 8834SOL    HW127401   5.768   4.292   4.825
 8834SOL    HW227402   5.617   4.353   4.818
 8835SOL     OW27403   4.472   0.698   5.575
 8835SOL    HW127404   4.384   0.659   5.551
 8835SOL    HW227405   4.545   0.633   5.554
 8836SOL     OW27406   4.888   1.715   0.189
 8836SOL    HW127407   4.938   1.790   0.147
 8836SOL    HW227408   4.800   1.748   0.224
 8837SOL     OW27409   0.204   6.505   2.488
 8837SOL    HW127410   0.148   6.566   2.432
 8837SOL    HW227411   0.241   6.433   2.430
 8838SOL     OW27412   2.061   5.368   3.194
 8838SOL    HW127413   1.968   5.332   3.193
 8838SOL    HW227414   2.075   5.422   3.277
 8839SOL     OW27415   5.358   5.562   1.769
 8839SOL    HW127416   5.359   5.484   1.830
 8839SOL    HW227417   5.388   5.644   1.818
 8840SOL     OW27418   0.104   1.865   3.086
 8840SOL    HW127419   0.148   1.886   2.999
 8840SOL    HW227420   0.158   1.905   3.160
 8841SOL     OW27421   0.771   1.239   4.547
 8841SOL    HW127422   0.675   1.269   4.554
 8841SOL    HW227423   0.808   1.266   4.459
 8842SOL     OW27424   3.522   2.915   2.490
 8842SOL    HW127425   3.556   2.910   2.584
 8842SOL    HW227426   3.592   2.881   2.427
 8843SOL     OW27427   2.270   3.211   5.917
 8843SOL    HW127428   2.281   3.209   5.818
 8843SOL    HW227429   2.357   3.190   5.961
 8844SOL     OW27430   0.339   1.273   5.968
 8844SOL    HW127431   0.313   1.364   5.936
 8844SOL    HW227432   0.393   1.227   5.898
 8845SOL     OW27433   3.327   3.775   1.375
 8845SOL    HW127434   3.373   3.777   1.286
 8845SOL    HW227435   3.300   3.681   1.396
 8846SOL     OW27436   3.475   5.349   3.619
 8846SOL    HW127437   3.437   5.428   3.667
 8846SOL    HW227438   3.572   5.341   3.641
 8847SOL     OW27439   2.204   1.140   3.099
 8847SOL    HW127440   2.232   1.213   3.037
 8847SOL    HW227441   2.189   1.056   3.047
 8848SOL     OW27442   2.806   1.794   2.524
 8848SOL    HW127443   2.751   1.871   2.558
 8848SOL    HW227444   2.902   1.810   2.547
 8849SOL     OW27445   2.745   6.414   3.148
 8849SOL    HW127446   2.794   6.328   3.168
 8849SOL    HW227447   2.752   6.434   3.051
 8850SOL     OW27448   1.600   2.132   6.795
 8850SOL    HW127449   1.646   2.147   6.883
 8850SOL    HW227450   1.532   2.060   6.806
 8851SOL     OW27451   1.419   5.736   2.068
 8851SOL    HW127452   1.388   5.781   1.984
 8851SOL    HW227453   1.385   5.642   2.070
 8852SOL     OW27454   5.289   3.619   5.953
 8852SOL    HW127455   5.277   3.528   5.994
 8852SOL    HW227456   5.201   3.667   5.951
 8853SOL     OW27457   3.077   1.625   0.578
 8853SOL    HW127458   3.159   1.622   0.521
 8853SOL    HW227459   3.087   1.696   0.648
 8854SOL     OW27460   3.091   1.197   5.702
 8854SOL    HW127461   3.062   1.103   5.682
 8854SOL    HW227462   3.061   1.257   5.627
 8855SOL     OW27463   0.228   6.217   1.241
 8855SOL    HW127464   0.208   6.131   1.287
 8855SOL    HW227465   0.216   6.293   1.305
 8856SOL     OW27466   0.422   6.370   6.562
 8856SOL    HW127467   0.498   6.311   6.591
 8856SOL    HW227468   0.344   6.314   6.535
 8857SOL     OW27469   6.649   1.925   4.149
 8857SOL    HW127470   6.719   1.853   4.147
 8857SOL    HW227471   6.645   1.966   4.240
 8858SOL     OW27472   0.698   2.643   5.423
 8858SOL    HW127473   0.601   2.660   5.406
 8858SOL    HW227474   0.713   2.545   5.435
 8859SOL     OW27475   0.398   0.693   3.796
 8859SOL    HW127476   0.306   0.673   3.828
 8859SOL    HW227477   0.418   0.639   3.714
 8860SOL     OW27478   0.173   2.944   3.015
 8860SOL    HW127479   0.199   3.041   3.018
 8860SOL    HW227480   0.081   2.936   2.976
 8861SOL     OW27481   4.141   1.579   5.810
 8861SOL    HW127482   4.192   1.534   5.883
 8861SOL    HW227483   4.049   1.603   5.843
 8862SOL     OW27484   5.620   0.467   3.951
 8862SOL    HW127485   5.539   0.447   4.007
 8862SOL    HW227486   5.607   0.553   3.902
 8863SOL     OW27487   1.483   4.978   4.119
 8863SOL    HW127488   1.509   5.046   4.050
 8863SOL    HW227489   1.423   4.910   4.077
 8864SOL     OW27490   3.363   4.874   6.494
 8864SOL    HW127491   3.281   4.844   6.444
 8864SOL    HW227492   3.426   4.918   6.430
 8865SOL     OW27493   2.929   0.592   6.150
 8865SOL    HW127494   2.850   0.644   6.184
 8865SOL    HW227495   2.938   0.605   6.052
 8866SOL     OW27496   5.381   0.004   2.902
 8866SOL    HW127497   5.363   0.083   2.844
 8866SOL    HW227498   5.461   0.022   2.959
 8867SOL     OW27499   5.812   3.981   2.514
 8867SOL    HW127500   5.866   4.004   2.433
 8867SOL    HW227501   5.871   3.981   2.595
 8868SOL     OW27502   6.546   2.471   1.106
 8868SOL    HW127503   6.579   2.544   1.166
 8868SOL    HW227504   6.447   2.460   1.118
 8869SOL     OW27505   4.089   5.864   4.751
 8869SOL    HW127506   4.015   5.932   4.743
 8869SOL    HW227507   4.050   5.774   4.769
 8870SOL     OW27508   3.516   0.549   0.640
 8870SOL    HW127509   3.549   0.624   0.582
 8870SOL    HW227510   3.457   0.586   0.712
 8871SOL     OW27511   1.891   1.207   4.016
 8871SOL    HW127512   1.899   1.110   4.037
 8871SOL    HW227513   1.966   1.257   4.060
 8872SOL     OW27514   1.543   4.022   5.133
 8872SOL    HW127515   1.524   3.951   5.202
 8872SOL    HW227516   1.564   4.108   5.179
 8873SOL     OW27517   1.009   6.950   1.629
 8873SOL    HW127518   0.913   6.924   1.624
 8873SOL    HW227519   1.057   6.890   1.693
 8874SOL     OW27520   1.646   6.230   2.128
 8874SOL    HW127521   1.687   6.309   2.175
 8874SOL    HW227522   1.694   6.147   2.156
 8875SOL     OW27523   0.119   3.841   5.360
 8875SOL    HW127524   0.104   3.921   5.302
 8875SOL    HW227525   0.050   3.838   5.432
 8876SOL     OW27526   2.411   6.360   4.913
 8876SOL    HW127527   2.316   6.378   4.937
 8876SOL    HW227528   2.469   6.433   4.948
 8877SOL     OW27529   3.215   1.642   3.854
 8877SOL    HW127530   3.122   1.664   3.824
 8877SOL    HW227531   3.265   1.726   3.873
 8878SOL     OW27532   6.737   4.491   0.249
 8878SOL    HW127533   6.721   4.466   0.154
 8878SOL    HW227534   6.815   4.553   0.254
 8879SOL     OW27535   4.914   4.584   2.869
 8879SOL    HW127536   4.875   4.506   2.917
 8879SOL    HW227537   5.008   4.563   2.842
 8880SOL     OW27538   5.154   5.940   4.948
 8880SOL    HW127539   5.245   5.972   4.921
 8880SOL    HW227540   5.148   5.934   5.048
 8881SOL     OW27541   5.890   6.686   3.885
 8881SOL    HW127542   5.943   6.603   3.869
 8881SOL    HW227543   5.844   6.714   3.801
 8882SOL     OW27544   5.760   1.092   1.058
 8882SOL    HW127545   5.846   1.135   1.087
 8882SOL    HW227546   5.723   1.037   1.132
 8883SOL     OW27547   1.121   6.324   6.313
 8883SOL    HW127548   1.074   6.351   6.229
 8883SOL    HW227549   1.123   6.224   6.319
 8884SOL     OW27550   6.574   3.923   6.098
 8884SOL    HW127551   6.562   3.871   6.182
 8884SOL    HW227552   6.577   3.860   6.020
 8885SOL     OW27553   6.842   3.746   1.425
 8885SOL    HW127554   6.783   3.755   1.345
 8885SOL    HW227555   6.898   3.664   1.418
 8886SOL     OW27556   2.786   6.883   4.788
 8886SOL    HW127557   2.689   6.858   4.791
 8886SOL    HW227558   2.797   6.978   4.817
 8887SOL     OW27559   3.881   0.737   0.592
 8887SOL    HW127560   3.879   0.644   0.629
 8887SOL    HW227561   3.955   0.788   0.637
 8888SOL     OW27562   1.639   1.661   5.946
 8888SOL    HW127563   1.582   1.591   5.989
 8888SOL    HW227564   1.718   1.681   6.004
 8889SOL     OW27565   6.479   0.111   5.982
 8889SOL    HW127566   6.471   0.083   6.077
 8889SOL    HW227567   6.503   0.207   5.977
 8890SOL     OW27568   6.628   5.887   4.061
 8890SOL    HW127569   6.644   5.901   4.159
 8890SOL    HW227570   6.661   5.796   4.035
 8891SOL     OW27571   4.519   3.523   6.845
 8891SOL    HW127572   4.454   3.540   6.770
 8891SOL    HW227573   4.471   3.476   6.919
 8892SOL     OW27574   3.137   5.492   3.116
 8892SOL    HW127575   3.211   5.434   3.151
 8892SOL    HW227576   3.095   5.449   3.037
 8893SOL     OW27577   0.749   5.891   3.514
 8893SOL    HW127578   0.696   5.856   3.591
 8893SOL    HW227579   0.825   5.830   3.495
 8894SOL     OW27580   4.111   2.187   6.575
 8894SOL    HW127581   4.084   2.132   6.496
 8894SOL    HW227582   4.095   2.135   6.659
 8895SOL     OW27583   6.248   2.730   2.076
 8895SOL    HW127584   6.171   2.792   2.059
 8895SOL    HW227585   6.324   2.753   2.015
 8896SOL     OW27586   2.774   3.139   5.283
 8896SOL    HW127587   2.681   3.111   5.262
 8896SOL    HW227588   2.774   3.193   5.368
 8897SOL     OW27589   2.125   2.702   3.213
 8897SOL    HW127590   2.063   2.685   3.289
 8897SOL    HW227591   2.122   2.625   3.149
 8898SOL     OW27592   5.198   3.087   2.728
 8898SOL    HW127593   5.232   3.022   2.660
 8898SOL    HW227594   5.098   3.086   2.728
 8899SOL     OW27595   1.360   5.701   1.443
 8899SOL    HW127596   1.325   5.777   1.498
 8899SOL    HW227597   1.352   5.616   1.495
 8900SOL     OW27598   5.580   2.875   3.171
 8900SOL    HW127599   5.665   2.865   3.223
 8900SOL    HW227600   5.601   2.902   3.077
 8901SOL     OW27601   2.078   0.662   5.010
 8901SOL    HW127602   2.164   0.622   4.978
 8901SOL    HW227603   2.018   0.679   4.933
 8902SOL     OW27604   2.337   6.866   0.815
 8902SOL    HW127605   2.272   6.807   0.768
 8902SOL    HW227606   2.416   6.883   0.756
 8903SOL     OW27607   0.142   1.815   4.861
 8903SOL    HW127608   0.190   1.798   4.774
 8903SOL    HW227609   0.141   1.730   4.915
 8904SOL     OW27610   6.543   0.112   4.186
 8904SOL    HW127611   6.482   0.188   4.167
 8904SOL    HW227612   6.494   0.026   4.173
 8905SOL     OW27613   1.611   4.034   3.832
 8905SOL    HW127614   1.583   3.961   3.770
 8905SOL    HW227615   1.669   3.996   3.904
 8906SOL     OW27616   0.601   6.196   6.641
 8906SOL    HW127617   0.561   6.142   6.715
 8906SOL    HW227618   0.695   6.167   6.625
 8907SOL     OW27619   2.641   2.239   5.192
 8907SOL    HW127620   2.607   2.327   5.223
 8907SOL    HW227621   2.728   2.251   5.143
 8908SOL     OW27622   1.123   4.930   0.005
 8908SOL    HW127623   1.137   4.977   6.938
 8908SOL    HW227624   1.065   4.850   7.011
 8909SOL     OW27625   2.465   0.681   6.119
 8909SOL    HW127626   2.446   0.611   6.051
 8909SOL    HW227627   2.433   0.651   6.209
 8910SOL     OW27628   7.006   2.382   5.828
 8910SOL    HW127629   6.979   2.315   5.758
 8910SOL    HW227630   6.930   2.447   5.842
 8911SOL     OW27631   4.118   2.223   4.901
 8911SOL    HW127632   4.212   2.229   4.867
 8911SOL    HW227633   4.098   2.303   4.957
 8912SOL     OW27634   3.241   3.819   6.676
 8912SOL    HW127635   3.244   3.863   6.766
 8912SOL    HW227636   3.281   3.728   6.682
 8913SOL     OW27637   5.078   5.115   5.790
 8913SOL    HW127638   5.121   5.186   5.734
 8913SOL    HW227639   4.979   5.124   5.785
 8914SOL     OW27640   4.565   0.510   4.810
 8914SOL    HW127641   4.631   0.510   4.736
 8914SOL    HW227642   4.581   0.431   4.869
 8915SOL     OW27643   0.737   3.169   4.109
 8915SOL    HW127644   0.785   3.111   4.175
 8915SOL    HW227645   0.639   3.145   4.109
 8916SOL     OW27646   6.652   2.988   0.642
 8916SOL    HW127647   6.583   2.916   0.639
 8916SOL    HW227648   6.723   2.969   0.575
 8917SOL     OW27649   6.543   3.345   6.857
 8917SOL    HW127650   6.505   3.371   6.768
 8917SOL    HW227651   6.588   3.256   6.849
 8918SOL     OW27652   6.575   4.022   1.004
 8918SOL    HW127653   6.605   4.046   1.096
 8918SOL    HW227654   6.548   4.104   0.955
 8919SOL     OW27655   3.910   3.931   0.821
 8919SOL    HW127656   3.842   3.857   0.818
 8919SOL    HW227657   3.965   3.928   0.738
 8920SOL     OW27658   7.008   0.672   6.815
 8920SOL    HW127659   0.007   0.575   6.803
 8920SOL    HW227660   6.970   0.709   6.730
 8921SOL     OW27661   2.487   2.291   2.458
 8921SOL    HW127662   2.490   2.224   2.384
 8921SOL    HW227663   2.573   2.289   2.509
 8922SOL     OW27664   4.426   4.633   1.273
 8922SOL    HW127665   4.388   4.596   1.358
 8922SOL    HW227666   4.427   4.562   1.203
 8923SOL     OW27667   1.767   2.120   6.206
 8923SOL    HW127668   1.681   2.148   6.162
 8923SOL    HW227669   1.804   2.040   6.160
 8924SOL     OW27670   3.437   5.122   5.146
 8924SOL    HW127671   3.362   5.115   5.212
 8924SOL    HW227672   3.400   5.138   5.055
 8925SOL     OW27673   0.927   1.915   3.174
 8925SOL    HW127674   0.933   1.972   3.256
 8925SOL    HW227675   0.997   1.943   3.109
 8926SOL     OW27676   6.564   2.954   5.802
 8926SOL    HW127677   6.476   2.929   5.760
 8926SOL    HW227678   6.553   2.959   5.901
 8927SOL     OW27679   0.005   1.306   4.871
 8927SOL    HW127680   0.055   1.377   4.822
 8927SOL    HW227681   6.934   1.339   4.895
 8928SOL     OW27682   0.548   0.044   6.341
 8928SOL    HW127683   0.517   0.007   6.253
 8928SOL    HW227684   0.496   0.001   6.415
 8929SOL     OW27685   6.076   2.262   4.287
 8929SOL    HW127686   6.064   2.202   4.208
 8929SOL    HW227687   5.991   2.265   4.340
 8930SOL     OW27688   1.694   3.408   3.982
 8930SOL    HW127689   1.733   3.417   3.890
 8930SOL    HW227690   1.699   3.313   4.011
 8931SOL     OW27691   2.255   3.315   0.606
 8931SOL    HW127692   2.285   3.390   0.666
 8931SOL    HW227693   2.203   3.352   0.529
 8932SOL     OW27694   6.517   1.460   1.192
 8932SOL    HW127695   6.612   1.449   1.165
 8932SOL    HW227696   6.479   1.541   1.146
 8933SOL     OW27697   2.163   2.938   6.089
 8933SOL    HW127698   2.149   2.919   5.992
 8933SOL    HW227699   2.099   3.008   6.120
 8934SOL     OW27700   3.602   4.966   4.466
 8934SOL    HW127701   3.663   4.893   4.433
 8934SOL    HW227702   3.533   4.986   4.396
 8935SOL     OW27703   6.663   4.319   0.711
 8935SOL    HW127704   6.718   4.353   0.787
 8935SOL    HW227705   6.720   4.310   0.629
 8936SOL     OW27706   1.354   3.239   2.959
 8936SOL    HW127707   1.365   3.221   3.057
 8936SOL    HW227708   1.384   3.159   2.907
 8937SOL     OW27709   6.872   7.011   4.441
 8937SOL    HW127710   6.783   7.003   4.485
 8937SOL    HW227711   6.864   0.049   4.360
 8938SOL     OW27712   0.276   0.568   0.640
 8938SOL    HW127713   0.265   0.581   0.542
 8938SOL    HW227714   0.309   0.652   0.682
 8939SOL     OW27715   6.141   4.673   4.286
 8939SOL    HW127716   6.225   4.724   4.303
 8939SOL    HW227717   6.062   4.731   4.303
 8940SOL     OW27718   6.496   1.253   2.239
 8940SOL    HW127719   6.496   1.153   2.243
 8940SOL    HW227720   6.408   1.288   2.270
 8941SOL     OW27721   5.645   2.541   4.961
 8941SOL    HW127722   5.565   2.597   4.939
 8941SOL    HW227723   5.707   2.538   4.883
 8942SOL     OW27724   6.560   5.063   6.013
 8942SOL    HW127725   6.585   4.968   6.028
 8942SOL    HW227726   6.568   5.114   6.098
 8943SOL     OW27727   3.717   5.243   0.797
 8943SOL    HW127728   3.695   5.154   0.757
 8943SOL    HW227729   3.701   5.240   0.896
 8944SOL     OW27730   5.235   5.524   4.965
 8944SOL    HW127731   5.139   5.530   4.993
 8944SOL    HW227732   5.293   5.563   5.037
 8945SOL     OW27733   1.030   0.988   3.642
 8945SOL    HW127734   1.106   1.029   3.592
 8945SOL    HW227735   1.062   0.908   3.692
 8946SOL     OW27736   2.453   1.573   4.258
 8946SOL    HW127737   2.438   1.498   4.193
 8946SOL    HW227738   2.551   1.595   4.260
 8947SOL     OW27739   2.442   3.531   5.708
 8947SOL    HW127740   2.445   3.621   5.665
 8947SOL    HW227741   2.497   3.467   5.654
 8948SOL     OW27742   6.172   6.090   4.184
 8948SOL    HW127743   6.233   6.160   4.146
 8948SOL    HW227744   6.205   6.000   4.155
 8949SOL     OW27745   3.653   6.226   0.834
 8949SOL    HW127746   3.572   6.266   0.790
 8949SOL    HW227747   3.735   6.276   0.805
 8950SOL     OW27748   4.440   4.554   6.689
 8950SOL    HW127749   4.536   4.576   6.674
 8950SOL    HW227750   4.429   4.454   6.696
 8951SOL     OW27751   1.968   0.900   4.559
 8951SOL    HW127752   2.061   0.936   4.566
 8951SOL    HW227753   1.919   0.949   4.487
 8952SOL     OW27754   0.357   5.478   2.458
 8952SOL    HW127755   0.349   5.527   2.371
 8952SOL    HW227756   0.448   5.493   2.497
 8953SOL     OW27757   1.182   4.125   0.478
 8953SOL    HW127758   1.116   4.067   0.526
 8953SOL    HW227759   1.149   4.220   0.480
 8954SOL     OW27760   6.695   6.622   4.474
 8954SOL    HW127761   6.686   6.695   4.541
 8954SOL    HW227762   6.627   6.636   4.401
 8955SOL     OW27763   6.897   5.878   2.552
 8955SOL    HW127764   6.987   5.896   2.511
 8955SOL    HW227765   6.909   5.859   2.650
 8956SOL     OW27766   1.913   1.536   6.420
 8956SOL    HW127767   1.838   1.602   6.416
 8956SOL    HW227768   1.925   1.495   6.329
 8957SOL     OW27769   1.829   4.833   1.499
 8957SOL    HW127770   1.793   4.856   1.408
 8957SOL    HW227771   1.904   4.767   1.489
 8958SOL     OW27772   0.257   2.076   4.652
 8958SOL    HW127773   0.344   2.126   4.657
 8958SOL    HW227774   0.202   2.098   4.732
 8959SOL     OW27775   1.439   4.343   2.116
 8959SOL    HW127776   1.457   4.292   2.032
 8959SOL    HW227777   1.447   4.281   2.194
 8960SOL     OW27778   4.224   5.781   3.325
 8960SOL    HW127779   4.169   5.718   3.271
 8960SOL    HW227780   4.271   5.846   3.264
 8961SOL     OW27781   3.011   0.817   3.647
 8961SOL    HW127782   3.093   0.867   3.673
 8961SOL    HW227783   2.937   0.882   3.627
 8962SOL     OW27784   6.464   6.154   2.636
 8962SOL    HW127785   6.560   6.134   2.618
 8962SOL    HW227786   6.408   6.126   2.558
 8963SOL     OW27787   4.250   0.299   4.899
 8963SOL    HW127788   4.202   0.265   4.818
 8963SOL    HW227789   4.245   0.230   4.972
 8964SOL     OW27790   5.225   3.341   3.063
 8964SOL    HW127791   5.183   3.351   3.153
 8964SOL    HW227792   5.251   3.245   3.049
 8965SOL     OW27793   2.282   5.598   0.761
 8965SOL    HW127794   2.235   5.637   0.840
 8965SOL    HW227795   2.376   5.634   0.757
 8966SOL     OW27796   6.505   4.294   0.262
 8966SOL    HW127797   6.484   4.282   0.165
 8966SOL    HW227798   6.572   4.368   0.272
 8967SOL     OW27799   4.042   0.610   1.485
 8967SOL    HW127800   4.035   0.578   1.391
 8967SOL    HW227801   4.102   0.690   1.489
 8968SOL     OW27802   4.597   5.574   3.311
 8968SOL    HW127803   4.559   5.535   3.395
 8968SOL    HW227804   4.561   5.525   3.232
 8969SOL     OW27805   6.570   0.572   4.256
 8969SOL    HW127806   6.570   0.495   4.192
 8969SOL    HW227807   6.489   0.568   4.314
 8970SOL     OW27808   2.435   3.197   6.751
 8970SOL    HW127809   2.447   3.142   6.833
 8970SOL    HW227810   2.447   3.139   6.670
 8971SOL     OW27811   5.947   4.942   1.618
 8971SOL    HW127812   5.941   5.041   1.622
 8971SOL    HW227813   5.974   4.906   1.707
 8972SOL     OW27814   4.965   3.300   6.824
 8972SOL    HW127815   5.028   3.359   6.774
 8972SOL    HW227816   5.017   3.242   6.887
 8973SOL     OW27817   0.510   3.627   3.391
 8973SOL    HW127818   0.527   3.721   3.422
 8973SOL    HW227819   0.456   3.579   3.459
 8974SOL     OW27820   1.344   4.235   4.844
 8974SOL    HW127821   1.321   4.231   4.746
 8974SOL    HW227822   1.443   4.250   4.854
 8975SOL     OW27823   1.389   6.195   6.639
 8975SOL    HW127824   1.344   6.284   6.634
 8975SOL    HW227825   1.335   6.134   6.696
 8976SOL     OW27826   0.644   5.563   6.767
 8976SOL    HW127827   0.671   5.595   6.858
 8976SOL    HW227828   0.570   5.620   6.732
 8977SOL     OW27829   7.016   3.073   6.766
 8977SOL    HW127830   0.067   3.029   6.712
 8977SOL    HW227831   0.013   3.059   6.863
 8978SOL     OW27832   5.419   6.437   4.174
 8978SOL    HW127833   5.390   6.354   4.222
 8978SOL    HW227834   5.483   6.411   4.101
 8979SOL     OW27835   1.260   3.930   4.681
 8979SOL    HW127836   1.180   3.975   4.641
 8979SOL    HW227837   1.251   3.927   4.780
 8980SOL     OW27838   4.248   3.263   5.339
 8980SOL    HW127839   4.207   3.295   5.425
 8980SOL    HW227840   4.175   3.241   5.274
 8981SOL     OW27841   4.530   0.973   5.456
 8981SOL    HW127842   4.515   0.882   5.494
 8981SOL    HW227843   4.628   0.988   5.445
 8982SOL     OW27844   1.648   2.177   2.018
 8982SOL    HW127845   1.622   2.242   2.089
 8982SOL    HW227846   1.716   2.114   2.053
 8983SOL     OW27847   1.006   5.710   6.960
 8983SOL    HW127848   0.916   5.667   6.966
 8983SOL    HW227849   1.060   5.683   0.020
 8984SOL     OW27850   6.632   0.360   3.805
 8984SOL    HW127851   6.555   0.309   3.767
 8984SOL    HW227852   6.709   0.359   3.741
 8985SOL     OW27853   2.339   1.730   0.607
 8985SOL    HW127854   2.378   1.818   0.636
 8985SOL    HW227855   2.411   1.673   0.568
 8986SOL     OW27856   4.215   5.229   1.884
 8986SOL    HW127857   4.232   5.161   1.955
 8986SOL    HW227858   4.169   5.309   1.924
 8987SOL     OW27859   4.971   6.789   0.396
 8987SOL    HW127860   4.928   6.772   0.307
 8987SOL    HW227861   4.949   6.882   0.426
 8988SOL     OW27862   1.523   3.932   6.782
 8988SOL    HW127863   1.582   3.905   6.858
 8988SOL    HW227864   1.569   4.003   6.728
 8989SOL     OW27865   4.954   4.362   2.245
 8989SOL    HW127866   5.019   4.306   2.194
 8989SOL    HW227867   4.869   4.311   2.257
 8990SOL     OW27868   2.233   5.661   2.177
 8990SOL    HW127869   2.280   5.667   2.266
 8990SOL    HW227870   2.301   5.655   2.104
 8991SOL     OW27871   2.094   2.149   0.047
 8991SOL    HW127872   2.089   2.050   0.031
 8991SOL    HW227873   2.029   2.195   7.007
 8992SOL     OW27874   6.422   2.086   6.909
 8992SOL    HW127875   6.488   2.032   6.857
 8992SOL    HW227876   6.470   2.163   6.952
 8993SOL     OW27877   4.610   2.556   2.362
 8993SOL    HW127878   4.679   2.570   2.433
 8993SOL    HW227879   4.524   2.527   2.403
 8994SOL     OW27880   0.484   5.034   4.743
 8994SOL    HW127881   0.529   4.948   4.720
 8994SOL    HW227882   0.543   5.086   4.805
 8995SOL     OW27883   1.017   2.705   6.511
 8995SOL    HW127884   1.091   2.650   6.549
 8995SOL    HW227885   0.932   2.652   6.511
 8996SOL     OW27886   6.656   5.421   1.729
 8996SOL    HW127887   6.735   5.366   1.702
 8996SOL    HW227888   6.635   5.487   1.657
 8997SOL     OW27889   4.177   1.648   6.729
 8997SOL    HW127890   4.109   1.589   6.774
 8997SOL    HW227891   4.242   1.592   6.679
 8998SOL     OW27892   6.412   3.647   5.078
 8998SOL    HW127893   6.408   3.630   4.980
 8998SOL    HW227894   6.351   3.722   5.102
 8999SOL     OW27895   5.108   6.810   0.019
 8999SOL    HW127896   5.097   6.908   0.007
 8999SOL    HW227897   5.145   6.770   6.955
 9000SOL     OW27898   2.506   4.597   0.442
 9000SOL    HW127899   2.510   4.689   0.404
 9000SOL    HW227900   2.488   4.603   0.540
 9001SOL     OW27901   1.037   5.743   2.684
 9001SOL    HW127902   1.014   5.675   2.753
 9001SOL    HW227903   0.953   5.780   2.643
 9002SOL     OW27904   6.824   5.266   5.277
 9002SOL    HW127905   6.876   5.233   5.355
 9002SOL    HW227906   6.887   5.293   5.204
 9003SOL     OW27907   5.323   2.818   1.319
 9003SOL    HW127908   5.409   2.860   1.290
 9003SOL    HW227909   5.290   2.863   1.402
 9004SOL     OW27910   5.254   6.537   0.893
 9004SOL    HW127911   5.269   6.634   0.873
 9004SOL    HW227912   5.178   6.527   0.956
 9005SOL     OW27913   4.900   2.346   5.044
 9005SOL    HW127914   4.908   2.392   4.955
 9005SOL    HW227915   4.962   2.267   5.045
 9006SOL     OW27916   2.906   6.500   0.801
 9006SOL    HW127917   2.889   6.410   0.840
 9006SOL    HW227918   2.855   6.510   0.716
 9007SOL     OW27919   4.699   0.483   4.274
 9007SOL    HW127920   4.684   0.463   4.178
 9007SOL    HW227921   4.771   0.422   4.310
 9008SOL     OW27922   0.452   6.012   3.120
 9008SOL    HW127923   0.375   5.958   3.154
 9008SOL    HW227924   0.536   5.959   3.129
 9009SOL     OW27925   2.513   1.126   0.451
 9009SOL    HW127926   2.432   1.126   0.392
 9009SOL    HW227927   2.504   1.053   0.519
 9010SOL     OW27928   0.815   0.157   4.359
 9010SOL    HW127929   0.897   0.210   4.377
 9010SOL    HW227930   0.833   0.060   4.379
 9011SOL     OW27931   4.533   2.480   1.832
 9011SOL    HW127932   4.535   2.571   1.790
 9011SOL    HW227933   4.556   2.487   1.929
 9012SOL     OW27934   3.439   4.563   1.326
 9012SOL    HW127935   3.386   4.485   1.292
 9012SOL    HW227936   3.421   4.576   1.424
 9013SOL     OW27937   0.169   6.351   4.607
 9013SOL    HW127938   0.174   6.339   4.706
 9013SOL    HW227939   0.100   6.421   4.585
 9014SOL     OW27940   0.719   1.510   6.958
 9014SOL    HW127941   0.739   1.438   0.005
 9014SOL    HW227942   0.798   1.522   6.897
 9015SOL     OW27943   6.039   1.752   1.414
 9015SOL    HW127944   5.986   1.712   1.490
 9015SOL    HW227945   6.086   1.679   1.364
 9016SOL     OW27946   0.801   6.095   6.368
 9016SOL    HW127947   0.806   6.163   6.441
 9016SOL    HW227948   0.731   6.121   6.302
 9017SOL     OW27949   4.379   1.969   1.977
 9017SOL    HW127950   4.293   1.948   2.023
 9017SOL    HW227951   4.362   1.990   1.881
 9018SOL     OW27952   4.564   1.302   6.360
 9018SOL    HW127953   4.663   1.303   6.371
 9018SOL    HW227954   4.531   1.208   6.367
 9019SOL     OW27955   0.759   0.630   1.608
 9019SOL    HW127956   0.691   0.693   1.571
 9019SOL    HW227957   0.816   0.678   1.675
 9020SOL     OW27958   1.312   3.559   1.454
 9020SOL    HW127959   1.224   3.534   1.414
 9020SOL    HW227960   1.349   3.481   1.505
 9021SOL     OW27961   6.908   0.482   4.029
 9021SOL    HW127962   6.838   0.412   4.017
 9021SOL    HW227963   6.950   0.503   3.941
 9022SOL     OW27964   2.558   1.856   0.427
 9022SOL    HW127965   2.532   1.906   0.509
 9022SOL    HW227966   2.592   1.919   0.358
 9023SOL     OW27967   3.416   3.794   2.189
 9023SOL    HW127968   3.479   3.725   2.227
 9023SOL    HW227969   3.325   3.755   2.180
 9024SOL     OW27970   0.278   5.247   4.234
 9024SOL    HW127971   0.212   5.179   4.266
 9024SOL    HW227972   0.370   5.222   4.265
 9025SOL     OW27973   0.702   5.262   0.263
 9025SOL    HW127974   0.647   5.221   0.191
 9025SOL    HW227975   0.732   5.192   0.327
 9026SOL     OW27976   3.989   3.241   1.303
 9026SOL    HW127977   4.036   3.313   1.354
 9026SOL    HW227978   3.955   3.277   1.217
 9027SOL     OW27979   1.063   1.966   4.299
 9027SOL    HW127980   1.149   1.915   4.303
 9027SOL    HW227981   1.041   2.003   4.389
 9028SOL     OW27982   2.468   4.068   5.635
 9028SOL    HW127983   2.529   4.081   5.556
 9028SOL    HW227984   2.404   4.145   5.641
 9029SOL     OW27985   2.814   5.719   4.559
 9029SOL    HW127986   2.764   5.805   4.571
 9029SOL    HW227987   2.791   5.679   4.470
 9030SOL     OW27988   2.016   2.276   3.619
 9030SOL    HW127989   2.073   2.312   3.693
 9030SOL    HW227990   1.939   2.224   3.657
 9031SOL     OW27991   4.320   6.128   4.365
 9031SOL    HW127992   4.347   6.196   4.433
 9031SOL    HW227993   4.317   6.037   4.407
 9032SOL     OW27994   3.541   3.355   0.798
 9032SOL    HW127995   3.525   3.373   0.895
 9032SOL    HW227996   3.460   3.381   0.746
 9033SOL     OW27997   1.556   5.148   3.933
 9033SOL    HW127998   1.641   5.120   3.889
 9033SOL    HW227999   1.537   5.243   3.911
 9034SOL     OW28000   2.966   0.189   5.386
 9034SOL    HW128001   2.872   0.211   5.412
 9034SOL    HW228002   3.016   0.157   5.466
 9035SOL     OW28003   1.591   4.248   6.150
 9035SOL    HW128004   1.583   4.283   6.057
 9035SOL    HW228005   1.582   4.148   6.149
 9036SOL     OW28006   2.400   0.731   5.178
 9036SOL    HW128007   2.434   0.704   5.088
 9036SOL    HW228008   2.349   0.816   5.170
 9037SOL     OW28009   1.437   3.832   5.700
 9037SOL    HW128010   1.379   3.800   5.774
 9037SOL    HW228011   1.531   3.801   5.715
 9038SOL     OW28012   4.899   6.127   6.333
 9038SOL    HW128013   4.873   6.223   6.346
 9038SOL    HW228014   4.823   6.077   6.292
 9039SOL     OW28015   2.679   4.844   4.620
 9039SOL    HW128016   2.599   4.845   4.681
 9039SOL    HW228017   2.679   4.759   4.567
 9040SOL     OW28018   3.066   2.121   2.750
 9040SOL    HW128019   2.993   2.188   2.764
 9040SOL    HW228020   3.129   2.123   2.827
 9041SOL     OW28021   1.908   2.320   1.996
 9041SOL    HW128022   1.978   2.340   1.928
 9041SOL    HW228023   1.831   2.272   1.953
 9042SOL     OW28024   2.632   0.223   3.801
 9042SOL    HW128025   2.682   0.246   3.885
 9042SOL    HW228026   2.548   0.174   3.825
 9043SOL     OW28027   2.557   1.859   6.840
 9043SOL    HW128028   2.492   1.926   6.878
 9043SOL    HW228029   2.505   1.784   6.798
 9044SOL     OW28030   5.808   1.297   2.009
 9044SOL    HW128031   5.901   1.302   2.043
 9044SOL    HW228032   5.771   1.390   1.998
 9045SOL     OW28033   2.806   1.066   2.504
 9045SOL    HW128034   2.831   1.021   2.590
 9045SOL    HW228035   2.726   1.020   2.465
 9046SOL     OW28036   3.743   4.150   4.320
 9046SOL    HW128037   3.656   4.119   4.280
 9046SOL    HW228038   3.733   4.245   4.351
 9047SOL     OW28039   1.421   3.158   5.997
 9047SOL    HW128040   1.466   3.233   6.046
 9047SOL    HW228041   1.437   3.169   5.899
 9048SOL     OW28042   5.789   1.710   5.889
 9048SOL    HW128043   5.809   1.673   5.798
 9048SOL    HW228044   5.755   1.804   5.880
 9049SOL     OW28045   3.435   0.057   6.706
 9049SOL    HW128046   3.433   0.052   6.606
 9049SOL    HW228047   3.446   0.153   6.734
 9050SOL     OW28048   7.020   3.503   6.752
 9050SOL    HW128049   6.947   3.549   6.801
 9050SOL    HW228050   6.983   3.426   6.700
 9051SOL     OW28051   4.687   6.661   0.995
 9051SOL    HW128052   4.676   6.705   0.906
 9051SOL    HW228053   4.596   6.645   1.035
 9052SOL     OW28054   1.745   2.154   3.669
 9052SOL    HW128055   1.771   2.075   3.614
 9052SOL    HW228056   1.722   2.124   3.762
 9053SOL     OW28057   1.698   1.952   3.117
 9053SOL    HW128058   1.741   1.930   3.204
 9053SOL    HW228059   1.636   2.030   3.128
 9054SOL     OW28060   1.780   7.001   1.836
 9054SOL    HW128061   1.741   6.941   1.906
 9054SOL    HW228062   1.747   6.973   1.746
 9055SOL     OW28063   5.908   2.843   3.916
 9055SOL    HW128064   5.889   2.775   3.846
 9055SOL    HW228065   5.987   2.814   3.971
 9056SOL     OW28066   0.629   1.322   1.945
 9056SOL    HW128067   0.634   1.335   2.044
 9056SOL    HW228068   0.546   1.272   1.922
 9057SOL     OW28069   5.406   4.912   5.388
 9057SOL    HW128070   5.318   4.944   5.351
 9057SOL    HW228071   5.404   4.919   5.488
 9058SOL     OW28072   2.420   1.751   3.295
 9058SOL    HW128073   2.394   1.723   3.388
 9058SOL    HW228074   2.397   1.847   3.282
 9059SOL     OW28075   1.155   1.878   5.058
 9059SOL    HW128076   1.118   1.790   5.030
 9059SOL    HW228077   1.094   1.920   5.126
 9060SOL     OW28078   6.333   3.002   2.258
 9060SOL    HW128079   6.359   2.995   2.355
 9060SOL    HW228080   6.387   3.075   2.215
 9061SOL     OW28081   2.800   5.623   2.100
 9061SOL    HW128082   2.897   5.623   2.079
 9061SOL    HW228083   2.770   5.717   2.122
 9062SOL     OW28084   1.861   6.093   1.751
 9062SOL    HW128085   1.896   6.180   1.785
 9062SOL    HW228086   1.922   6.058   1.680
 9063SOL     OW28087   2.334   0.060   2.513
 9063SOL    HW128088   2.237   0.076   2.530
 9063SOL    HW228089   2.376   0.017   2.593
 9064SOL     OW28090   6.254   2.280   5.921
 9064SOL    HW128091   6.321   2.283   5.995
 9064SOL    HW228092   6.186   2.210   5.941
 9065SOL     OW28093   3.180   6.323   6.218
 9065SOL    HW128094   3.251   6.379   6.261
 9065SOL    HW228095   3.137   6.375   6.144
 9066SOL     OW28096   5.910   6.338   0.365
 9066SOL    HW128097   5.869   6.353   0.275
 9066SOL    HW228098   5.925   6.240   0.379
 9067SOL     OW28099   5.970   0.378   4.793
 9067SOL    HW128100   6.054   0.345   4.836
 9067SOL    HW228101   5.992   0.428   4.710
 9068SOL     OW28102   2.894   6.739   5.651
 9068SOL    HW128103   2.905   6.665   5.718
 9068SOL    HW228104   2.975   6.798   5.653
 9069SOL     OW28105   2.432   2.563   2.146
 9069SOL    HW128106   2.381   2.649   2.141
 9069SOL    HW228107   2.487   2.561   2.229
 9070SOL     OW28108   1.469   3.583   5.548
 9070SOL    HW128109   1.411   3.503   5.562
 9070SOL    HW228110   1.449   3.651   5.619
 9071SOL     OW28111   5.788   0.795   0.895
 9071SOL    HW128112   5.780   0.892   0.872
 9071SOL    HW228113   5.787   0.740   0.811
 9072SOL     OW28114   6.705   0.913   2.126
 9072SOL    HW128115   6.737   0.830   2.173
 9072SOL    HW228116   6.616   0.940   2.162
 9073SOL     OW28117   3.183   6.901   1.061
 9073SOL    HW128118   3.138   6.836   1.000
 9073SOL    HW228119   3.136   6.901   1.149
 9074SOL     OW28120   2.119   2.051   1.685
 9074SOL    HW128121   2.051   2.080   1.617
 9074SOL    HW228122   2.081   1.975   1.739
 9075SOL     OW28123   1.201   1.387   2.931
 9075SOL    HW128124   1.216   1.405   2.834
 9075SOL    HW228125   1.132   1.316   2.942
 9076SOL     OW28126   5.598   1.900   4.986
 9076SOL    HW128127   5.505   1.909   4.951
 9076SOL    HW228128   5.654   1.975   4.951
 9077SOL     OW28129   5.498   6.854   6.802
 9077SOL    HW128130   5.489   6.907   6.887
 9077SOL    HW228131   5.516   6.915   6.726
 9078SOL     OW28132   4.286   3.731   6.413
 9078SOL    HW128133   4.384   3.719   6.431
 9078SOL    HW228134   4.255   3.660   6.350
 9079SOL     OW28135   2.878   6.900   3.971
 9079SOL    HW128136   2.888   6.801   3.983
 9079SOL    HW228137   2.822   6.919   3.890
 9080SOL     OW28138   5.171   2.562   0.064
 9080SOL    HW128139   5.090   2.620   0.068
 9080SOL    HW228140   5.229   2.580   0.144
 9081SOL     OW28141   4.249   5.747   2.893
 9081SOL    HW128142   4.317   5.811   2.928
 9081SOL    HW228143   4.282   5.654   2.905
 9082SOL     OW28144   2.562   6.783   5.629
 9082SOL    HW128145   2.566   6.691   5.668
 9082SOL    HW228146   2.655   6.815   5.610
 9083SOL     OW28147   2.935   5.286   6.292
 9083SOL    HW128148   2.850   5.310   6.246
 9083SOL    HW228149   3.012   5.309   6.233
 9084SOL     OW28150   3.315   3.801   5.578
 9084SOL    HW128151   3.393   3.823   5.638
 9084SOL    HW228152   3.350   3.771   5.489
 9085SOL     OW28153   2.449   4.733   1.362
 9085SOL    HW128154   2.393   4.657   1.330
 9085SOL    HW228155   2.526   4.746   1.300
 9086SOL     OW28156   1.217   4.784   0.437
 9086SOL    HW128157   1.252   4.718   0.370
 9086SOL    HW228158   1.219   4.876   0.397
 9087SOL     OW28159   4.867   2.799   1.889
 9087SOL    HW128160   4.816   2.854   1.956
 9087SOL    HW228161   4.803   2.760   1.822
 9088SOL     OW28162   5.473   6.031   0.284
 9088SOL    HW128163   5.524   6.115   0.302
 9088SOL    HW228164   5.386   6.034   0.332
 9089SOL     OW28165   5.003   5.940   6.080
 9089SOL    HW128166   4.981   6.027   6.125
 9089SOL    HW228167   4.966   5.940   5.988
 9090SOL     OW28168   0.397   0.404   3.255
 9090SOL    HW128169   0.405   0.331   3.188
 9090SOL    HW228170   0.358   0.485   3.212
 9091SOL     OW28171   3.145   4.857   0.789
 9091SOL    HW128172   3.047   4.875   0.785
 9091SOL    HW228173   3.165   4.773   0.738
 9092SOL     OW28174   0.826   1.226   0.951
 9092SOL    HW128175   0.848   1.313   0.907
 9092SOL    HW228176   0.906   1.193   1.001
 9093SOL     OW28177   1.071   6.871   6.270
 9093SOL    HW128178   1.155   6.876   6.323
 9093SOL    HW228179   1.047   6.962   6.236
 9094SOL     OW28180   6.178   5.245   2.715
 9094SOL    HW128181   6.229   5.160   2.706
 9094SOL    HW228182   6.157   5.261   2.811
 9095SOL     OW28183   5.083   4.373   5.778
 9095SOL    HW128184   5.060   4.418   5.864
 9095SOL    HW228185   5.014   4.396   5.709
 9096SOL     OW28186   5.683   4.158   2.110
 9096SOL    HW128187   5.760   4.210   2.147
 9096SOL    HW228188   5.694   4.147   2.011
 9097SOL     OW28189   1.450   2.025   0.911
 9097SOL    HW128190   1.456   1.926   0.920
 9097SOL    HW228191   1.531   2.067   0.951
 9098SOL     OW28192   3.674   1.374   5.708
 9098SOL    HW128193   3.595   1.414   5.755
 9098SOL    HW228194   3.753   1.374   5.770
 9099SOL     OW28195   3.226   2.239   5.631
 9099SOL    HW128196   3.154   2.197   5.686
 9099SOL    HW228197   3.219   2.338   5.638
 9100SOL     OW28198   0.185   3.873   4.069
 9100SOL    HW128199   0.172   3.958   4.120
 9100SOL    HW228200   0.143   3.798   4.120
 9101SOL     OW28201   2.086   2.239   3.026
 9101SOL    HW128202   2.099   2.237   2.927
 9101SOL    HW228203   2.000   2.283   3.047
 9102SOL     OW28204   2.654   0.276   1.946
 9102SOL    HW128205   2.700   0.235   1.867
 9102SOL    HW228206   2.635   0.372   1.927
 9103SOL     OW28207   6.189   2.900   6.762
 9103SOL    HW128208   6.247   2.882   6.682
 9103SOL    HW228209   6.122   2.827   6.772
 9104SOL     OW28210   0.598   6.404   2.671
 9104SOL    HW128211   0.559   6.313   2.660
 9104SOL    HW228212   0.593   6.454   2.584
 9105SOL     OW28213   1.237   1.594   6.512
 9105SOL    HW128214   1.269   1.560   6.424
 9105SOL    HW228215   1.200   1.518   6.565
 9106SOL     OW28216   0.273   2.901   1.114
 9106SOL    HW128217   0.300   2.870   1.205
 9106SOL    HW228218   0.177   2.927   1.114
 9107SOL     OW28219   3.513   0.790   6.506
 9107SOL    HW128220   3.529   0.728   6.583
 9107SOL    HW228221   3.580   0.864   6.508
 9108SOL     OW28222   5.324   4.516   5.448
 9108SOL    HW128223   5.305   4.430   5.402
 9108SOL    HW228224   5.394   4.502   5.519
 9109SOL     OW28225   6.499   3.096   3.826
 9109SOL    HW128226   6.460   3.076   3.736
 9109SOL    HW228227   6.598   3.081   3.824
 9110SOL     OW28228   1.680   4.726   4.431
 9110SOL    HW128229   1.647   4.780   4.508
 9110SOL    HW228230   1.616   4.652   4.413
 9111SOL     OW28231   5.293   1.726   0.566
 9111SOL    HW128232   5.263   1.679   0.648
 9111SOL    HW228233   5.234   1.701   0.489
 9112SOL     OW28234   1.016   5.364   2.472
 9112SOL    HW128235   1.074   5.445   2.468
 9112SOL    HW228236   1.047   5.297   2.405
 9113SOL     OW28237   4.411   2.378   3.513
 9113SOL    HW128238   4.490   2.430   3.545
 9113SOL    HW228239   4.382   2.412   3.423
 9114SOL     OW28240   0.979   4.827   2.904
 9114SOL    HW128241   0.973   4.848   2.806
 9114SOL    HW228242   0.985   4.728   2.916
 9115SOL     OW28243   6.668   5.896   4.327
 9115SOL    HW128244   6.734   5.865   4.395
 9115SOL    HW228245   6.582   5.920   4.372
 9116SOL     OW28246   7.003   0.145   2.634
 9116SOL    HW128247   6.951   0.146   2.719
 9116SOL    HW228248   6.951   0.097   2.563
 9117SOL     OW28249   4.489   2.582   0.013
 9117SOL    HW128250   4.432   2.633   0.078
 9117SOL    HW228251   4.578   2.627   0.005
 9118SOL     OW28252   0.076   3.133   0.895
 9118SOL    HW128253   0.122   3.135   0.806
 9118SOL    HW228254   0.139   3.164   0.966
 9119SOL     OW28255   3.968   0.785   2.686
 9119SOL    HW128256   3.973   0.840   2.769
 9119SOL    HW228257   4.046   0.807   2.627
 9120SOL     OW28258   6.508   1.312   5.800
 9120SOL    HW128259   6.467   1.316   5.891
 9120SOL    HW228260   6.492   1.222   5.759
 9121SOL     OW28261   3.977   0.228   5.229
 9121SOL    HW128262   4.076   0.242   5.223
 9121SOL    HW228263   3.957   0.160   5.299
 9122SOL     OW28264   2.559   4.535   2.207
 9122SOL    HW128265   2.559   4.625   2.162
 9122SOL    HW228266   2.638   4.482   2.176
 9123SOL     OW28267   2.301   0.759   4.297
 9123SOL    HW128268   2.335   0.665   4.289
 9123SOL    HW228269   2.273   0.793   4.207
 9124SOL     OW28270   4.778   5.049   0.248
 9124SOL    HW128271   4.794   5.039   0.346
 9124SOL    HW228272   4.822   5.133   0.216
 9125SOL     OW28273   4.151   3.986   0.606
 9125SOL    HW128274   4.149   3.920   0.531
 9125SOL    HW228275   4.103   4.070   0.578
 9126SOL     OW28276   5.792   2.926   1.087
 9126SOL    HW128277   5.834   2.951   1.174
 9126SOL    HW228278   5.849   2.857   1.041
 9127SOL     OW28279   6.385   1.333   6.037
 9127SOL    HW128280   6.398   1.432   6.037
 9127SOL    HW228281   6.454   1.290   6.095
 9128SOL     OW28282   5.568   2.137   5.562
 9128SOL    HW128283   5.469   2.130   5.576
 9128SOL    HW228284   5.602   2.218   5.610
 9129SOL     OW28285   0.092   2.693   6.855
 9129SOL    HW128286   0.146   2.616   6.890
 9129SOL    HW228287   7.016   2.665   6.849
 9130SOL     OW28288   1.131   3.551   6.220
 9130SOL    HW128289   1.048   3.605   6.209
 9130SOL    HW228290   1.135   3.480   6.149
 9131SOL     OW28291   5.396   2.494   5.806
 9131SOL    HW128292   5.339   2.416   5.831
 9131SOL    HW228293   5.338   2.565   5.764
 9132SOL     OW28294   0.443   5.912   4.002
 9132SOL    HW128295   0.370   5.928   4.068
 9132SOL    HW228296   0.417   5.951   3.913
 9133SOL     OW28297   3.796   6.291   1.183
 9133SOL    HW128298   3.761   6.353   1.253
 9133SOL    HW228299   3.728   6.219   1.166
 9134SOL     OW28300   3.584   5.464   1.647
 9134SOL    HW128301   3.634   5.539   1.605
 9134SOL    HW228302   3.632   5.434   1.730
 9135SOL     OW28303   0.390   0.694   1.640
 9135SOL    HW128304   0.310   0.673   1.584
 9135SOL    HW228305   0.363   0.694   1.737
 9136SOL     OW28306   4.646   5.745   6.865
 9136SOL    HW128307   4.646   5.696   6.952
 9136SOL    HW228308   4.636   5.681   6.790
 9137SOL     OW28309   4.381   0.964   6.869
 9137SOL    HW128310   4.465   0.978   6.920
 9137SOL    HW228311   4.328   1.049   6.867
 9138SOL     OW28312   0.325   5.272   6.581
 9138SOL    HW128313   0.235   5.298   6.546
 9138SOL    HW228314   0.378   5.229   6.507
 9139SOL     OW28315   1.926   2.038   2.739
 9139SOL    HW128316   1.963   2.131   2.739
 9139SOL    HW228317   1.926   2.002   2.832
 9140SOL     OW28318   0.110   3.774   2.566
 9140SOL    HW128319   0.020   3.787   2.609
 9140SOL    HW228320   0.102   3.787   2.467
 9141SOL     OW28321   5.618   6.621   1.314
 9141SOL    HW128322   5.535   6.646   1.364
 9141SOL    HW228323   5.654   6.536   1.350
 9142SOL     OW28324   0.947   3.800   1.798
 9142SOL    HW128325   0.954   3.897   1.821
 9142SOL    HW228326   1.027   3.772   1.745
 9143SOL     OW28327   6.247   2.339   0.213
 9143SOL    HW128328   6.314   2.265   0.214
 9143SOL    HW228329   6.225   2.364   0.118
 9144SOL     OW28330   2.543   5.447   4.352
 9144SOL    HW128331   2.501   5.436   4.262
 9144SOL    HW228332   2.471   5.460   4.420
 9145SOL     OW28333   0.714   5.856   6.798
 9145SOL    HW128334   0.627   5.904   6.797
 9145SOL    HW228335   0.720   5.798   6.879
 9146SOL     OW28336   5.080   3.000   3.711
 9146SOL    HW128337   5.129   3.080   3.744
 9146SOL    HW228338   4.983   3.022   3.703
 9147SOL     OW28339   6.059   6.600   5.147
 9147SOL    HW128340   5.996   6.668   5.110
 9147SOL    HW228341   6.015   6.551   5.221
 9148SOL     OW28342   5.240   6.072   2.322
 9148SOL    HW128343   5.219   6.014   2.400
 9148SOL    HW228344   5.271   6.015   2.245
 9149SOL     OW28345   5.123   3.084   2.341
 9149SOL    HW128346   5.094   3.173   2.307
 9149SOL    HW228347   5.114   3.016   2.268
 9150SOL     OW28348   3.162   5.171   1.099
 9150SOL    HW128349   3.062   5.172   1.093
 9150SOL    HW228350   3.194   5.077   1.102
 9151SOL     OW28351   1.837   4.451   3.765
 9151SOL    HW128352   1.787   4.537   3.769
 9151SOL    HW228353   1.772   4.375   3.765
 9152SOL     OW28354   2.075   4.162   4.497
 9152SOL    HW128355   1.983   4.198   4.481
 9152SOL    HW228356   2.136   4.195   4.425
 9153SOL     OW28357   0.678   2.737   6.968
 9153SOL    HW128358   0.654   2.657   0.003
 9153SOL    HW228359   0.705   2.708   6.876
 9154SOL     OW28360   5.767   4.408   5.107
 9154SOL    HW128361   5.669   4.427   5.099
 9154SOL    HW228362   5.809   4.476   5.167
 9155SOL     OW28363   1.908   4.368   2.793
 9155SOL    HW128364   1.878   4.313   2.871
 9155SOL    HW228365   1.998   4.337   2.763
 9156SOL     OW28366   6.797   2.184   0.484
 9156SOL    HW128367   6.871   2.127   0.447
 9156SOL    HW228368   6.826   2.222   0.572
 9157SOL     OW28369   2.516   4.351   0.193
 9157SOL    HW128370   2.491   4.432   0.140
 9157SOL    HW228371   2.459   4.346   0.275
 9158SOL     OW28372   6.563   3.891   4.867
 9158SOL    HW128373   6.592   3.986   4.869
 9158SOL    HW228374   6.615   3.842   4.796
 9159SOL     OW28375   1.988   0.843   3.206
 9159SOL    HW128376   1.961   0.894   3.124
 9159SOL    HW228377   1.921   0.771   3.224
 9160SOL     OW28378   0.594   6.160   6.208
 9160SOL    HW128379   0.594   6.243   6.264
 9160SOL    HW228380   0.502   6.144   6.172
 9161SOL     OW28381   5.762   4.859   3.145
 9161SOL    HW128382   5.814   4.944   3.145
 9161SOL    HW228383   5.811   4.790   3.198
 9162SOL     OW28384   4.433   0.473   3.004
 9162SOL    HW128385   4.350   0.518   2.969
 9162SOL    HW228386   4.408   0.411   3.078
 9163SOL     OW28387   0.091   3.546   3.949
 9163SOL    HW128388   0.010   3.563   3.892
 9163SOL    HW228389   0.173   3.553   3.894
 9164SOL     OW28390   2.187   0.747   6.855
 9164SOL    HW128391   2.199   0.776   6.950
 9164SOL    HW228392   2.121   0.807   6.810
 9165SOL     OW28393   5.096   1.852   5.984
 9165SOL    HW128394   5.019   1.870   6.045
 9165SOL    HW228395   5.171   1.915   6.005
 9166SOL     OW28396   4.147   5.035   0.470
 9166SOL    HW128397   4.233   5.084   0.485
 9166SOL    HW228398   4.137   4.964   0.539
 9167SOL     OW28399   2.049   1.844   5.665
 9167SOL    HW128400   1.982   1.915   5.645
 9167SOL    HW228401   2.062   1.836   5.764
 9168SOL     OW28402   0.210   6.177   6.578
 9168SOL    HW128403   0.253   6.110   6.518
 9168SOL    HW228404   0.118   6.146   6.603
 9169SOL     OW28405   0.346   6.630   6.497
 9169SOL    HW128406   0.263   6.602   6.448
 9169SOL    HW228407   0.395   6.549   6.528
 9170SOL     OW28408   1.847   0.289   6.078
 9170SOL    HW128409   1.829   0.271   5.981
 9170SOL    HW228410   1.839   0.203   6.129
 9171SOL     OW28411   3.660   5.984   0.763
 9171SOL    HW128412   3.645   6.083   0.767
 9171SOL    HW228413   3.758   5.965   0.774
 9172SOL     OW28414   4.685   0.721   3.829
 9172SOL    HW128415   4.746   0.658   3.878
 9172SOL    HW228416   4.724   0.813   3.832
 9173SOL     OW28417   6.301   3.649   5.425
 9173SOL    HW128418   6.268   3.718   5.490
 9173SOL    HW228419   6.360   3.694   5.357
 9174SOL     OW28420   0.496   5.746   0.663
 9174SOL    HW128421   0.428   5.704   0.603
 9174SOL    HW228422   0.570   5.681   0.680
 9175SOL     OW28423   1.198   0.126   6.507
 9175SOL    HW128424   1.182   0.209   6.453
 9175SOL    HW228425   1.268   0.145   6.576
 9176SOL     OW28426   3.090   0.645   2.441
 9176SOL    HW128427   3.101   0.546   2.446
 9176SOL    HW228428   3.135   0.680   2.359
 9177SOL     OW28429   1.096   2.987   4.103
 9177SOL    HW128430   1.020   2.949   4.156
 9177SOL    HW228431   1.137   3.063   4.154
 9178SOL     OW28432   2.063   5.439   6.714
 9178SOL    HW128433   2.020   5.417   6.626
 9178SOL    HW228434   1.998   5.423   6.788
 9179SOL     OW28435   1.475   5.355   4.911
 9179SOL    HW128436   1.525   5.431   4.869
 9179SOL    HW228437   1.400   5.392   4.966
 9180SOL     OW28438   6.044   2.532   3.349
 9180SOL    HW128439   6.124   2.557   3.402
 9180SOL    HW228440   6.056   2.440   3.312
 9181SOL     OW28441   4.995   2.284   3.806
 9181SOL    HW128442   4.936   2.293   3.726
 9181SOL    HW228443   5.076   2.342   3.796
 9182SOL     OW28444   3.388   0.075   2.839
 9182SOL    HW128445   3.310   0.128   2.872
 9182SOL    HW228446   3.357   0.010   2.770
 9183SOL     OW28447   4.650   4.739   6.639
 9183SOL    HW128448   4.678   4.811   6.703
 9183SOL    HW228449   4.677   4.766   6.546
 9184SOL     OW28450   4.007   2.370   0.986
 9184SOL    HW128451   3.991   2.319   1.071
 9184SOL    HW228452   4.091   2.424   0.995
 9185SOL     OW28453   6.909   6.949   4.863
 9185SOL    HW128454   6.883   6.992   4.950
 9185SOL    HW228455   6.939   7.019   4.799
 9186SOL     OW28456   5.322   0.455   5.152
 9186SOL    HW128457   5.244   0.506   5.188
 9186SOL    HW228458   5.304   0.430   5.057
 9187SOL     OW28459   4.132   2.081   0.211
 9187SOL    HW128460   4.157   1.999   0.160
 9187SOL    HW228461   4.199   2.098   0.283
 9188SOL     OW28462   2.001   0.825   1.606
 9188SOL    HW128463   2.034   0.915   1.633
 9188SOL    HW228464   1.925   0.835   1.542
 9189SOL     OW28465   3.549   6.202   2.458
 9189SOL    HW128466   3.576   6.283   2.510
 9189SOL    HW228467   3.531   6.126   2.520
 9190SOL     OW28468   0.642   3.415   5.208
 9190SOL    HW128469   0.568   3.348   5.198
 9190SOL    HW228470   0.720   3.371   5.253
 9191SOL     OW28471   5.532   1.083   6.608
 9191SOL    HW128472   5.432   1.079   6.620
 9191SOL    HW228473   5.555   1.053   6.515
 9192SOL     OW28474   6.708   2.532   6.560
 9192SOL    HW128475   6.674   2.619   6.523
 9192SOL    HW228476   6.636   2.463   6.554
 9193SOL     OW28477   4.082   3.731   4.454
 9193SOL    HW128478   4.023   3.810   4.438
 9193SOL    HW228479   4.120   3.700   4.367
 9194SOL     OW28480   3.060   6.586   2.237
 9194SOL    HW128481   3.093   6.676   2.210
 9194SOL    HW228482   3.072   6.522   2.161
 9195SOL     OW28483   1.764   3.323   3.103
 9195SOL    HW128484   1.791   3.349   3.195
 9195SOL    HW228485   1.691   3.383   3.071
 9196SOL     OW28486   5.484   6.720   3.370
 9196SOL    HW128487   5.572   6.716   3.323
 9196SOL    HW228488   5.427   6.792   3.329
 9197SOL     OW28489   2.957   5.402   0.941
 9197SOL    HW128490   2.884   5.458   0.980
 9197SOL    HW228491   3.046   5.441   0.966
 9198SOL     OW28492   6.451   4.308   6.635
 9198SOL    HW128493   6.453   4.406   6.651
 9198SOL    HW228494   6.533   4.281   6.584
 9199SOL     OW28495   0.513   3.105   6.079
 9199SOL    HW128496   0.603   3.073   6.109
 9199SOL    HW228497   0.515   3.204   6.067
 9200SOL     OW28498   2.166   6.005   5.840
 9200SOL    HW128499   2.244   6.049   5.884
 9200SOL    HW228500   2.193   5.916   5.805
 9201SOL     OW28501   0.868   2.855   0.998
 9201SOL    HW128502   0.772   2.835   0.977
 9201SOL    HW228503   0.927   2.793   0.946
 9202SOL     OW28504   0.763   6.162   3.819
 9202SOL    HW128505   0.692   6.147   3.750
 9202SOL    HW228506   0.823   6.083   3.824
 9203SOL     OW28507   5.892   2.790   5.800
 9203SOL    HW128508   5.835   2.818   5.722
 9203SOL    HW228509   5.834   2.760   5.875
 9204SOL     OW28510   4.885   3.709   4.316
 9204SOL    HW128511   4.889   3.669   4.407
 9204SOL    HW228512   4.832   3.793   4.318
 9205SOL     OW28513   4.822   5.718   2.817
 9205SOL    HW128514   4.817   5.620   2.837
 9205SOL    HW228515   4.883   5.762   2.884
 9206SOL     OW28516   3.495   6.765   3.741
 9206SOL    HW128517   3.507   6.675   3.701
 9206SOL    HW228518   3.537   6.767   3.832
 9207SOL     OW28519   3.581   5.153   6.875
 9207SOL    HW128520   3.490   5.148   6.916
 9207SOL    HW228521   3.610   5.061   6.848
 9208SOL     OW28522   5.437   3.905   2.113
 9208SOL    HW128523   5.473   3.964   2.186
 9208SOL    HW228524   5.337   3.899   2.121
 9209SOL     OW28525   4.370   0.140   1.214
 9209SOL    HW128526   4.379   0.041   1.213
 9209SOL    HW228527   4.455   0.181   1.245
 9210SOL     OW28528   0.558   0.532   1.796
 9210SOL    HW128529   0.497   0.586   1.737
 9210SOL    HW228530   0.646   0.519   1.750
 9211SOL     OW28531   5.666   3.126   6.917
 9211SOL    HW128532   5.645   3.068   6.839
 9211SOL    HW228533   5.728   3.079   6.979
 9212SOL     OW28534   5.181   4.028   4.810
 9212SOL    HW128535   5.149   3.965   4.880
 9212SOL    HW228536   5.243   3.981   4.748
 9213SOL     OW28537   4.721   5.880   4.546
 9213SOL    HW128538   4.819   5.879   4.562
 9213SOL    HW228539   4.702   5.845   4.454
 9214SOL     OW28540   0.009   2.871   5.016
 9214SOL    HW128541   0.018   2.966   4.987
 9214SOL    HW228542   6.947   2.832   4.974
 9215SOL     OW28543   1.418   4.945   2.521
 9215SOL    HW128544   1.448   4.873   2.459
 9215SOL    HW228545   1.492   5.010   2.535
 9216SOL     OW28546   2.313   6.667   4.013
 9216SOL    HW128547   2.412   6.661   4.003
 9216SOL    HW228548   2.284   6.611   4.090
 9217SOL     OW28549   5.789   2.313   0.462
 9217SOL    HW128550   5.864   2.335   0.399
 9217SOL    HW228551   5.827   2.272   0.545
 9218SOL     OW28552   4.189   0.453   7.014
 9218SOL    HW128553   4.217   0.537   6.966
 9218SOL    HW228554   4.102   0.469   0.040
 9219SOL     OW28555   4.145   3.513   5.812
 9219SOL    HW128556   4.088   3.584   5.852
 9219SOL    HW228557   4.238   3.519   5.850
 9220SOL     OW28558   1.811   6.444   2.209
 9220SOL    HW128559   1.883   6.431   2.278
 9220SOL    HW228560   1.839   6.515   2.145
 9221SOL     OW28561   2.676   6.961   4.178
 9221SOL    HW128562   2.768   6.978   4.145
 9221SOL    HW228563   2.680   6.903   4.259
 9222SOL     OW28564   2.308   5.459   4.530
 9222SOL    HW128565   2.328   5.382   4.590
 9222SOL    HW228566   2.268   5.533   4.583
 9223SOL     OW28567   0.877   2.690   3.919
 9223SOL    HW128568   0.804   2.633   3.881
 9223SOL    HW228569   0.888   2.670   4.016
 9224SOL     OW28570   1.251   4.568   3.461
 9224SOL    HW128571   1.345   4.582   3.429
 9224SOL    HW228572   1.216   4.654   3.499
 9225SOL     OW28573   3.669   5.596   5.603
 9225SOL    HW128574   3.661   5.525   5.534
 9225SOL    HW228575   3.642   5.560   5.692
 9226SOL     OW28576   0.468   0.172   1.229
 9226SOL    HW128577   0.454   0.186   1.131
 9226SOL    HW228578   0.547   0.225   1.260
 9227SOL     OW28579   1.698   5.841   1.339
 9227SOL    HW128580   1.688   5.861   1.437
 9227SOL    HW228581   1.616   5.793   1.307
 9228SOL     OW28582   2.145   2.225   0.322
 9228SOL    HW128583   2.125   2.201   0.227
 9228SOL    HW228584   2.188   2.147   0.367
 9229SOL     OW28585   1.196   5.064   5.874
 9229SOL    HW128586   1.286   5.040   5.838
 9229SOL    HW228587   1.204   5.087   5.971
 9230SOL     OW28588   4.901   3.429   3.025
 9230SOL    HW128589   4.919   3.402   2.931
 9230SOL    HW228590   4.909   3.349   3.085
 9231SOL     OW28591   1.128   2.826   5.827
 9231SOL    HW128592   1.141   2.802   5.923
 9231SOL    HW228593   1.099   2.746   5.776
 9232SOL     OW28594   3.096   5.329   0.711
 9232SOL    HW128595   3.123   5.234   0.693
 9232SOL    HW228596   3.013   5.329   0.767
 9233SOL     OW28597   0.186   6.577   0.536
 9233SOL    HW128598   0.231   6.584   0.625
 9233SOL    HW228599   0.248   6.533   0.471
 9234SOL     OW28600   2.294   5.785   0.986
 9234SOL    HW128601   2.378   5.824   1.024
 9234SOL    HW228602   2.269   5.703   1.036
 9235SOL     OW28603   2.181   3.122   2.911
 9235SOL    HW128604   2.158   3.201   2.855
 9235SOL    HW228605   2.144   3.133   3.003
 9236SOL     OW28606   2.416   3.792   0.021
 9236SOL    HW128607   2.382   3.761   6.953
 9236SOL    HW228608   2.436   3.890   0.016
 9237SOL     OW28609   0.607   5.798   3.257
 9237SOL    HW128610   0.656   5.727   3.206
 9237SOL    HW228611   0.672   5.845   3.317
 9238SOL     OW28612   2.853   2.406   5.881
 9238SOL    HW128613   2.950   2.421   5.861
 9238SOL    HW228614   2.825   2.468   5.954
 9239SOL     OW28615   0.154   4.218   6.822
 9239SOL    HW128616   0.063   4.244   6.855
 9239SOL    HW228617   0.177   4.127   6.857
 9240SOL     OW28618   5.193   2.934   2.048
 9240SOL    HW128619   5.120   2.978   1.996
 9240SOL    HW228620   5.274   2.991   2.047
 9241SOL     OW28621   0.096   5.537   1.322
 9241SOL    HW128622   0.058   5.522   1.231
 9241SOL    HW228623   0.024   5.522   1.391
 9242SOL     OW28624   1.577   3.913   1.972
 9242SOL    HW128625   1.608   3.907   1.877
 9242SOL    HW228626   1.654   3.935   2.031
 9243SOL     OW28627   6.687   0.788   1.484
 9243SOL    HW128628   6.587   0.786   1.487
 9243SOL    HW228629   6.722   0.694   1.483
 9244SOL     OW28630   2.659   5.696   5.950
 9244SOL    HW128631   2.569   5.704   5.993
 9244SOL    HW228632   2.724   5.755   5.997
 9245SOL     OW28633   0.688   4.818   3.515
 9245SOL    HW128634   0.627   4.863   3.449
 9245SOL    HW228635   0.738   4.887   3.567
 9246SOL     OW28636   5.767   0.200   3.026
 9246SOL    HW128637   5.864   0.191   3.047
 9246SOL    HW228638   5.725   0.267   3.087
 9247SOL     OW28639   2.565   6.027   2.773
 9247SOL    HW128640   2.593   6.105   2.718
 9247SOL    HW228641   2.513   5.962   2.717
 9248SOL     OW28642   3.071   2.001   4.636
 9248SOL    HW128643   3.092   1.912   4.597
 9248SOL    HW228644   3.104   2.005   4.731
 9249SOL     OW28645   4.528   5.063   1.337
 9249SOL    HW128646   4.440   5.105   1.361
 9249SOL    HW228647   4.579   5.043   1.420
 9250SOL     OW28648   6.222   3.017   4.380
 9250SOL    HW128649   6.205   3.010   4.478
 9250SOL    HW228650   6.320   3.002   4.362
 9251SOL     OW28651   3.863   1.246   2.516
 9251SOL    HW128652   3.951   1.205   2.492
 9251SOL    HW228653   3.838   1.314   2.447
 9252SOL     OW28654   5.208   0.418   4.884
 9252SOL    HW128655   5.224   0.375   4.795
 9252SOL    HW228656   5.168   0.509   4.870
 9253SOL     OW28657   5.366   4.725   5.204
 9253SOL    HW128658   5.391   4.797   5.267
 9253SOL    HW228659   5.267   4.711   5.208
 9254SOL     OW28660   4.663   4.793   3.077
 9254SOL    HW128661   4.659   4.727   3.002
 9254SOL    HW228662   4.640   4.748   3.163
 9255SOL     OW28663   4.913   4.048   0.200
 9255SOL    HW128664   4.894   4.143   0.178
 9255SOL    HW228665   4.826   3.997   0.206
 9256SOL     OW28666   2.703   0.754   2.279
 9256SOL    HW128667   2.603   0.752   2.292
 9256SOL    HW228668   2.742   0.670   2.318
 9257SOL     OW28669   6.000   5.045   3.486
 9257SOL    HW128670   6.085   4.997   3.461
 9257SOL    HW228671   5.930   4.978   3.511
 9258SOL     OW28672   4.139   3.078   1.611
 9258SOL    HW128673   4.044   3.078   1.582
 9258SOL    HW228674   4.144   3.049   1.707
 9259SOL     OW28675   1.285   1.668   0.872
 9259SOL    HW128676   1.367   1.725   0.862
 9259SOL    HW228677   1.312   1.576   0.902
 9260SOL     OW28678   6.236   1.959   5.781
 9260SOL    HW128679   6.162   1.922   5.725
 9260SOL    HW228680   6.320   1.964   5.727
 9261SOL     OW28681   3.827   1.754   7.011
 9261SOL    HW128682   3.757   1.686   0.008
 9261SOL    HW228683   3.784   1.842   6.989
 9262SOL     OW28684   0.729   5.849   5.223
 9262SOL    HW128685   0.757   5.806   5.309
 9262SOL    HW228686   0.634   5.825   5.203
 9263SOL     OW28687   2.888   6.231   2.844
 9263SOL    HW128688   2.946   6.167   2.794
 9263SOL    HW228689   2.888   6.208   2.941
 9264SOL     OW28690   4.537   4.486   0.066
 9264SOL    HW128691   4.523   4.418   0.138
 9264SOL    HW228692   4.531   4.578   0.105
 9265SOL     OW28693   3.204   2.626   0.193
 9265SOL    HW128694   3.252   2.638   0.106
 9265SOL    HW228695   3.203   2.712   0.243
 9266SOL     OW28696   1.758   6.084   0.722
 9266SOL    HW128697   1.680   6.021   0.717
 9266SOL    HW228698   1.729   6.168   0.767
 9267SOL     OW28699   0.089   1.970   4.474
 9267SOL    HW128700   0.045   2.041   4.420
 9267SOL    HW228701   0.170   2.007   4.519
 9268SOL     OW28702   1.774   0.211   2.435
 9268SOL    HW128703   1.775   0.138   2.504
 9268SOL    HW228704   1.692   0.202   2.378
 9269SOL     OW28705   3.832   0.813   6.252
 9269SOL    HW128706   3.796   0.867   6.328
 9269SOL    HW228707   3.789   0.722   6.253
 9270SOL     OW28708   4.218   6.715   5.637
 9270SOL    HW128709   4.259   6.748   5.722
 9270SOL    HW228710   4.284   6.723   5.562
 9271SOL     OW28711   6.423   6.786   0.415
 9271SOL    HW128712   6.349   6.851   0.432
 9271SOL    HW228713   6.393   6.720   0.345
 9272SOL     OW28714   0.946   5.297   5.976
 9272SOL    HW128715   0.876   5.250   5.923
 9272SOL    HW228716   0.988   5.368   5.920
 9273SOL     OW28717   6.197   6.378   3.243
 9273SOL    HW128718   6.131   6.315   3.201
 9273SOL    HW228719   6.290   6.351   3.217
 9274SOL     OW28720   0.239   1.656   0.079
 9274SOL    HW128721   0.299   1.645   7.020
 9274SOL    HW228722   0.287   1.708   0.150
 9275SOL     OW28723   6.598   0.911   0.092
 9275SOL    HW128724   6.548   0.887   0.175
 9275SOL    HW228725   6.569   0.850   0.018
 9276SOL     OW28726   1.346   4.748   0.673
 9276SOL    HW128727   1.317   4.652   0.671
 9276SOL    HW228728   1.301   4.798   0.599
 9277SOL     OW28729   4.551   4.529   1.856
 9277SOL    HW128730   4.647   4.533   1.884
 9277SOL    HW228731   4.514   4.438   1.874
 9278SOL     OW28732   1.753   0.323   5.475
 9278SOL    HW128733   1.715   0.257   5.540
 9278SOL    HW228734   1.730   0.296   5.382
 9279SOL     OW28735   2.747   0.191   1.669
 9279SOL    HW128736   2.778   0.283   1.646
 9279SOL    HW228737   2.686   0.157   1.597
 9280SOL     OW28738   2.705   1.352   2.773
 9280SOL    HW128739   2.750   1.434   2.808
 9280SOL    HW228740   2.682   1.366   2.677
 9281SOL     OW28741   3.244   4.239   6.962
 9281SOL    HW128742   3.258   4.145   6.992
 9281SOL    HW228743   3.304   4.258   6.884
 9282SOL     OW28744   5.159   1.188   4.024
 9282SOL    HW128745   5.253   1.218   4.039
 9282SOL    HW228746   5.117   1.167   4.112
 9283SOL     OW28747   5.080   0.386   4.022
 9283SOL    HW128748   5.041   0.302   3.985
 9283SOL    HW228749   5.157   0.363   4.082
 9284SOL     OW28750   3.060   2.530   5.402
 9284SOL    HW128751   3.039   2.439   5.367
 9284SOL    HW228752   2.978   2.586   5.398
 9285SOL     OW28753   4.990   3.614   1.507
 9285SOL    HW128754   5.079   3.649   1.535
 9285SOL    HW228755   4.995   3.516   1.493
 9286SOL     OW28756   5.323   5.563   0.810
 9286SOL    HW128757   5.375   5.603   0.735
 9286SOL    HW228758   5.234   5.609   0.818
 9287SOL     OW28759   3.547   5.086   6.449
 9287SOL    HW128760   3.609   5.074   6.371
 9287SOL    HW228761   3.478   5.155   6.426
 9288SOL     OW28762   4.609   2.019   2.740
 9288SOL    HW128763   4.636   1.991   2.648
 9288SOL    HW228764   4.510   2.011   2.750
 9289SOL     OW28765   4.989   6.851   1.007
 9289SOL    HW128766   4.925   6.840   0.931
 9289SOL    HW228767   5.018   6.761   1.040
 9290SOL     OW28768   5.537   0.690   3.816
 9290SOL    HW128769   5.593   0.733   3.744
 9290SOL    HW228770   5.448   0.664   3.778
 9291SOL     OW28771   1.041   4.973   5.636
 9291SOL    HW128772   1.105   5.035   5.682
 9291SOL    HW228773   1.030   4.890   5.692
 9292SOL     OW28774   2.547   2.315   6.714
 9292SOL    HW128775   2.571   2.250   6.641
 9292SOL    HW228776   2.586   2.284   6.800
 9293SOL     OW28777   6.204   3.852   6.770
 9293SOL    HW128778   6.205   3.952   6.772
 9293SOL    HW228779   6.259   3.820   6.693
 9294SOL     OW28780   5.410   0.974   5.975
 9294SOL    HW128781   5.502   1.003   5.947
 9294SOL    HW228782   5.406   0.875   5.981
 9295SOL     OW28783   5.454   0.202   5.583
 9295SOL    HW128784   5.483   0.282   5.636
 9295SOL    HW228785   5.513   0.192   5.503
 9296SOL     OW28786   1.976   5.298   0.106
 9296SOL    HW128787   1.904   5.349   0.059
 9296SOL    HW228788   2.013   5.354   0.181
 9297SOL     OW28789   1.135   0.104   2.729
 9297SOL    HW128790   1.115   0.014   2.769
 9297SOL    HW228791   1.095   0.175   2.786
 9298SOL     OW28792   0.993   6.677   6.096
 9298SOL    HW128793   1.042   6.590   6.094
 9298SOL    HW228794   1.039   6.740   6.158
 9299SOL     OW28795   1.090   2.215   4.210
 9299SOL    HW128796   1.186   2.212   4.183
 9299SOL    HW228797   1.056   2.122   4.225
 9300SOL     OW28798   0.648   4.673   5.912
 9300SOL    HW128799   0.651   4.592   5.853
 9300SOL    HW228800   0.635   4.644   6.007
 9301SOL     OW28801   5.604   5.332   4.639
 9301SOL    HW128802   5.537   5.385   4.586
 9301SOL    HW228803   5.558   5.254   4.681
 9302SOL     OW28804   2.098   3.182   4.089
 9302SOL    HW128805   2.026   3.245   4.119
 9302SOL    HW228806   2.123   3.122   4.165
 9303SOL     OW28807   3.118   3.632   0.739
 9303SOL    HW128808   3.153   3.688   0.814
 9303SOL    HW228809   3.062   3.689   0.678
 9304SOL     OW28810   4.346   4.675   0.700
 9304SOL    HW128811   4.256   4.633   0.692
 9304SOL    HW228812   4.339   4.757   0.758
 9305SOL     OW28813   3.839   0.484   0.717
 9305SOL    HW128814   3.840   0.534   0.804
 9305SOL    HW228815   3.748   0.445   0.702
 9306SOL     OW28816   1.299   3.363   5.525
 9306SOL    HW128817   1.308   3.289   5.458
 9306SOL    HW228818   1.214   3.414   5.508
 9307SOL     OW28819   1.356   3.944   0.914
 9307SOL    HW128820   1.418   4.009   0.868
 9307SOL    HW228821   1.407   3.863   0.942
 9308SOL     OW28822   1.441   3.485   2.079
 9308SOL    HW128823   1.373   3.454   2.145
 9308SOL    HW228824   1.401   3.555   2.020
 9309SOL     OW28825   3.045   5.412   5.635
 9309SOL    HW128826   2.983   5.460   5.573
 9309SOL    HW228827   3.020   5.432   5.730
 9310SOL     OW28828   5.353   5.832   5.740
 9310SOL    HW128829   5.389   5.746   5.776
 9310SOL    HW228830   5.336   5.894   5.816
 9311SOL     OW28831   5.083   4.496   1.276
 9311SOL    HW128832   5.072   4.424   1.344
 9311SOL    HW228833   5.089   4.455   1.185
 9312SOL     OW28834   2.076   2.630   1.015
 9312SOL    HW128835   2.092   2.706   1.078
 9312SOL    HW228836   1.978   2.620   0.999
 9313SOL     OW28837   0.163   0.616   1.488
 9313SOL    HW128838   0.191   0.580   1.399
 9313SOL    HW228839   0.103   0.551   1.534
 9314SOL     OW28840   6.934   3.280   6.613
 9314SOL    HW128841   6.843   3.283   6.570
 9314SOL    HW228842   6.953   3.187   6.643
 9315SOL     OW28843   6.782   6.616   5.779
 9315SOL    HW128844   6.815   6.685   5.844
 9315SOL    HW228845   6.778   6.657   5.688
 9316SOL     OW28846   6.491   6.211   5.427
 9316SOL    HW128847   6.479   6.266   5.509
 9316SOL    HW228848   6.526   6.121   5.451
 9317SOL     OW28849   4.271   5.476   4.611
 9317SOL    HW128850   4.321   5.389   4.619
 9317SOL    HW228851   4.316   5.535   4.545
 9318SOL     OW28852   6.433   0.382   6.668
 9318SOL    HW128853   6.407   0.444   6.742
 9318SOL    HW228854   6.498   0.315   6.702
 9319SOL     OW28855   2.490   2.951   1.214
 9319SOL    HW128856   2.483   3.044   1.250
 9319SOL    HW228857   2.470   2.885   1.287
 9320SOL     OW28858   3.938   0.481   5.493
 9320SOL    HW128859   3.870   0.417   5.458
 9320SOL    HW228860   3.904   0.523   5.577
 9321SOL     OW28861   1.074   0.876   4.743
 9321SOL    HW128862   1.041   0.853   4.835
 9321SOL    HW228863   1.031   0.961   4.713
 9322SOL     OW28864   0.178   4.490   7.010
 9322SOL    HW128865   0.124   4.510   6.928
 9322SOL    HW228866   0.118   4.448   0.058
 9323SOL     OW28867   1.272   1.000   4.596
 9323SOL    HW128868   1.263   1.099   4.610
 9323SOL    HW228869   1.214   0.952   4.661
 9324SOL     OW28870   1.729   4.005   2.550
 9324SOL    HW128871   1.645   3.955   2.531
 9324SOL    HW228872   1.710   4.103   2.554
 9325SOL     OW28873   6.904   0.224   0.245
 9325SOL    HW128874   6.820   0.199   0.196
 9325SOL    HW228875   6.908   0.174   0.331
 9326SOL     OW28876   2.646   5.059   0.385
 9326SOL    HW128877   2.686   5.101   0.304
 9326SOL    HW228878   2.626   5.130   0.453
 9327SOL     OW28879   4.333   6.618   2.349
 9327SOL    HW128880   4.393   6.660   2.280
 9327SOL    HW228881   4.264   6.562   2.302
 9328SOL     OW28882   1.974   0.684   4.752
 9328SOL    HW128883   2.010   0.760   4.697
 9328SOL    HW228884   1.896   0.644   4.704
 9329SOL     OW28885   6.323   4.589   0.791
 9329SOL    HW128886   6.312   4.583   0.692
 9329SOL    HW228887   6.415   4.621   0.813
 9330SOL     OW28888   6.750   6.966   5.809
 9330SOL    HW128889   6.672   6.930   5.758
 9330SOL    HW228890   6.834   6.921   5.777
 9331SOL     OW28891   2.159   1.285   6.116
 9331SOL    HW128892   2.103   1.251   6.041
 9331SOL    HW228893   2.240   1.332   6.079
 9332SOL     OW28894   3.550   5.418   0.683
 9332SOL    HW128895   3.542   5.485   0.758
 9332SOL    HW228896   3.611   5.344   0.711
 9333SOL     OW28897   3.951   5.603   6.818
 9333SOL    HW128898   3.956   5.517   6.767
 9333SOL    HW228899   3.897   5.589   6.901
 9334SOL     OW28900   4.677   6.109   4.937
 9334SOL    HW128901   4.756   6.049   4.948
 9334SOL    HW228902   4.619   6.073   4.863
 9335SOL     OW28903   1.946   1.451   6.894
 9335SOL    HW128904   2.022   1.449   6.958
 9335SOL    HW228905   1.868   1.496   6.936
 9336SOL     OW28906   4.805   6.769   4.231
 9336SOL    HW128907   4.885   6.816   4.193
 9336SOL    HW228908   4.794   6.681   4.185
 9337SOL     OW28909   4.770   1.370   5.593
 9337SOL    HW128910   4.855   1.400   5.636
 9337SOL    HW228911   4.708   1.335   5.663
 9338SOL     OW28912   5.979   6.937   1.068
 9338SOL    HW128913   5.925   6.869   1.119
 9338SOL    HW228914   6.075   6.930   1.094
 9339SOL     OW28915   6.450   5.885   0.119
 9339SOL    HW128916   6.451   5.957   0.049
 9339SOL    HW228917   6.381   5.906   0.187
 9340SOL     OW28918   3.574   4.951   3.045
 9340SOL    HW128919   3.658   4.925   2.996
 9340SOL    HW228920   3.495   4.914   2.996
 9341SOL     OW28921   5.868   4.631   0.942
 9341SOL    HW128922   5.916   4.639   0.855
 9341SOL    HW228923   5.928   4.662   1.016
 9342SOL     OW28924   2.234   0.120   4.554
 9342SOL    HW128925   2.145   0.148   4.516
 9342SOL    HW228926   2.229   0.024   4.581
 9343SOL     OW28927   4.877   3.798   2.151
 9343SOL    HW128928   4.873   3.846   2.238
 9343SOL    HW228929   4.811   3.838   2.087
 9344SOL     OW28930   5.125   6.028   0.963
 9344SOL    HW128931   5.123   5.952   0.898
 9344SOL    HW228932   5.217   6.067   0.964
 9345SOL     OW28933   6.308   4.750   1.886
 9345SOL    HW128934   6.316   4.743   1.787
 9345SOL    HW228935   6.356   4.674   1.929
 9346SOL     OW28936   4.206   0.446   1.659
 9346SOL    HW128937   4.277   0.516   1.649
 9346SOL    HW228938   4.141   0.454   1.583
 9347SOL     OW28939   3.080   6.062   0.603
 9347SOL    HW128940   3.097   5.965   0.582
 9347SOL    HW228941   3.093   6.077   0.701
 9348SOL     OW28942   2.891   5.662   2.523
 9348SOL    HW128943   2.794   5.640   2.515
 9348SOL    HW228944   2.921   5.650   2.618
 9349SOL     OW28945   6.617   5.388   2.255
 9349SOL    HW128946   6.560   5.466   2.231
 9349SOL    HW228947   6.690   5.418   2.317
 9350SOL     OW28948   6.706   1.511   4.370
 9350SOL    HW128949   6.730   1.599   4.411
 9350SOL    HW228950   6.650   1.526   4.289
 9351SOL     OW28951   3.435   0.086   6.401
 9351SOL    HW128952   3.342   0.053   6.383
 9351SOL    HW228953   3.467   0.139   6.323
 9352SOL     OW28954   3.381   2.367   6.335
 9352SOL    HW128955   3.339   2.335   6.250
 9352SOL    HW228956   3.373   2.296   6.405
 9353SOL     OW28957   1.015   4.627   1.178
 9353SOL    HW128958   0.976   4.652   1.266
 9353SOL    HW228959   1.047   4.708   1.130
 9354SOL     OW28960   0.117   2.123   6.397
 9354SOL    HW128961   0.018   2.131   6.412
 9354SOL    HW228962   0.146   2.030   6.419
 9355SOL     OW28963   6.968   1.774   4.597
 9355SOL    HW128964   6.998   1.746   4.689
 9355SOL    HW228965   0.007   1.848   4.564
 9356SOL     OW28966   5.030   5.820   1.895
 9356SOL    HW128967   4.985   5.734   1.920
 9356SOL    HW228968   5.015   5.837   1.797
 9357SOL     OW28969   3.206   3.040   6.300
 9357SOL    HW128970   3.192   2.953   6.346
 9357SOL    HW228971   3.204   3.114   6.367
 9358SOL     OW28972   6.443   3.146   2.544
 9358SOL    HW128973   6.358   3.199   2.551
 9358SOL    HW228974   6.505   3.192   2.481
 9359SOL     OW28975   1.099   3.627   5.904
 9359SOL    HW128976   1.081   3.589   5.813
 9359SOL    HW228977   1.013   3.637   5.953
 9360SOL     OW28978   1.691   6.072   6.484
 9360SOL    HW128979   1.596   6.076   6.453
 9360SOL    HW228980   1.752   6.074   6.404
 9361SOL     OW28981   1.267   6.312   3.019
 9361SOL    HW128982   1.260   6.381   2.948
 9361SOL    HW228983   1.320   6.348   3.096
 9362SOL     OW28984   2.055   2.725   2.578
 9362SOL    HW128985   2.137   2.773   2.609
 9362SOL    HW228986   2.010   2.778   2.507
 9363SOL     OW28987   3.803   6.434   1.766
 9363SOL    HW128988   3.818   6.380   1.849
 9363SOL    HW228989   3.721   6.490   1.776
 9364SOL     OW28990   3.843   3.035   5.901
 9364SOL    HW128991   3.942   3.021   5.900
 9364SOL    HW228992   3.823   3.133   5.889
 9365SOL     OW28993   2.521   2.096   4.963
 9365SOL    HW128994   2.450   2.157   4.927
 9365SOL    HW228995   2.587   2.149   5.016
 9366SOL     OW28996   3.458   6.908   0.097
 9366SOL    HW128997   3.489   6.996   0.061
 9366SOL    HW228998   3.370   6.920   0.142
 9367SOL     OW28999   6.774   6.141   2.496
 9367SOL    HW129000   6.848   6.209   2.498
 9367SOL    HW229001   6.813   6.049   2.496
 9368SOL     OW29002   2.651   1.369   3.577
 9368SOL    HW129003   2.715   1.293   3.567
 9368SOL    HW229004   2.681   1.446   3.522
 9369SOL     OW29005   6.723   6.753   4.758
 9369SOL    HW129006   6.797   6.818   4.772
 9369SOL    HW229007   6.691   6.718   4.846
 9370SOL     OW29008   4.937   0.481   2.186
 9370SOL    HW129009   4.851   0.494   2.237
 9370SOL    HW229010   4.920   0.498   2.089
 9371SOL     OW29011   1.556   4.793   0.839
 9371SOL    HW129012   1.478   4.781   0.778
 9371SOL    HW229013   1.604   4.705   0.850
 9372SOL     OW29014   5.674   6.109   2.452
 9372SOL    HW129015   5.758   6.156   2.479
 9372SOL    HW229016   5.606   6.117   2.525
 9373SOL     OW29017   4.775   1.644   1.873
 9373SOL    HW129018   4.675   1.644   1.876
 9373SOL    HW229019   4.809   1.553   1.897
 9374SOL     OW29020   0.743   3.354   0.541
 9374SOL    HW129021   0.756   3.309   0.630
 9374SOL    HW229022   0.817   3.327   0.480
 9375SOL     OW29023   6.976   1.311   3.025
 9375SOL    HW129024   0.018   1.334   2.950
 9375SOL    HW229025   6.922   1.231   3.001
 9376SOL     OW29026   3.159   4.840   1.331
 9376SOL    HW129027   3.112   4.928   1.325
 9376SOL    HW229028   3.249   4.847   1.287
 9377SOL     OW29029   1.961   5.702   4.088
 9377SOL    HW129030   1.919   5.791   4.108
 9377SOL    HW229031   1.915   5.661   4.009
 9378SOL     OW29032   1.581   1.260   5.279
 9378SOL    HW129033   1.552   1.288   5.370
 9378SOL    HW229034   1.518   1.191   5.243
 9379SOL     OW29035   3.536   5.440   5.398
 9379SOL    HW129036   3.518   5.536   5.378
 9379SOL    HW229037   3.461   5.403   5.454
 9380SOL     OW29038   5.524   5.141   4.831
 9380SOL    HW129039   5.615   5.101   4.835
 9380SOL    HW229040   5.456   5.068   4.826
 9381SOL     OW29041   3.718   2.553   5.933
 9381SOL    HW129042   3.787   2.556   5.860
 9381SOL    HW229043   3.633   2.594   5.900
 9382SOL     OW29044   3.547   0.434   3.691
 9382SOL    HW129045   3.617   0.388   3.745
 9382SOL    HW229046   3.569   0.427   3.594
 9383SOL     OW29047   1.377   5.797   4.696
 9383SOL    HW129048   1.326   5.716   4.723
 9383SOL    HW229049   1.416   5.784   4.605
 9384SOL     OW29050   3.691   6.922   2.297
 9384SOL    HW129051   3.756   6.998   2.290
 9384SOL    HW229052   3.741   6.836   2.297
 9385SOL     OW29053   4.376   0.345   3.258
 9385SOL    HW129054   4.453   0.281   3.256
 9385SOL    HW229055   4.330   0.338   3.346
 9386SOL     OW29056   2.040   6.212   5.042
 9386SOL    HW129057   1.977   6.279   5.082
 9386SOL    HW229058   2.061   6.141   5.109
 9387SOL     OW29059   2.791   1.863   6.702
 9387SOL    HW129060   2.710   1.865   6.761
 9387SOL    HW229061   2.869   1.829   6.755
 9388SOL     OW29062   2.491   5.467   2.645
 9388SOL    HW129063   2.499   5.440   2.741
 9388SOL    HW229064   2.420   5.412   2.601
 9389SOL     OW29065   1.391   6.852   3.760
 9389SOL    HW129066   1.396   6.770   3.817
 9389SOL    HW229067   1.296   6.884   3.755
 9390SOL     OW29068   4.538   4.821   4.989
 9390SOL    HW129069   4.539   4.917   5.016
 9390SOL    HW229070   4.475   4.809   4.912
 9391SOL     OW29071   2.412   1.455   4.657
 9391SOL    HW129072   2.408   1.405   4.743
 9391SOL    HW229073   2.502   1.443   4.615
 9392SOL     OW29074   6.543   6.934   5.613
 9392SOL    HW129075   6.545   7.008   5.547
 9392SOL    HW229076   6.449   6.923   5.648
 9393SOL     OW29077   3.755   6.771   6.247
 9393SOL    HW129078   3.835   6.762   6.306
 9393SOL    HW229079   3.679   6.810   6.300
 9394SOL     OW29080   0.468   1.536   2.350
 9394SOL    HW129081   0.389   1.526   2.411
 9394SOL    HW229082   0.513   1.623   2.368
 9395SOL     OW29083   3.048   1.892   1.171
 9395SOL    HW129084   3.106   1.811   1.183
 9395SOL    HW229085   3.102   1.966   1.132
 9396SOL     OW29086   1.977   4.921   3.895
 9396SOL    HW129087   1.929   5.005   3.919
 9396SOL    HW229088   1.913   4.844   3.894
 9397SOL     OW29089   4.524   0.253   6.113
 9397SOL    HW129090   4.478   0.172   6.149
 9397SOL    HW229091   4.594   0.284   6.177
 9398SOL     OW29092   6.871   0.506   4.869
 9398SOL    HW129093   6.917   0.530   4.783
 9398SOL    HW229094   6.775   0.485   4.850
 9399SOL     OW29095   0.557   1.976   5.466
 9399SOL    HW129096   0.493   2.031   5.413
 9399SOL    HW229097   0.523   1.881   5.472
 9400SOL     OW29098   4.062   0.899   1.903
 9400SOL    HW129099   4.148   0.848   1.906
 9400SOL    HW229100   4.080   0.993   1.874
 9401SOL     OW29101   6.183   0.451   3.212
 9401SOL    HW129102   6.223   0.365   3.245
 9401SOL    HW229103   6.089   0.435   3.184
 9402SOL     OW29104   1.530   5.110   3.580
 9402SOL    HW129105   1.491   5.025   3.545
 9402SOL    HW229106   1.626   5.095   3.603
 9403SOL     OW29107   6.241   1.580   3.245
 9403SOL    HW129108   6.155   1.569   3.294
 9403SOL    HW229109   6.260   1.498   3.191
 9404SOL     OW29110   1.329   3.776   6.882
 9404SOL    HW129111   1.400   3.844   6.866
 9404SOL    HW229112   1.268   3.772   6.802
 9405SOL     OW29113   1.819   5.217   3.011
 9405SOL    HW129114   1.849   5.140   2.953
 9405SOL    HW229115   1.800   5.183   3.103
 9406SOL     OW29116   6.518   3.221   6.266
 9406SOL    HW129117   6.542   3.296   6.328
 9406SOL    HW229118   6.483   3.258   6.180
 9407SOL     OW29119   2.539   5.270   3.049
 9407SOL    HW129120   2.479   5.190   3.052
 9407SOL    HW229121   2.606   5.259   2.976
 9408SOL     OW29122   5.848   2.071   6.390
 9408SOL    HW129123   5.885   2.011   6.320
 9408SOL    HW229124   5.772   2.124   6.352
 9409SOL     OW29125   6.139   5.637   0.131
 9409SOL    HW129126   6.059   5.580   0.112
 9409SOL    HW229127   6.155   5.641   0.229
 9410SOL     OW29128   2.798   0.447   1.601
 9410SOL    HW129129   2.849   0.518   1.650
 9410SOL    HW229130   2.712   0.487   1.566
 9411SOL     OW29131   3.178   2.945   2.204
 9411SOL    HW129132   3.126   2.941   2.118
 9411SOL    HW229133   3.243   2.869   2.207
 9412SOL     OW29134   6.839   2.469   2.549
 9412SOL    HW129135   6.918   2.486   2.607
 9412SOL    HW229136   6.758   2.453   2.605
 9413SOL     OW29137   3.246   6.150   3.484
 9413SOL    HW129138   3.187   6.070   3.499
 9413SOL    HW229139   3.333   6.136   3.532
 9414SOL     OW29140   2.791   0.450   3.460
 9414SOL    HW129141   2.867   0.508   3.487
 9414SOL    HW229142   2.705   0.501   3.469
 9415SOL     OW29143   2.854   6.960   1.703
 9415SOL    HW129144   2.853   0.034   1.671
 9415SOL    HW229145   2.949   6.929   1.712
 9416SOL     OW29146   0.366   2.489   0.703
 9416SOL    HW129147   0.280   2.538   0.694
 9416SOL    HW229148   0.376   2.455   0.796
 9417SOL     OW29149   4.268   0.658   6.876
 9417SOL    HW129150   4.276   0.679   6.779
 9417SOL    HW229151   4.348   0.692   6.925
 9418SOL     OW29152   3.891   6.722   1.182
 9418SOL    HW129153   3.941   6.808   1.193
 9418SOL    HW229154   3.932   6.669   1.109
 9419SOL     OW29155   3.269   5.209   5.875
 9419SOL    HW129156   3.289   5.163   5.789
 9419SOL    HW229157   3.174   5.192   5.902
 9420SOL     OW29158   6.855   3.516   6.059
 9420SOL    HW129159   6.774   3.554   6.016
 9420SOL    HW229160   6.934   3.530   6.000
 9421SOL     OW29161   2.004   6.622   4.191
 9421SOL    HW129162   2.066   6.609   4.267
 9421SOL    HW229163   1.966   6.714   4.193
 9422SOL     OW29164   3.399   5.651   3.265
 9422SOL    HW129165   3.419   5.557   3.294
 9422SOL    HW229166   3.445   5.669   3.178
 9423SOL     OW29167   3.135   0.082   3.731
 9423SOL    HW129168   3.182   0.002   3.694
 9423SOL    HW229169   3.049   0.096   3.682
 9424SOL     OW29170   5.257   0.873   4.459
 9424SOL    HW129171   5.280   0.797   4.398
 9424SOL    HW229172   5.225   0.951   4.405
 9425SOL     OW29173   6.430   2.966   0.119
 9425SOL    HW129174   6.352   2.929   0.067
 9425SOL    HW229175   6.433   2.924   0.209
 9426SOL     OW29176   3.193   1.547   6.122
 9426SOL    HW129177   3.288   1.571   6.105
 9426SOL    HW229178   3.144   1.541   6.035
 9427SOL     OW29179   2.394   4.680   3.388
 9427SOL    HW129180   2.319   4.746   3.388
 9427SOL    HW229181   2.418   4.656   3.482
 9428SOL     OW29182   6.772   1.084   0.841
 9428SOL    HW129183   6.732   1.105   0.930
 9428SOL    HW229184   6.706   1.105   0.769
 9429SOL     OW29185   2.003   3.669   2.425
 9429SOL    HW129186   1.956   3.729   2.359
 9429SOL    HW229187   2.046   3.594   2.375
 9430SOL     OW29188   0.586   3.902   3.387
 9430SOL    HW129189   0.678   3.931   3.412
 9430SOL    HW229190   0.586   3.867   3.293
 9431SOL     OW29191   6.145   3.291   1.192
 9431SOL    HW129192   6.162   3.260   1.098
 9431SOL    HW229193   6.127   3.213   1.250
 9432SOL     OW29194   4.916   0.335   3.329
 9432SOL    HW129195   4.946   0.319   3.423
 9432SOL    HW229196   4.963   0.416   3.293
 9433SOL     OW29197   2.693   5.954   2.419
 9433SOL    HW129198   2.680   5.868   2.469
 9433SOL    HW229199   2.701   6.029   2.484
 9434SOL     OW29200   5.188   5.025   2.892
 9434SOL    HW129201   5.238   5.111   2.897
 9434SOL    HW229202   5.252   4.949   2.891
 9435SOL     OW29203   6.958   2.695   4.594
 9435SOL    HW129204   7.003   2.620   4.643
 9435SOL    HW229205   0.007   2.762   4.565
 9436SOL     OW29206   1.833   2.842   1.002
 9436SOL    HW129207   1.831   2.744   0.981
 9436SOL    HW229208   1.834   2.894   0.917
 9437SOL     OW29209   1.352   5.733   2.925
 9437SOL    HW129210   1.352   5.830   2.949
 9437SOL    HW229211   1.440   5.709   2.884
 9438SOL     OW29212   0.105   0.296   1.675
 9438SOL    HW129213   0.026   0.322   1.620
 9438SOL    HW229214   0.095   0.331   1.768
 9439SOL     OW29215   1.082   3.600   1.157
 9439SOL    HW129216   1.027   3.648   1.089
 9439SOL    HW229217   1.037   3.607   1.247
 9440SOL     OW29218   4.167   4.858   3.481
 9440SOL    HW129219   4.239   4.804   3.438
 9440SOL    HW229220   4.119   4.802   3.549
 9441SOL     OW29221   0.024   3.310   5.253
 9441SOL    HW129222   0.081   3.255   5.192
 9441SOL    HW229223   0.056   3.404   5.253
 9442SOL     OW29224   4.716   2.928   0.972
 9442SOL    HW129225   4.810   2.899   0.953
 9442SOL    HW229226   4.708   3.027   0.958
 9443SOL     OW29227   2.004   5.282   0.766
 9443SOL    HW129228   2.022   5.262   0.670
 9443SOL    HW229229   2.006   5.197   0.819
 9444SOL     OW29230   1.506   3.584   0.402
 9444SOL    HW129231   1.409   3.605   0.385
 9444SOL    HW229232   1.515   3.538   0.490
 9445SOL     OW29233   6.001   3.280   3.570
 9445SOL    HW129234   5.958   3.203   3.617
 9445SOL    HW229235   6.069   3.323   3.630
 9446SOL     OW29236   6.381   5.480   3.702
 9446SOL    HW129237   6.413   5.572   3.678
 9446SOL    HW229238   6.298   5.460   3.651
 9447SOL     OW29239   5.948   4.082   3.597
 9447SOL    HW129240   5.975   4.134   3.515
 9447SOL    HW229241   5.993   3.992   3.595
 9448SOL     OW29242   0.535   0.188   6.813
 9448SOL    HW129243   0.531   0.109   6.875
 9448SOL    HW229244   0.572   0.267   6.862
 9449SOL     OW29245   6.391   6.221   0.434
 9449SOL    HW129246   6.477   6.189   0.475
 9449SOL    HW229247   6.358   6.153   0.369
 9450SOL     OW29248   2.175   5.600   4.740
 9450SOL    HW129249   2.175   5.569   4.835
 9450SOL    HW229250   2.080   5.602   4.707
 9451SOL     OW29251   4.015   6.946   5.982
 9451SOL    HW129252   4.042   6.855   6.011
 9451SOL    HW229253   4.067   6.973   5.902
 9452SOL     OW29254   1.923   4.100   0.643
 9452SOL    HW129255   1.832   4.069   0.616
 9452SOL    HW229256   1.969   4.140   0.564
 9453SOL     OW29257   2.007   5.090   3.456
 9453SOL    HW129258   2.069   5.055   3.526
 9453SOL    HW229259   2.061   5.131   3.382
 9454SOL     OW29260   3.791   2.902   6.440
 9454SOL    HW129261   3.703   2.854   6.433
 9454SOL    HW229262   3.838   2.899   6.352
 9455SOL     OW29263   2.964   1.934   3.517
 9455SOL    HW129264   3.061   1.922   3.495
 9455SOL    HW229265   2.909   1.880   3.454
 9456SOL     OW29266   0.525   3.369   0.984
 9456SOL    HW129267   0.434   3.330   0.987
 9456SOL    HW229268   0.563   3.373   1.077
 9457SOL     OW29269   2.198   3.561   5.388
 9457SOL    HW129270   2.179   3.575   5.486
 9457SOL    HW229271   2.257   3.634   5.355
 9458SOL     OW29272   1.077   3.410   6.848
 9458SOL    HW129273   1.002   3.473   6.866
 9458SOL    HW229274   1.045   3.316   6.855
 9459SOL     OW29275   5.087   4.383   3.882
 9459SOL    HW129276   5.057   4.357   3.790
 9459SOL    HW229277   5.018   4.354   3.948
 9460SOL     OW29278   0.758   3.439   4.271
 9460SOL    HW129279   0.769   3.362   4.208
 9460SOL    HW229280   0.775   3.408   4.365
 9461SOL     OW29281   0.452   1.988   1.604
 9461SOL    HW129282   0.466   2.018   1.509
 9461SOL    HW229283   0.400   1.903   1.605
 9462SOL     OW29284   2.190   4.022   3.336
 9462SOL    HW129285   2.142   4.100   3.295
 9462SOL    HW229286   2.158   3.937   3.293
 9463SOL     OW29287   6.256   0.489   1.991
 9463SOL    HW129288   6.262   0.537   1.903
 9463SOL    HW229289   6.247   0.391   1.975
 9464SOL     OW29290   6.082   0.556   0.446
 9464SOL    HW129291   6.129   0.634   0.487
 9464SOL    HW229292   6.149   0.494   0.405
 9465SOL     OW29293   1.483   4.475   2.696
 9465SOL    HW129294   1.510   4.536   2.622
 9465SOL    HW229295   1.390   4.442   2.679
 9466SOL     OW29296   4.090   4.648   5.814
 9466SOL    HW129297   4.096   4.563   5.763
 9466SOL    HW229298   4.182   4.676   5.842
 9467SOL     OW29299   1.565   2.375   2.228
 9467SOL    HW129300   1.511   2.430   2.292
 9467SOL    HW229301   1.655   2.416   2.218
 9468SOL     OW29302   5.582   3.231   6.016
 9468SOL    HW129303   5.559   3.237   5.919
 9468SOL    HW229304   5.584   3.323   6.055
 9469SOL     OW29305   6.510   6.003   1.844
 9469SOL    HW129306   6.509   6.094   1.802
 9469SOL    HW229307   6.549   5.937   1.780
 9470SOL     OW29308   4.907   2.896   5.715
 9470SOL    HW129309   4.867   2.984   5.739
 9470SOL    HW229310   5.007   2.904   5.717
 9471SOL     OW29311   6.724   1.592   4.930
 9471SOL    HW129312   6.722   1.508   4.876
 9471SOL    HW229313   6.806   1.594   4.987
 9472SOL     OW29314   6.516   3.130   5.523
 9472SOL    HW129315   6.615   3.124   5.510
 9472SOL    HW229316   6.472   3.048   5.488
 9473SOL     OW29317   2.301   5.327   6.684
 9473SOL    HW129318   2.343   5.404   6.635
 9473SOL    HW229319   2.206   5.348   6.706
 9474SOL     OW29320   0.565   2.484   6.822
 9474SOL    HW129321   0.613   2.396   6.820
 9474SOL    HW229322   0.619   2.552   6.772
 9475SOL     OW29323   3.357   3.563   6.641
 9475SOL    HW129324   3.332   3.475   6.682
 9475SOL    HW229325   3.415   3.547   6.561
 9476SOL     OW29326   3.826   4.090   4.570
 9476SOL    HW129327   3.742   4.106   4.621
 9476SOL    HW229328   3.811   4.107   4.473
 9477SOL     OW29329   0.582   3.110   1.727
 9477SOL    HW129330   0.492   3.078   1.699
 9477SOL    HW229331   0.579   3.208   1.743
 9478SOL     OW29332   4.403   3.138   0.165
 9478SOL    HW129333   4.489   3.118   0.118
 9478SOL    HW229334   4.413   3.120   0.262
 9479SOL     OW29335   3.864   6.122   6.749
 9479SOL    HW129336   3.875   6.024   6.733
 9479SOL    HW229337   3.795   6.136   6.820
 9480SOL     OW29338   5.064   3.793   0.710
 9480SOL    HW129339   5.023   3.709   0.673
 9480SOL    HW229340   5.134   3.826   0.647
 9481SOL     OW29341   4.730   2.816   2.283
 9481SOL    HW129342   4.741   2.879   2.206
 9481SOL    HW229343   4.643   2.768   2.275
 9482SOL     OW29344   0.134   1.388   3.452
 9482SOL    HW129345   0.091   1.312   3.403
 9482SOL    HW229346   0.132   1.469   3.394
 9483SOL     OW29347   1.887   1.764   1.680
 9483SOL    HW129348   1.941   1.770   1.763
 9483SOL    HW229349   1.794   1.796   1.698
 9484SOL     OW29350   4.306   0.801   3.747
 9484SOL    HW129351   4.315   0.885   3.800
 9484SOL    HW229352   4.220   0.756   3.770
 9485SOL     OW29353   0.259   0.754   0.429
 9485SOL    HW129354   0.205   0.676   0.398
 9485SOL    HW229355   0.327   0.778   0.359
 9486SOL     OW29356   3.785   6.527   0.486
 9486SOL    HW129357   3.698   6.562   0.454
 9486SOL    HW229358   3.847   6.603   0.507
 9487SOL     OW29359   3.716   3.650   3.597
 9487SOL    HW129360   3.670   3.678   3.681
 9487SOL    HW229361   3.814   3.665   3.605
 9488SOL     OW29362   2.268   6.811   1.046
 9488SOL    HW129363   2.193   6.745   1.039
 9488SOL    HW229364   2.294   6.842   0.954
 9489SOL     OW29365   4.229   4.351   1.727
 9489SOL    HW129366   4.250   4.444   1.756
 9489SOL    HW229367   4.299   4.288   1.762
 9490SOL     OW29368   6.675   5.057   1.989
 9490SOL    HW129369   6.715   5.102   2.069
 9490SOL    HW229370   6.675   4.958   2.003
 9491SOL     OW29371   5.819   4.944   4.049
 9491SOL    HW129372   5.772   4.857   4.066
 9491SOL    HW229373   5.799   5.008   4.124
 9492SOL     OW29374   3.607   2.866   3.221
 9492SOL    HW129375   3.545   2.859   3.298
 9492SOL    HW229376   3.696   2.900   3.253
 9493SOL     OW29377   3.051   5.418   3.814
 9493SOL    HW129378   3.082   5.402   3.720
 9493SOL    HW229379   2.953   5.401   3.821
 9494SOL     OW29380   4.915   3.402   1.940
 9494SOL    HW129381   4.855   3.326   1.914
 9494SOL    HW229382   4.909   3.474   1.871
 9495SOL     OW29383   6.414   2.223   3.356
 9495SOL    HW129384   6.373   2.207   3.446
 9495SOL    HW229385   6.490   2.159   3.342
 9496SOL     OW29386   6.494   4.032   1.491
 9496SOL    HW129387   6.499   3.935   1.468
 9496SOL    HW229388   6.452   4.082   1.415
 9497SOL     OW29389   5.805   5.931   6.189
 9497SOL    HW129390   5.840   6.009   6.138
 9497SOL    HW229391   5.721   5.898   6.147
 9498SOL     OW29392   4.459   0.009   4.226
 9498SOL    HW129393   4.381   6.972   4.203
 9498SOL    HW229394   4.499   6.999   4.312
 9499SOL     OW29395   2.079   5.337   6.382
 9499SOL    HW129396   2.130   5.352   6.297
 9499SOL    HW229397   2.036   5.423   6.410
 9500SOL     OW29398   5.082   0.114   0.884
 9500SOL    HW129399   5.168   0.070   0.860
 9500SOL    HW229400   5.060   0.096   0.980
 9501SOL     OW29401   3.187   0.812   4.434
 9501SOL    HW129402   3.200   0.900   4.481
 9501SOL    HW229403   3.171   0.741   4.503
 9502SOL     OW29404   5.162   2.310   5.399
 9502SOL    HW129405   5.145   2.219   5.436
 9502SOL    HW229406   5.254   2.314   5.360
 9503SOL     OW29407   0.560   1.564   1.580
 9503SOL    HW129408   0.582   1.487   1.520
 9503SOL    HW229409   0.463   1.560   1.605
 9504SOL     OW29410   0.577   2.478   0.512
 9504SOL    HW129411   0.542   2.543   0.444
 9504SOL    HW229412   0.512   2.468   0.587
 9505SOL     OW29413   4.865   4.500   3.439
 9505SOL    HW129414   4.896   4.528   3.530
 9505SOL    HW229415   4.944   4.477   3.382
 9506SOL     OW29416   0.790   2.213   6.410
 9506SOL    HW129417   0.705   2.165   6.389
 9506SOL    HW229418   0.786   2.249   6.503
 9507SOL     OW29419   0.806   2.423   3.522
 9507SOL    HW129420   0.882   2.372   3.482
 9507SOL    HW229421   0.842   2.502   3.573
 9508SOL     OW29422   6.241   2.667   0.554
 9508SOL    HW129423   6.271   2.582   0.597
 9508SOL    HW229424   6.225   2.651   0.456
 9509SOL     OW29425   0.848   1.206   3.738
 9509SOL    HW129426   0.875   1.207   3.642
 9509SOL    HW229427   0.906   1.269   3.790
 9510SOL     OW29428   1.108   3.375   2.969
 9510SOL    HW129429   1.107   3.353   3.067
 9510SOL    HW229430   1.177   3.319   2.923
 9511SOL     OW29431   0.996   0.649   0.814
 9511SOL    HW129432   1.078   0.596   0.793
 9511SOL    HW229433   0.919   0.612   0.762
 9512SOL     OW29434   5.893   1.639   1.620
 9512SOL    HW129435   5.889   1.577   1.698
 9512SOL    HW229436   5.905   1.733   1.652
 9513SOL     OW29437   2.448   3.905   6.649
 9513SOL    HW129438   2.527   3.961   6.672
 9513SOL    HW229439   2.443   3.892   6.550
 9514SOL     OW29440   2.271   5.007   5.981
 9514SOL    HW129441   2.349   5.042   6.033
 9514SOL    HW229442   2.285   5.025   5.884
 9515SOL     OW29443   1.865   5.756   0.799
 9515SOL    HW129444   1.916   5.833   0.835
 9515SOL    HW229445   1.910   5.670   0.825
 9516SOL     OW29446   5.453   4.307   4.879
 9516SOL    HW129447   5.354   4.294   4.879
 9516SOL    HW229448   5.496   4.235   4.934
 9517SOL     OW29449   1.185   5.169   1.087
 9517SOL    HW129450   1.266   5.184   1.143
 9517SOL    HW229451   1.162   5.253   1.037
 9518SOL     OW29452   2.531   2.430   0.105
 9518SOL    HW129453   2.537   2.495   0.029
 9518SOL    HW229454   2.558   2.475   0.190
 9519SOL     OW29455   4.045   3.219   4.786
 9519SOL    HW129456   4.004   3.150   4.845
 9519SOL    HW229457   4.087   3.291   4.842
 9520SOL     OW29458   1.407   1.491   3.457
 9520SOL    HW129459   1.445   1.577   3.423
 9520SOL    HW229460   1.477   1.441   3.508
 9521SOL     OW29461   5.043   5.160   1.348
 9521SOL    HW129462   5.070   5.249   1.385
 9521SOL    HW229463   5.002   5.105   1.420
 9522SOL     OW29464   3.593   5.287   1.456
 9522SOL    HW129465   3.691   5.273   1.445
 9522SOL    HW229466   3.576   5.360   1.521
 9523SOL     OW29467   2.610   4.743   5.196
 9523SOL    HW129468   2.678   4.682   5.157
 9523SOL    HW229469   2.650   4.834   5.210
 9524SOL     OW29470   3.892   3.219   0.582
 9524SOL    HW129471   3.978   3.253   0.544
 9524SOL    HW229472   3.900   3.214   0.682
 9525SOL     OW29473   2.377   2.317   5.666
 9525SOL    HW129474   2.322   2.263   5.602
 9525SOL    HW229475   2.474   2.307   5.643
 9526SOL     OW29476   6.918   5.063   1.523
 9526SOL    HW129477   6.980   5.140   1.505
 9526SOL    HW229478   6.950   5.011   1.602
 9527SOL     OW29479   0.403   0.764   4.292
 9527SOL    HW129480   0.379   0.707   4.371
 9527SOL    HW229481   0.328   0.828   4.273
 9528SOL     OW29482   0.087   1.439   0.219
 9528SOL    HW129483   0.136   1.503   0.159
 9528SOL    HW229484   0.069   1.354   0.170
 9529SOL     OW29485   6.400   3.335   6.630
 9529SOL    HW129486   6.310   3.372   6.606
 9529SOL    HW229487   6.429   3.269   6.561
 9530SOL     OW29488   1.772   4.053   2.825
 9530SOL    HW129489   1.750   4.090   2.735
 9530SOL    HW229490   1.720   4.102   2.895
 9531SOL     OW29491   4.407   4.949   2.665
 9531SOL    HW129492   4.350   4.994   2.596
 9531SOL    HW229493   4.350   4.920   2.742
 9532SOL     OW29494   6.575   6.808   1.625
 9532SOL    HW129495   6.623   6.814   1.538
 9532SOL    HW229496   6.485   6.850   1.616
 9533SOL     OW29497   0.189   5.971   5.534
 9533SOL    HW129498   0.273   5.950   5.484
 9533SOL    HW229499   0.196   6.061   5.577
 9534SOL     OW29500   0.383   3.940   4.815
 9534SOL    HW129501   0.318   3.903   4.881
 9534SOL    HW229502   0.356   4.033   4.789
 9535SOL     OW29503   2.110   1.204   6.404
 9535SOL    HW129504   2.133   1.225   6.309
 9535SOL    HW229505   2.014   1.175   6.409
 9536SOL     OW29506   2.900   4.116   5.558
 9536SOL    HW129507   2.983   4.160   5.523
 9536SOL    HW229508   2.924   4.031   5.605
 9537SOL     OW29509   2.779   6.716   3.554
 9537SOL    HW129510   2.773   6.791   3.489
 9537SOL    HW229511   2.792   6.630   3.504
 9538SOL     OW29512   5.750   2.020   3.684
 9538SOL    HW129513   5.698   2.105   3.682
 9538SOL    HW229514   5.697   1.948   3.727
 9539SOL     OW29515   3.157   3.792   5.060
 9539SOL    HW129516   3.164   3.889   5.035
 9539SOL    HW229517   3.207   3.775   5.145
 9540SOL     OW29518   5.908   4.219   4.352
 9540SOL    HW129519   5.827   4.204   4.294
 9540SOL    HW229520   5.966   4.288   4.309
 9541SOL     OW29521   4.065   0.735   5.406
 9541SOL    HW129522   4.023   0.644   5.397
 9541SOL    HW229523   4.125   0.737   5.486
 9542SOL     OW29524   5.224   4.397   4.439
 9542SOL    HW129525   5.312   4.362   4.472
 9542SOL    HW229526   5.200   4.480   4.490
 9543SOL     OW29527   3.713   0.620   5.663
 9543SOL    HW129528   3.764   0.593   5.744
 9543SOL    HW229529   3.672   0.710   5.678
 9544SOL     OW29530   6.644   2.152   3.559
 9544SOL    HW129531   6.665   2.133   3.463
 9544SOL    HW229532   6.624   2.066   3.606
 9545SOL     OW29533   5.701   5.517   4.196
 9545SOL    HW129534   5.795   5.506   4.230
 9545SOL    HW229535   5.641   5.540   4.273
 9546SOL     OW29536   3.818   2.228   5.405
 9546SOL    HW129537   3.869   2.306   5.367
 9546SOL    HW229538   3.838   2.220   5.502
 9547SOL     OW29539   2.067   6.404   4.668
 9547SOL    HW129540   2.147   6.371   4.717
 9547SOL    HW229541   2.004   6.328   4.652
 9548SOL     OW29542   6.435   5.292   6.458
 9548SOL    HW129543   6.447   5.382   6.415
 9548SOL    HW229544   6.346   5.255   6.432
 9549SOL     OW29545   2.725   2.696   1.407
 9549SOL    HW129546   2.781   2.615   1.388
 9549SOL    HW229547   2.746   2.768   1.341
 9550SOL     OW29548   1.001   1.679   0.261
 9550SOL    HW129549   1.072   1.643   0.201
 9550SOL    HW229550   0.981   1.612   0.332
 9551SOL     OW29551   5.490   1.148   4.724
 9551SOL    HW129552   5.487   1.118   4.819
 9551SOL    HW229553   5.500   1.068   4.664
 9552SOL     OW29554   1.411   6.830   3.475
 9552SOL    HW129555   1.419   6.823   3.574
 9552SOL    HW229556   1.314   6.836   3.449
 9553SOL     OW29557   6.364   3.931   6.470
 9553SOL    HW129558   6.360   3.832   6.484
 9553SOL    HW229559   6.393   3.975   6.555
 9554SOL     OW29560   1.895   0.162   1.006
 9554SOL    HW129561   1.878   0.098   1.081
 9554SOL    HW229562   1.843   0.247   1.022
 9555SOL     OW29563   1.338   0.729   2.817
 9555SOL    HW129564   1.364   0.726   2.914
 9555SOL    HW229565   1.419   0.716   2.761
 9556SOL     OW29566   1.631   2.677   2.069
 9556SOL    HW129567   1.659   2.642   2.158
 9556SOL    HW229568   1.681   2.761   2.049
 9557SOL     OW29569   0.850   0.155   2.743
 9557SOL    HW129570   0.830   0.252   2.730
 9557SOL    HW229571   0.870   0.137   2.839
 9558SOL     OW29572   6.061   6.621   4.761
 9558SOL    HW129573   6.019   6.660   4.843
 9558SOL    HW229574   6.143   6.570   4.787
 9559SOL     OW29575   0.243   4.329   1.086
 9559SOL    HW129576   0.310   4.381   1.033
 9559SOL    HW229577   0.283   4.241   1.114
 9560SOL     OW29578   1.577   2.035   3.438
 9560SOL    HW129579   1.550   2.048   3.342
 9560SOL    HW229580   1.668   1.993   3.442
 9561SOL     OW29581   1.816   6.947   6.988
 9561SOL    HW129582   1.909   6.920   7.012
 9561SOL    HW229583   1.794   0.014   0.011
 9562SOL     OW29584   3.252   0.152   5.915
 9562SOL    HW129585   3.300   0.238   5.902
 9562SOL    HW229586   3.235   0.136   6.012
 9563SOL     OW29587   6.200   6.984   0.832
 9563SOL    HW129588   6.225   6.888   0.817
 9563SOL    HW229589   6.140   6.991   0.912
 9564SOL     OW29590   2.810   0.031   0.178
 9564SOL    HW129591   2.853   6.965   0.154
 9564SOL    HW229592   2.823   0.097   0.104
 9565SOL     OW29593   4.171   6.791   4.569
 9565SOL    HW129594   4.113   6.739   4.507
 9565SOL    HW229595   4.144   6.772   4.664
 9566SOL     OW29596   1.636   5.344   0.054
 9566SOL    HW129597   1.691   5.411   0.103
 9566SOL    HW229598   1.545   5.338   0.097
 9567SOL     OW29599   5.608   4.708   6.904
 9567SOL    HW129600   5.641   4.625   6.860
 9567SOL    HW229601   5.557   4.685   6.986
 9568SOL     OW29602   4.864   2.365   6.393
 9568SOL    HW129603   4.898   2.271   6.401
 9568SOL    HW229604   4.768   2.367   6.419
 9569SOL     OW29605   0.627   1.578   3.235
 9569SOL    HW129606   0.647   1.496   3.288
 9569SOL    HW229607   0.708   1.606   3.184
 9570SOL     OW29608   1.020   3.231   2.208
 9570SOL    HW129609   1.081   3.306   2.185
 9570SOL    HW229610   0.984   3.191   2.124
 9571SOL     OW29611   3.019   3.914   6.896
 9571SOL    HW129612   2.973   3.827   6.912
 9571SOL    HW229613   3.029   3.963   6.983
 9572SOL     OW29614   1.777   5.615   1.954
 9572SOL    HW129615   1.797   5.573   1.865
 9572SOL    HW229616   1.764   5.713   1.941
 9573SOL     OW29617   1.092   1.311   6.575
 9573SOL    HW129618   1.022   1.240   6.565
 9573SOL    HW229619   1.162   1.299   6.505
 9574SOL     OW29620   4.123   3.388   4.279
 9574SOL    HW129621   4.059   3.319   4.246
 9574SOL    HW229622   4.130   3.382   4.378
 9575SOL     OW29623   6.511   1.211   1.557
 9575SOL    HW129624   6.489   1.144   1.487
 9575SOL    HW229625   6.456   1.193   1.639
 9576SOL     OW29626   2.158   0.326   2.084
 9576SOL    HW129627   2.073   0.319   2.136
 9576SOL    HW229628   2.224   0.260   2.119
 9577SOL     OW29629   1.332   0.547   4.984
 9577SOL    HW129630   1.321   0.629   4.927
 9577SOL    HW229631   1.396   0.484   4.940
 9578SOL     OW29632   0.860   3.565   3.524
 9578SOL    HW129633   0.894   3.618   3.602
 9578SOL    HW229634   0.838   3.627   3.449
 9579SOL     OW29635   1.872   4.987   2.848
 9579SOL    HW129636   1.889   5.062   2.784
 9579SOL    HW229637   1.874   4.900   2.798
 9580SOL     OW29638   3.950   3.131   0.837
 9580SOL    HW129639   3.995   3.045   0.862
 9580SOL    HW229640   4.006   3.208   0.867
 9581SOL     OW29641   0.798   5.144   6.544
 9581SOL    HW129642   0.796   5.234   6.587
 9581SOL    HW229643   0.782   5.153   6.446
 9582SOL     OW29644   4.779   5.030   5.048
 9582SOL    HW129645   4.848   5.102   5.041
 9582SOL    HW229646   4.732   5.038   5.136
 9583SOL     OW29647   4.061   4.680   1.222
 9583SOL    HW129648   4.118   4.616   1.274
 9583SOL    HW229649   3.967   4.676   1.256
 9584SOL     OW29650   6.730   6.363   6.868
 9584SOL    HW129651   6.639   6.323   6.860
 9584SOL    HW229652   6.762   6.357   6.962
 9585SOL     OW29653   6.162   6.997   4.335
 9585SOL    HW129654   6.109   0.035   4.397
 9585SOL    HW229655   6.115   6.909   4.323
 9586SOL     OW29656   5.718   4.291   2.528
 9586SOL    HW129657   5.636   4.318   2.576
 9586SOL    HW229658   5.724   4.191   2.526
 9587SOL     OW29659   7.011   1.103   2.149
 9587SOL    HW129660   0.035   1.063   2.229
 9587SOL    HW229661   6.995   1.200   2.164
 9588SOL     OW29662   0.502   1.761   2.610
 9588SOL    HW129663   0.440   1.738   2.684
 9588SOL    HW229664   0.591   1.718   2.626
 9589SOL     OW29665   2.219   5.248   5.775
 9589SOL    HW129666   2.203   5.234   5.677
 9589SOL    HW229667   2.134   5.232   5.824
 9590SOL     OW29668   0.341   3.966   2.187
 9590SOL    HW129669   0.309   3.875   2.211
 9590SOL    HW229670   0.419   3.990   2.245
 9591SOL     OW29671   2.861   5.974   6.793
 9591SOL    HW129672   2.871   6.003   6.888
 9591SOL    HW229673   2.835   6.052   6.736
 9592SOL     OW29674   3.732   4.183   1.252
 9592SOL    HW129675   3.797   4.159   1.180
 9592SOL    HW229676   3.648   4.130   1.240
 9593SOL     OW29677   6.638   6.959   4.567
 9593SOL    HW129678   6.659   6.893   4.639
 9593SOL    HW229679   6.539   6.962   4.552
 9594SOL     OW29680   1.454   6.391   2.803
 9594SOL    HW129681   1.530   6.330   2.780
 9594SOL    HW229682   1.416   6.431   2.720
 9595SOL     OW29683   2.130   4.397   5.222
 9595SOL    HW129684   2.165   4.448   5.143
 9595SOL    HW229685   2.138   4.452   5.304
 9596SOL     OW29686   0.113   6.126   0.561
 9596SOL    HW129687   0.048   6.053   0.583
 9596SOL    HW229688   0.205   6.087   0.555
 9597SOL     OW29689   0.389   4.878   0.698
 9597SOL    HW129690   0.335   4.955   0.730
 9597SOL    HW229691   0.485   4.892   0.722
 9598SOL     OW29692   1.043   3.824   5.046
 9598SOL    HW129693   1.124   3.875   5.015
 9598SOL    HW229694   1.014   3.761   4.974
 9599SOL     OW29695   3.645   0.525   5.391
 9599SOL    HW129696   3.711   0.580   5.341
 9599SOL    HW229697   3.645   0.550   5.488
 9600SOL     OW29698   2.584   0.343   0.459
 9600SOL    HW129699   2.658   0.276   0.456
 9600SOL    HW229700   2.511   0.309   0.519
 9601SOL     OW29701   6.534   3.830   0.634
 9601SOL    HW129702   6.497   3.914   0.596
 9601SOL    HW229703   6.493   3.751   0.587
 9602SOL     OW29704   6.753   4.700   6.522
 9602SOL    HW129705   6.712   4.609   6.517
 9602SOL    HW229706   6.805   4.707   6.608
 9603SOL     OW29707   3.300   1.121   5.132
 9603SOL    HW129708   3.286   1.039   5.188
 9603SOL    HW229709   3.379   1.108   5.073
 9604SOL     OW29710   4.487   0.340   0.347
 9604SOL    HW129711   4.584   0.325   0.365
 9604SOL    HW229712   4.455   0.273   0.280
 9605SOL     OW29713   0.807   4.980   4.513
 9605SOL    HW129714   0.791   4.920   4.591
 9605SOL    HW229715   0.780   4.933   4.429
 9606SOL     OW29716   1.344   6.105   5.630
 9606SOL    HW129717   1.311   6.139   5.542
 9606SOL    HW229718   1.423   6.046   5.616
 9607SOL     OW29719   1.453   2.446   1.672
 9607SOL    HW129720   1.455   2.501   1.756
 9607SOL    HW229721   1.511   2.365   1.684
 9608SOL     OW29722   6.588   6.969   2.058
 9608SOL    HW129723   6.661   6.948   2.124
 9608SOL    HW229724   6.625   6.961   1.965
 9609SOL     OW29725   2.207   3.536   6.370
 9609SOL    HW129726   2.276   3.476   6.410
 9609SOL    HW229727   2.250   3.597   6.303
 9610SOL     OW29728   1.693   4.701   4.052
 9610SOL    HW129729   1.761   4.753   4.103
 9610SOL    HW229730   1.618   4.675   4.114
 9611SOL     OW29731   0.236   0.195   6.929
 9611SOL    HW129732   0.238   0.292   6.907
 9611SOL    HW229733   0.329   0.159   6.931
 9612SOL     OW29734   6.990   3.481   1.813
 9612SOL    HW129735   0.014   3.496   1.902
 9612SOL    HW229736   6.899   3.443   1.827
 9613SOL     OW29737   4.030   6.603   2.997
 9613SOL    HW129738   3.941   6.565   3.023
 9613SOL    HW229739   4.016   6.682   2.937
 9614SOL     OW29740   4.039   2.858   0.844
 9614SOL    HW129741   3.980   2.779   0.824
 9614SOL    HW229742   4.135   2.830   0.838
 9615SOL     OW29743   0.903   6.665   1.927
 9615SOL    HW129744   0.841   6.589   1.907
 9615SOL    HW229745   0.925   6.666   2.024
 9616SOL     OW29746   4.517   3.333   0.723
 9616SOL    HW129747   4.432   3.323   0.774
 9616SOL    HW229748   4.549   3.427   0.730
 9617SOL     OW29749   1.135   3.735   4.406
 9617SOL    HW129750   1.226   3.760   4.374
 9617SOL    HW229751   1.100   3.808   4.466
 9618SOL     OW29752   4.225   0.130   6.305
 9618SOL    HW129753   4.309   0.116   6.356
 9618SOL    HW229754   4.174   0.206   6.345
 9619SOL     OW29755   1.144   0.189   0.283
 9619SOL    HW129756   1.082   0.236   0.220
 9619SOL    HW229757   1.137   0.090   0.269
 9620SOL     OW29758   5.765   1.565   7.003
 9620SOL    HW129759   5.731   1.594   6.913
 9620SOL    HW229760   5.830   1.633   0.017
 9621SOL     OW29761   1.351   1.373   3.169
 9621SOL    HW129762   1.273   1.392   3.109
 9621SOL    HW229763   1.371   1.455   3.224
 9622SOL     OW29764   5.672   0.994   0.027
 9622SOL    HW129765   5.645   1.066   0.090
 9622SOL    HW229766   5.606   0.919   0.033
 9623SOL     OW29767   3.826   5.168   5.482
 9623SOL    HW129768   3.751   5.166   5.416
 9623SOL    HW229769   3.895   5.234   5.453
 9624SOL     OW29770   5.973   4.290   3.780
 9624SOL    HW129771   6.027   4.272   3.862
 9624SOL    HW229772   5.956   4.204   3.732
 9625SOL     OW29773   5.393   5.087   6.741
 9625SOL    HW129774   5.418   5.169   6.689
 9625SOL    HW229775   5.316   5.108   6.801
 9626SOL     OW29776   2.331   6.128   6.050
 9626SOL    HW129777   2.392   6.207   6.046
 9626SOL    HW229778   2.238   6.156   6.028
 9627SOL     OW29779   6.883   4.413   4.591
 9627SOL    HW129780   6.821   4.370   4.527
 9627SOL    HW229781   6.833   4.481   4.646
 9628SOL     OW29782   6.138   4.186   0.458
 9628SOL    HW129783   6.179   4.265   0.413
 9628SOL    HW229784   6.044   4.208   0.485
 9629SOL     OW29785   6.632   6.444   2.552
 9629SOL    HW129786   6.602   6.395   2.470
 9629SOL    HW229787   6.732   6.444   2.557
 9630SOL     OW29788   6.757   6.170   5.079
 9630SOL    HW129789   6.682   6.120   5.037
 9630SOL    HW229790   6.721   6.248   5.130
 9631SOL     OW29791   5.228   1.442   0.321
 9631SOL    HW129792   5.310   1.475   0.368
 9631SOL    HW229793   5.243   1.348   0.291
 9632SOL     OW29794   2.321   5.545   1.619
 9632SOL    HW129795   2.285   5.638   1.617
 9632SOL    HW229796   2.421   5.549   1.610
 9633SOL     OW29797   3.718   4.224   0.445
 9633SOL    HW129798   3.626   4.201   0.476
 9633SOL    HW229799   3.747   4.158   0.376
 9634SOL     OW29800   6.919   6.460   4.050
 9634SOL    HW129801   6.869   6.454   4.136
 9634SOL    HW229802   6.895   6.545   4.003
 9635SOL     OW29803   2.429   4.492   5.493
 9635SOL    HW129804   2.387   4.429   5.559
 9635SOL    HW229805   2.503   4.444   5.445
 9636SOL     OW29806   4.701   1.859   6.566
 9636SOL    HW129807   4.680   1.936   6.506
 9636SOL    HW229808   4.666   1.878   6.658
 9637SOL     OW29809   3.526   2.235   0.202
 9637SOL    HW129810   3.494   2.186   0.283
 9637SOL    HW229811   3.613   2.280   0.223
 9638SOL     OW29812   0.163   3.108   5.655
 9638SOL    HW129813   0.093   3.095   5.725
 9638SOL    HW229814   0.247   3.142   5.698
 9639SOL     OW29815   4.230   2.032   2.288
 9639SOL    HW129816   4.272   2.063   2.373
 9639SOL    HW229817   4.235   2.104   2.219
 9640SOL     OW29818   3.065   0.680   2.849
 9640SOL    HW129819   3.104   0.714   2.935
 9640SOL    HW229820   3.065   0.752   2.781
 9641SOL     OW29821   5.561   5.353   1.438
 9641SOL    HW129822   5.584   5.445   1.468
 9641SOL    HW229823   5.526   5.300   1.515
 9642SOL     OW29824   1.945   5.555   4.332
 9642SOL    HW129825   1.862   5.500   4.344
 9642SOL    HW229826   1.950   5.590   4.239
 9643SOL     OW29827   5.310   4.536   3.532
 9643SOL    HW129828   5.298   4.454   3.476
 9643SOL    HW229829   5.385   4.591   3.494
 9644SOL     OW29830   0.703   5.124   5.373
 9644SOL    HW129831   0.788   5.171   5.347
 9644SOL    HW229832   0.631   5.148   5.309
 9645SOL     OW29833   2.955   4.838   4.296
 9645SOL    HW129834   2.928   4.744   4.316
 9645SOL    HW229835   2.874   4.891   4.268
 9646SOL     OW29836   2.280   4.743   1.924
 9646SOL    HW129837   2.224   4.702   1.996
 9646SOL    HW229838   2.346   4.676   1.891
 9647SOL     OW29839   0.191   6.163   2.713
 9647SOL    HW129840   0.278   6.185   2.669
 9647SOL    HW229841   0.175   6.228   2.788
 9648SOL     OW29842   3.741   2.033   7.006
 9648SOL    HW129843   3.821   2.078   6.965
 9648SOL    HW229844   3.754   2.023   0.084
 9649SOL     OW29845   1.944   4.727   6.759
 9649SOL    HW129846   1.877   4.678   6.703
 9649SOL    HW229847   2.027   4.743   6.706
 9650SOL     OW29848   4.711   4.746   3.358
 9650SOL    HW129849   4.733   4.653   3.386
 9650SOL    HW229850   4.658   4.791   3.430
 9651SOL     OW29851   5.252   1.604   0.834
 9651SOL    HW129852   5.281   1.508   0.833
 9651SOL    HW229853   5.329   1.661   0.865
 9652SOL     OW29854   1.115   4.836   1.524
 9652SOL    HW129855   1.124   4.897   1.603
 9652SOL    HW229856   1.018   4.822   1.503
 9653SOL     OW29857   4.954   5.287   5.106
 9653SOL    HW129858   5.043   5.272   5.148
 9653SOL    HW229859   4.948   5.381   5.073
 9654SOL     OW29860   3.457   3.314   2.769
 9654SOL    HW129861   3.554   3.298   2.786
 9654SOL    HW229862   3.404   3.237   2.804
 9655SOL     OW29863   0.398   1.728   0.314
 9655SOL    HW129864   0.440   1.655   0.260
 9655SOL    HW229865   0.468   1.780   0.362
 9656SOL     OW29866   4.353   2.184   0.872
 9656SOL    HW129867   4.433   2.238   0.899
 9656SOL    HW229868   4.317   2.136   0.952
 9657SOL     OW29869   5.747   3.151   3.111
 9657SOL    HW129870   5.783   3.186   3.024
 9657SOL    HW229871   5.823   3.122   3.169
 9658SOL     OW29872   5.362   2.023   2.638
 9658SOL    HW129873   5.423   1.965   2.584
 9658SOL    HW229874   5.299   1.966   2.691
 9659SOL     OW29875   0.188   3.268   0.659
 9659SOL    HW129876   0.093   3.287   0.635
 9659SOL    HW229877   0.237   3.235   0.579
 9660SOL     OW29878   0.838   6.851   2.779
 9660SOL    HW129879   0.761   6.912   2.756
 9660SOL    HW229880   0.837   6.772   2.718
 9661SOL     OW29881   3.598   6.124   1.091
 9661SOL    HW129882   3.645   6.133   1.003
 9661SOL    HW229883   3.544   6.040   1.091
 9662SOL     OW29884   3.883   3.247   5.588
 9662SOL    HW129885   3.851   3.188   5.514
 9662SOL    HW229886   3.957   3.305   5.554
 9663SOL     OW29887   6.418   6.598   2.182
 9663SOL    HW129888   6.471   6.614   2.099
 9663SOL    HW229889   6.368   6.682   2.206
 9664SOL     OW29890   5.716   5.690   4.819
 9664SOL    HW129891   5.752   5.671   4.728
 9664SOL    HW229892   5.681   5.605   4.860
 9665SOL     OW29893   5.985   5.698   6.460
 9665SOL    HW129894   6.057   5.741   6.406
 9665SOL    HW229895   6.021   5.614   6.502
 9666SOL     OW29896   6.487   3.475   2.033
 9666SOL    HW129897   6.524   3.382   2.025
 9666SOL    HW229898   6.389   3.471   2.048
 9667SOL     OW29899   4.346   3.434   6.640
 9667SOL    HW129900   4.256   3.477   6.643
 9667SOL    HW229901   4.349   3.359   6.706
 9668SOL     OW29902   6.755   0.748   6.121
 9668SOL    HW129903   6.728   0.674   6.060
 9668SOL    HW229904   6.737   0.721   6.216
 9669SOL     OW29905   1.957   6.913   2.327
 9669SOL    HW129906   1.885   6.873   2.384
 9669SOL    HW229907   1.938   6.895   2.231
 9670SOL     OW29908   6.874   5.095   6.053
 9670SOL    HW129909   6.839   5.003   6.036
 9670SOL    HW229910   6.961   5.108   6.004
 9671SOL     OW29911   6.949   4.289   6.967
 9671SOL    HW129912   6.859   4.323   6.994
 9671SOL    HW229913   7.008   4.283   0.028
 9672SOL     OW29914   1.675   5.756   3.573
 9672SOL    HW129915   1.665   5.744   3.474
 9672SOL    HW229916   1.721   5.676   3.611
 9673SOL     OW29917   4.710   3.540   0.850
 9673SOL    HW129918   4.691   3.637   0.836
 9673SOL    HW229919   4.805   3.521   0.828
 9674SOL     OW29920   3.167   6.602   3.395
 9674SOL    HW129921   3.222   6.525   3.363
 9674SOL    HW229922   3.202   6.634   3.483
 9675SOL     OW29923   5.277   2.668   6.860
 9675SOL    HW129924   5.233   2.600   6.919
 9675SOL    HW229925   5.311   2.743   6.916
 9676SOL     OW29926   1.932   3.377   5.584
 9676SOL    HW129927   1.952   3.316   5.660
 9676SOL    HW229928   1.979   3.464   5.598
 9677SOL     OW29929   6.901   5.561   4.579
 9677SOL    HW129930   6.841   5.639   4.559
 9677SOL    HW229931   6.926   5.563   4.675
 9678SOL     OW29932   3.088   3.631   3.519
 9678SOL    HW129933   3.129   3.540   3.521
 9678SOL    HW229934   3.117   3.682   3.600
 9679SOL     OW29935   3.304   0.786   3.034
 9679SOL    HW129936   3.379   0.734   3.075
 9679SOL    HW229937   3.328   0.811   2.940
 9680SOL     OW29938   4.574   0.995   3.252
 9680SOL    HW129939   4.606   1.085   3.283
 9680SOL    HW229940   4.491   1.006   3.198
 9681SOL     OW29941   2.841   1.922   0.586
 9681SOL    HW129942   2.823   1.844   0.525
 9681SOL    HW229943   2.830   1.893   0.681
 9682SOL     OW29944   4.725   4.242   3.931
 9682SOL    HW129945   4.639   4.284   3.959
 9682SOL    HW229946   4.796   4.266   3.997
 9683SOL     OW29947   3.064   6.195   1.644
 9683SOL    HW129948   2.969   6.221   1.664
 9683SOL    HW229949   3.082   6.104   1.682
 9684SOL     OW29950   0.642   3.165   6.469
 9684SOL    HW129951   0.600   3.251   6.496
 9684SOL    HW229952   0.672   3.115   6.550
 9685SOL     OW29953   3.756   4.553   1.035
 9685SOL    HW129954   3.734   4.519   1.127
 9685SOL    HW229955   3.837   4.611   1.040
 9686SOL     OW29956   6.992   2.504   0.134
 9686SOL    HW129957   6.913   2.462   0.090
 9686SOL    HW229958   6.981   2.603   0.135
 9687SOL     OW29959   1.617   0.823   4.054
 9687SOL    HW129960   1.600   0.763   3.975
 9687SOL    HW229961   1.634   0.768   4.135
 9688SOL     OW29962   1.149   3.230   1.766
 9688SOL    HW129963   1.170   3.134   1.784
 9688SOL    HW229964   1.234   3.283   1.761
 9689SOL     OW29965   0.899   4.434   6.081
 9689SOL    HW129966   0.821   4.403   6.025
 9689SOL    HW229967   0.932   4.358   6.137
 9690SOL     OW29968   6.100   5.084   6.977
 9690SOL    HW129969   6.091   5.010   6.911
 9690SOL    HW229970   6.029   5.075   0.027
 9691SOL     OW29971   3.126   5.405   1.243
 9691SOL    HW129972   3.085   5.365   1.324
 9691SOL    HW229973   3.162   5.333   1.184
 9692SOL     OW29974   3.789   6.015   2.429
 9692SOL    HW129975   3.693   6.042   2.437
 9692SOL    HW229976   3.813   6.006   2.332
 9693SOL     OW29977   5.435   4.442   2.215
 9693SOL    HW129978   5.389   4.357   2.242
 9693SOL    HW229979   5.534   4.426   2.212
 9694SOL     OW29980   2.764   1.068   0.916
 9694SOL    HW129981   2.713   1.055   0.831
 9694SOL    HW229982   2.798   1.162   0.920
 9695SOL     OW29983   6.642   3.423   3.199
 9695SOL    HW129984   6.570   3.468   3.146
 9695SOL    HW229985   6.620   3.326   3.209
 9696SOL     OW29986   5.217   3.219   1.141
 9696SOL    HW129987   5.310   3.224   1.177
 9696SOL    HW229988   5.210   3.146   1.073
 9697SOL     OW29989   0.530   4.535   6.722
 9697SOL    HW129990   0.503   4.627   6.691
 9697SOL    HW229991   0.593   4.543   6.799
 9698SOL     OW29992   4.622   1.591   6.037
 9698SOL    HW129993   4.525   1.566   6.037
 9698SOL    HW229994   4.652   1.612   6.130
 9699SOL     OW29995   6.333   5.446   0.046
 9699SOL    HW129996   6.280   5.521   0.085
 9699SOL    HW229997   6.285   5.410   6.986
 9700SOL     OW29998   4.988   5.568   5.054
 9700SOL    HW129999   5.000   5.635   5.127
 9700SOL    HW230000   4.906   5.592   5.001
 9701SOL     OW30001   4.622   4.818   5.899
 9701SOL    HW130002   4.696   4.753   5.881
 9701SOL    HW230003   4.621   4.842   5.996
 9702SOL     OW30004   4.647   0.522   6.476
 9702SOL    HW130005   4.556   0.499   6.511
 9702SOL    HW230006   4.672   0.457   6.403
 9703SOL     OW30007   4.927   3.644   4.062
 9703SOL    HW130008   4.903   3.550   4.037
 9703SOL    HW230009   4.907   3.659   4.159
 9704SOL     OW30010   3.578   0.263   1.959
 9704SOL    HW130011   3.661   0.308   1.993
 9704SOL    HW230012   3.604   0.195   1.891
 9705SOL     OW30013   5.454   4.459   5.702
 9705SOL    HW130014   5.428   4.366   5.728
 9705SOL    HW230015   5.525   4.454   5.632
 9706SOL     OW30016   1.855   3.674   0.435
 9706SOL    HW130017   1.827   3.738   0.364
 9706SOL    HW230018   1.775   3.646   0.488
 9707SOL     OW30019   6.217   4.976   2.234
 9707SOL    HW130020   6.138   5.024   2.271
 9707SOL    HW230021   6.284   5.043   2.201
 9708SOL     OW30022   1.485   1.975   4.389
 9708SOL    HW130023   1.456   2.039   4.460
 9708SOL    HW230024   1.578   1.944   4.409
 9709SOL     OW30025   4.959   6.375   3.083
 9709SOL    HW130026   5.054   6.406   3.076
 9709SOL    HW230027   4.901   6.430   3.023
 9710SOL     OW30028   6.982   1.703   1.095
 9710SOL    HW130029   6.931   1.660   1.021
 9710SOL    HW230030   0.023   1.636   1.136
 9711SOL     OW30031   3.243   5.622   6.275
 9711SOL    HW130032   3.312   5.678   6.321
 9711SOL    HW230033   3.164   5.611   6.336
 9712SOL     OW30034   5.536   4.126   6.611
 9712SOL    HW130035   5.559   4.031   6.632
 9712SOL    HW230036   5.489   4.130   6.523
 9713SOL     OW30037   1.284   4.893   3.097
 9713SOL    HW130038   1.202   4.934   3.139
 9713SOL    HW230039   1.289   4.921   3.001
 9714SOL     OW30040   4.451   6.226   6.267
 9714SOL    HW130041   4.428   6.321   6.246
 9714SOL    HW230042   4.373   6.168   6.248
 9715SOL     OW30043   5.788   4.201   6.583
 9715SOL    HW130044   5.692   4.194   6.611
 9715SOL    HW230045   5.799   4.276   6.518
 9716SOL     OW30046   3.671   4.494   6.764
 9716SOL    HW130047   3.671   4.484   6.665
 9716SOL    HW230048   3.583   4.530   6.794
 9717SOL     OW30049   5.591   5.826   6.010
 9717SOL    HW130050   5.546   5.754   5.957
 9717SOL    HW230051   5.541   5.842   6.095
 9718SOL     OW30052   4.463   3.361   0.039
 9718SOL    HW130053   4.420   3.290   0.095
 9718SOL    HW230054   4.529   3.412   0.095
 9719SOL     OW30055   6.301   1.130   5.524
 9719SOL    HW130056   6.387   1.176   5.506
 9719SOL    HW230057   6.291   1.114   5.622
 9720SOL     OW30058   0.035   5.083   2.117
 9720SOL    HW130059   0.114   5.024   2.137
 9720SOL    HW230060   0.028   5.154   2.187
 9721SOL     OW30061   7.020   2.072   0.347
 9721SOL    HW130062   0.073   2.005   0.353
 9721SOL    HW230063   0.038   2.164   0.347
 9722SOL     OW30064   5.353   0.613   4.349
 9722SOL    HW130065   5.427   0.591   4.413
 9722SOL    HW230066   5.385   0.601   4.255
 9723SOL     OW30067   2.933   6.664   2.771
 9723SOL    HW130068   2.842   6.623   2.778
 9723SOL    HW230069   2.934   6.752   2.818
 9724SOL     OW30070   1.613   4.384   0.302
 9724SOL    HW130071   1.576   4.310   0.245
 9724SOL    HW230072   1.570   4.470   0.277
 9725SOL     OW30073   4.529   4.757   6.346
 9725SOL    HW130074   4.601   4.693   6.371
 9725SOL    HW230075   4.458   4.758   6.417
 9726SOL     OW30076   5.378   1.376   4.050
 9726SOL    HW130077   5.338   1.381   4.141
 9726SOL    HW230078   5.476   1.356   4.057
 9727SOL     OW30079   1.390   2.852   6.758
 9727SOL    HW130080   1.420   2.796   6.835
 9727SOL    HW230081   1.327   2.800   6.701
 9728SOL     OW30082   0.888   0.549   5.659
 9728SOL    HW130083   0.893   0.472   5.723
 9728SOL    HW230084   0.931   0.523   5.572
 9729SOL     OW30085   0.788   4.191   3.214
 9729SOL    HW130086   0.807   4.261   3.283
 9729SOL    HW230087   0.788   4.101   3.257
 9730SOL     OW30088   1.223   3.834   3.804
 9730SOL    HW130089   1.221   3.815   3.902
 9730SOL    HW230090   1.256   3.927   3.789
 9731SOL     OW30091   4.761   4.554   0.703
 9731SOL    HW130092   4.766   4.483   0.633
 9731SOL    HW230093   4.672   4.552   0.747
 9732SOL     OW30094   6.706   5.535   2.914
 9732SOL    HW130095   6.652   5.617   2.935
 9732SOL    HW230096   6.777   5.524   2.983
 9733SOL     OW30097   5.800   4.787   0.491
 9733SOL    HW130098   5.731   4.804   0.420
 9733SOL    HW230099   5.890   4.813   0.456
 9734SOL     OW30100   6.721   1.555   1.643
 9734SOL    HW130101   6.665   1.579   1.722
 9734SOL    HW230102   6.665   1.506   1.576
 9735SOL     OW30103   2.167   3.542   4.068
 9735SOL    HW130104   2.181   3.461   4.011
 9735SOL    HW230105   2.213   3.620   4.027
 9736SOL     OW30106   6.399   1.907   6.571
 9736SOL    HW130107   6.442   1.892   6.660
 9736SOL    HW230108   6.349   1.825   6.544
 9737SOL     OW30109   5.192   3.486   3.761
 9737SOL    HW130110   5.266   3.533   3.713
 9737SOL    HW230111   5.228   3.404   3.805
 9738SOL     OW30112   1.884   0.451   0.712
 9738SOL    HW130113   1.872   0.444   0.811
 9738SOL    HW230114   1.866   0.544   0.682
 9739SOL     OW30115   5.941   5.206   1.653
 9739SOL    HW130116   5.958   5.291   1.603
 9739SOL    HW230117   5.896   5.226   1.740
 9740SOL     OW30118   6.864   1.875   3.635
 9740SOL    HW130119   6.877   1.805   3.565
 9740SOL    HW230120   6.769   1.876   3.664
 9741SOL     OW30121   4.154   1.289   2.642
 9741SOL    HW130122   4.142   1.276   2.543
 9741SOL    HW230123   4.130   1.205   2.690
 9742SOL     OW30124   4.154   0.820   0.729
 9742SOL    HW130125   4.245   0.848   0.760
 9742SOL    HW230126   4.137   0.725   0.758
 9743SOL     OW30127   0.356   3.104   4.411
 9743SOL    HW130128   0.363   3.128   4.507
 9743SOL    HW230129   0.266   3.129   4.376
 9744SOL     OW30130   1.626   6.855   2.457
 9744SOL    HW130131   1.655   6.774   2.507
 9744SOL    HW230132   1.634   6.839   2.359
 9745SOL     OW30133   5.127   3.034   6.273
 9745SOL    HW130134   5.105   3.069   6.364
 9745SOL    HW230135   5.215   3.072   6.243
 9746SOL     OW30136   6.566   0.104   5.419
 9746SOL    HW130137   6.493   0.096   5.351
 9746SOL    HW230138   6.609   0.193   5.411
 9747SOL     OW30139   2.714   0.958   1.840
 9747SOL    HW130140   2.662   0.968   1.925
 9747SOL    HW230141   2.812   0.962   1.861
 9748SOL     OW30142   0.109   0.945   3.481
 9748SOL    HW130143   0.013   0.957   3.507
 9748SOL    HW230144   0.165   1.012   3.530
 9749SOL     OW30145   2.461   0.263   4.449
 9749SOL    HW130146   2.536   0.286   4.512
 9749SOL    HW230147   2.397   0.201   4.496
 9750SOL     OW30148   5.556   4.151   2.822
 9750SOL    HW130149   5.632   4.215   2.825
 9750SOL    HW230150   5.544   4.109   2.912
 9751SOL     OW30151   1.340   0.891   0.598
 9751SOL    HW130152   1.335   0.976   0.649
 9751SOL    HW230153   1.371   0.909   0.504
 9752SOL     OW30154   4.371   1.994   5.203
 9752SOL    HW130155   4.470   1.982   5.198
 9752SOL    HW230156   4.328   1.905   5.218
 9753SOL     OW30157   6.267   5.711   6.342
 9753SOL    HW130158   6.308   5.798   6.369
 9753SOL    HW230159   6.300   5.685   6.252
 9754SOL     OW30160   1.687   1.235   0.044
 9754SOL    HW130161   1.761   1.185   7.018
 9754SOL    HW230162   1.618   1.261   6.997
 9755SOL     OW30163   3.326   3.742   4.478
 9755SOL    HW130164   3.279   3.659   4.446
 9755SOL    HW230165   3.337   3.736   4.578
 9756SOL     OW30166   6.385   3.498   0.218
 9756SOL    HW130167   6.391   3.554   0.300
 9756SOL    HW230168   6.369   3.557   0.139
 9757SOL     OW30169   5.566   3.720   3.760
 9757SOL    HW130170   5.594   3.737   3.854
 9757SOL    HW230171   5.523   3.631   3.753
 9758SOL     OW30172   2.516   0.061   0.112
 9758SOL    HW130173   2.433   0.027   0.155
 9758SOL    HW230174   2.596   0.030   0.163
 9759SOL     OW30175   1.140   0.398   0.442
 9759SOL    HW130176   1.122   0.326   0.375
 9759SOL    HW230177   1.186   0.474   0.397
 9760SOL     OW30178   4.750   2.851   5.036
 9760SOL    HW130179   4.672   2.885   5.088
 9760SOL    HW230180   4.814   2.806   5.098
 9761SOL     OW30181   6.649   1.560   2.584
 9761SOL    HW130182   6.658   1.522   2.492
 9761SOL    HW230183   6.646   1.660   2.579
 9762SOL     OW30184   3.407   1.221   4.186
 9762SOL    HW130185   3.370   1.306   4.222
 9762SOL    HW230186   3.462   1.176   4.257
 9763SOL     OW30187   5.288   1.553   2.152
 9763SOL    HW130188   5.253   1.631   2.100
 9763SOL    HW230189   5.219   1.480   2.154
 9764SOL     OW30190   0.300   2.753   3.296
 9764SOL    HW130191   0.325   2.682   3.229
 9764SOL    HW230192   0.372   2.821   3.300
 9765SOL     OW30193   6.858   0.131   3.423
 9765SOL    HW130194   6.823   0.038   3.410
 9765SOL    HW230195   6.781   0.193   3.438
 9766SOL     OW30196   3.120   6.857   2.190
 9766SOL    HW130197   3.218   6.863   2.210
 9766SOL    HW230198   3.075   6.943   2.212
 9767SOL     OW30199   4.706   0.568   4.579
 9767SOL    HW130200   4.779   0.631   4.553
 9767SOL    HW230201   4.638   0.563   4.506
 9768SOL     OW30202   6.264   1.329   2.338
 9768SOL    HW130203   6.222   1.245   2.373
 9768SOL    HW230204   6.299   1.383   2.415
 9769SOL     OW30205   3.934   1.236   3.304
 9769SOL    HW130206   3.837   1.248   3.326
 9769SOL    HW230207   3.971   1.160   3.358
 9770SOL     OW30208   5.037   0.729   6.462
 9770SOL    HW130209   5.105   0.719   6.390
 9770SOL    HW230210   5.025   0.826   6.483
 9771SOL     OW30211   2.528   5.900   0.423
 9771SOL    HW130212   2.484   5.811   0.410
 9771SOL    HW230213   2.541   5.944   0.334
 9772SOL     OW30214   2.080   6.167   2.134
 9772SOL    HW130215   2.052   6.139   2.226
 9772SOL    HW230216   2.038   6.106   2.066
 9773SOL     OW30217   5.149   5.614   3.828
 9773SOL    HW130218   5.102   5.701   3.814
 9773SOL    HW230219   5.082   5.539   3.826
 9774SOL     OW30220   0.338   4.678   2.029
 9774SOL    HW130221   0.249   4.710   1.998
 9774SOL    HW230222   0.409   4.711   1.968
 9775SOL     OW30223   2.688   0.478   3.097
 9775SOL    HW130224   2.709   0.391   3.140
 9775SOL    HW230225   2.614   0.523   3.147
 9776SOL     OW30226   1.865   4.293   4.912
 9776SOL    HW130227   1.931   4.270   4.841
 9776SOL    HW230228   1.893   4.250   4.998
 9777SOL     OW30229   6.858   6.042   0.085
 9777SOL    HW130230   6.821   6.113   0.145
 9777SOL    HW230231   6.942   6.076   0.041
 9778SOL     OW30232   0.045   1.169   3.882
 9778SOL    HW130233   0.079   1.212   3.965
 9778SOL    HW230234   0.023   1.073   3.900
 9779SOL     OW30235   1.306   1.316   4.390
 9779SOL    HW130236   1.250   1.280   4.315
 9779SOL    HW230237   1.356   1.396   4.359
 9780SOL     OW30238   2.614   1.976   1.466
 9780SOL    HW130239   2.707   2.005   1.447
 9780SOL    HW230240   2.585   1.910   1.396
 9781SOL     OW30241   2.135   3.727   4.311
 9781SOL    HW130242   2.117   3.806   4.253
 9781SOL    HW230243   2.158   3.648   4.254
 9782SOL     OW30244   6.895   1.479   0.954
 9782SOL    HW130245   6.857   1.432   0.874
 9782SOL    HW230246   6.972   1.425   0.990
 9783SOL     OW30247   4.320   2.187   2.962
 9783SOL    HW130248   4.413   2.180   2.925
 9783SOL    HW230249   4.325   2.200   3.062
 9784SOL     OW30250   3.783   1.477   4.418
 9784SOL    HW130251   3.721   1.547   4.453
 9784SOL    HW230252   3.877   1.512   4.419
 9785SOL     OW30253   0.741   3.037   6.251
 9785SOL    HW130254   0.834   3.004   6.269
 9785SOL    HW230255   0.705   3.082   6.333
 9786SOL     OW30256   2.214   4.635   0.193
 9786SOL    HW130257   2.169   4.621   0.105
 9786SOL    HW230258   2.227   4.733   0.209
 9787SOL     OW30259   4.701   4.213   1.697
 9787SOL    HW130260   4.732   4.300   1.658
 9787SOL    HW230261   4.611   4.226   1.739
 9788SOL     OW30262   0.441   0.959   3.807
 9788SOL    HW130263   0.537   0.984   3.820
 9788SOL    HW230264   0.432   0.860   3.800
 9789SOL     OW30265   0.887   5.646   0.912
 9789SOL    HW130266   0.834   5.647   0.996
 9789SOL    HW230267   0.974   5.693   0.926
 9790SOL     OW30268   6.375   4.569   6.715
 9790SOL    HW130269   6.364   4.668   6.729
 9790SOL    HW230270   6.333   4.520   6.791
 9791SOL     OW30271   1.081   1.648   2.459
 9791SOL    HW130272   1.109   1.600   2.542
 9791SOL    HW230273   1.116   1.599   2.379
 9792SOL     OW30274   4.314   4.895   0.889
 9792SOL    HW130275   4.382   4.917   0.960
 9792SOL    HW230276   4.261   4.977   0.867
 9793SOL     OW30277   4.494   6.405   2.715
 9793SOL    HW130278   4.482   6.411   2.814
 9793SOL    HW230279   4.411   6.369   2.673
 9794SOL     OW30280   0.195   4.758   0.995
 9794SOL    HW130281   0.189   4.809   1.081
 9794SOL    HW230282   0.120   4.693   0.989
 9795SOL     OW30283   2.269   1.650   4.547
 9795SOL    HW130284   2.299   1.654   4.452
 9795SOL    HW230285   2.320   1.578   4.595
 9796SOL     OW30286   3.737   2.417   1.405
 9796SOL    HW130287   3.837   2.423   1.412
 9796SOL    HW230288   3.696   2.442   1.493
 9797SOL     OW30289   2.422   5.585   6.567
 9797SOL    HW130290   2.371   5.658   6.611
 9797SOL    HW230291   2.496   5.555   6.626
 9798SOL     OW30292   2.976   0.544   2.147
 9798SOL    HW130293   2.906   0.560   2.077
 9798SOL    HW230294   3.020   0.630   2.171
 9799SOL     OW30295   3.750   2.962   4.431
 9799SOL    HW130296   3.802   2.877   4.422
 9799SOL    HW230297   3.708   2.966   4.522
 9800SOL     OW30298   4.077   6.257   4.732
 9800SOL    HW130299   4.127   6.307   4.803
 9800SOL    HW230300   4.019   6.187   4.774
 9801SOL     OW30301   4.721   4.197   6.609
 9801SOL    HW130302   4.694   4.101   6.602
 9801SOL    HW230303   4.647   4.255   6.574
 9802SOL     OW30304   0.021   3.501   1.095
 9802SOL    HW130305   7.004   3.409   1.108
 9802SOL    HW230306   0.064   3.508   1.005
 9803SOL     OW30307   0.855   1.971   6.867
 9803SOL    HW130308   0.857   2.066   6.898
 9803SOL    HW230309   0.942   1.947   6.825
 9804SOL     OW30310   1.680   0.038   2.623
 9804SOL    HW130311   1.607   0.071   2.683
 9804SOL    HW230312   1.643   6.991   2.559
 9805SOL     OW30313   1.397   7.001   4.800
 9805SOL    HW130314   1.322   6.958   4.749
 9805SOL    HW230315   1.360   0.053   4.858
 9806SOL     OW30316   1.440   0.946   0.338
 9806SOL    HW130317   1.474   0.869   0.283
 9806SOL    HW230318   1.490   1.029   0.313
 9807SOL     OW30319   2.719   4.410   0.507
 9807SOL    HW130320   2.767   4.396   0.421
 9807SOL    HW230321   2.635   4.462   0.490
 9808SOL     OW30322   4.216   0.099   5.059
 9808SOL    HW130323   4.209   0.027   4.990
 9808SOL    HW230324   4.285   0.074   5.127
 9809SOL     OW30325   0.697   2.704   6.692
 9809SOL    HW130326   0.601   2.714   6.668
 9809SOL    HW230327   0.745   2.653   6.621
 9810SOL     OW30328   2.070   2.909   3.427
 9810SOL    HW130329   2.016   2.856   3.493
 9810SOL    HW230330   2.019   2.990   3.400
 9811SOL     OW30331   5.487   4.715   3.438
 9811SOL    HW130332   5.478   4.747   3.344
 9811SOL    HW230333   5.509   4.793   3.497
 9812SOL     OW30334   3.584   2.290   5.967
 9812SOL    HW130335   3.617   2.378   5.933
 9812SOL    HW230336   3.612   2.217   5.905
 9813SOL     OW30337   5.600   1.107   0.586
 9813SOL    HW130338   5.678   1.123   0.526
 9813SOL    HW230339   5.631   1.106   0.681
 9814SOL     OW30340   0.024   0.417   0.077
 9814SOL    HW130341   7.016   0.502   0.121
 9814SOL    HW230342   6.993   0.341   0.116
 9815SOL     OW30343   5.737   4.144   3.284
 9815SOL    HW130344   5.703   4.167   3.376
 9815SOL    HW230345   5.833   4.119   3.290
 9816SOL     OW30346   6.824   1.151   5.868
 9816SOL    HW130347   6.919   1.122   5.865
 9816SOL    HW230348   6.820   1.251   5.867
 9817SOL     OW30349   3.090   6.446   2.809
 9817SOL    HW130350   3.046   6.535   2.794
 9817SOL    HW230351   3.134   6.446   2.899
 9818SOL     OW30352   1.347   1.382   4.859
 9818SOL    HW130353   1.313   1.344   4.945
 9818SOL    HW230354   1.447   1.386   4.862
 9819SOL     OW30355   4.653   2.688   3.849
 9819SOL    HW130356   4.640   2.734   3.761
 9819SOL    HW230357   4.699   2.751   3.912
 9820SOL     OW30358   4.126   3.518   6.284
 9820SOL    HW130359   4.215   3.474   6.293
 9820SOL    HW230360   4.054   3.455   6.314
 9821SOL     OW30361   5.502   0.650   0.236
 9821SOL    HW130362   5.568   0.658   0.161
 9821SOL    HW230363   5.433   0.722   0.227
 9822SOL     OW30364   2.892   5.976   3.699
 9822SOL    HW130365   2.954   6.039   3.746
 9822SOL    HW230366   2.878   6.007   3.605
 9823SOL     OW30367   2.383   0.650   0.516
 9823SOL    HW130368   2.390   0.748   0.533
 9823SOL    HW230369   2.408   0.600   0.599
 9824SOL     OW30370   2.065   5.225   4.102
 9824SOL    HW130371   2.124   5.275   4.165
 9824SOL    HW230372   1.971   5.223   4.138
 9825SOL     OW30373   5.253   5.964   4.300
 9825SOL    HW130374   5.170   5.912   4.322
 9825SOL    HW230375   5.331   5.926   4.350
 9826SOL     OW30376   3.926   5.699   5.630
 9826SOL    HW130377   3.983   5.616   5.630
 9826SOL    HW230378   3.830   5.674   5.622
 9827SOL     OW30379   1.633   4.288   3.759
 9827SOL    HW130380   1.548   4.315   3.715
 9827SOL    HW230381   1.641   4.188   3.757
 9828SOL     OW30382   2.844   2.223   5.511
 9828SOL    HW130383   2.914   2.233   5.440
 9828SOL    HW230384   2.879   2.166   5.585
 9829SOL     OW30385   4.666   5.334   6.487
 9829SOL    HW130386   4.604   5.381   6.550
 9829SOL    HW230387   4.612   5.277   6.425
 9830SOL     OW30388   5.213   1.286   1.823
 9830SOL    HW130389   5.156   1.220   1.774
 9830SOL    HW230390   5.208   1.375   1.776
 9831SOL     OW30391   1.133   4.765   2.311
 9831SOL    HW130392   1.145   4.775   2.212
 9831SOL    HW230393   1.207   4.709   2.348
 9832SOL     OW30394   4.996   5.221   2.700
 9832SOL    HW130395   5.051   5.207   2.618
 9832SOL    HW230396   5.010   5.144   2.763
 9833SOL     OW30397   3.294   3.163   4.373
 9833SOL    HW130398   3.339   3.211   4.299
 9833SOL    HW230399   3.324   3.068   4.375
 9834SOL     OW30400   2.414   4.250   5.263
 9834SOL    HW130401   2.492   4.248   5.325
 9834SOL    HW230402   2.400   4.159   5.224
 9835SOL     OW30403   3.784   3.742   4.443
 9835SOL    HW130404   3.787   3.652   4.486
 9835SOL    HW230405   3.706   3.748   4.382
 9836SOL     OW30406   6.894   4.337   3.752
 9836SOL    HW130407   6.975   4.283   3.729
 9836SOL    HW230408   6.916   4.434   3.746
 9837SOL     OW30409   3.936   0.853   2.377
 9837SOL    HW130410   3.901   0.875   2.467
 9837SOL    HW230411   3.944   0.937   2.322
 9838SOL     OW30412   1.791   6.751   0.344
 9838SOL    HW130413   1.760   6.802   0.424
 9838SOL    HW230414   1.718   6.745   0.277
 9839SOL     OW30415   5.793   6.324   3.680
 9839SOL    HW130416   5.722   6.391   3.660
 9839SOL    HW230417   5.842   6.352   3.763
 9840SOL     OW30418   5.955   1.478   0.987
 9840SOL    HW130419   6.037   1.428   0.957
 9840SOL    HW230420   5.977   1.575   0.997
 9841SOL     OW30421   1.452   3.826   5.284
 9841SOL    HW130422   1.528   3.768   5.313
 9841SOL    HW230423   1.397   3.851   5.364
 9842SOL     OW30424   3.665   2.970   1.325
 9842SOL    HW130425   3.740   3.011   1.377
 9842SOL    HW230426   3.586   2.956   1.386
 9843SOL     OW30427   0.102   0.581   2.279
 9843SOL    HW130428   0.129   0.486   2.288
 9843SOL    HW230429   0.173   0.632   2.230
 9844SOL     OW30430   6.521   1.355   3.323
 9844SOL    HW130431   6.600   1.415   3.330
 9844SOL    HW230432   6.463   1.366   3.404
 9845SOL     OW30433   1.966   2.692   3.574
 9845SOL    HW130434   1.935   2.672   3.481
 9845SOL    HW230435   1.959   2.609   3.630
 9846SOL     OW30436   3.587   2.255   1.237
 9846SOL    HW130437   3.627   2.164   1.252
 9846SOL    HW230438   3.644   2.324   1.281
 9847SOL     OW30439   3.885   2.948   3.040
 9847SOL    HW130440   3.844   2.861   3.011
 9847SOL    HW230441   3.875   2.958   3.139
 9848SOL     OW30442   3.769   4.160   5.160
 9848SOL    HW130443   3.725   4.250   5.154
 9848SOL    HW230444   3.825   4.145   5.079
 9849SOL     OW30445   0.991   0.242   6.115
 9849SOL    HW130446   0.986   0.161   6.056
 9849SOL    HW230447   0.931   0.228   6.194
 9850SOL     OW30448   6.380   0.319   4.140
 9850SOL    HW130449   6.339   0.301   4.050
 9850SOL    HW230450   6.313   0.362   4.200
 9851SOL     OW30451   0.558   0.139   4.232
 9851SOL    HW130452   0.539   0.045   4.257
 9851SOL    HW230453   0.647   0.166   4.270
 9852SOL     OW30454   3.030   1.640   4.250
 9852SOL    HW130455   3.078   1.727   4.239
 9852SOL    HW230456   3.077   1.569   4.198
 9853SOL     OW30457   5.326   3.256   5.111
 9853SOL    HW130458   5.277   3.192   5.051
 9853SOL    HW230459   5.423   3.254   5.090
 9854SOL     OW30460   6.695   6.233   4.371
 9854SOL    HW130461   6.658   6.214   4.280
 9854SOL    HW230462   6.625   6.277   4.427
 9855SOL     OW30463   1.822   3.384   1.863
 9855SOL    HW130464   1.918   3.404   1.883
 9855SOL    HW230465   1.815   3.294   1.819
 9856SOL     OW30466   4.684   4.234   4.786
 9856SOL    HW130467   4.754   4.289   4.741
 9856SOL    HW230468   4.594   4.275   4.770
 9857SOL     OW30469   4.810   2.774   2.807
 9857SOL    HW130470   4.807   2.873   2.818
 9857SOL    HW230471   4.735   2.732   2.858
 9858SOL     OW30472   6.732   6.899   1.379
 9858SOL    HW130473   6.680   6.975   1.341
 9858SOL    HW230474   6.768   6.842   1.305
 9859SOL     OW30475   6.084   5.959   2.349
 9859SOL    HW130476   6.091   5.862   2.371
 9859SOL    HW230477   6.007   5.974   2.287
 9860SOL     OW30478   2.048   2.435   4.198
 9860SOL    HW130479   1.959   2.425   4.244
 9860SOL    HW230480   2.108   2.361   4.228
 9861SOL     OW30481   3.144   0.368   2.544
 9861SOL    HW130482   3.178   0.279   2.513
 9861SOL    HW230483   3.067   0.354   2.606
 9862SOL     OW30484   2.625   3.291   0.239
 9862SOL    HW130485   2.597   3.197   0.254
 9862SOL    HW230486   2.725   3.294   0.226
 9863SOL     OW30487   3.414   6.129   1.845
 9863SOL    HW130488   3.508   6.109   1.874
 9863SOL    HW230489   3.352   6.115   1.923
 9864SOL     OW30490   3.260   0.193   3.951
 9864SOL    HW130491   3.218   0.163   3.865
 9864SOL    HW230492   3.359   0.181   3.946
 9865SOL     OW30493   1.173   6.840   4.662
 9865SOL    HW130494   1.166   6.751   4.706
 9865SOL    HW230495   1.148   6.832   4.565
 9866SOL     OW30496   5.447   5.072   5.961
 9866SOL    HW130497   5.480   5.005   5.895
 9866SOL    HW230498   5.375   5.032   6.018
 9867SOL     OW30499   7.016   1.779   1.350
 9867SOL    HW130500   7.006   1.755   1.254
 9867SOL    HW230501   6.928   1.813   1.385
 9868SOL     OW30502   0.595   3.228   4.706
 9868SOL    HW130503   0.504   3.246   4.669
 9868SOL    HW230504   0.656   3.303   4.683
 9869SOL     OW30505   0.343   2.381   1.449
 9869SOL    HW130506   0.431   2.396   1.495
 9869SOL    HW230507   0.280   2.336   1.512
 9870SOL     OW30508   4.671   5.252   3.101
 9870SOL    HW130509   4.707   5.195   3.026
 9870SOL    HW230510   4.704   5.217   3.188
 9871SOL     OW30511   6.510   4.537   5.697
 9871SOL    HW130512   6.469   4.561   5.609
 9871SOL    HW230513   6.542   4.620   5.743
 9872SOL     OW30514   3.190   5.834   5.031
 9872SOL    HW130515   3.196   5.796   5.123
 9872SOL    HW230516   3.185   5.760   4.964
 9873SOL     OW30517   2.400   2.536   0.631
 9873SOL    HW130518   2.471   2.484   0.678
 9873SOL    HW230519   2.433   2.629   0.615
 9874SOL     OW30520   6.061   2.985   5.550
 9874SOL    HW130521   6.106   2.951   5.633
 9874SOL    HW230522   6.083   3.082   5.538
 9875SOL     OW30523   6.217   5.810   2.052
 9875SOL    HW130524   6.261   5.736   2.001
 9875SOL    HW230525   6.284   5.851   2.114
 9876SOL     OW30526   5.459   6.698   4.227
 9876SOL    HW130527   5.424   6.608   4.202
 9876SOL    HW230528   5.536   6.721   4.166
 9877SOL     OW30529   6.223   4.987   4.087
 9877SOL    HW130530   6.284   5.067   4.088
 9877SOL    HW230531   6.243   4.929   4.166
 9878SOL     OW30532   3.104   3.196   6.066
 9878SOL    HW130533   3.103   3.292   6.092
 9878SOL    HW230534   3.116   3.139   6.147
 9879SOL     OW30535   5.039   5.265   5.528
 9879SOL    HW130536   5.095   5.333   5.483
 9879SOL    HW230537   4.943   5.295   5.528
 9880SOL     OW30538   3.329   1.175   1.026
 9880SOL    HW130539   3.400   1.200   0.960
 9880SOL    HW230540   3.371   1.153   1.114
 9881SOL     OW30541   0.210   1.579   5.013
 9881SOL    HW130542   0.206   1.482   4.988
 9881SOL    HW230543   0.212   1.588   5.112
 9882SOL     OW30544   2.358   3.798   5.609
 9882SOL    HW130545   2.400   3.888   5.603
 9882SOL    HW230546   2.358   3.754   5.519
 9883SOL     OW30547   1.096   6.502   0.839
 9883SOL    HW130548   1.160   6.578   0.835
 9883SOL    HW230549   1.142   6.421   0.876
 9884SOL     OW30550   4.411   1.584   0.862
 9884SOL    HW130551   4.415   1.611   0.766
 9884SOL    HW230552   4.479   1.513   0.880
 9885SOL     OW30553   0.150   3.357   4.615
 9885SOL    HW130554   0.153   3.430   4.683
 9885SOL    HW230555   0.199   3.277   4.649
 9886SOL     OW30556   0.960   5.590   1.267
 9886SOL    HW130557   1.035   5.632   1.216
 9886SOL    HW230558   0.998   5.534   1.341
 9887SOL     OW30559   4.376   7.007   6.881
 9887SOL    HW130560   4.294   0.020   6.927
 9887SOL    HW230561   4.438   0.063   6.863
 9888SOL     OW30562   5.344   5.073   3.197
 9888SOL    HW130563   5.318   5.098   3.104
 9888SOL    HW230564   5.379   5.154   3.244
 9889SOL     OW30565   6.526   4.282   1.567
 9889SOL    HW130566   6.492   4.347   1.500
 9889SOL    HW230567   6.497   4.190   1.541
 9890SOL     OW30568   0.738   2.169   1.255
 9890SOL    HW130569   0.655   2.123   1.287
 9890SOL    HW230570   0.732   2.185   1.156
 9891SOL     OW30571   6.300   3.550   1.264
 9891SOL    HW130572   6.268   3.467   1.218
 9891SOL    HW230573   6.344   3.610   1.197
 9892SOL     OW30574   1.707   5.479   3.042
 9892SOL    HW130575   1.618   5.498   3.083
 9892SOL    HW230576   1.718   5.381   3.032
 9893SOL     OW30577   6.556   0.439   2.068
 9893SOL    HW130578   6.525   0.354   2.111
 9893SOL    HW230579   6.505   0.455   1.984
 9894SOL     OW30580   2.816   2.172   6.205
 9894SOL    HW130581   2.844   2.242   6.270
 9894SOL    HW230582   2.717   2.157   6.213
 9895SOL     OW30583   5.413   3.269   5.782
 9895SOL    HW130584   5.370   3.329   5.714
 9895SOL    HW230585   5.365   3.279   5.869
 9896SOL     OW30586   5.103   1.690   0.370
 9896SOL    HW130587   5.053   1.731   0.294
 9896SOL    HW230588   5.121   1.594   0.350
 9897SOL     OW30589   5.074   6.927   2.756
 9897SOL    HW130590   5.015   6.931   2.675
 9897SOL    HW230591   5.071   6.835   2.794
 9898SOL     OW30592   0.564   4.745   5.520
 9898SOL    HW130593   0.621   4.677   5.567
 9898SOL    HW230594   0.547   4.822   5.581
 9899SOL     OW30595   0.251   5.281   2.631
 9899SOL    HW130596   0.300   5.342   2.569
 9899SOL    HW230597   0.194   5.336   2.693
 9900SOL     OW30598   2.100   3.339   2.798
 9900SOL    HW130599   2.136   3.344   2.706
 9900SOL    HW230600   2.039   3.416   2.815
 9901SOL     OW30601   2.641   0.944   0.272
 9901SOL    HW130602   2.558   0.890   0.258
 9901SOL    HW230603   2.620   1.025   0.326
 9902SOL     OW30604   4.368   3.778   1.183
 9902SOL    HW130605   4.429   3.790   1.105
 9902SOL    HW230606   4.319   3.691   1.173
 9903SOL     OW30607   5.329   0.681   1.380
 9903SOL    HW130608   5.356   0.636   1.296
 9903SOL    HW230609   5.408   0.688   1.441
 9904SOL     OW30610   0.388   3.750   6.204
 9904SOL    HW130611   0.436   3.730   6.118
 9904SOL    HW230612   0.290   3.764   6.185
 9905SOL     OW30613   1.619   0.403   6.504
 9905SOL    HW130614   1.555   0.480   6.502
 9905SOL    HW230615   1.681   0.411   6.426
 9906SOL     OW30616   2.174   4.074   0.151
 9906SOL    HW130617   2.144   3.979   0.138
 9906SOL    HW230618   2.114   4.135   0.100
 9907SOL     OW30619   1.440   1.098   2.720
 9907SOL    HW130620   1.407   1.084   2.813
 9907SOL    HW230621   1.539   1.116   2.722
 9908SOL     OW30622   1.208   3.380   5.992
 9908SOL    HW130623   1.304   3.353   5.996
 9908SOL    HW230624   1.199   3.462   5.935
 9909SOL     OW30625   3.933   0.926   2.947
 9909SOL    HW130626   3.859   0.860   2.963
 9909SOL    HW230627   3.998   0.923   3.023
 9910SOL     OW30628   1.240   5.163   1.440
 9910SOL    HW130629   1.328   5.117   1.453
 9910SOL    HW230630   1.175   5.129   1.507
 9911SOL     OW30631   4.174   5.669   2.146
 9911SOL    HW130632   4.113   5.737   2.107
 9911SOL    HW230633   4.253   5.715   2.187
 9912SOL     OW30634   4.611   1.151   1.990
 9912SOL    HW130635   4.630   1.221   1.921
 9912SOL    HW230636   4.646   1.063   1.958
 9913SOL     OW30637   6.218   3.043   1.368
 9913SOL    HW130638   6.287   3.106   1.402
 9913SOL    HW230639   6.260   2.978   1.305
 9914SOL     OW30640   0.202   6.678   5.013
 9914SOL    HW130641   0.153   6.696   4.927
 9914SOL    HW230642   0.210   6.764   5.065
 9915SOL     OW30643   5.377   2.600   3.965
 9915SOL    HW130644   5.420   2.631   3.880
 9915SOL    HW230645   5.386   2.670   4.035
 9916SOL     OW30646   1.963   2.198   3.367
 9916SOL    HW130647   1.873   2.236   3.347
 9916SOL    HW230648   1.997   2.237   3.453
 9917SOL     OW30649   3.512   3.516   4.713
 9917SOL    HW130650   3.572   3.580   4.762
 9917SOL    HW230651   3.550   3.496   4.623
 9918SOL     OW30652   1.088   2.467   1.785
 9918SOL    HW130653   1.009   2.526   1.768
 9918SOL    HW230654   1.171   2.524   1.794
 9919SOL     OW30655   2.449   5.972   2.051
 9919SOL    HW130656   2.457   6.053   2.109
 9919SOL    HW230657   2.364   5.976   1.999
 9920SOL     OW30658   4.211   0.039   2.819
 9920SOL    HW130659   4.193   0.133   2.790
 9920SOL    HW230660   4.183   6.996   2.747
 9921SOL     OW30661   4.625   0.011   4.678
 9921SOL    HW130662   4.604   0.056   4.764
 9921SOL    HW230663   4.724   0.011   4.664
 9922SOL     OW30664   4.794   4.505   1.008
 9922SOL    HW130665   4.835   4.421   1.043
 9922SOL    HW230666   4.775   4.495   0.911
 9923SOL     OW30667   6.506   3.205   0.212
 9923SOL    HW130668   6.506   3.283   0.149
 9923SOL    HW230669   6.483   3.122   0.162
 9924SOL     OW30670   4.533   1.759   3.407
 9924SOL    HW130671   4.567   1.806   3.326
 9924SOL    HW230672   4.436   1.737   3.394
 9925SOL     OW30673   1.415   4.870   3.500
 9925SOL    HW130674   1.440   4.794   3.441
 9925SOL    HW230675   1.383   4.836   3.588
 9926SOL     OW30676   3.629   2.659   0.641
 9926SOL    HW130677   3.600   2.622   0.730
 9926SOL    HW230678   3.723   2.691   0.648
 9927SOL     OW30679   0.866   1.571   1.268
 9927SOL    HW130680   0.840   1.530   1.356
 9927SOL    HW230681   0.961   1.601   1.272
 9928SOL     OW30682   5.004   3.807   3.044
 9928SOL    HW130683   5.001   3.790   2.945
 9928SOL    HW230684   4.986   3.722   3.093
 9929SOL     OW30685   2.996   3.885   4.574
 9929SOL    HW130686   3.021   3.887   4.477
 9929SOL    HW230687   2.932   3.809   4.591
 9930SOL     OW30688   1.050   0.507   6.145
 9930SOL    HW130689   1.147   0.516   6.164
 9930SOL    HW230690   1.028   0.412   6.124
 9931SOL     OW30691   6.709   5.538   3.689
 9931SOL    HW130692   6.667   5.448   3.678
 9931SOL    HW230693   6.638   5.608   3.688
 9932SOL     OW30694   2.336   1.905   6.137
 9932SOL    HW130695   2.315   2.001   6.155
 9932SOL    HW230696   2.281   1.847   6.196
 9933SOL     OW30697   1.856   0.939   4.087
 9933SOL    HW130698   1.915   0.867   4.051
 9933SOL    HW230699   1.760   0.912   4.076
 9934SOL     OW30700   6.357   1.724   0.096
 9934SOL    HW130701   6.347   1.701   7.019
 9934SOL    HW230702   6.300   1.803   0.117
 9935SOL     OW30703   3.419   0.886   0.806
 9935SOL    HW130704   3.443   0.937   0.723
 9935SOL    HW230705   3.326   0.911   0.834
 9936SOL     OW30706   6.620   5.181   0.775
 9936SOL    HW130707   6.658   5.093   0.803
 9936SOL    HW230708   6.547   5.166   0.709
 9937SOL     OW30709   1.284   1.267   2.580
 9937SOL    HW130710   1.225   1.204   2.529
 9937SOL    HW230711   1.362   1.217   2.618
 9938SOL     OW30712   5.827   6.206   4.466
 9938SOL    HW130713   5.743   6.224   4.413
 9938SOL    HW230714   5.862   6.292   4.503
 9939SOL     OW30715   2.770   2.866   0.571
 9939SOL    HW130716   2.686   2.908   0.536
 9939SOL    HW230717   2.747   2.801   0.643
 9940SOL     OW30718   1.252   0.371   2.486
 9940SOL    HW130719   1.184   0.353   2.416
 9940SOL    HW230720   1.227   0.454   2.536
 9941SOL     OW30721   2.676   5.369   5.583
 9941SOL    HW130722   2.697   5.408   5.673
 9941SOL    HW230723   2.586   5.402   5.553
 9942SOL     OW30724   4.649   5.732   2.171
 9942SOL    HW130725   4.631   5.793   2.094
 9942SOL    HW230726   4.589   5.652   2.166
 9943SOL     OW30727   1.101   4.202   6.802
 9943SOL    HW130728   1.166   4.274   6.826
 9943SOL    HW230729   1.068   4.217   6.709
 9944SOL     OW30730   0.461   4.748   6.264
 9944SOL    HW130731   0.408   4.779   6.185
 9944SOL    HW230732   0.546   4.705   6.233
 9945SOL     OW30733   5.366   4.378   6.455
 9945SOL    HW130734   5.366   4.364   6.554
 9945SOL    HW230735   5.422   4.458   6.433
 9946SOL     OW30736   6.279   0.195   3.233
 9946SOL    HW130737   6.282   0.178   3.331
 9946SOL    HW230738   6.248   0.112   3.186
 9947SOL     OW30739   3.070   1.744   4.522
 9947SOL    HW130740   3.049   1.699   4.435
 9947SOL    HW230741   3.154   1.705   4.560
 9948SOL     OW30742   6.838   5.542   5.137
 9948SOL    HW130743   6.758   5.496   5.097
 9948SOL    HW230744   6.846   5.518   5.233
 9949SOL     OW30745   0.197   5.092   3.380
 9949SOL    HW130746   0.253   5.149   3.320
 9949SOL    HW230747   0.191   5.000   3.342
 9950SOL     OW30748   0.202   5.929   6.936
 9950SOL    HW130749   0.161   5.961   6.851
 9950SOL    HW230750   0.180   5.833   6.951
 9951SOL     OW30751   1.693   2.394   3.306
 9951SOL    HW130752   1.609   2.348   3.276
 9951SOL    HW230753   1.689   2.411   3.404
 9952SOL     OW30754   1.649   3.804   0.718
 9952SOL    HW130755   1.653   3.883   0.657
 9952SOL    HW230756   1.618   3.833   0.808
 9953SOL     OW30757   5.683   2.595   4.162
 9953SOL    HW130758   5.588   2.625   4.167
 9953SOL    HW230759   5.713   2.595   4.066
 9954SOL     OW30760   1.047   0.238   4.432
 9954SOL    HW130761   1.106   0.185   4.493
 9954SOL    HW230762   1.096   0.320   4.401
 9955SOL     OW30763   3.597   3.202   6.718
 9955SOL    HW130764   3.639   3.256   6.791
 9955SOL    HW230765   3.623   3.107   6.728
 9956SOL     OW30766   0.603   3.848   3.117
 9956SOL    HW130767   0.684   3.876   3.067
 9956SOL    HW230768   0.534   3.814   3.053
 9957SOL     OW30769   6.072   0.551   2.608
 9957SOL    HW130770   6.114   0.492   2.677
 9957SOL    HW230771   5.973   0.539   2.610
 9958SOL     OW30772   2.682   6.079   6.469
 9958SOL    HW130773   2.605   6.114   6.415
 9958SOL    HW230774   2.674   5.980   6.479
 9959SOL     OW30775   4.109   3.616   3.200
 9959SOL    HW130776   4.181   3.572   3.146
 9959SOL    HW230777   4.109   3.714   3.182
 9960SOL     OW30778   0.749   6.347   2.224
 9960SOL    HW130779   0.790   6.422   2.172
 9960SOL    HW230780   0.723   6.273   2.161
 9961SOL     OW30781   1.771   5.116   3.266
 9961SOL    HW130782   1.690   5.063   3.238
 9961SOL    HW230783   1.796   5.091   3.359
 9962SOL     OW30784   4.198   0.590   2.399
 9962SOL    HW130785   4.129   0.522   2.373
 9962SOL    HW230786   4.156   0.658   2.460
 9963SOL     OW30787   2.603   2.667   5.722
 9963SOL    HW130788   2.520   2.653   5.776
 9963SOL    HW230789   2.628   2.581   5.678
 9964SOL     OW30790   4.341   5.097   6.099
 9964SOL    HW130791   4.299   5.031   6.162
 9964SOL    HW230792   4.269   5.147   6.050
 9965SOL     OW30793   3.679   4.999   5.094
 9965SOL    HW130794   3.615   4.972   5.022
 9965SOL    HW230795   3.648   5.084   5.137
 9966SOL     OW30796   2.258   5.404   1.973
 9966SOL    HW130797   2.353   5.415   1.943
 9966SOL    HW230798   2.233   5.308   1.969
 9967SOL     OW30799   4.916   5.372   2.104
 9967SOL    HW130800   4.867   5.412   2.181
 9967SOL    HW230801   4.915   5.435   2.027
 9968SOL     OW30802   3.230   5.651   6.655
 9968SOL    HW130803   3.193   5.669   6.746
 9968SOL    HW230804   3.323   5.615   6.663
 9969SOL     OW30805   1.070   3.184   3.926
 9969SOL    HW130806   1.068   3.099   3.979
 9969SOL    HW230807   0.977   3.211   3.901
 9970SOL     OW30808   6.684   4.213   2.310
 9970SOL    HW130809   6.635   4.205   2.223
 9970SOL    HW230810   6.734   4.300   2.313
 9971SOL     OW30811   2.311   4.412   0.376
 9971SOL    HW130812   2.383   4.477   0.402
 9971SOL    HW230813   2.282   4.431   0.282
 9972SOL     OW30814   3.709   4.331   0.741
 9972SOL    HW130815   3.686   4.234   0.733
 9972SOL    HW230816   3.653   4.384   0.678
 9973SOL     OW30817   4.224   1.607   4.863
 9973SOL    HW130818   4.234   1.516   4.823
 9973SOL    HW230819   4.190   1.671   4.794
 9974SOL     OW30820   6.639   3.804   3.058
 9974SOL    HW130821   6.598   3.855   2.982
 9974SOL    HW230822   6.737   3.793   3.041
 9975SOL     OW30823   6.900   4.632   6.792
 9975SOL    HW130824   6.883   4.717   6.841
 9975SOL    HW230825   6.874   4.555   6.850
 9976SOL     OW30826   6.506   4.869   5.485
 9976SOL    HW130827   6.406   4.874   5.484
 9976SOL    HW230828   6.543   4.939   5.424
 9977SOL     OW30829   6.727   4.827   5.986
 9977SOL    HW130830   6.655   4.811   5.918
 9977SOL    HW230831   6.698   4.789   6.074
 9978SOL     OW30832   6.264   1.235   4.421
 9978SOL    HW130833   6.200   1.309   4.402
 9978SOL    HW230834   6.214   1.151   4.442
 9979SOL     OW30835   6.965   4.727   6.310
 9979SOL    HW130836   0.020   4.737   6.375
 9979SOL    HW230837   6.989   4.658   6.241
 9980SOL     OW30838   1.641   0.790   6.881
 9980SOL    HW130839   1.627   0.694   6.858
 9980SOL    HW230840   1.691   0.835   6.807
 9981SOL     OW30841   2.286   1.956   0.818
 9981SOL    HW130842   2.273   1.866   0.860
 9981SOL    HW230843   2.218   2.020   0.853
 9982SOL     OW30844   1.204   1.759   3.317
 9982SOL    HW130845   1.136   1.715   3.377
 9982SOL    HW230846   1.192   1.726   3.223
 9983SOL     OW30847   1.013   1.167   1.461
 9983SOL    HW130848   0.939   1.139   1.400
 9983SOL    HW230849   1.094   1.112   1.442
 9984SOL     OW30850   0.449   0.399   0.759
 9984SOL    HW130851   0.381   0.455   0.712
 9984SOL    HW230852   0.487   0.332   0.695
 9985SOL     OW30853   3.382   0.227   1.191
 9985SOL    HW130854   3.481   0.227   1.202
 9985SOL    HW230855   3.341   0.162   1.255
 9986SOL     OW30856   4.862   4.222   6.380
 9986SOL    HW130857   4.828   4.235   6.473
 9986SOL    HW230858   4.864   4.125   6.358
 9987SOL     OW30859   5.807   2.219   2.275
 9987SOL    HW130860   5.797   2.161   2.355
 9987SOL    HW230861   5.889   2.192   2.224
 9988SOL     OW30862   7.002   5.193   4.796
 9988SOL    HW130863   0.007   5.140   4.877
 9988SOL    HW230864   6.915   5.239   4.813
 9989SOL     OW30865   5.500   3.427   2.987
 9989SOL    HW130866   5.401   3.423   2.999
 9989SOL    HW230867   5.536   3.334   2.980
 9990SOL     OW30868   2.449   6.929   3.014
 9990SOL    HW130869   2.362   6.926   3.063
 9990SOL    HW230870   2.464   6.843   2.966
 9991SOL     OW30871   1.192   3.053   5.093
 9991SOL    HW130872   1.103   3.078   5.130
 9991SOL    HW230873   1.192   3.066   4.994
 9992SOL     OW30874   4.061   3.356   0.359
 9992SOL    HW130875   4.101   3.272   0.323
 9992SOL    HW230876   4.110   3.435   0.321
 9993SOL     OW30877   4.053   6.261   2.526
 9993SOL    HW130878   4.031   6.167   2.500
 9993SOL    HW230879   3.971   6.307   2.559
 9994SOL     OW30880   6.645   4.194   4.079
 9994SOL    HW130881   6.657   4.103   4.040
 9994SOL    HW230882   6.726   4.250   4.058
 9995SOL     OW30883   3.371   7.008   3.107
 9995SOL    HW130884   3.446   0.034   3.153
 9995SOL    HW230885   3.389   7.004   3.008
 9996SOL     OW30886   2.975   2.686   1.074
 9996SOL    HW130887   2.911   2.739   1.019
 9996SOL    HW230888   3.010   2.609   1.020
 9997SOL     OW30889   4.779   1.586   1.181
 9997SOL    HW130890   4.746   1.599   1.087
 9997SOL    HW230891   4.727   1.645   1.242
 9998SOL     OW30892   5.707   3.434   2.674
 9998SOL    HW130893   5.766   3.369   2.626
 9998SOL    HW230894   5.643   3.475   2.610
 9999SOL     OW30895   6.639   5.378   5.105
 9999SOL    HW130896   6.546   5.402   5.134
 9999SOL    HW230897   6.686   5.329   5.178
10000SOL     OW30898   6.150   1.656   6.782
10000SOL    HW130899   6.072   1.716   6.764
10000SOL    HW230900   6.203   1.644   6.698
10001SOL     OW30901   5.132   0.471   1.819
10001SOL    HW130902   5.160   0.521   1.737
10001SOL    HW230903   5.052   0.516   1.860
10002SOL     OW30904   1.303   1.284   1.270
10002SOL    HW130905   1.246   1.291   1.188
10002SOL    HW230906   1.338   1.375   1.294
10003SOL     OW30907   3.834   2.165   2.963
10003SOL    HW130908   3.737   2.185   2.950
10003SOL    HW230909   3.865   2.102   2.892
10004SOL     OW30910   5.672   2.872   4.889
10004SOL    HW130911   5.667   2.953   4.830
10004SOL    HW230912   5.597   2.810   4.867
10005SOL     OW30913   4.443   5.380   3.145
10005SOL    HW130914   4.371   5.319   3.176
10005SOL    HW230915   4.525   5.327   3.122
10006SOL     OW30916   4.898   1.103   4.830
10006SOL    HW130917   4.845   1.036   4.779
10006SOL    HW230918   4.967   1.144   4.770
10007SOL     OW30919   1.072   4.170   5.168
10007SOL    HW130920   1.095   4.086   5.119
10007SOL    HW230921   1.128   4.245   5.132
10008SOL     OW30922   4.299   1.001   3.551
10008SOL    HW130923   4.363   1.071   3.518
10008SOL    HW230924   4.343   0.946   3.622
10009SOL     OW30925   1.583   3.681   2.389
10009SOL    HW130926   1.666   3.660   2.338
10009SOL    HW230927   1.592   3.770   2.434
10010SOL     OW30928   2.230   6.621   0.183
10010SOL    HW130929   2.144   6.604   0.231
10010SOL    HW230930   2.253   6.541   0.127
10011SOL     OW30931   0.842   3.307   5.973
10011SOL    HW130932   0.811   3.342   6.061
10011SOL    HW230933   0.853   3.208   5.978
10012SOL     OW30934   4.929   6.972   2.514
10012SOL    HW130935   4.869   6.897   2.485
10012SOL    HW230936   4.905   0.035   2.465
10013SOL     OW30937   2.219   1.943   4.951
10013SOL    HW130938   2.243   1.921   4.856
10013SOL    HW230939   2.227   2.042   4.965
10014SOL     OW30940   0.062   1.465   1.208
10014SOL    HW130941   0.146   1.515   1.231
10014SOL    HW230942   0.074   1.368   1.229
10015SOL     OW30943   3.440   4.563   0.672
10015SOL    HW130944   3.472   4.611   0.755
10015SOL    HW230945   3.360   4.610   0.635
10016SOL     OW30946   2.002   6.771   4.991
10016SOL    HW130947   1.946   6.688   4.983
10016SOL    HW230948   1.977   6.819   5.075
10017SOL     OW30949   2.211   1.759   2.532
10017SOL    HW130950   2.207   1.716   2.623
10017SOL    HW230951   2.301   1.799   2.519
10018SOL     OW30952   6.050   5.287   6.053
10018SOL    HW130953   6.131   5.257   6.001
10018SOL    HW230954   6.073   5.369   6.105
10019SOL     OW30955   0.556   2.396   3.405
10019SOL    HW130956   0.645   2.384   3.450
10019SOL    HW230957   0.484   2.395   3.474
10020SOL     OW30958   0.381   1.303   0.952
10020SOL    HW130959   0.381   1.251   0.866
10020SOL    HW230960   0.286   1.319   0.980
10021SOL     OW30961   1.223   2.671   2.079
10021SOL    HW130962   1.203   2.600   2.146
10021SOL    HW230963   1.138   2.712   2.046
10022SOL     OW30964   3.723   6.866   0.960
10022SOL    HW130965   3.818   6.842   0.937
10022SOL    HW230966   3.721   6.912   1.048
10023SOL     OW30967   1.979   5.535   5.592
10023SOL    HW130968   2.078   5.527   5.608
10023SOL    HW230969   1.936   5.577   5.672
10024SOL     OW30970   2.249   6.483   2.000
10024SOL    HW130971   2.154   6.513   1.991
10024SOL    HW230972   2.304   6.523   1.926
10025SOL     OW30973   1.364   1.951   1.185
10025SOL    HW130974   1.335   1.964   1.280
10025SOL    HW230975   1.293   1.901   1.135
10026SOL     OW30976   4.222   6.208   3.490
10026SOL    HW130977   4.202   6.301   3.520
10026SOL    HW230978   4.201   6.200   3.392
10027SOL     OW30979   0.961   5.014   4.946
10027SOL    HW130980   1.012   4.962   5.016
10027SOL    HW230981   0.973   4.969   4.857
10028SOL     OW30982   1.381   2.107   1.949
10028SOL    HW130983   1.371   2.012   1.922
10028SOL    HW230984   1.477   2.127   1.969
10029SOL     OW30985   2.767   1.748   3.956
10029SOL    HW130986   2.796   1.740   4.051
10029SOL    HW230987   2.682   1.800   3.951
10030SOL     OW30988   2.362   6.868   4.506
10030SOL    HW130989   2.371   6.768   4.514
10030SOL    HW230990   2.342   6.892   4.411
10031SOL     OW30991   5.780   4.465   3.704
10031SOL    HW130992   5.843   4.531   3.663
10031SOL    HW230993   5.829   4.405   3.767
10032SOL     OW30994   3.759   0.666   5.158
10032SOL    HW130995   3.667   0.652   5.123
10032SOL    HW230996   3.773   0.763   5.179
10033SOL     OW30997   4.742   2.281   3.965
10033SOL    HW130998   4.744   2.379   3.988
10033SOL    HW230999   4.801   2.264   3.887
10034SOL     OW31000   3.773   0.027   4.007
10034SOL    HW131001   3.804   0.063   3.920
10034SOL    HW231002   3.777   6.947   4.005
10035SOL     OW31003   0.507   4.389   2.100
10035SOL    HW131004   0.507   4.467   2.162
10035SOL    HW231005   0.471   4.417   2.011
10036SOL     OW31006   5.982   1.230   1.158
10036SOL    HW131007   5.933   1.248   1.244
10036SOL    HW231008   5.987   1.314   1.105
10037SOL     OW31009   6.546   1.660   0.983
10037SOL    HW131010   6.626   1.652   0.923
10037SOL    HW231011   6.535   1.755   1.012
10038SOL     OW31012   4.027   1.367   0.020
10038SOL    HW131013   3.965   1.310   6.986
10038SOL    HW231014   4.034   1.457   6.999
10039SOL     OW31015   3.660   0.299   4.474
10039SOL    HW131016   3.563   0.318   4.456
10039SOL    HW231017   3.683   0.327   4.566
10040SOL     OW31018   4.204   5.670   6.057
10040SOL    HW131019   4.252   5.618   6.128
10040SOL    HW231020   4.261   5.675   5.975
10041SOL     OW31021   4.249   5.961   6.614
10041SOL    HW131022   4.224   6.004   6.700
10041SOL    HW231023   4.348   5.964   6.602
10042SOL     OW31024   0.859   1.614   4.164
10042SOL    HW131025   0.905   1.619   4.075
10042SOL    HW231026   0.920   1.650   4.234
10043SOL     OW31027   6.282   1.866   4.882
10043SOL    HW131028   6.319   1.941   4.827
10043SOL    HW231029   6.343   1.848   4.959
10044SOL     OW31030   3.456   1.143   4.796
10044SOL    HW131031   3.404   1.228   4.786
10044SOL    HW231032   3.554   1.164   4.792
10045SOL     OW31033   4.617   6.959   4.017
10045SOL    HW131034   4.549   6.990   4.084
10045SOL    HW231035   4.611   6.859   4.008
10046SOL     OW31036   2.363   3.807   1.444
10046SOL    HW131037   2.333   3.773   1.534
10046SOL    HW231038   2.445   3.756   1.415
10047SOL     OW31039   6.741   3.732   5.474
10047SOL    HW131040   6.764   3.635   5.478
10047SOL    HW231041   6.661   3.745   5.415
10048SOL     OW31042   6.469   0.666   2.742
10048SOL    HW131043   6.469   0.634   2.647
10048SOL    HW231044   6.379   0.650   2.783
10049SOL     OW31045   0.693   0.726   6.630
10049SOL    HW131046   0.608   0.702   6.584
10049SOL    HW231047   0.722   0.651   6.689
10050SOL     OW31048   5.237   3.560   5.313
10050SOL    HW131049   5.323   3.537   5.357
10050SOL    HW231050   5.231   3.514   5.224
10051SOL     OW31051   5.607   3.123   5.653
10051SOL    HW131052   5.626   3.159   5.562
10051SOL    HW231053   5.544   3.185   5.701
10052SOL     OW31054   1.911   1.889   2.982
10052SOL    HW131055   1.986   1.917   3.042
10052SOL    HW231056   1.825   1.920   3.021
10053SOL     OW31057   4.353   5.511   2.931
10053SOL    HW131058   4.409   5.493   2.850
10053SOL    HW231059   4.398   5.474   3.012
10054SOL     OW31060   5.712   5.606   6.346
10054SOL    HW131061   5.730   5.552   6.429
10054SOL    HW231062   5.792   5.662   6.325
10055SOL     OW31063   5.553   1.617   5.033
10055SOL    HW131064   5.463   1.576   5.048
10055SOL    HW231065   5.547   1.716   5.039
10056SOL     OW31066   5.297   4.157   3.271
10056SOL    HW131067   5.352   4.107   3.338
10056SOL    HW231068   5.354   4.179   3.192
10057SOL     OW31069   4.141   2.243   5.526
10057SOL    HW131070   4.179   2.150   5.527
10057SOL    HW231071   4.151   2.283   5.617
10058SOL     OW31072   0.014   3.590   5.243
10058SOL    HW131073   0.049   3.681   5.264
10058SOL    HW231074   6.951   3.573   5.295
10059SOL     OW31075   6.821   0.697   0.600
10059SOL    HW131076   6.868   0.689   0.688
10059SOL    HW231077   6.831   0.611   0.550
10060SOL     OW31078   1.793   2.634   1.831
10060SOL    HW131079   1.717   2.623   1.896
10060SOL    HW231080   1.765   2.601   1.741
10061SOL     OW31081   4.498   0.781   4.045
10061SOL    HW131082   4.424   0.836   4.006
10061SOL    HW231083   4.541   0.727   3.972
10062SOL     OW31084   6.143   0.388   4.245
10062SOL    HW131085   6.124   0.457   4.176
10062SOL    HW231086   6.056   0.348   4.278
10063SOL     OW31087   2.457   0.983   4.015
10063SOL    HW131088   2.519   0.962   4.091
10063SOL    HW231089   2.495   1.057   3.961
10064SOL     OW31090   5.031   0.103   0.065
10064SOL    HW131091   4.966   0.039   0.106
10064SOL    HW231092   4.986   0.191   0.049
10065SOL     OW31093   3.627   0.429   2.554
10065SOL    HW131094   3.624   0.333   2.582
10065SOL    HW231095   3.642   0.487   2.634
10066SOL     OW31096   0.192   2.814   4.104
10066SOL    HW131097   0.102   2.834   4.144
10066SOL    HW231098   0.182   2.745   4.033
10067SOL     OW31099   0.252   4.243   5.103
10067SOL    HW131100   0.326   4.178   5.086
10067SOL    HW231101   0.290   4.333   5.125
10068SOL     OW31102   0.351   3.486   3.573
10068SOL    HW131103   0.335   3.388   3.588
10068SOL    HW231104   0.306   3.515   3.489
10069SOL     OW31105   2.942   5.464   2.321
10069SOL    HW131106   2.918   5.525   2.396
10069SOL    HW231107   2.916   5.505   2.234
10070SOL     OW31108   0.131   6.147   5.232
10070SOL    HW131109   0.082   6.224   5.273
10070SOL    HW231110   0.228   6.153   5.257
10071SOL     OW31111   6.599   5.862   4.785
10071SOL    HW131112   6.670   5.838   4.852
10071SOL    HW231113   6.521   5.903   4.831
10072SOL     OW31114   6.288   6.404   4.501
10072SOL    HW131115   6.269   6.311   4.468
10072SOL    HW231116   6.385   6.413   4.523
10073SOL     OW31117   6.355   5.231   4.404
10073SOL    HW131118   6.446   5.190   4.408
10073SOL    HW231119   6.339   5.287   4.485
10074SOL     OW31120   1.728   0.191   5.116
10074SOL    HW131121   1.718   0.146   5.204
10074SOL    HW231122   1.749   0.123   5.046
10075SOL     OW31123   1.430   2.556   2.465
10075SOL    HW131124   1.382   2.589   2.546
10075SOL    HW231125   1.425   2.625   2.393
10076SOL     OW31126   6.202   6.248   3.726
10076SOL    HW131127   6.146   6.183   3.776
10076SOL    HW231128   6.297   6.219   3.728
10077SOL     OW31129   4.403   3.233   6.841
10077SOL    HW131130   4.447   3.286   6.913
10077SOL    HW231131   4.442   3.141   6.838
10078SOL     OW31132   0.402   5.723   3.401
10078SOL    HW131133   0.470   5.749   3.332
10078SOL    HW231134   0.317   5.774   3.385
10079SOL     OW31135   5.582   3.048   3.779
10079SOL    HW131136   5.493   3.075   3.816
10079SOL    HW231137   5.649   3.119   3.798
10080SOL     OW31138   4.153   0.317   5.543
10080SOL    HW131139   4.069   0.362   5.514
10080SOL    HW231140   4.230   0.355   5.492
10081SOL     OW31141   6.857   0.986   0.132
10081SOL    HW131142   6.895   0.916   0.192
10081SOL    HW231143   6.757   0.979   0.131
10082SOL     OW31144   6.902   5.347   1.657
10082SOL    HW131145   6.984   5.397   1.683
10082SOL    HW231146   6.883   5.276   1.724
10083SOL     OW31147   3.920   0.229   3.486
10083SOL    HW131148   3.965   0.140   3.492
10083SOL    HW231149   3.953   0.288   3.560
10084SOL     OW31150   2.194   0.597   6.288
10084SOL    HW131151   2.278   0.597   6.342
10084SOL    HW231152   2.184   0.510   6.240
10085SOL     OW31153   2.665   6.052   0.924
10085SOL    HW131154   2.595   6.010   0.866
10085SOL    HW231155   2.746   5.994   0.927
10086SOL     OW31156   5.215   6.208   1.956
10086SOL    HW131157   5.197   6.127   2.012
10086SOL    HW231158   5.283   6.265   2.002
10087SOL     OW31159   6.588   6.171   4.124
10087SOL    HW131160   6.587   6.078   4.087
10087SOL    HW231161   6.498   6.212   4.111
10088SOL     OW31162   6.555   0.149   2.433
10088SOL    HW131163   6.634   0.100   2.397
10088SOL    HW231164   6.586   0.221   2.495
10089SOL     OW31165   2.816   1.860   3.311
10089SOL    HW131166   2.753   1.798   3.263
10089SOL    HW231167   2.878   1.901   3.245
10090SOL     OW31168   0.576   4.970   1.743
10090SOL    HW131169   0.641   4.985   1.818
10090SOL    HW231170   0.489   5.013   1.764
10091SOL     OW31171   6.928   5.106   6.643
10091SOL    HW131172   6.920   5.091   6.544
10091SOL    HW231173   6.966   5.197   6.659
10092SOL     OW31174   2.605   2.924   5.623
10092SOL    HW131175   2.627   2.834   5.660
10092SOL    HW231176   2.627   2.994   5.691
10093SOL     OW31177   4.778   3.335   5.820
10093SOL    HW131178   4.855   3.382   5.777
10093SOL    HW231179   4.698   3.394   5.817
10094SOL     OW31180   3.315   5.637   1.172
10094SOL    HW131181   3.276   5.720   1.212
10094SOL    HW231182   3.242   5.570   1.157
10095SOL     OW31183   5.702   1.898   4.182
10095SOL    HW131184   5.716   1.872   4.278
10095SOL    HW231185   5.694   1.815   4.126
10096SOL     OW31186   3.959   5.699   3.247
10096SOL    HW131187   3.940   5.724   3.342
10096SOL    HW231188   3.901   5.754   3.186
10097SOL     OW31189   1.340   2.143   6.987
10097SOL    HW131190   1.411   2.207   7.016
10097SOL    HW231191   1.275   2.130   0.042
10098SOL     OW31192   3.335   0.609   5.280
10098SOL    HW131193   3.241   0.613   5.312
10098SOL    HW231194   3.360   0.514   5.263
10099SOL     OW31195   0.855   5.066   1.488
10099SOL    HW131196   0.889   5.073   1.394
10099SOL    HW231197   0.795   4.986   1.496
10100SOL     OW31198   4.792   5.909   5.875
10100SOL    HW131199   4.781   5.810   5.882
10100SOL    HW231200   4.703   5.951   5.855
10101SOL     OW31201   6.353   2.992   1.748
10101SOL    HW131202   6.387   3.058   1.681
10101SOL    HW231203   6.312   3.040   1.825
10102SOL     OW31204   0.004   0.844   2.067
10102SOL    HW131205   6.994   0.939   2.081
10102SOL    HW231206   6.963   0.782   2.117
10103SOL     OW31207   3.065   0.215   5.665
10103SOL    HW131208   3.029   0.246   5.753
10103SOL    HW231209   3.148   0.162   5.680
10104SOL     OW31210   0.940   2.119   4.876
10104SOL    HW131211   0.980   2.187   4.937
10104SOL    HW231212   0.888   2.052   4.929
10105SOL     OW31213   1.742   0.763   6.595
10105SOL    HW131214   1.832   0.727   6.570
10105SOL    HW231215   1.676   0.738   6.525
10106SOL     OW31216   4.011   6.580   0.973
10106SOL    HW131217   4.067   6.514   1.023
10106SOL    HW231218   3.922   6.540   0.954
10107SOL     OW31219   4.887   1.490   5.179
10107SOL    HW131220   4.829   1.415   5.148
10107SOL    HW231221   4.839   1.577   5.163
10108SOL     OW31222   0.019   1.104   0.482
10108SOL    HW131223   0.106   1.126   0.440
10108SOL    HW231224   6.966   1.151   0.433
10109SOL     OW31225   6.660   1.192   0.049
10109SOL    HW131226   6.664   1.092   0.045
10109SOL    HW231227   6.571   1.220   0.085
10110SOL     OW31228   5.106   4.929   4.214
10110SOL    HW131229   5.107   4.830   4.227
10110SOL    HW231230   5.049   4.971   4.285
10111SOL     OW31231   5.832   3.610   4.078
10111SOL    HW131232   5.928   3.610   4.109
10111SOL    HW231233   5.825   3.557   3.994
10112SOL     OW31234   5.991   3.745   3.684
10112SOL    HW131235   5.899   3.763   3.651
10112SOL    HW231236   6.044   3.697   3.614
10113SOL     OW31237   4.058   6.929   0.022
10113SOL    HW131238   4.063   6.895   0.116
10113SOL    HW231239   3.982   6.886   6.994
10114SOL     OW31240   4.064   2.244   2.360
10114SOL    HW131241   4.130   2.282   2.295
10114SOL    HW231242   3.995   2.193   2.309
10115SOL     OW31243   4.218   1.264   5.353
10115SOL    HW131244   4.143   1.298   5.410
10115SOL    HW231245   4.265   1.190   5.400
10116SOL     OW31246   1.300   0.671   0.402
10116SOL    HW131247   1.273   0.713   0.489
10116SOL    HW231248   1.284   0.736   0.328
10117SOL     OW31249   6.725   6.174   6.207
10117SOL    HW131250   6.800   6.233   6.238
10117SOL    HW231251   6.738   6.082   6.244
10118SOL     OW31252   1.968   4.679   3.337
10118SOL    HW131253   1.900   4.725   3.394
10118SOL    HW231254   1.930   4.667   3.245
10119SOL     OW31255   6.775   5.336   4.739
10119SOL    HW131256   6.736   5.333   4.646
10119SOL    HW231257   6.833   5.416   4.748
10120SOL     OW31258   2.146   3.193   4.528
10120SOL    HW131259   2.153   3.220   4.625
10120SOL    HW231260   2.158   3.274   4.470
10121SOL     OW31261   5.646   4.508   6.679
10121SOL    HW131262   5.565   4.466   6.719
10121SOL    HW231263   5.635   4.516   6.580
10122SOL     OW31264   5.322   2.835   3.248
10122SOL    HW131265   5.421   2.843   3.241
10122SOL    HW231266   5.297   2.796   3.336
10123SOL     OW31267   5.668   5.824   0.364
10123SOL    HW131268   5.607   5.752   0.395
10123SOL    HW231269   5.614   5.906   0.341
10124SOL     OW31270   1.501   5.134   0.466
10124SOL    HW131271   1.529   5.095   0.554
10124SOL    HW231272   1.580   5.176   0.421
10125SOL     OW31273   2.169   1.717   0.911
10125SOL    HW131274   2.083   1.767   0.919
10125SOL    HW231275   2.174   1.648   0.983
10126SOL     OW31276   0.161   7.011   0.391
10126SOL    HW131277   0.177   0.013   0.295
10126SOL    HW231278   0.190   0.066   0.449
10127SOL     OW31279   2.310   4.000   0.369
10127SOL    HW131280   2.405   3.971   0.358
10127SOL    HW231281   2.283   4.056   0.290
10128SOL     OW31282   3.256   0.805   6.404
10128SOL    HW131283   3.204   0.720   6.409
10128SOL    HW231284   3.354   0.785   6.413
10129SOL     OW31285   6.560   1.640   3.108
10129SOL    HW131286   6.566   1.598   3.198
10129SOL    HW231287   6.467   1.673   3.092
10130SOL     OW31288   1.532   3.672   1.213
10130SOL    HW131289   1.543   3.769   1.236
10130SOL    HW231290   1.456   3.662   1.149
10131SOL     OW31291   1.763   6.929   4.040
10131SOL    HW131292   1.704   6.950   4.118
10131SOL    HW231293   1.752   6.832   4.016
10132SOL     OW31294   2.686   0.214   3.262
10132SOL    HW131295   2.606   0.205   3.202
10132SOL    HW231296   2.659   0.193   3.356
10133SOL     OW31297   5.027   6.307   0.882
10133SOL    HW131298   4.964   6.351   0.946
10133SOL    HW231299   5.082   6.240   0.932
10134SOL     OW31300   6.431   1.024   2.528
10134SOL    HW131301   6.348   0.973   2.552
10134SOL    HW231302   6.454   1.088   2.601
10135SOL     OW31303   4.916   2.754   4.034
10135SOL    HW131304   4.881   2.684   4.096
10135SOL    HW231305   4.861   2.837   4.043
10136SOL     OW31306   5.085   1.822   2.238
10136SOL    HW131307   5.102   1.743   2.296
10136SOL    HW231308   4.988   1.847   2.243
10137SOL     OW31309   0.401   3.967   4.458
10137SOL    HW131310   0.304   3.980   4.481
10137SOL    HW231311   0.447   3.925   4.536
10138SOL     OW31312   5.214   3.844   0.491
10138SOL    HW131313   5.303   3.869   0.452
10138SOL    HW231314   5.145   3.844   0.419
10139SOL     OW31315   3.103   3.151   3.785
10139SOL    HW131316   3.126   3.245   3.813
10139SOL    HW231317   3.078   3.151   3.688
10140SOL     OW31318   0.177   6.025   0.159
10140SOL    HW131319   0.165   5.980   0.071
10140SOL    HW231320   0.203   6.121   0.144
10141SOL     OW31321   4.391   0.937   5.202
10141SOL    HW131322   4.421   0.992   5.280
10141SOL    HW231323   4.291   0.931   5.202
10142SOL     OW31324   6.082   6.464   5.821
10142SOL    HW131325   6.062   6.518   5.740
10142SOL    HW231326   6.112   6.524   5.895
10143SOL     OW31327   5.800   1.801   0.815
10143SOL    HW131328   5.725   1.787   0.750
10143SOL    HW231329   5.765   1.843   0.898
10144SOL     OW31330   3.962   0.085   6.235
10144SOL    HW131331   3.960   0.031   6.151
10144SOL    HW231332   4.052   0.128   6.245
10145SOL     OW31333   3.397   5.715   2.754
10145SOL    HW131334   3.397   5.641   2.687
10145SOL    HW231335   3.337   5.691   2.830
10146SOL     OW31336   5.463   4.362   4.562
10146SOL    HW131337   5.439   4.434   4.627
10146SOL    HW231338   5.561   4.364   4.544
10147SOL     OW31339   4.902   3.920   6.293
10147SOL    HW131340   4.994   3.924   6.331
10147SOL    HW231341   4.897   3.845   6.227
10148SOL     OW31342   5.644   4.990   6.727
10148SOL    HW131343   5.653   4.915   6.793
10148SOL    HW231344   5.555   5.034   6.738
10149SOL     OW31345   5.563   3.634   1.360
10149SOL    HW131346   5.503   3.631   1.281
10149SOL    HW231347   5.534   3.566   1.427
10150SOL     OW31348   3.888   2.853   1.577
10150SOL    HW131349   3.883   2.941   1.530
10150SOL    HW231350   3.797   2.828   1.612
10151SOL     OW31351   0.950   6.733   6.944
10151SOL    HW131352   0.951   6.644   6.989
10151SOL    HW231353   0.946   6.720   6.845
10152SOL     OW31354   0.194   6.274   3.661
10152SOL    HW131355   0.271   6.214   3.683
10152SOL    HW231356   0.219   6.369   3.680
10153SOL     OW31357   4.434   6.122   3.609
10153SOL    HW131358   4.506   6.179   3.570
10153SOL    HW231359   4.345   6.156   3.578
10154SOL     OW31360   3.734   6.310   4.698
10154SOL    HW131361   3.829   6.286   4.718
10154SOL    HW231362   3.677   6.295   4.779
10155SOL     OW31363   4.862   2.093   6.388
10155SOL    HW131364   4.856   2.020   6.319
10155SOL    HW231365   4.942   2.076   6.446
10156SOL     OW31366   5.844   0.527   1.922
10156SOL    HW131367   5.764   0.587   1.932
10156SOL    HW231368   5.853   0.469   2.003
10157SOL     OW31369   0.265   2.229   0.602
10157SOL    HW131370   0.324   2.304   0.632
10157SOL    HW231371   0.320   2.147   0.587
10158SOL     OW31372   6.368   6.104   0.917
10158SOL    HW131373   6.424   6.050   0.979
10158SOL    HW231374   6.363   6.059   0.828
10159SOL     OW31375   3.486   2.508   1.709
10159SOL    HW131376   3.546   2.467   1.778
10159SOL    HW231377   3.401   2.457   1.704
10160SOL     OW31378   1.320   3.105   3.230
10160SOL    HW131379   1.289   3.118   3.324
10160SOL    HW231380   1.397   3.041   3.229
10161SOL     OW31381   3.272   4.358   0.244
10161SOL    HW131382   3.226   4.301   0.177
10161SOL    HW231383   3.231   4.344   0.334
10162SOL     OW31384   3.297   5.365   0.530
10162SOL    HW131385   3.382   5.333   0.572
10162SOL    HW231386   3.226   5.373   0.600
10163SOL     OW31387   0.239   3.960   0.137
10163SOL    HW131388   0.237   3.870   0.180
10163SOL    HW231389   0.306   4.018   0.184
10164SOL     OW31390   6.201   3.839   5.078
10164SOL    HW131391   6.219   3.815   4.983
10164SOL    HW231392   6.183   3.937   5.085
10165SOL     OW31393   6.599   2.027   3.293
10165SOL    HW131394   6.541   2.030   3.212
10165SOL    HW231395   6.693   2.009   3.266
10166SOL     OW31396   2.492   1.687   1.538
10166SOL    HW131397   2.532   1.743   1.611
10166SOL    HW231398   2.523   1.721   1.449
10167SOL     OW31399   0.550   5.281   0.520
10167SOL    HW131400   0.536   5.301   0.423
10167SOL    HW231401   0.505   5.351   0.576
10168SOL     OW31402   6.820   2.160   6.048
10168SOL    HW131403   6.749   2.089   6.041
10168SOL    HW231404   6.788   2.243   6.003
10169SOL     OW31405   0.456   4.252   3.999
10169SOL    HW131406   0.370   4.203   4.014
10169SOL    HW231407   0.530   4.186   3.984
10170SOL     OW31408   6.636   4.931   6.375
10170SOL    HW131409   6.698   4.953   6.450
10170SOL    HW231410   6.639   4.832   6.357
10171SOL     OW31411   0.740   2.923   5.101
10171SOL    HW131412   0.837   2.914   5.124
10171SOL    HW231413   0.714   2.852   5.036
10172SOL     OW31414   0.945   6.136   4.187
10172SOL    HW131415   0.980   6.095   4.271
10172SOL    HW231416   0.845   6.133   4.187
10173SOL     OW31417   1.858   2.680   0.696
10173SOL    HW131418   1.878   2.685   0.794
10173SOL    HW231419   1.760   2.668   0.682
10174SOL     OW31420   5.174   4.769   3.570
10174SOL    HW131421   5.217   4.684   3.540
10174SOL    HW231422   5.198   4.842   3.507
10175SOL     OW31423   4.926   2.467   3.362
10175SOL    HW131424   5.009   2.515   3.333
10175SOL    HW231425   4.924   2.376   3.320
10176SOL     OW31426   0.003   3.099   5.416
10176SOL    HW131427   0.055   3.117   5.499
10176SOL    HW231428   7.006   3.185   5.368
10177SOL     OW31429   1.797   1.012   0.721
10177SOL    HW131430   1.785   1.080   0.649
10177SOL    HW231431   1.747   0.929   0.698
10178SOL     OW31432   0.638   0.823   6.920
10178SOL    HW131433   0.649   0.806   7.018
10178SOL    HW231434   0.552   0.782   6.889
10179SOL     OW31435   0.267   2.856   6.732
10179SOL    HW131436   0.325   2.801   6.673
10179SOL    HW231437   0.185   2.804   6.756
10180SOL     OW31438   4.482   0.585   0.082
10180SOL    HW131439   4.417   0.541   0.145
10180SOL    HW231440   4.537   0.515   0.036
10181SOL     OW31441   0.294   2.567   1.229
10181SOL    HW131442   0.304   2.653   1.279
10181SOL    HW231443   0.288   2.491   1.294
10182SOL     OW31444   5.011   0.583   0.310
10182SOL    HW131445   5.098   0.577   0.360
10182SOL    HW231446   4.938   0.609   0.374
10183SOL     OW31447   5.992   2.567   5.654
10183SOL    HW131448   5.929   2.577   5.577
10183SOL    HW231449   5.969   2.634   5.725
10184SOL     OW31450   4.555   2.046   6.357
10184SOL    HW131451   4.572   2.109   6.281
10184SOL    HW231452   4.496   2.090   6.424
10185SOL     OW31453   6.098   6.522   1.924
10185SOL    HW131454   6.000   6.535   1.915
10185SOL    HW231455   6.117   6.443   1.983
10186SOL     OW31456   5.448   4.288   4.268
10186SOL    HW131457   5.453   4.337   4.355
10186SOL    HW231458   5.378   4.331   4.210
10187SOL     OW31459   0.811   4.289   6.612
10187SOL    HW131460   0.784   4.276   6.708
10187SOL    HW231461   0.872   4.215   6.584
10188SOL     OW31462   3.354   5.091   7.010
10188SOL    HW131463   3.348   5.168   0.053
10188SOL    HW231464   3.324   5.007   0.036
10189SOL     OW31465   0.581   0.900   6.346
10189SOL    HW131466   0.543   0.812   6.317
10189SOL    HW231467   0.680   0.890   6.360
10190SOL     OW31468   3.898   2.677   1.349
10190SOL    HW131469   3.894   2.734   1.431
10190SOL    HW231470   3.937   2.588   1.372
10191SOL     OW31471   4.846   5.171   6.601
10191SOL    HW131472   4.792   5.230   6.541
10191SOL    HW231473   4.787   5.101   6.642
10192SOL     OW31474   3.908   1.017   5.007
10192SOL    HW131475   3.890   1.001   4.909
10192SOL    HW231476   3.978   1.087   5.017
10193SOL     OW31477   3.116   3.559   2.715
10193SOL    HW131478   3.072   3.565   2.805
10193SOL    HW231479   3.113   3.649   2.672
10194SOL     OW31480   4.966   0.435   4.620
10194SOL    HW131481   5.012   0.487   4.692
10194SOL    HW231482   4.874   0.470   4.608
10195SOL     OW31483   6.814   6.859   0.371
10195SOL    HW131484   6.847   6.912   0.449
10195SOL    HW231485   6.809   6.762   0.397
10196SOL     OW31486   4.268   1.765   4.012
10196SOL    HW131487   4.202   1.790   4.082
10196SOL    HW231488   4.346   1.719   4.054
10197SOL     OW31489   5.039   2.407   4.106
10197SOL    HW131490   5.123   2.446   4.067
10197SOL    HW231491   5.017   2.321   4.060
10198SOL     OW31492   3.756   6.940   1.843
10198SOL    HW131493   3.848   6.901   1.838
10198SOL    HW231494   3.694   6.872   1.883
10199SOL     OW31495   0.867   1.902   0.393
10199SOL    HW131496   0.873   1.823   0.331
10199SOL    HW231497   0.899   1.984   0.346
10200SOL     OW31498   4.928   3.256   5.429
10200SOL    HW131499   4.956   3.314   5.506
10200SOL    HW231500   4.852   3.300   5.381
10201SOL     OW31501   1.060   6.471   0.505
10201SOL    HW131502   1.000   6.486   0.584
10201SOL    HW231503   1.029   6.391   0.454
10202SOL     OW31504   2.070   4.593   6.993
10202SOL    HW131505   2.121   4.512   6.963
10202SOL    HW231506   2.052   4.652   6.914
10203SOL     OW31507   0.045   2.627   2.244
10203SOL    HW131508   7.006   2.690   2.194
10203SOL    HW231509   0.067   2.549   2.186
10204SOL     OW31510   3.871   5.848   0.043
10204SOL    HW131511   3.954   5.825   7.012
10204SOL    HW231512   3.801   5.881   6.999
10205SOL     OW31513   3.203   1.131   2.456
10205SOL    HW131514   3.278   1.167   2.511
10205SOL    HW231515   3.125   1.194   2.459
10206SOL     OW31516   6.782   6.590   6.680
10206SOL    HW131517   6.765   6.513   6.741
10206SOL    HW231518   6.814   6.669   6.733
10207SOL     OW31519   2.165   1.809   6.727
10207SOL    HW131520   2.088   1.873   6.720
10207SOL    HW231521   2.142   1.725   6.677
10208SOL     OW31522   6.506   4.968   3.257
10208SOL    HW131523   6.597   5.007   3.265
10208SOL    HW231524   6.505   4.876   3.298
10209SOL     OW31525   0.081   6.879   6.317
10209SOL    HW131526   0.076   6.939   6.237
10209SOL    HW231527   0.091   6.933   6.400
10210SOL     OW31528   5.310   6.261   0.892
10210SOL    HW131529   5.295   6.357   0.871
10210SOL    HW231530   5.401   6.234   0.861
10211SOL     OW31531   4.225   6.364   4.925
10211SOL    HW131532   4.288   6.441   4.932
10211SOL    HW231533   4.264   6.284   4.970
10212SOL     OW31534   6.792   6.979   5.289
10212SOL    HW131535   6.796   0.001   5.199
10212SOL    HW231536   6.708   7.008   5.335
10213SOL     OW31537   5.366   2.999   2.459
10213SOL    HW131538   5.419   2.926   2.417
10213SOL    HW231539   5.276   3.005   2.415
10214SOL     OW31540   0.927   1.511   1.902
10214SOL    HW131541   0.939   1.520   2.000
10214SOL    HW231542   0.829   1.503   1.881
10215SOL     OW31543   3.073   3.178   3.517
10215SOL    HW131544   3.034   3.265   3.486
10215SOL    HW231545   3.143   3.148   3.453
10216SOL     OW31546   0.662   0.441   1.211
10216SOL    HW131547   0.678   0.500   1.132
10216SOL    HW231548   0.612   0.491   1.281
10217SOL     OW31549   2.133   2.396   3.284
10217SOL    HW131550   2.082   2.311   3.291
10217SOL    HW231551   2.206   2.397   3.353
10218SOL     OW31552   1.559   1.120   1.424
10218SOL    HW131553   1.522   1.103   1.516
10218SOL    HW231554   1.597   1.213   1.421
10219SOL     OW31555   0.255   2.992   2.658
10219SOL    HW131556   0.157   2.996   2.637
10219SOL    HW231557   0.274   2.909   2.710
10220SOL     OW31558   3.885   1.363   1.022
10220SOL    HW131559   3.928   1.427   1.086
10220SOL    HW231560   3.956   1.310   0.976
10221SOL     OW31561   1.829   3.641   4.776
10221SOL    HW131562   1.923   3.610   4.763
10221SOL    HW231563   1.808   3.645   4.874
10222SOL     OW31564   2.593   3.364   5.598
10222SOL    HW131565   2.672   3.303   5.606
10222SOL    HW231566   2.591   3.405   5.507
10223SOL     OW31567   2.027   6.050   6.770
10223SOL    HW131568   2.056   5.987   6.697
10223SOL    HW231569   1.928   6.063   6.764
10224SOL     OW31570   7.012   1.987   5.359
10224SOL    HW131571   0.064   1.945   5.305
10224SOL    HW231572   7.018   1.954   5.454
10225SOL     OW31573   2.091   6.267   6.006
10225SOL    HW131574   2.120   6.287   6.100
10225SOL    HW231575   2.145   6.322   5.942
10226SOL     OW31576   2.377   0.657   6.680
10226SOL    HW131577   2.333   0.672   6.768
10226SOL    HW231578   2.334   0.579   6.634
10227SOL     OW31579   5.076   4.239   0.806
10227SOL    HW131580   5.145   4.169   0.784
10227SOL    HW231581   4.986   4.204   0.780
10228SOL     OW31582   0.927   6.486   1.627
10228SOL    HW131583   1.001   6.473   1.693
10228SOL    HW231584   0.857   6.416   1.642
10229SOL     OW31585   1.375   1.727   4.071
10229SOL    HW131586   1.356   1.814   4.026
10229SOL    HW231587   1.470   1.701   4.055
10230SOL     OW31588   6.448   6.644   2.622
10230SOL    HW131589   6.515   6.703   2.578
10230SOL    HW231590   6.486   6.553   2.634
10231SOL     OW31591   6.522   5.266   5.572
10231SOL    HW131592   6.597   5.260   5.637
10231SOL    HW231593   6.522   5.185   5.513
10232SOL     OW31594   2.605   0.989   4.451
10232SOL    HW131595   2.515   0.946   4.448
10232SOL    HW231596   2.617   1.035   4.539
10233SOL     OW31597   4.715   3.366   5.301
10233SOL    HW131598   4.648   3.293   5.288
10233SOL    HW231599   4.690   3.445   5.246
10234SOL     OW31600   5.736   0.105   6.882
10234SOL    HW131601   5.669   0.144   6.819
10234SOL    HW231602   5.690   0.072   6.964
10235SOL     OW31603   3.420   2.684   0.409
10235SOL    HW131604   3.407   2.776   0.370
10235SOL    HW231605   3.477   2.690   0.491
10236SOL     OW31606   2.127   1.057   1.657
10236SOL    HW131607   2.217   1.038   1.618
10236SOL    HW231608   2.103   1.152   1.640
10237SOL     OW31609   6.859   4.376   0.482
10237SOL    HW131610   6.802   4.417   0.411
10237SOL    HW231611   6.917   4.305   0.442
10238SOL     OW31612   3.548   4.072   2.485
10238SOL    HW131613   3.605   4.093   2.564
10238SOL    HW231614   3.526   4.156   2.436
10239SOL     OW31615   1.968   4.523   5.825
10239SOL    HW131616   2.035   4.466   5.872
10239SOL    HW231617   2.015   4.585   5.763
10240SOL     OW31618   1.550   4.611   2.467
10240SOL    HW131619   1.630   4.603   2.408
10240SOL    HW231620   1.467   4.601   2.412
10241SOL     OW31621   6.554   0.162   2.782
10241SOL    HW131622   6.594   0.172   2.873
10241SOL    HW231623   6.497   0.080   2.780
10242SOL     OW31624   7.002   1.617   1.608
10242SOL    HW131625   6.910   1.586   1.585
10242SOL    HW231626   0.033   1.632   1.523
10243SOL     OW31627   1.381   4.917   1.731
10243SOL    HW131628   1.379   4.973   1.815
10243SOL    HW231629   1.470   4.873   1.722
10244SOL     OW31630   1.444   4.230   0.816
10244SOL    HW131631   1.403   4.221   0.907
10244SOL    HW231632   1.436   4.325   0.785
10245SOL     OW31633   2.931   5.025   0.508
10245SOL    HW131634   2.855   5.013   0.443
10245SOL    HW231635   2.908   4.979   0.594
10246SOL     OW31636   3.218   3.825   3.147
10246SOL    HW131637   3.261   3.746   3.191
10246SOL    HW231638   3.155   3.868   3.212
10247SOL     OW31639   6.627   4.649   5.404
10247SOL    HW131640   6.547   4.604   5.364
10247SOL    HW231641   6.601   4.740   5.435
10248SOL     OW31642   2.153   0.328   2.506
10248SOL    HW131643   2.247   0.347   2.535
10248SOL    HW231644   2.126   0.238   2.540
10249SOL     OW31645   3.116   0.235   6.772
10249SOL    HW131646   3.085   0.330   6.765
10249SOL    HW231647   3.142   0.215   6.867
10250SOL     OW31648   6.478   3.143   1.545
10250SOL    HW131649   6.525   3.088   1.476
10250SOL    HW231650   6.471   3.238   1.514
10251SOL     OW31651   3.107   1.154   4.798
10251SOL    HW131652   3.099   1.249   4.767
10251SOL    HW231653   3.137   1.096   4.723
10252SOL     OW31654   4.237   4.811   6.819
10252SOL    HW131655   4.270   4.860   6.738
10252SOL    HW231656   4.191   4.727   6.791
10253SOL     OW31657   2.558   5.679   0.712
10253SOL    HW131658   2.528   5.629   0.630
10253SOL    HW231659   2.640   5.636   0.749
10254SOL     OW31660   4.841   0.746   4.447
10254SOL    HW131661   4.925   0.708   4.408
10254SOL    HW231662   4.771   0.753   4.376
10255SOL     OW31663   1.662   6.542   1.053
10255SOL    HW131664   1.588   6.547   1.119
10255SOL    HW231665   1.652   6.615   0.985
10256SOL     OW31666   6.353   1.055   1.773
10256SOL    HW131667   6.363   0.982   1.840
10256SOL    HW231668   6.256   1.080   1.766
10257SOL     OW31669   2.069   5.182   4.693
10257SOL    HW131670   2.057   5.126   4.611
10257SOL    HW231671   2.164   5.214   4.697
10258SOL     OW31672   2.879   1.205   3.943
10258SOL    HW131673   2.799   1.173   3.893
10258SOL    HW231674   2.902   1.298   3.914
10259SOL     OW31675   0.687   4.454   2.846
10259SOL    HW131676   0.715   4.359   2.861
10259SOL    HW231677   0.618   4.457   2.773
10260SOL     OW31678   0.575   1.130   3.592
10260SOL    HW131679   0.660   1.147   3.642
10260SOL    HW231680   0.581   1.041   3.546
10261SOL     OW31681   6.980   6.106   3.162
10261SOL    HW131682   6.907   6.098   3.094
10261SOL    HW231683   6.998   6.016   3.202
10262SOL     OW31684   1.441   6.626   4.898
10262SOL    HW131685   1.461   6.706   4.955
10262SOL    HW231686   1.497   6.629   4.815
10263SOL     OW31687   5.304   0.709   6.067
10263SOL    HW131688   5.227   0.766   6.038
10263SOL    HW231689   5.283   0.613   6.048
10264SOL     OW31690   5.666   1.650   6.132
10264SOL    HW131691   5.571   1.680   6.129
10264SOL    HW231692   5.713   1.681   6.049
10265SOL     OW31693   2.354   2.264   3.055
10265SOL    HW131694   2.255   2.282   3.053
10265SOL    HW231695   2.397   2.304   2.975
10266SOL     OW31696   3.342   2.911   4.068
10266SOL    HW131697   3.341   2.891   4.166
10266SOL    HW231698   3.435   2.936   4.040
10267SOL     OW31699   6.712   1.934   6.530
10267SOL    HW131700   6.652   1.885   6.593
10267SOL    HW231701   6.806   1.932   6.564
10268SOL     OW31702   5.632   5.221   2.339
10268SOL    HW131703   5.646   5.139   2.394
10268SOL    HW231704   5.710   5.234   2.278
10269SOL     OW31705   0.739   3.304   6.985
10269SOL    HW131706   0.760   3.225   6.927
10269SOL    HW231707   0.640   3.310   6.996
10270SOL     OW31708   2.919   4.768   3.143
10270SOL    HW131709   2.920   4.706   3.221
10270SOL    HW231710   2.825   4.787   3.117
10271SOL     OW31711   3.512   2.353   6.868
10271SOL    HW131712   3.585   2.409   6.907
10271SOL    HW231713   3.503   2.268   6.922
10272SOL     OW31714   0.684   0.865   4.789
10272SOL    HW131715   0.686   0.921   4.706
10272SOL    HW231716   0.590   0.856   4.821
10273SOL     OW31717   3.291   5.933   2.341
10273SOL    HW131718   3.347   5.881   2.405
10273SOL    HW231719   3.195   5.930   2.371
10274SOL     OW31720   6.650   5.389   4.104
10274SOL    HW131721   6.629   5.291   4.101
10274SOL    HW231722   6.648   5.420   4.199
10275SOL     OW31723   1.080   0.178   1.862
10275SOL    HW131724   1.040   0.098   1.905
10275SOL    HW231725   1.029   0.200   1.779
10276SOL     OW31726   6.225   4.922   5.461
10276SOL    HW131727   6.174   4.914   5.375
10276SOL    HW231728   6.178   4.987   5.520
10277SOL     OW31729   2.193   5.641   3.801
10277SOL    HW131730   2.211   5.590   3.886
10277SOL    HW231731   2.275   5.691   3.775
10278SOL     OW31732   0.192   1.091   4.415
10278SOL    HW131733   0.168   1.028   4.340
10278SOL    HW231734   0.287   1.118   4.406
10279SOL     OW31735   3.038   5.187   4.069
10279SOL    HW131736   3.051   5.265   4.131
10279SOL    HW231737   2.986   5.216   3.989
10280SOL     OW31738   0.320   3.666   0.855
10280SOL    HW131739   0.246   3.601   0.872
10280SOL    HW231740   0.408   3.621   0.870
10281SOL     OW31741   5.869   1.133   2.317
10281SOL    HW131742   5.899   1.116   2.224
10281SOL    HW231743   5.782   1.085   2.334
10282SOL     OW31744   5.611   4.584   3.921
10282SOL    HW131745   5.630   4.682   3.932
10282SOL    HW231746   5.663   4.549   3.842
10283SOL     OW31747   1.068   3.992   0.922
10283SOL    HW131748   1.167   3.996   0.907
10283SOL    HW231749   1.050   3.991   1.021
10284SOL     OW31750   5.247   2.860   5.386
10284SOL    HW131751   5.171   2.795   5.395
10284SOL    HW231752   5.224   2.945   5.433
10285SOL     OW31753   5.587   0.637   1.996
10285SOL    HW131754   5.528   0.617   1.918
10285SOL    HW231755   5.532   0.647   2.078
10286SOL     OW31756   2.779   1.980   3.724
10286SOL    HW131757   2.844   1.955   3.652
10286SOL    HW231758   2.823   1.967   3.813
10287SOL     OW31759   2.523   6.634   1.099
10287SOL    HW131760   2.439   6.689   1.101
10287SOL    HW231761   2.593   6.677   1.156
10288SOL     OW31762   4.663   5.842   3.266
10288SOL    HW131763   4.643   5.885   3.354
10288SOL    HW231764   4.629   5.748   3.267
10289SOL     OW31765   2.400   6.609   1.795
10289SOL    HW131766   2.464   6.661   1.738
10289SOL    HW231767   2.380   6.660   1.878
10290SOL     OW31768   2.968   3.341   2.247
10290SOL    HW131769   3.023   3.268   2.288
10290SOL    HW231770   2.937   3.403   2.319
10291SOL     OW31771   3.406   1.740   3.393
10291SOL    HW131772   3.365   1.728   3.303
10291SOL    HW231773   3.348   1.695   3.462
10292SOL     OW31774   1.288   0.169   4.993
10292SOL    HW131775   1.326   0.179   5.086
10292SOL    HW231776   1.191   0.148   4.999
10293SOL     OW31777   1.539   4.630   3.431
10293SOL    HW131778   1.566   4.534   3.427
10293SOL    HW231779   1.616   4.685   3.464
10294SOL     OW31780   5.517   3.430   2.409
10294SOL    HW131781   5.419   3.429   2.430
10294SOL    HW231782   5.538   3.513   2.357
10295SOL     OW31783   5.187   4.090   5.951
10295SOL    HW131784   5.098   4.093   5.904
10295SOL    HW231785   5.177   4.127   6.043
10296SOL     OW31786   4.670   2.855   0.242
10296SOL    HW131787   4.650   2.933   0.301
10296SOL    HW231788   4.703   2.779   0.297
10297SOL     OW31789   2.333   0.033   6.636
10297SOL    HW131790   2.429   0.053   6.615
10297SOL    HW231791   2.275   0.069   6.563
10298SOL     OW31792   3.549   4.853   1.654
10298SOL    HW131793   3.549   4.764   1.700
10298SOL    HW231794   3.580   4.842   1.560
10299SOL     OW31795   4.987   5.194   3.063
10299SOL    HW131796   5.069   5.137   3.051
10299SOL    HW231797   4.905   5.137   3.053
10300SOL     OW31798   0.883   3.901   3.089
10300SOL    HW131799   0.972   3.876   3.128
10300SOL    HW231800   0.896   3.940   2.998
10301SOL     OW31801   5.804   2.234   4.350
10301SOL    HW131802   5.752   2.177   4.413
10301SOL    HW231803   5.784   2.206   4.256
10302SOL     OW31804   1.459   6.636   3.924
10302SOL    HW131805   1.542   6.580   3.920
10302SOL    HW231806   1.457   6.686   4.011
10303SOL     OW31807   1.825   5.875   2.873
10303SOL    HW131808   1.741   5.928   2.884
10303SOL    HW231809   1.884   5.890   2.951
10304SOL     OW31810   4.833   0.300   1.926
10304SOL    HW131811   4.843   0.399   1.918
10304SOL    HW231812   4.741   0.278   1.960
10305SOL     OW31813   0.712   4.450   6.966
10305SOL    HW131814   0.750   4.360   6.947
10305SOL    HW231815   0.634   4.441   0.008
10306SOL     OW31816   4.637   6.287   6.479
10306SOL    HW131817   4.613   6.242   6.565
10306SOL    HW231818   4.561   6.278   6.414
10307SOL     OW31819   2.422   1.822   5.107
10307SOL    HW131820   2.406   1.835   5.009
10307SOL    HW231821   2.335   1.827   5.156
10308SOL     OW31822   2.437   4.499   4.076
10308SOL    HW131823   2.421   4.469   4.170
10308SOL    HW231824   2.374   4.452   4.014
10309SOL     OW31825   5.683   1.394   4.750
10309SOL    HW131826   5.712   1.426   4.840
10309SOL    HW231827   5.641   1.303   4.758
10310SOL     OW31828   3.774   3.344   1.649
10310SOL    HW131829   3.796   3.342   1.747
10310SOL    HW231830   3.685   3.302   1.634
10311SOL     OW31831   1.204   6.372   0.086
10311SOL    HW131832   1.275   6.331   0.142
10311SOL    HW231833   1.241   6.453   0.039
10312SOL     OW31834   2.497   6.443   1.611
10312SOL    HW131835   2.430   6.497   1.662
10312SOL    HW231836   2.589   6.468   1.640
10313SOL     OW31837   4.952   0.077   1.122
10313SOL    HW131838   4.899   0.084   1.207
10313SOL    HW231839   4.948   7.003   1.089
10314SOL     OW31840   6.351   6.890   2.400
10314SOL    HW131841   6.273   6.827   2.401
10314SOL    HW231842   6.323   6.976   2.359
10315SOL     OW31843   6.141   6.181   4.749
10315SOL    HW131844   6.173   6.171   4.654
10315SOL    HW231845   6.156   6.096   4.798
10316SOL     OW31846   6.218   2.468   4.916
10316SOL    HW131847   6.203   2.529   4.993
10316SOL    HW231848   6.181   2.509   4.833
10317SOL     OW31849   3.268   5.663   5.901
10317SOL    HW131850   3.214   5.675   5.817
10317SOL    HW231851   3.239   5.730   5.969
10318SOL     OW31852   5.980   5.129   6.553
10318SOL    HW131853   6.004   5.048   6.607
10318SOL    HW231854   5.915   5.102   6.482
10319SOL     OW31855   1.374   2.307   5.323
10319SOL    HW131856   1.384   2.207   5.330
10319SOL    HW231857   1.451   2.344   5.271
10320SOL     OW31858   1.169   0.620   2.651
10320SOL    HW131859   1.230   0.657   2.720
10320SOL    HW231860   1.084   0.589   2.694
10321SOL     OW31861   4.723   0.731   2.720
10321SOL    HW131862   4.760   0.655   2.667
10321SOL    HW231863   4.694   0.698   2.810
10322SOL     OW31864   6.722   5.702   6.697
10322SOL    HW131865   6.723   5.604   6.678
10322SOL    HW231866   6.676   5.718   6.784
10323SOL     OW31867   6.679   3.380   6.429
10323SOL    HW131868   6.711   3.459   6.481
10323SOL    HW231869   6.755   3.342   6.376
10324SOL     OW31870   3.332   3.074   2.864
10324SOL    HW131871   3.233   3.079   2.880
10324SOL    HW231872   3.373   3.011   2.930
10325SOL     OW31873   0.359   3.705   3.119
10325SOL    HW131874   0.425   3.674   3.188
10325SOL    HW231875   0.299   3.775   3.159
10326SOL     OW31876   3.695   3.654   0.314
10326SOL    HW131877   3.612   3.702   0.342
10326SOL    HW231878   3.765   3.721   0.291
10327SOL     OW31879   2.587   2.379   1.972
10327SOL    HW131880   2.684   2.362   1.986
10327SOL    HW231881   2.545   2.403   2.059
10328SOL     OW31882   6.288   2.470   1.210
10328SOL    HW131883   6.223   2.503   1.278
10328SOL    HW231884   6.314   2.376   1.232
10329SOL     OW31885   3.781   0.448   3.100
10329SOL    HW131886   3.790   0.548   3.106
10329SOL    HW231887   3.850   0.405   3.158
10330SOL     OW31888   3.970   5.813   1.919
10330SOL    HW131889   3.879   5.820   1.961
10330SOL    HW231890   4.031   5.881   1.962
10331SOL     OW31891   0.105   0.853   4.251
10331SOL    HW131892   0.071   0.779   4.309
10331SOL    HW231893   0.047   0.862   4.170
10332SOL     OW31894   6.171   1.359   0.908
10332SOL    HW131895   6.147   1.262   0.911
10332SOL    HW231896   6.259   1.371   0.863
10333SOL     OW31897   6.585   4.658   4.602
10333SOL    HW131898   6.533   4.738   4.633
10333SOL    HW231899   6.647   4.685   4.528
10334SOL     OW31900   2.555   6.646   3.911
10334SOL    HW131901   2.612   6.592   3.971
10334SOL    HW231902   2.597   6.736   3.896
10335SOL     OW31903   2.651   4.716   6.591
10335SOL    HW131904   2.701   4.672   6.665
10335SOL    HW231905   2.561   4.743   6.623
10336SOL     OW31906   5.946   0.479   3.063
10336SOL    HW131907   5.960   0.475   2.964
10336SOL    HW231908   5.858   0.524   3.083
10337SOL     OW31909   6.805   6.426   5.485
10337SOL    HW131910   6.746   6.490   5.534
10337SOL    HW231911   6.808   6.339   5.534
10338SOL     OW31912   2.146   6.337   1.415
10338SOL    HW131913   2.134   6.433   1.442
10338SOL    HW231914   2.233   6.303   1.450
10339SOL     OW31915   2.643   5.277   0.560
10339SOL    HW131916   2.583   5.349   0.526
10339SOL    HW231917   2.725   5.318   0.601
10340SOL     OW31918   0.900   5.901   0.625
10340SOL    HW131919   0.868   5.988   0.660
10340SOL    HW231920   0.822   5.841   0.607
10341SOL     OW31921   2.150   3.233   1.911
10341SOL    HW131922   2.185   3.323   1.939
10341SOL    HW231923   2.163   3.221   1.813
10342SOL     OW31924   1.058   6.493   5.158
10342SOL    HW131925   1.087   6.430   5.087
10342SOL    HW231926   1.138   6.525   5.209
10343SOL     OW31927   1.855   4.393   0.703
10343SOL    HW131928   1.859   4.293   0.708
10343SOL    HW231929   1.776   4.420   0.648
10344SOL     OW31930   4.245   3.525   1.650
10344SOL    HW131931   4.343   3.536   1.636
10344SOL    HW231932   4.199   3.612   1.636
10345SOL     OW31933   1.628   1.115   6.418
10345SOL    HW131934   1.724   1.107   6.393
10345SOL    HW231935   1.601   1.211   6.415
10346SOL     OW31936   6.249   0.636   0.919
10346SOL    HW131937   6.272   0.655   1.014
10346SOL    HW231938   6.172   0.572   0.916
10347SOL     OW31939   5.557   2.649   2.617
10347SOL    HW131940   5.546   2.563   2.569
10347SOL    HW231941   5.570   2.723   2.551
10348SOL     OW31942   6.289   1.477   0.617
10348SOL    HW131943   6.370   1.474   0.676
10348SOL    HW231944   6.281   1.569   0.578
10349SOL     OW31945   6.810   1.846   0.658
10349SOL    HW131946   6.851   1.902   0.586
10349SOL    HW231947   6.880   1.821   0.725
10350SOL     OW31948   2.134   5.916   5.531
10350SOL    HW131949   2.096   5.994   5.580
10350SOL    HW231950   2.062   5.850   5.511
10351SOL     OW31951   5.247   4.881   6.520
10351SOL    HW131952   5.320   4.881   6.588
10351SOL    HW231953   5.286   4.895   6.429
10352SOL     OW31954   5.337   2.178   6.990
10352SOL    HW131955   5.364   2.082   6.997
10352SOL    HW231956   5.405   2.235   0.017
10353SOL     OW31957   5.916   2.212   5.158
10353SOL    HW131958   5.963   2.192   5.072
10353SOL    HW231959   5.980   2.255   5.221
10354SOL     OW31960   6.853   2.176   1.707
10354SOL    HW131961   6.943   2.167   1.750
10354SOL    HW231962   6.857   2.140   1.614
10355SOL     OW31963   1.830   0.444   1.230
10355SOL    HW131964   1.800   0.530   1.272
10355SOL    HW231965   1.882   0.465   1.147
10356SOL     OW31966   0.074   4.163   5.518
10356SOL    HW131967   0.053   4.070   5.550
10356SOL    HW231968   0.162   4.192   5.555
10357SOL     OW31969   3.529   2.818   6.394
10357SOL    HW131970   3.481   2.881   6.455
10357SOL    HW231971   3.481   2.812   6.307
10358SOL     OW31972   6.704   3.347   3.925
10358SOL    HW131973   6.753   3.278   3.873
10358SOL    HW231974   6.605   3.333   3.915
10359SOL     OW31975   5.566   1.593   2.162
10359SOL    HW131976   5.593   1.651   2.084
10359SOL    HW231977   5.466   1.590   2.167
10360SOL     OW31978   4.648   5.599   1.652
10360SOL    HW131979   4.742   5.633   1.658
10360SOL    HW231980   4.597   5.657   1.589
10361SOL     OW31981   2.856   1.095   3.105
10361SOL    HW131982   2.936   1.040   3.132
10361SOL    HW231983   2.774   1.039   3.109
10362SOL     OW31984   0.154   5.493   2.791
10362SOL    HW131985   0.138   5.473   2.888
10362SOL    HW231986   0.236   5.550   2.782
10363SOL     OW31987   4.966   2.529   1.173
10363SOL    HW131988   4.977   2.519   1.074
10363SOL    HW231989   4.915   2.612   1.193
10364SOL     OW31990   3.556   4.049   1.597
10364SOL    HW131991   3.623   4.123   1.601
10364SOL    HW231992   3.525   4.027   1.689
10365SOL     OW31993   4.983   4.098   5.758
10365SOL    HW131994   4.914   4.157   5.801
10365SOL    HW231995   5.063   4.153   5.734
10366SOL     OW31996   3.757   6.629   4.216
10366SOL    HW131997   3.806   6.559   4.267
10366SOL    HW231998   3.658   6.614   4.225
10367SOL     OW31999   0.101   2.465   1.999
10367SOL    HW132000   0.011   2.421   1.994
10367SOL    HW232001   0.126   2.499   1.908
10368SOL     OW32002   2.415   1.288   2.696
10368SOL    HW132003   2.446   1.383   2.698
10368SOL    HW232004   2.455   1.237   2.772
10369SOL     OW32005   2.768   0.013   5.566
10369SOL    HW132006   2.767   6.968   5.490
10369SOL    HW232007   2.761   0.106   5.530
10370SOL     OW32008   6.149   1.106   5.302
10370SOL    HW132009   6.203   1.130   5.383
10370SOL    HW232010   6.208   1.105   5.221
10371SOL     OW32011   1.900   6.324   4.384
10371SOL    HW132012   1.866   6.231   4.377
10371SOL    HW232013   1.999   6.322   4.400
10372SOL     OW32014   2.399   1.651   6.769
10372SOL    HW132015   2.334   1.726   6.781
10372SOL    HW232016   2.379   1.578   6.835
10373SOL     OW32017   1.790   6.336   5.091
10373SOL    HW132018   1.730   6.363   5.166
10373SOL    HW232019   1.746   6.264   5.037
10374SOL     OW32020   2.788   0.807   3.872
10374SOL    HW132021   2.810   0.824   3.968
10374SOL    HW232022   2.862   0.755   3.829
10375SOL     OW32023   2.027   2.259   5.954
10375SOL    HW132024   2.124   2.252   5.928
10375SOL    HW232025   1.974   2.191   5.904
10376SOL     OW32026   0.988   5.778   3.775
10376SOL    HW132027   1.055   5.704   3.778
10376SOL    HW232028   0.931   5.774   3.858
10377SOL     OW32029   0.234   0.645   2.767
10377SOL    HW132030   0.182   0.560   2.783
10377SOL    HW232031   0.180   0.723   2.798
10378SOL     OW32032   5.897   5.768   5.999
10378SOL    HW132033   5.892   5.846   6.061
10378SOL    HW232034   5.839   5.694   6.033
10379SOL     OW32035   2.931   6.308   3.921
10379SOL    HW132036   2.996   6.274   3.853
10379SOL    HW232037   2.940   6.255   4.006
10380SOL     OW32038   0.729   2.747   4.896
10380SOL    HW132039   0.637   2.739   4.859
10380SOL    HW232040   0.792   2.690   4.842
10381SOL     OW32041   4.214   4.290   0.939
10381SOL    HW132042   4.122   4.319   0.966
10381SOL    HW232043   4.214   4.267   0.842
10382SOL     OW32044   1.902   5.468   1.760
10382SOL    HW132045   1.916   5.372   1.784
10382SOL    HW232046   1.899   5.477   1.661
10383SOL     OW32047   1.053   4.004   1.212
10383SOL    HW132048   1.000   4.089   1.213
10383SOL    HW232049   1.124   4.009   1.282
10384SOL     OW32050   6.877   0.400   0.894
10384SOL    HW132051   6.781   0.419   0.876
10384SOL    HW232052   6.919   0.477   0.941
10385SOL     OW32053   4.320   5.997   6.214
10385SOL    HW132054   4.246   5.986   6.148
10385SOL    HW232055   4.327   5.915   6.270
10386SOL     OW32056   6.838   1.653   5.521
10386SOL    HW132057   6.887   1.738   5.541
10386SOL    HW232058   6.898   1.591   5.472
10387SOL     OW32059   4.186   1.596   2.447
10387SOL    HW132060   4.158   1.592   2.351
10387SOL    HW232061   4.274   1.644   2.454
10388SOL     OW32062   1.739   5.890   1.854
10388SOL    HW132063   1.674   5.853   1.787
10388SOL    HW232064   1.811   5.939   1.805
10389SOL     OW32065   6.167   5.820   1.214
10389SOL    HW132066   6.231   5.884   1.256
10389SOL    HW232067   6.081   5.867   1.193
10390SOL     OW32068   1.863   3.086   1.080
10390SOL    HW132069   1.851   2.988   1.064
10390SOL    HW232070   1.842   3.136   0.996
10391SOL     OW32071   6.893   6.413   3.501
10391SOL    HW132072   6.916   6.317   3.513
10391SOL    HW232073   6.834   6.424   3.420
10392SOL     OW32074   6.233   4.671   5.573
10392SOL    HW132075   6.241   4.764   5.538
10392SOL    HW232076   6.160   4.666   5.641
10393SOL     OW32077   2.348   2.427   3.458
10393SOL    HW132078   2.425   2.427   3.395
10393SOL    HW232079   2.363   2.495   3.530
10394SOL     OW32080   2.097   5.757   5.168
10394SOL    HW132081   2.149   5.704   5.101
10394SOL    HW232082   2.094   5.707   5.255
10395SOL     OW32083   0.161   0.721   2.507
10395SOL    HW132084   0.200   0.685   2.592
10395SOL    HW232085   0.158   0.649   2.438
10396SOL     OW32086   3.711   0.877   3.431
10396SOL    HW132087   3.699   0.926   3.518
10396SOL    HW232088   3.660   0.925   3.359
10397SOL     OW32089   2.621   1.345   4.518
10397SOL    HW132090   2.594   1.251   4.538
10397SOL    HW232091   2.719   1.347   4.497
10398SOL     OW32092   5.014   2.667   0.509
10398SOL    HW132093   4.920   2.665   0.475
10398SOL    HW232094   5.025   2.598   0.581
10399SOL     OW32095   4.784   2.355   4.633
10399SOL    HW132096   4.755   2.263   4.606
10399SOL    HW232097   4.710   2.399   4.684
10400SOL     OW32098   4.179   5.569   0.057
10400SOL    HW132099   4.097   5.570   7.020
10400SOL    HW232100   4.244   5.501   0.022
10401SOL     OW32101   0.289   7.000   2.018
10401SOL    HW132102   0.270   0.077   2.009
10401SOL    HW232103   0.360   6.973   1.952
10402SOL     OW32104   6.888   1.562   5.171
10402SOL    HW132105   6.885   1.659   5.194
10402SOL    HW232106   6.933   1.511   5.244
10403SOL     OW32107   4.250   1.743   2.758
10403SOL    HW132108   4.237   1.649   2.729
10403SOL    HW232109   4.235   1.750   2.856
10404SOL     OW32110   6.362   6.322   4.072
10404SOL    HW132111   6.292   6.353   4.007
10404SOL    HW232112   6.379   6.394   4.140
10405SOL     OW32113   0.892   5.859   4.566
10405SOL    HW132114   0.841   5.785   4.521
10405SOL    HW232115   0.830   5.910   4.626
10406SOL     OW32116   2.320   2.848   5.376
10406SOL    HW132117   2.357   2.939   5.353
10406SOL    HW232118   2.302   2.797   5.293
10407SOL     OW32119   2.305   0.389   6.984
10407SOL    HW132120   2.341   0.299   6.958
10407SOL    HW232121   2.285   0.442   6.902
10408SOL     OW32122   4.013   6.836   1.825
10408SOL    HW132123   4.111   6.851   1.817
10408SOL    HW232124   3.977   6.803   1.738
10409SOL     OW32125   0.136   4.253   0.720
10409SOL    HW132126   0.227   4.274   0.756
10409SOL    HW232127   0.124   4.300   0.632
10410SOL     OW32128   5.913   2.988   1.927
10410SOL    HW132129   5.990   2.961   1.869
10410SOL    HW232130   5.830   2.990   1.872
10411SOL     OW32131   3.331   6.230   4.280
10411SOL    HW132132   3.258   6.163   4.286
10411SOL    HW232133   3.364   6.252   4.372
10412SOL     OW32134   6.906   0.907   6.678
10412SOL    HW132135   6.981   0.943   6.733
10412SOL    HW232136   6.893   0.964   6.597
10413SOL     OW32137   6.619   2.394   1.905
10413SOL    HW132138   6.536   2.414   1.956
10413SOL    HW232139   6.595   2.362   1.814
10414SOL     OW32140   3.641   5.274   5.962
10414SOL    HW132141   3.636   5.174   5.969
10414SOL    HW232142   3.575   5.305   5.893
10415SOL     OW32143   1.529   4.485   4.309
10415SOL    HW132144   1.471   4.438   4.242
10415SOL    HW232145   1.491   4.471   4.400
10416SOL     OW32146   5.966   6.636   5.605
10416SOL    HW132147   5.934   6.668   5.694
10416SOL    HW232148   5.905   6.565   5.571
10417SOL     OW32149   4.419   5.035   4.798
10417SOL    HW132150   4.338   5.008   4.746
10417SOL    HW232151   4.390   5.090   4.877
10418SOL     OW32152   7.008   4.008   6.153
10418SOL    HW132153   0.016   4.060   6.234
10418SOL    HW232154   6.926   4.050   6.114
10419SOL     OW32155   3.512   6.845   6.371
10419SOL    HW132156   3.420   6.809   6.352
10419SOL    HW232157   3.507   6.945   6.379
10420SOL     OW32158   0.304   4.268   4.412
10420SOL    HW132159   0.308   4.322   4.496
10420SOL    HW232160   0.393   4.274   4.366
10421SOL     OW32161   1.911   3.641   4.118
10421SOL    HW132162   1.837   3.598   4.066
10421SOL    HW232163   1.998   3.598   4.094
10422SOL     OW32164   6.593   3.068   6.065
10422SOL    HW132165   6.640   3.124   5.997
10422SOL    HW232166   6.565   3.125   6.142
10423SOL     OW32167   5.463   5.256   5.572
10423SOL    HW132168   5.474   5.170   5.623
10423SOL    HW232169   5.371   5.292   5.588
10424SOL     OW32170   3.977   2.956   0.504
10424SOL    HW132171   3.957   2.866   0.543
10424SOL    HW232172   3.917   3.024   0.545
10425SOL     OW32173   0.662   6.189   2.435
10425SOL    HW132174   0.725   6.266   2.435
10425SOL    HW232175   0.711   6.106   2.409
10426SOL     OW32176   5.446   4.715   6.680
10426SOL    HW132177   5.524   4.714   6.618
10426SOL    HW232178   5.477   4.692   6.773
10427SOL     OW32179   5.079   0.759   0.105
10427SOL    HW132180   5.055   0.765   0.008
10427SOL    HW232181   5.015   0.698   0.151
10428SOL     OW32182   3.152   1.219   3.797
10428SOL    HW132183   3.179   1.132   3.756
10428SOL    HW232184   3.102   1.201   3.882
10429SOL     OW32185   0.141   4.265   2.669
10429SOL    HW132186   0.048   4.228   2.674
10429SOL    HW232187   0.202   4.196   2.631
10430SOL     OW32188   3.890   6.664   4.963
10430SOL    HW132189   3.842   6.695   5.045
10430SOL    HW232190   3.829   6.670   4.884
10431SOL     OW32191   2.234   6.375   3.847
10431SOL    HW132192   2.208   6.385   3.942
10431SOL    HW232193   2.226   6.463   3.800
10432SOL     OW32194   6.465   0.627   4.665
10432SOL    HW132195   6.394   0.690   4.695
10432SOL    HW232196   6.545   0.678   4.633
10433SOL     OW32197   0.863   6.627   2.603
10433SOL    HW132198   0.929   6.567   2.649
10433SOL    HW232199   0.800   6.571   2.549
10434SOL     OW32200   3.184   6.460   3.058
10434SOL    HW132201   3.157   6.416   3.144
10434SOL    HW232202   3.283   6.451   3.046
10435SOL     OW32203   1.819   2.341   5.311
10435SOL    HW132204   1.871   2.341   5.397
10435SOL    HW232205   1.872   2.297   5.239
10436SOL     OW32206   6.185   4.599   5.147
10436SOL    HW132207   6.124   4.543   5.092
10436SOL    HW232208   6.138   4.684   5.172
10437SOL     OW32209   5.679   4.674   5.769
10437SOL    HW132210   5.710   4.648   5.860
10437SOL    HW232211   5.637   4.595   5.724
10438SOL     OW32212   0.713   5.679   5.994
10438SOL    HW132213   0.745   5.641   6.081
10438SOL    HW232214   0.722   5.609   5.923
10439SOL     OW32215   4.674   1.386   4.740
10439SOL    HW132216   4.719   1.297   4.742
10439SOL    HW232217   4.580   1.377   4.773
10440SOL     OW32218   0.667   6.899   0.497
10440SOL    HW132219   0.687   6.996   0.508
10440SOL    HW232220   0.569   6.884   0.500
10441SOL     OW32221   3.583   1.672   1.021
10441SOL    HW132222   3.556   1.689   0.926
10441SOL    HW232223   3.630   1.583   1.026
10442SOL     OW32224   4.243   6.636   5.276
10442SOL    HW132225   4.218   6.540   5.262
10442SOL    HW232226   4.315   6.642   5.345
10443SOL     OW32227   5.130   2.637   3.124
10443SOL    HW132228   5.111   2.720   3.176
10443SOL    HW232229   5.158   2.661   3.031
10444SOL     OW32230   4.117   5.482   3.252
10444SOL    HW132231   4.049   5.554   3.238
10444SOL    HW232232   4.129   5.465   3.350
10445SOL     OW32233   0.511   4.857   3.288
10445SOL    HW132234   0.544   4.886   3.198
10445SOL    HW232235   0.412   4.839   3.282
10446SOL     OW32236   1.928   2.869   6.489
10446SOL    HW132237   1.976   2.791   6.449
10446SOL    HW232238   1.883   2.921   6.416
10447SOL     OW32239   0.708   1.125   3.188
10447SOL    HW132240   0.696   1.224   3.182
10447SOL    HW232241   0.798   1.104   3.227
10448SOL     OW32242   4.379   0.367   2.377
10448SOL    HW132243   4.294   0.419   2.387
10448SOL    HW232244   4.421   0.354   2.466
10449SOL     OW32245   1.579   5.726   5.936
10449SOL    HW132246   1.526   5.661   5.991
10449SOL    HW232247   1.562   5.818   5.969
10450SOL     OW32248   0.511   1.276   6.887
10450SOL    HW132249   0.493   1.196   6.945
10450SOL    HW232250   0.603   1.312   6.907
10451SOL     OW32251   1.844   6.203   2.940
10451SOL    HW132252   1.862   6.285   2.995
10451SOL    HW232253   1.869   6.122   2.993
10452SOL     OW32254   5.801   3.267   2.877
10452SOL    HW132255   5.876   3.241   2.816
10452SOL    HW232256   5.742   3.333   2.830
10453SOL     OW32257   5.783   6.935   1.408
10453SOL    HW132258   5.801   6.888   1.494
10453SOL    HW232259   5.801   6.872   1.332
10454SOL     OW32260   5.009   2.965   0.168
10454SOL    HW132261   5.050   2.962   0.259
10454SOL    HW232262   4.977   2.874   0.143
10455SOL     OW32263   6.989   6.174   3.541
10455SOL    HW132264   7.018   6.103   3.478
10455SOL    HW232265   0.049   6.215   3.585
10456SOL     OW32266   1.215   5.501   0.617
10456SOL    HW132267   1.228   5.562   0.539
10456SOL    HW232268   1.252   5.544   0.699
10457SOL     OW32269   3.738   3.133   0.343
10457SOL    HW132270   3.642   3.161   0.341
10457SOL    HW232271   3.788   3.187   0.410
10458SOL     OW32272   6.220   0.202   5.849
10458SOL    HW132273   6.297   0.156   5.893
10458SOL    HW232274   6.194   0.282   5.903
10459SOL     OW32275   4.452   6.043   0.860
10459SOL    HW132276   4.431   5.989   0.941
10459SOL    HW232277   4.472   5.983   0.783
10460SOL     OW32278   1.175   4.464   1.587
10460SOL    HW132279   1.246   4.433   1.649
10460SOL    HW232280   1.201   4.551   1.546
10461SOL     OW32281   5.850   5.165   5.022
10461SOL    HW132282   5.798   5.100   4.967
10461SOL    HW232283   5.945   5.167   4.990
10462SOL     OW32284   5.175   2.171   3.299
10462SOL    HW132285   5.077   2.157   3.288
10462SOL    HW232286   5.208   2.119   3.377
10463SOL     OW32287   4.238   2.374   5.936
10463SOL    HW132288   4.191   2.438   5.876
10463SOL    HW232289   4.331   2.359   5.901
10464SOL     OW32290   6.734   6.966   1.817
10464SOL    HW132291   6.832   6.953   1.806
10464SOL    HW232292   6.685   6.900   1.760
10465SOL     OW32293   6.358   5.540   1.203
10465SOL    HW132294   6.453   5.572   1.201
10465SOL    HW232295   6.355   5.443   1.224
10466SOL     OW32296   4.477   5.000   5.544
10466SOL    HW132297   4.556   5.060   5.534
10466SOL    HW232298   4.508   4.907   5.565
10467SOL     OW32299   2.620   2.032   0.136
10467SOL    HW132300   2.612   1.933   0.128
10467SOL    HW232301   2.532   2.075   0.117
10468SOL     OW32302   3.574   5.426   3.116
10468SOL    HW132303   3.640   5.351   3.123
10468SOL    HW232304   3.482   5.388   3.103
10469SOL     OW32305   4.072   4.405   5.641
10469SOL    HW132306   4.111   4.323   5.681
10469SOL    HW232307   4.032   4.384   5.552
10470SOL     OW32308   1.883   2.493   3.821
10470SOL    HW132309   1.812   2.501   3.890
10470SOL    HW232310   1.951   2.426   3.850
10471SOL     OW32311   3.192   0.990   0.832
10471SOL    HW132312   3.113   1.001   0.771
10471SOL    HW232313   3.164   1.008   0.926
10472SOL     OW32314   3.523   5.868   0.539
10472SOL    HW132315   3.579   5.909   0.612
10472SOL    HW232316   3.566   5.783   0.509
10473SOL     OW32317   6.309   0.037   6.803
10473SOL    HW132318   6.278   0.026   6.897
10473SOL    HW232319   6.399   7.015   6.793
10474SOL     OW32320   4.087   1.297   4.516
10474SOL    HW132321   4.031   1.378   4.531
10474SOL    HW232322   4.117   1.293   4.421
10475SOL     OW32323   4.757   6.786   1.505
10475SOL    HW132324   4.820   6.796   1.581
10475SOL    HW232325   4.664   6.807   1.535
10476SOL     OW32326   0.244   6.880   0.066
10476SOL    HW132327   0.288   6.858   7.000
10476SOL    HW232328   0.207   6.973   0.063
10477SOL     OW32329   6.716   0.722   4.427
10477SOL    HW132330   6.665   0.680   4.352
10477SOL    HW232331   6.698   0.820   4.429
10478SOL     OW32332   6.166   0.793   0.549
10478SOL    HW132333   6.070   0.813   0.566
10478SOL    HW232334   6.205   0.864   0.490
10479SOL     OW32335   6.916   1.687   2.879
10479SOL    HW132336   6.907   1.784   2.859
10479SOL    HW232337   6.839   1.637   2.839
10480SOL     OW32338   0.592   0.845   1.528
10480SOL    HW132339   0.511   0.815   1.579
10480SOL    HW232340   0.604   0.944   1.539
10481SOL     OW32341   2.007   6.882   4.291
10481SOL    HW132342   1.968   6.877   4.383
10481SOL    HW232343   1.990   6.973   4.253
10482SOL     OW32344   6.321   4.946   4.480
10482SOL    HW132345   6.313   5.046   4.475
10482SOL    HW232346   6.367   4.920   4.565
10483SOL     OW32347   6.419   5.125   0.609
10483SOL    HW132348   6.473   5.056   0.562
10483SOL    HW232349   6.330   5.135   0.564
10484SOL     OW32350   6.219   1.679   1.755
10484SOL    HW132351   6.155   1.611   1.790
10484SOL    HW232352   6.199   1.768   1.795
10485SOL     OW32353   3.252   3.660   0.468
10485SOL    HW132354   3.266   3.592   0.539
10485SOL    HW232355   3.183   3.628   0.404
10486SOL     OW32356   0.436   0.837   0.183
10486SOL    HW132357   0.493   0.914   0.212
10486SOL    HW232358   0.486   0.751   0.197
10487SOL     OW32359   4.614   1.065   1.014
10487SOL    HW132360   4.691   1.120   0.981
10487SOL    HW232361   4.616   1.064   1.114
10488SOL     OW32362   2.837   0.902   6.003
10488SOL    HW132363   2.813   0.847   5.922
10488SOL    HW232364   2.937   0.903   6.013
10489SOL     OW32365   0.466   6.793   5.358
10489SOL    HW132366   0.536   6.803   5.430
10489SOL    HW232367   0.377   6.776   5.400
10490SOL     OW32368   5.833   1.982   1.317
10490SOL    HW132369   5.905   1.932   1.363
10490SOL    HW232370   5.862   2.076   1.300
10491SOL     OW32371   2.190   2.125   6.674
10491SOL    HW132372   2.196   2.224   6.688
10491SOL    HW232373   2.094   2.099   6.663
10492SOL     OW32374   5.981   4.888   6.815
10492SOL    HW132375   6.010   4.832   6.737
10492SOL    HW232376   5.928   4.833   6.879
10493SOL     OW32377   3.388   0.438   2.354
10493SOL    HW132378   3.303   0.420   2.403
10493SOL    HW232379   3.443   0.505   2.406
10494SOL     OW32380   5.254   4.218   5.639
10494SOL    HW132381   5.341   4.177   5.667
10494SOL    HW232382   5.230   4.292   5.702
10495SOL     OW32383   1.866   6.966   1.193
10495SOL    HW132384   1.861   6.972   1.292
10495SOL    HW232385   1.924   6.888   1.167
10496SOL     OW32386   0.121   3.781   6.127
10496SOL    HW132387   0.070   3.867   6.122
10496SOL    HW232388   0.086   3.726   6.202
10497SOL     OW32389   1.993   6.597   1.971
10497SOL    HW132390   1.926   6.600   1.897
10497SOL    HW232391   1.987   6.681   2.025
10498SOL     OW32392   4.591   5.297   0.722
10498SOL    HW132393   4.606   5.198   0.730
10498SOL    HW232394   4.507   5.322   0.769
10499SOL     OW32395   3.993   6.960   2.085
10499SOL    HW132396   3.925   0.010   2.065
10499SOL    HW232397   4.024   6.918   1.999
10500SOL     OW32398   6.142   1.123   6.176
10500SOL    HW132399   6.220   1.186   6.178
10500SOL    HW232400   6.094   1.133   6.089
10501SOL     OW32401   2.507   5.387   1.883
10501SOL    HW132402   2.570   5.416   1.955
10501SOL    HW232403   2.545   5.410   1.794
10502SOL     OW32404   2.648   1.299   1.653
10502SOL    HW132405   2.609   1.209   1.671
10502SOL    HW232406   2.729   1.312   1.710
10503SOL     OW32407   4.285   2.533   1.004
10503SOL    HW132408   4.268   2.603   0.935
10503SOL    HW232409   4.383   2.522   1.018
10504SOL     OW32410   1.027   1.747   5.706
10504SOL    HW132411   1.076   1.719   5.623
10504SOL    HW232412   0.948   1.689   5.719
10505SOL     OW32413   5.124   4.975   0.396
10505SOL    HW132414   5.184   5.047   0.361
10505SOL    HW232415   5.160   4.941   0.483
10506SOL     OW32416   6.836   4.842   0.795
10506SOL    HW132417   6.846   4.757   0.847
10506SOL    HW232418   6.853   4.823   0.698
10507SOL     OW32419   2.284   6.907   0.368
10507SOL    HW132420   2.243   6.822   0.398
10507SOL    HW232421   2.214   6.967   0.329
10508SOL     OW32422   6.412   6.020   4.968
10508SOL    HW132423   6.391   5.974   5.054
10508SOL    HW232424   6.449   6.111   4.987
10509SOL     OW32425   0.268   5.514   4.301
10509SOL    HW132426   0.272   5.425   4.256
10509SOL    HW232427   0.202   5.572   4.254
10510SOL     OW32428   4.489   5.505   6.582
10510SOL    HW132429   4.543   5.576   6.537
10510SOL    HW232430   4.403   5.544   6.615
10511SOL     OW32431   3.201   1.109   2.157
10511SOL    HW132432   3.288   1.134   2.114
10511SOL    HW232433   3.211   1.112   2.256
10512SOL     OW32434   4.042   0.309   6.442
10512SOL    HW132435   4.066   0.274   6.533
10512SOL    HW232436   3.946   0.290   6.423
10513SOL     OW32437   5.838   2.171   4.666
10513SOL    HW132438   5.886   2.257   4.652
10513SOL    HW232439   5.740   2.184   4.649
10514SOL     OW32440   0.400   3.128   1.399
10514SOL    HW132441   0.305   3.096   1.403
10514SOL    HW232442   0.411   3.210   1.455
10515SOL     OW32443   0.650   3.442   3.697
10515SOL    HW132444   0.655   3.516   3.630
10515SOL    HW232445   0.616   3.478   3.784
10516SOL     OW32446   4.244   1.238   0.590
10516SOL    HW132447   4.170   1.182   0.552
10516SOL    HW232448   4.210   1.331   0.605
10517SOL     OW32449   1.011   2.827   1.994
10517SOL    HW132450   0.998   2.788   1.902
10517SOL    HW232451   0.986   2.924   1.993
10518SOL     OW32452   0.748   6.036   0.333
10518SOL    HW132453   0.835   6.039   0.381
10518SOL    HW232454   0.721   6.129   0.308
10519SOL     OW32455   3.026   3.654   0.272
10519SOL    HW132456   3.059   3.630   0.180
10519SOL    HW232457   2.950   3.718   0.265
10520SOL     OW32458   0.448   2.672   6.131
10520SOL    HW132459   0.492   2.709   6.049
10520SOL    HW232460   0.492   2.586   6.158
10521SOL     OW32461   5.963   5.934   1.413
10521SOL    HW132462   5.951   6.019   1.464
10521SOL    HW232463   6.036   5.881   1.455
10522SOL     OW32464   0.916   0.817   5.233
10522SOL    HW132465   0.949   0.887   5.297
10522SOL    HW232466   0.860   0.751   5.283
10523SOL     OW32467   1.025   4.762   3.261
10523SOL    HW132468   1.038   4.859   3.237
10523SOL    HW232469   1.063   4.705   3.189
10524SOL     OW32470   1.666   6.905   4.763
10524SOL    HW132471   1.737   6.975   4.752
10524SOL    HW232472   1.578   6.950   4.780
10525SOL     OW32473   4.175   6.378   6.265
10525SOL    HW132474   4.104   6.343   6.325
10525SOL    HW232475   4.168   6.334   6.176
10526SOL     OW32476   1.889   6.994   3.816
10526SOL    HW132477   1.851   6.974   3.906
10526SOL    HW232478   1.854   6.928   3.750
10527SOL     OW32479   0.771   1.201   5.170
10527SOL    HW132480   0.683   1.152   5.163
10527SOL    HW232481   0.784   1.233   5.263
10528SOL     OW32482   1.810   3.040   5.869
10528SOL    HW132483   1.882   3.095   5.827
10528SOL    HW232484   1.738   3.022   5.802
10529SOL     OW32485   3.369   5.687   4.154
10529SOL    HW132486   3.380   5.632   4.071
10529SOL    HW232487   3.458   5.713   4.189
10530SOL     OW32488   1.692   0.263   6.723
10530SOL    HW132489   1.625   0.192   6.743
10530SOL    HW232490   1.663   0.316   6.643
10531SOL     OW32491   1.243   2.787   4.435
10531SOL    HW132492   1.210   2.742   4.352
10531SOL    HW232493   1.165   2.811   4.494
10532SOL     OW32494   1.050   6.388   6.050
10532SOL    HW132495   1.083   6.406   5.957
10532SOL    HW232496   0.977   6.319   6.046
10533SOL     OW32497   3.310   6.827   4.150
10533SOL    HW132498   3.324   6.759   4.078
10533SOL    HW232499   3.233   6.886   4.126
10534SOL     OW32500   6.297   6.294   1.520
10534SOL    HW132501   6.296   6.336   1.429
10534SOL    HW232502   6.281   6.364   1.589
10535SOL     OW32503   1.619   2.232   1.608
10535SOL    HW132504   1.551   2.193   1.546
10535SOL    HW232505   1.698   2.171   1.613
10536SOL     OW32506   4.495   0.584   3.675
10536SOL    HW132507   4.411   0.636   3.687
10536SOL    HW232508   4.569   0.627   3.726
10537SOL     OW32509   3.912   5.767   4.151
10537SOL    HW132510   3.942   5.839   4.214
10537SOL    HW232511   3.818   5.741   4.172
10538SOL     OW32512   5.505   3.087   1.171
10538SOL    HW132513   5.553   3.015   1.220
10538SOL    HW232514   5.564   3.169   1.167
10539SOL     OW32515   0.641   4.771   6.866
10539SOL    HW132516   0.556   4.818   6.889
10539SOL    HW232517   0.676   4.806   6.779
10540SOL     OW32518   1.611   1.716   4.887
10540SOL    HW132519   1.695   1.677   4.849
10540SOL    HW232520   1.621   1.814   4.898
10541SOL     OW32521   3.387   4.135   1.892
10541SOL    HW132522   3.405   4.102   1.985
10541SOL    HW232523   3.300   4.099   1.860
10542SOL     OW32524   7.011   0.173   5.615
10542SOL    HW132525   6.928   0.166   5.671
10542SOL    HW232526   7.000   0.247   5.549
10543SOL     OW32527   0.225   1.538   3.968
10543SOL    HW132528   0.166   1.470   4.011
10543SOL    HW232529   0.237   1.516   3.871
10544SOL     OW32530   2.622   6.808   1.722
10544SOL    HW132531   2.709   6.852   1.699
10544SOL    HW232532   2.571   6.866   1.785
10545SOL     OW32533   0.341   2.121   2.158
10545SOL    HW132534   0.307   2.027   2.147
10545SOL    HW232535   0.343   2.166   2.069
10546SOL     OW32536   2.168   1.066   0.680
10546SOL    HW132537   2.081   1.057   0.730
10546SOL    HW232538   2.207   1.156   0.696
10547SOL     OW32539   5.632   2.844   2.866
10547SOL    HW132540   5.581   2.874   2.786
10547SOL    HW232541   5.583   2.770   2.912
10548SOL     OW32542   5.452   4.407   3.817
10548SOL    HW132543   5.518   4.470   3.857
10548SOL    HW232544   5.368   4.457   3.795
10549SOL     OW32545   0.927   6.969   1.970
10549SOL    HW132546   0.979   6.972   2.056
10549SOL    HW232547   0.880   6.881   1.962
10550SOL     OW32548   4.612   6.302   3.527
10550SOL    HW132549   4.590   6.358   3.447
10550SOL    HW232550   4.692   6.245   3.507
10551SOL     OW32551   1.656   2.453   6.537
10551SOL    HW132552   1.591   2.459   6.612
10551SOL    HW232553   1.634   2.524   6.469
10552SOL     OW32554   3.340   0.399   5.941
10552SOL    HW132555   3.375   0.460   5.869
10552SOL    HW232556   3.361   0.438   6.031
10553SOL     OW32557   0.703   4.231   2.001
10553SOL    HW132558   0.658   4.308   2.047
10553SOL    HW232559   0.634   4.162   1.979
10554SOL     OW32560   5.691   4.476   0.246
10554SOL    HW132561   5.603   4.520   0.228
10554SOL    HW232562   5.679   4.404   0.314
10555SOL     OW32563   1.494   2.808   0.095
10555SOL    HW132564   1.575   2.833   0.147
10555SOL    HW232565   1.521   2.758   0.012
10556SOL     OW32566   1.930   1.562   5.343
10556SOL    HW132567   1.917   1.639   5.405
10556SOL    HW232568   1.942   1.596   5.250
10557SOL     OW32569   2.410   2.682   3.148
10557SOL    HW132570   2.318   2.685   3.187
10557SOL    HW232571   2.403   2.679   3.048
10558SOL     OW32572   4.200   0.590   3.533
10558SOL    HW132573   4.127   0.651   3.563
10558SOL    HW232574   4.274   0.644   3.492
10559SOL     OW32575   4.773   0.383   1.454
10559SOL    HW132576   4.832   0.395   1.374
10559SOL    HW232577   4.825   0.337   1.526
10560SOL     OW32578   4.025   6.048   2.992
10560SOL    HW132579   3.980   5.966   2.957
10560SOL    HW232580   4.097   6.077   2.929
10561SOL     OW32581   3.142   3.599   1.903
10561SOL    HW132582   3.065   3.629   1.848
10561SOL    HW232583   3.124   3.616   1.999
10562SOL     OW32584   4.528   4.736   0.162
10562SOL    HW132585   4.454   4.786   0.118
10562SOL    HW232586   4.533   4.761   0.259
10563SOL     OW32587   0.496   2.057   3.568
10563SOL    HW132588   0.518   2.099   3.480
10563SOL    HW232589   0.415   1.999   3.558
10564SOL     OW32590   5.793   5.896   2.233
10564SOL    HW132591   5.846   5.811   2.232
10564SOL    HW232592   5.697   5.875   2.253
10565SOL     OW32593   0.629   6.831   5.607
10565SOL    HW132594   0.610   6.756   5.670
10565SOL    HW232595   0.562   6.904   5.620
10566SOL     OW32596   3.324   1.944   6.376
10566SOL    HW132597   3.314   1.848   6.399
10566SOL    HW232598   3.301   1.958   6.280
10567SOL     OW32599   3.164   2.042   4.885
10567SOL    HW132600   3.165   1.979   4.963
10567SOL    HW232601   3.128   2.131   4.915
10568SOL     OW32602   5.778   3.213   1.315
10568SOL    HW132603   5.842   3.137   1.320
10568SOL    HW232604   5.747   3.237   1.407
10569SOL     OW32605   6.054   1.852   1.923
10569SOL    HW132606   5.996   1.801   1.986
10569SOL    HW232607   6.115   1.912   1.974
10570SOL     OW32608   0.709   5.549   3.421
10570SOL    HW132609   0.671   5.492   3.494
10570SOL    HW232610   0.799   5.583   3.449
10571SOL     OW32611   0.075   4.210   5.801
10571SOL    HW132612   0.158   4.194   5.748
10571SOL    HW232613   0.093   4.196   5.898
10572SOL     OW32614   6.623   4.298   3.690
10572SOL    HW132615   6.599   4.201   3.680
10572SOL    HW232616   6.723   4.308   3.691
10573SOL     OW32617   4.598   0.463   5.218
10573SOL    HW132618   4.561   0.552   5.192
10573SOL    HW232619   4.592   0.401   5.140
10574SOL     OW32620   1.911   1.367   4.409
10574SOL    HW132621   1.977   1.357   4.482
10574SOL    HW232622   1.821   1.335   4.439
10575SOL     OW32623   6.826   1.723   4.134
10575SOL    HW132624   6.892   1.701   4.206
10575SOL    HW232625   6.870   1.710   4.045
10576SOL     OW32626   0.106   6.034   4.849
10576SOL    HW132627   0.114   6.133   4.844
10576SOL    HW232628   0.114   5.995   4.757
10577SOL     OW32629   1.901   4.579   0.282
10577SOL    HW132630   1.983   4.623   0.247
10577SOL    HW232631   1.924   4.489   0.319
10578SOL     OW32632   4.661   1.333   3.007
10578SOL    HW132633   4.671   1.289   2.918
10578SOL    HW232634   4.604   1.415   2.998
10579SOL     OW32635   4.310   2.805   1.616
10579SOL    HW132636   4.303   2.901   1.588
10579SOL    HW232637   4.395   2.791   1.666
10580SOL     OW32638   6.957   0.315   6.398
10580SOL    HW132639   6.954   0.375   6.317
10580SOL    HW232640   6.874   0.260   6.402
10581SOL     OW32641   6.489   0.070   3.438
10581SOL    HW132642   6.390   0.068   3.428
10581SOL    HW232643   6.521   7.004   3.476
10582SOL     OW32644   5.201   4.684   5.695
10582SOL    HW132645   5.223   4.672   5.792
10582SOL    HW232646   5.256   4.620   5.641
10583SOL     OW32647   4.098   0.877   4.154
10583SOL    HW132648   4.030   0.900   4.223
10583SOL    HW232649   4.186   0.858   4.199
10584SOL     OW32650   6.569   0.395   0.964
10584SOL    HW132651   6.506   0.318   0.950
10584SOL    HW232652   6.558   0.429   1.057
10585SOL     OW32653   1.934   1.641   5.058
10585SOL    HW132654   1.919   1.727   5.010
10585SOL    HW232655   1.984   1.578   4.999
10586SOL     OW32656   6.683   5.359   4.473
10586SOL    HW132657   6.601   5.405   4.436
10586SOL    HW232658   6.765   5.405   4.439
10587SOL     OW32659   6.441   4.293   0.013
10587SOL    HW132660   6.407   4.200   7.019
10587SOL    HW232661   6.378   4.359   6.994
10588SOL     OW32662   1.259   3.201   4.207
10588SOL    HW132663   1.334   3.178   4.145
10588SOL    HW232664   1.216   3.286   4.176
10589SOL     OW32665   5.981   1.056   4.196
10589SOL    HW132666   6.050   0.996   4.155
10589SOL    HW232667   6.002   1.069   4.293
10590SOL     OW32668   0.964   0.237   1.626
10590SOL    HW132669   0.876   0.278   1.603
10590SOL    HW232670   1.008   0.202   1.543
10591SOL     OW32671   2.074   2.366   6.497
10591SOL    HW132672   2.016   2.423   6.555
10591SOL    HW232673   2.168   2.367   6.533
10592SOL     OW32674   5.258   3.468   2.523
10592SOL    HW132675   5.257   3.415   2.608
10592SOL    HW232676   5.318   3.547   2.534
10593SOL     OW32677   2.503   6.298   0.460
10593SOL    HW132678   2.577   6.295   0.393
10593SOL    HW232679   2.452   6.212   0.457
10594SOL     OW32680   5.099   0.703   2.305
10594SOL    HW132681   5.040   0.784   2.306
10594SOL    HW232682   5.049   0.625   2.267
10595SOL     OW32683   4.910   5.871   6.761
10595SOL    HW132684   4.852   5.897   6.684
10595SOL    HW232685   4.852   5.846   6.839
10596SOL     OW32686   4.450   6.910   0.486
10596SOL    HW132687   4.516   6.839   0.510
10596SOL    HW232688   4.363   6.893   0.532
10597SOL     OW32689   3.282   0.863   5.559
10597SOL    HW132690   3.335   0.947   5.564
10597SOL    HW232691   3.339   0.785   5.587
10598SOL     OW32692   3.009   2.753   6.959
10598SOL    HW132693   2.980   2.659   6.938
10598SOL    HW232694   3.067   2.787   6.885
10599SOL     OW32695   5.234   3.358   6.043
10599SOL    HW132696   5.295   3.288   6.079
10599SOL    HW232697   5.141   3.341   6.074
10600SOL     OW32698   2.460   2.798   0.571
10600SOL    HW132699   2.411   2.852   0.502
10600SOL    HW232700   2.487   2.858   0.646
10601SOL     OW32701   2.102   4.724   5.001
10601SOL    HW132702   2.101   4.824   5.012
10601SOL    HW232703   2.017   4.686   5.037
10602SOL     OW32704   3.115   1.365   1.997
10602SOL    HW132705   3.181   1.409   1.936
10602SOL    HW232706   3.139   1.269   2.009
10603SOL     OW32707   3.836   6.439   3.125
10603SOL    HW132708   3.740   6.464   3.138
10603SOL    HW232709   3.878   6.420   3.214
10604SOL     OW32710   6.163   5.158   5.593
10604SOL    HW132711   6.227   5.234   5.605
10604SOL    HW232712   6.071   5.193   5.581
10605SOL     OW32713   1.645   6.452   0.228
10605SOL    HW132714   1.632   6.545   0.195
10605SOL    HW232715   1.686   6.396   0.156
10606SOL     OW32716   0.019   0.418   2.553
10606SOL    HW132717   0.038   0.353   2.480
10606SOL    HW232718   6.983   0.493   2.517
10607SOL     OW32719   4.002   4.809   5.426
10607SOL    HW132720   3.911   4.828   5.387
10607SOL    HW232721   4.060   4.889   5.414
10608SOL     OW32722   5.806   2.476   5.870
10608SOL    HW132723   5.896   2.469   5.914
10608SOL    HW232724   5.754   2.548   5.915
10609SOL     OW32725   2.551   6.488   7.007
10609SOL    HW132726   2.574   6.471   6.911
10609SOL    HW232727   2.460   6.450   0.007
10610SOL     OW32728   0.607   2.369   5.021
10610SOL    HW132729   0.532   2.434   5.015
10610SOL    HW232730   0.681   2.408   5.077
10611SOL     OW32731   3.099   4.175   6.574
10611SOL    HW132732   3.056   4.173   6.484
10611SOL    HW232733   3.197   4.156   6.564
10612SOL     OW32734   3.752   1.244   4.536
10612SOL    HW132735   3.773   1.330   4.488
10612SOL    HW232736   3.737   1.262   4.633
10613SOL     OW32737   5.494   6.277   5.353
10613SOL    HW132738   5.441   6.291   5.437
10613SOL    HW232739   5.502   6.179   5.335
10614SOL     OW32740   5.796   1.842   4.708
10614SOL    HW132741   5.813   1.940   4.692
10614SOL    HW232742   5.874   1.802   4.755
10615SOL     OW32743   3.904   0.027   5.407
10615SOL    HW132744   3.852   6.996   5.475
10615SOL    HW232745   3.975   6.989   5.367
10616SOL     OW32746   3.061   6.670   0.945
10616SOL    HW132747   2.998   6.617   0.889
10616SOL    HW232748   3.149   6.622   0.952
10617SOL     OW32749   3.034   3.299   1.662
10617SOL    HW132750   3.119   3.334   1.702
10617SOL    HW232751   2.967   3.285   1.735
10618SOL     OW32752   0.727   3.467   6.238
10618SOL    HW132753   0.648   3.406   6.227
10618SOL    HW232754   0.711   3.528   6.316
10619SOL     OW32755   6.836   4.069   2.004
10619SOL    HW132756   6.815   4.066   1.906
10619SOL    HW232757   6.758   4.109   2.053
10620SOL     OW32758   1.080   5.679   4.669
10620SOL    HW132759   0.999   5.723   4.631
10620SOL    HW232760   1.053   5.622   4.748
10621SOL     OW32761   0.863   5.914   1.680
10621SOL    HW132762   0.920   5.956   1.751
10621SOL    HW232763   0.800   5.849   1.721
10622SOL     OW32764   5.481   1.816   1.521
10622SOL    HW132765   5.540   1.737   1.503
10622SOL    HW232766   5.385   1.788   1.515
10623SOL     OW32767   6.586   4.782   5.097
10623SOL    HW132768   6.558   4.706   5.039
10623SOL    HW232769   6.625   4.746   5.182
10624SOL     OW32770   0.617   2.953   4.653
10624SOL    HW132771   0.583   2.894   4.726
10624SOL    HW232772   0.611   3.048   4.681
10625SOL     OW32773   0.535   4.317   0.843
10625SOL    HW132774   0.550   4.234   0.895
10625SOL    HW232775   0.521   4.394   0.905
10626SOL     OW32776   2.628   3.136   0.830
10626SOL    HW132777   2.586   3.065   0.886
10626SOL    HW232778   2.727   3.137   0.845
10627SOL     OW32779   5.929   6.993   0.571
10627SOL    HW132780   5.912   6.986   0.669
10627SOL    HW232781   5.847   6.964   0.521
10628SOL     OW32782   5.787   6.363   0.106
10628SOL    HW132783   5.689   6.354   0.120
10628SOL    HW232784   5.810   6.338   0.012
10629SOL     OW32785   2.327   4.818   5.154
10629SOL    HW132786   2.243   4.776   5.119
10629SOL    HW232787   2.388   4.746   5.190
10630SOL     OW32788   6.414   1.608   3.505
10630SOL    HW132789   6.335   1.620   3.446
10630SOL    HW232790   6.419   1.684   3.570
10631SOL     OW32791   2.443   4.842   4.795
10631SOL    HW132792   2.379   4.798   4.733
10631SOL    HW232793   2.487   4.772   4.852
10632SOL     OW32794   5.956   1.796   3.821
10632SOL    HW132795   5.953   1.708   3.773
10632SOL    HW232796   5.866   1.817   3.859
10633SOL     OW32797   2.799   3.102   1.185
10633SOL    HW132798   2.854   3.120   1.267
10633SOL    HW232799   2.734   3.176   1.171
10634SOL     OW32800   3.213   5.530   0.889
10634SOL    HW132801   3.200   5.467   0.811
10634SOL    HW232802   3.310   5.533   0.913
10635SOL     OW32803   2.546   2.583   1.115
10635SOL    HW132804   2.507   2.503   1.161
10635SOL    HW232805   2.512   2.666   1.159
10636SOL     OW32806   1.272   1.958   1.437
10636SOL    HW132807   1.219   2.033   1.477
10636SOL    HW232808   1.224   1.872   1.454
10637SOL     OW32809   2.709   4.901   6.149
10637SOL    HW132810   2.710   4.855   6.061
10637SOL    HW232811   2.643   4.856   6.210
10638SOL     OW32812   6.564   5.768   2.777
10638SOL    HW132813   6.485   5.827   2.757
10638SOL    HW232814   6.579   5.706   2.700
10639SOL     OW32815   0.939   3.032   3.686
10639SOL    HW132816   0.904   3.120   3.717
10639SOL    HW232817   0.864   2.968   3.674
10640SOL     OW32818   3.673   0.278   5.160
10640SOL    HW132819   3.771   0.257   5.163
10640SOL    HW232820   3.652   0.325   5.074
10641SOL     OW32821   2.264   2.086   1.963
10641SOL    HW132822   2.196   2.103   1.892
10641SOL    HW232823   2.356   2.091   1.924
10642SOL     OW32824   6.749   3.338   1.824
10642SOL    HW132825   6.697   3.361   1.742
10642SOL    HW232826   6.690   3.290   1.889
10643SOL     OW32827   1.884   5.018   5.436
10643SOL    HW132828   1.792   5.038   5.403
10643SOL    HW232829   1.921   4.939   5.387
10644SOL     OW32830   5.311   2.726   3.492
10644SOL    HW132831   5.230   2.676   3.523
10644SOL    HW232832   5.393   2.676   3.520
10645SOL     OW32833   2.238   2.397   4.633
10645SOL    HW132834   2.300   2.435   4.564
10645SOL    HW232835   2.158   2.457   4.643
10646SOL     OW32836   6.681   0.589   6.368
10646SOL    HW132837   6.727   0.607   6.455
10646SOL    HW232838   6.583   0.579   6.385
10647SOL     OW32839   2.822   5.722   4.959
10647SOL    HW132840   2.813   5.642   4.900
10647SOL    HW232841   2.863   5.797   4.907
10648SOL     OW32842   5.463   4.452   5.984
10648SOL    HW132843   5.466   4.459   5.884
10648SOL    HW232844   5.503   4.365   6.012
10649SOL     OW32845   0.187   4.646   2.320
10649SOL    HW132846   0.141   4.563   2.288
10649SOL    HW232847   0.264   4.621   2.379
10650SOL     OW32848   0.885   6.806   3.813
10650SOL    HW132849   0.815   6.775   3.878
10650SOL    HW232850   0.900   6.736   3.744
10651SOL     OW32851   5.403   6.169   6.398
10651SOL    HW132852   5.481   6.109   6.415
10651SOL    HW232853   5.396   6.187   6.300
10652SOL     OW32854   3.612   6.943   5.762
10652SOL    HW132855   3.551   6.868   5.786
10652SOL    HW232856   3.671   6.965   5.840
10653SOL     OW32857   4.690   4.454   4.171
10653SOL    HW132858   4.650   4.479   4.082
10653SOL    HW232859   4.770   4.512   4.189
10654SOL     OW32860   5.158   0.844   0.627
10654SOL    HW132861   5.070   0.880   0.596
10654SOL    HW232862   5.216   0.919   0.659
10655SOL     OW32863   2.274   5.327   0.832
10655SOL    HW132864   2.270   5.422   0.801
10655SOL    HW232865   2.191   5.279   0.803
10656SOL     OW32866   6.676   2.433   2.226
10656SOL    HW132867   6.743   2.378   2.276
10656SOL    HW232868   6.592   2.380   2.214
10657SOL     OW32869   6.531   6.837   5.967
10657SOL    HW132870   6.433   6.854   5.965
10657SOL    HW232871   6.580   6.923   5.954
10658SOL     OW32872   5.819   4.587   5.304
10658SOL    HW132873   5.803   4.634   5.391
10658SOL    HW232874   5.792   4.646   5.228
10659SOL     OW32875   6.587   5.793   1.315
10659SOL    HW132876   6.608   5.875   1.368
10659SOL    HW232877   6.569   5.717   1.376
10660SOL     OW32878   5.407   4.167   6.897
10660SOL    HW132879   5.442   4.101   6.963
10660SOL    HW232880   5.396   4.123   6.808
10661SOL     OW32881   1.298   0.304   2.145
10661SOL    HW132882   1.258   0.350   2.066
10661SOL    HW232883   1.358   0.368   2.194
10662SOL     OW32884   5.416   0.329   3.365
10662SOL    HW132885   5.366   0.243   3.355
10662SOL    HW232886   5.437   0.346   3.461
10663SOL     OW32887   0.678   1.093   1.624
10663SOL    HW132888   0.702   1.190   1.614
10663SOL    HW232889   0.732   1.053   1.698
10664SOL     OW32890   0.446   4.634   5.309
10664SOL    HW132891   0.505   4.686   5.372
10664SOL    HW232892   0.350   4.651   5.332
10665SOL     OW32893   1.070   1.093   0.706
10665SOL    HW132894   1.104   1.027   0.773
10665SOL    HW232895   1.147   1.141   0.665
10666SOL     OW32896   3.139   3.997   1.363
10666SOL    HW132897   3.223   3.943   1.362
10666SOL    HW232898   3.133   4.050   1.448
10667SOL     OW32899   3.943   3.462   5.239
10667SOL    HW132900   4.035   3.501   5.236
10667SOL    HW232901   3.892   3.489   5.158
10668SOL     OW32902   1.495   1.036   4.855
10668SOL    HW132903   1.578   1.010   4.905
10668SOL    HW232904   1.519   1.101   4.783
10669SOL     OW32905   5.832   6.370   1.016
10669SOL    HW132906   5.863   6.329   0.931
10669SOL    HW232907   5.768   6.308   1.062
10670SOL     OW32908   5.185   3.463   5.041
10670SOL    HW132909   5.175   3.474   4.942
10670SOL    HW232910   5.250   3.389   5.059
10671SOL     OW32911   2.670   2.311   3.416
10671SOL    HW132912   2.628   2.351   3.334
10671SOL    HW232913   2.761   2.277   3.393
10672SOL     OW32914   6.212   2.608   0.291
10672SOL    HW132915   6.235   2.649   0.202
10672SOL    HW232916   6.223   2.509   0.285
10673SOL     OW32917   1.301   1.271   6.982
10673SOL    HW132918   1.313   1.254   0.059
10673SOL    HW232919   1.386   1.248   6.934
10674SOL     OW32920   3.585   3.709   1.864
10674SOL    HW132921   3.503   3.764   1.852
10674SOL    HW232922   3.562   3.625   1.914
10675SOL     OW32923   1.762   6.599   6.593
10675SOL    HW132924   1.732   6.660   6.666
10675SOL    HW232925   1.723   6.629   6.506
10676SOL     OW32926   6.586   6.410   6.224
10676SOL    HW132927   6.522   6.417   6.148
10676SOL    HW232928   6.648   6.333   6.207
10677SOL     OW32929   1.079   1.033   2.567
10677SOL    HW132930   1.106   1.018   2.662
10677SOL    HW232931   1.127   0.969   2.508
10678SOL     OW32932   3.155   5.714   3.766
10678SOL    HW132933   3.177   5.750   3.857
10678SOL    HW232934   3.163   5.614   3.767
10679SOL     OW32935   4.511   5.976   6.778
10679SOL    HW132936   4.540   6.060   6.822
10679SOL    HW232937   4.560   5.898   6.818
10680SOL     OW32938   2.709   1.615   3.500
10680SOL    HW132939   2.669   1.658   3.581
10680SOL    HW232940   2.671   1.657   3.418
10681SOL     OW32941   0.651   3.780   0.363
10681SOL    HW132942   0.582   3.852   0.372
10681SOL    HW232943   0.637   3.711   0.433
10682SOL     OW32944   2.063   1.339   4.173
10682SOL    HW132945   2.148   1.381   4.140
10682SOL    HW232946   2.041   1.377   4.263
10683SOL     OW32947   3.162   1.877   4.172
10683SOL    HW132948   3.165   1.969   4.211
10683SOL    HW232949   3.095   1.874   4.098
10684SOL     OW32950   5.346   4.158   1.144
10684SOL    HW132951   5.288   4.112   1.212
10684SOL    HW232952   5.437   4.173   1.182
10685SOL     OW32953   0.569   5.964   2.829
10685SOL    HW132954   0.547   6.061   2.841
10685SOL    HW232955   0.485   5.912   2.817
10686SOL     OW32956   1.240   4.747   6.490
10686SOL    HW132957   1.160   4.786   6.444
10686SOL    HW232958   1.300   4.820   6.522
10687SOL     OW32959   6.987   5.569   2.094
10687SOL    HW132960   6.932   5.651   2.077
10687SOL    HW232961   6.931   5.488   2.081
10688SOL     OW32962   6.032   4.263   2.842
10688SOL    HW132963   5.949   4.228   2.885
10688SOL    HW232964   6.098   4.288   2.912
10689SOL     OW32965   0.578   6.992   3.545
10689SOL    HW132966   0.578   6.956   3.452
10689SOL    HW232967   0.579   0.072   3.542
10690SOL     OW32968   0.235   6.520   3.134
10690SOL    HW132969   0.149   6.570   3.133
10690SOL    HW232970   0.311   6.584   3.131
10691SOL     OW32971   0.808   1.754   2.185
10691SOL    HW132972   0.849   1.829   2.133
10691SOL    HW232973   0.732   1.790   2.240
10692SOL     OW32974   3.318   4.903   2.768
10692SOL    HW132975   3.260   4.879   2.845
10692SOL    HW232976   3.268   4.891   2.682
10693SOL     OW32977   2.866   0.211   0.860
10693SOL    HW132978   2.901   0.147   0.929
10693SOL    HW232979   2.770   0.232   0.880
10694SOL     OW32980   5.070   6.548   1.137
10694SOL    HW132981   4.987   6.587   1.178
10694SOL    HW232982   5.150   6.599   1.169
10695SOL     OW32983   5.498   2.116   2.834
10695SOL    HW132984   5.447   2.090   2.752
10695SOL    HW232985   5.435   2.154   2.902
10696SOL     OW32986   6.361   3.984   3.880
10696SOL    HW132987   6.317   4.073   3.891
10696SOL    HW232988   6.447   3.995   3.830
10697SOL     OW32989   0.497   5.489   4.791
10697SOL    HW132990   0.401   5.465   4.774
10697SOL    HW232991   0.556   5.429   4.739
10698SOL     OW32992   3.440   5.524   4.715
10698SOL    HW132993   3.370   5.466   4.673
10698SOL    HW232994   3.502   5.468   4.770
10699SOL     OW32995   4.206   2.411   1.755
10699SOL    HW132996   4.149   2.492   1.737
10699SOL    HW232997   4.300   2.440   1.769
10700SOL     OW32998   0.514   0.190   0.600
10700SOL    HW132999   0.602   0.186   0.551
10700SOL    HW233000   0.480   0.098   0.614
10701SOL     OW33001   2.855   5.552   0.337
10701SOL    HW133002   2.875   5.466   0.292
10701SOL    HW233003   2.934   5.582   0.390
10702SOL     OW33004   6.063   2.168   2.172
10702SOL    HW133005   6.106   2.086   2.134
10702SOL    HW233006   6.127   2.215   2.233
10703SOL     OW33007   2.935   3.401   4.155
10703SOL    HW133008   2.928   3.304   4.181
10703SOL    HW233009   2.906   3.458   4.232
10704SOL     OW33010   5.996   5.433   1.500
10704SOL    HW133011   5.928   5.462   1.432
10704SOL    HW233012   6.073   5.497   1.498
10705SOL     OW33013   6.391   4.041   2.328
10705SOL    HW133014   6.375   4.092   2.412
10705SOL    HW233015   6.373   4.100   2.249
10706SOL     OW33016   4.487   6.394   2.167
10706SOL    HW133017   4.499   6.398   2.266
10706SOL    HW233018   4.568   6.354   2.125
10707SOL     OW33019   0.343   0.030   3.672
10707SOL    HW133020   0.269   6.984   3.663
10707SOL    HW233021   0.430   7.008   3.646
10708SOL     OW33022   4.386   0.620   2.673
10708SOL    HW133023   4.427   0.538   2.713
10708SOL    HW233024   4.299   0.639   2.718
10709SOL     OW33025   6.210   0.382   5.154
10709SOL    HW133026   6.171   0.347   5.239
10709SOL    HW233027   6.296   0.429   5.173
10710SOL     OW33028   0.486   6.452   4.284
10710SOL    HW133029   0.566   6.478   4.230
10710SOL    HW233030   0.422   6.529   4.287
10711SOL     OW33031   1.822   6.470   3.152
10711SOL    HW133032   1.834   6.564   3.185
10711SOL    HW233033   1.740   6.465   3.095
10712SOL     OW33034   2.912   1.284   1.741
10712SOL    HW133035   2.945   1.223   1.814
10712SOL    HW233036   2.899   1.231   1.657
10713SOL     OW33037   0.760   3.605   1.900
10713SOL    HW133038   0.806   3.517   1.886
10713SOL    HW233039   0.787   3.668   1.827
10714SOL     OW33040   6.112   3.629   6.235
10714SOL    HW133041   6.074   3.718   6.259
10714SOL    HW233042   6.161   3.591   6.313
10715SOL     OW33043   4.907   6.731   3.037
10715SOL    HW133044   4.972   6.727   3.113
10715SOL    HW233045   4.817   6.755   3.072
10716SOL     OW33046   6.348   2.710   4.572
10716SOL    HW133047   6.269   2.678   4.519
10716SOL    HW233048   6.376   2.638   4.636
10717SOL     OW33049   1.261   2.689   0.620
10717SOL    HW133050   1.273   2.784   0.592
10717SOL    HW233051   1.182   2.650   0.573
10718SOL     OW33052   0.103   3.408   6.435
10718SOL    HW133053   0.186   3.456   6.464
10718SOL    HW233054   0.069   3.352   6.510
10719SOL     OW33055   4.530   6.164   6.971
10719SOL    HW133056   4.441   6.207   6.961
10719SOL    HW233057   4.532   6.111   0.035
10720SOL     OW33058   6.828   2.859   5.777
10720SOL    HW133059   6.796   2.837   5.869
10720SOL    HW233060   6.753   2.899   5.724
10721SOL     OW33061   6.347   3.506   5.668
10721SOL    HW133062   6.288   3.557   5.730
10721SOL    HW233063   6.348   3.551   5.579
10722SOL     OW33064   6.703   3.263   0.653
10722SOL    HW133065   6.802   3.262   0.668
10722SOL    HW233066   6.668   3.170   0.657
10723SOL     OW33067   6.669   3.462   0.068
10723SOL    HW133068   6.603   3.435   7.018
10723SOL    HW233069   6.628   3.530   0.128
10724SOL     OW33070   4.219   0.609   6.564
10724SOL    HW133071   4.248   0.703   6.581
10724SOL    HW233072   4.149   0.609   6.492
10725SOL     OW33073   6.944   5.323   3.853
10725SOL    HW133074   0.017   5.326   3.889
10725SOL    HW233075   6.924   5.408   3.804
10726SOL     OW33076   5.891   6.064   5.743
10726SOL    HW133077   5.831   6.129   5.695
10726SOL    HW233078   5.983   6.069   5.704
10727SOL     OW33079   1.115   4.798   3.504
10727SOL    HW133080   1.088   4.807   3.408
10727SOL    HW233081   1.138   4.889   3.540
10728SOL     OW33082   6.256   6.506   1.679
10728SOL    HW133083   6.207   6.569   1.618
10728SOL    HW233084   6.199   6.484   1.758
10729SOL     OW33085   6.367   0.562   3.060
10729SOL    HW133086   6.289   0.517   3.102
10729SOL    HW233087   6.418   0.496   3.005
10730SOL     OW33088   2.883   0.344   1.343
10730SOL    HW133089   2.900   0.361   1.246
10730SOL    HW233090   2.945   0.400   1.398
10731SOL     OW33091   2.047   5.882   6.474
10731SOL    HW133092   2.122   5.824   6.442
10731SOL    HW233093   1.996   5.835   6.546
10732SOL     OW33094   5.732   6.470   2.727
10732SOL    HW133095   5.727   6.453   2.825
10732SOL    HW233096   5.643   6.449   2.685
10733SOL     OW33097   5.824   2.055   6.869
10733SOL    HW133098   5.849   1.968   6.827
10733SOL    HW233099   5.778   2.037   6.956
10734SOL     OW33100   1.197   0.636   6.702
10734SOL    HW133101   1.133   0.603   6.633
10734SOL    HW233102   1.176   0.731   6.724
10735SOL     OW33103   1.835   4.842   2.316
10735SOL    HW133104   1.818   4.745   2.302
10735SOL    HW233105   1.910   4.872   2.257
10736SOL     OW33106   0.920   1.232   3.479
10736SOL    HW133107   1.001   1.289   3.495
10736SOL    HW233108   0.946   1.153   3.423
10737SOL     OW33109   1.441   1.592   0.217
10737SOL    HW133110   1.517   1.536   0.249
10737SOL    HW233111   1.474   1.657   0.148
10738SOL     OW33112   2.280   0.601   2.106
10738SOL    HW133113   2.270   0.645   2.017
10738SOL    HW233114   2.220   0.521   2.111
10739SOL     OW33115   0.708   1.095   2.151
10739SOL    HW133116   0.757   1.062   2.232
10739SOL    HW233117   0.653   1.175   2.176
10740SOL     OW33118   1.376   4.350   6.316
10740SOL    HW133119   1.372   4.313   6.409
10740SOL    HW233120   1.455   4.312   6.268
10741SOL     OW33121   0.946   0.997   3.299
10741SOL    HW133122   0.899   0.924   3.348
10741SOL    HW233123   1.030   0.962   3.259
10742SOL     OW33124   5.874   0.238   1.473
10742SOL    HW133125   5.778   0.213   1.459
10742SOL    HW233126   5.895   0.236   1.571
10743SOL     OW33127   2.615   2.470   3.655
10743SOL    HW133128   2.534   2.528   3.646
10743SOL    HW233129   2.657   2.456   3.565
10744SOL     OW33130   3.425   1.676   2.661
10744SOL    HW133131   3.474   1.758   2.630
10744SOL    HW233132   3.483   1.622   2.721
10745SOL     OW33133   0.643   4.980   0.397
10745SOL    HW133134   0.664   5.031   0.481
10745SOL    HW233135   0.545   4.988   0.377
10746SOL     OW33136   1.618   4.137   1.657
10746SOL    HW133137   1.566   4.182   1.585
10746SOL    HW233138   1.630   4.041   1.635
10747SOL     OW33139   4.911   1.850   3.387
10747SOL    HW133140   4.874   1.759   3.405
10747SOL    HW233141   4.997   1.861   3.437
10748SOL     OW33142   5.313   7.007   1.164
10748SOL    HW133143   5.398   6.994   1.216
10748SOL    HW233144   5.281   0.081   1.178
10749SOL     OW33145   0.440   4.794   2.483
10749SOL    HW133146   0.418   4.793   2.580
10749SOL    HW233147   0.485   4.880   2.459
10750SOL     OW33148   4.285   5.878   4.491
10750SOL    HW133149   4.215   5.857   4.559
10750SOL    HW233150   4.311   5.794   4.443
10751SOL     OW33151   0.791   3.908   5.231
10751SOL    HW133152   0.762   3.815   5.208
10751SOL    HW233153   0.863   3.937   5.169
10752SOL     OW33154   6.601   3.682   6.310
10752SOL    HW133155   6.639   3.591   6.321
10752SOL    HW233156   6.559   3.712   6.396
10753SOL     OW33157   5.894   0.712   3.637
10753SOL    HW133158   5.899   0.614   3.617
10753SOL    HW233159   5.955   0.734   3.713
10754SOL     OW33160   2.258   2.154   3.511
10754SOL    HW133161   2.188   2.212   3.553
10754SOL    HW233162   2.348   2.178   3.548
10755SOL     OW33163   0.581   1.764   0.764
10755SOL    HW133164   0.601   1.702   0.688
10755SOL    HW233165   0.539   1.713   0.839
10756SOL     OW33166   6.167   4.146   0.138
10756SOL    HW133167   6.098   4.173   0.070
10756SOL    HW233168   6.136   4.064   0.186
10757SOL     OW33169   6.851   3.468   0.823
10757SOL    HW133170   6.821   3.410   0.898
10757SOL    HW233171   6.794   3.550   0.819
10758SOL     OW33172   1.704   6.091   5.002
10758SOL    HW133173   1.629   6.068   4.940
10758SOL    HW233174   1.769   6.015   5.006
10759SOL     OW33175   1.858   3.206   6.919
10759SOL    HW133176   1.762   3.180   6.934
10759SOL    HW233177   1.876   3.294   6.964
10760SOL     OW33178   0.017   0.403   0.582
10760SOL    HW133179   0.002   0.323   0.639
10760SOL    HW233180   0.098   0.388   0.524
10761SOL     OW33181   0.894   1.983   6.273
10761SOL    HW133182   0.964   2.016   6.210
10761SOL    HW233183   0.855   2.061   6.323
10762SOL     OW33184   4.446   1.696   5.041
10762SOL    HW133185   4.363   1.640   5.035
10762SOL    HW233186   4.430   1.783   4.993
10763SOL     OW33187   4.654   6.186   0.551
10763SOL    HW133188   4.675   6.243   0.631
10763SOL    HW233189   4.731   6.125   0.533
10764SOL     OW33190   5.510   1.401   5.814
10764SOL    HW133191   5.447   1.420   5.889
10764SOL    HW233192   5.538   1.486   5.771
10765SOL     OW33193   5.591   2.842   1.280
10765SOL    HW133194   5.623   2.813   1.190
10765SOL    HW233195   5.658   2.814   1.349
10766SOL     OW33196   2.897   3.225   7.016
10766SOL    HW133197   2.904   3.228   0.095
10766SOL    HW233198   2.823   3.286   6.986
10767SOL     OW33199   1.193   0.506   0.704
10767SOL    HW133200   1.155   0.466   0.620
10767SOL    HW233201   1.292   0.515   0.696
10768SOL     OW33202   5.451   5.174   0.651
10768SOL    HW133203   5.495   5.141   0.734
10768SOL    HW233204   5.363   5.216   0.674
10769SOL     OW33205   2.133   4.794   4.353
10769SOL    HW133206   2.194   4.828   4.281
10769SOL    HW233207   2.119   4.695   4.340
10770SOL     OW33208   5.415   6.874   4.611
10770SOL    HW133209   5.386   6.785   4.574
10770SOL    HW233210   5.495   6.861   4.669
10771SOL     OW33211   4.716   0.069   4.973
10771SOL    HW133212   4.754   7.014   4.918
10771SOL    HW233213   4.784   0.099   5.040
10772SOL     OW33214   6.486   6.611   4.260
10772SOL    HW133215   6.507   6.642   4.167
10772SOL    HW233216   6.433   6.681   4.307
10773SOL     OW33217   6.435   5.362   6.713
10773SOL    HW133218   6.353   5.374   6.770
10773SOL    HW233219   6.407   5.346   6.618
10774SOL     OW33220   1.714   1.999   0.006
10774SOL    HW133221   1.730   2.020   0.102
10774SOL    HW233222   1.755   1.911   7.004
10775SOL     OW33223   0.650   3.776   0.922
10775SOL    HW133224   0.627   3.718   1.000
10775SOL    HW233225   0.685   3.719   0.848
10776SOL     OW33226   1.256   6.314   0.954
10776SOL    HW133227   1.331   6.374   0.926
10776SOL    HW233228   1.253   6.234   0.894
10777SOL     OW33229   4.029   6.790   4.200
10777SOL    HW133230   4.064   6.878   4.232
10777SOL    HW233231   3.963   6.754   4.265
10778SOL     OW33232   5.385   6.167   4.995
10778SOL    HW133233   5.444   6.206   5.066
10778SOL    HW233234   5.290   6.174   5.024
10779SOL     OW33235   6.193   4.874   3.466
10779SOL    HW133236   6.155   4.794   3.418
10779SOL    HW233237   6.290   4.882   3.444
10780SOL     OW33238   1.281   6.833   2.458
10780SOL    HW133239   1.262   6.929   2.437
10780SOL    HW233240   1.324   6.790   2.378
10781SOL     OW33241   4.080   1.461   3.355
10781SOL    HW133242   4.058   1.363   3.360
10781SOL    HW233243   4.042   1.508   3.434
10782SOL     OW33244   6.687   2.341   3.738
10782SOL    HW133245   6.673   2.289   3.654
10782SOL    HW233246   6.607   2.331   3.797
10783SOL     OW33247   1.212   3.161   3.466
10783SOL    HW133248   1.121   3.196   3.445
10783SOL    HW233249   1.242   3.195   3.555
10784SOL     OW33250   2.722   0.095   2.163
10784SOL    HW133251   2.652   0.156   2.127
10784SOL    HW233252   2.690   0.055   2.249
10785SOL     OW33253   0.401   5.074   1.194
10785SOL    HW133254   0.449   4.991   1.222
10785SOL    HW233255   0.303   5.058   1.197
10786SOL     OW33256   5.022   3.076   1.860
10786SOL    HW133257   4.988   3.113   1.947
10786SOL    HW233258   4.945   3.050   1.802
10787SOL     OW33259   3.476   2.069   4.644
10787SOL    HW133260   3.531   1.989   4.670
10787SOL    HW233261   3.511   2.150   4.691
10788SOL     OW33262   2.110   4.832   0.493
10788SOL    HW133263   2.023   4.879   0.511
10788SOL    HW233264   2.143   4.858   0.402
10789SOL     OW33265   6.042   1.699   0.726
10789SOL    HW133266   6.081   1.646   0.801
10789SOL    HW233267   5.974   1.762   0.762
10790SOL     OW33268   1.152   1.072   3.877
10790SOL    HW133269   1.061   1.060   3.836
10790SOL    HW233270   1.222   1.055   3.808
10791SOL     OW33271   0.597   1.324   1.097
10791SOL    HW133272   0.683   1.288   1.061
10791SOL    HW233273   0.521   1.295   1.039
10792SOL     OW33274   3.410   3.271   1.917
10792SOL    HW133275   3.315   3.291   1.942
10792SOL    HW233276   3.418   3.175   1.891
10793SOL     OW33277   5.236   2.670   4.328
10793SOL    HW133278   5.184   2.747   4.364
10793SOL    HW233279   5.239   2.597   4.395
10794SOL     OW33280   3.354   4.116   2.908
10794SOL    HW133281   3.368   4.156   2.999
10794SOL    HW233282   3.438   4.124   2.854
10795SOL     OW33283   6.474   3.962   4.209
10795SOL    HW133284   6.392   4.015   4.229
10795SOL    HW233285   6.501   3.976   4.113
10796SOL     OW33286   4.820   6.036   7.003
10796SOL    HW133287   4.871   6.003   6.924
10796SOL    HW233288   4.750   6.101   6.972
10797SOL     OW33289   4.603   2.288   0.909
10797SOL    HW133290   4.599   2.383   0.940
10797SOL    HW233291   4.693   2.250   0.932
10798SOL     OW33292   2.378   0.226   0.609
10798SOL    HW133293   2.320   0.184   0.678
10798SOL    HW233294   2.321   0.265   0.537
10799SOL     OW33295   3.451   1.452   2.011
10799SOL    HW133296   3.498   1.536   2.036
10799SOL    HW233297   3.403   1.465   1.924
10800SOL     OW33298   1.330   0.259   0.060
10800SOL    HW133299   1.424   0.289   0.078
10800SOL    HW233300   1.280   0.253   0.147
10801SOL     OW33301   0.759   0.078   4.960
10801SOL    HW133302   0.852   0.108   4.941
10801SOL    HW233303   0.761   7.016   5.016
10802SOL     OW33304   2.144   3.248   4.785
10802SOL    HW133305   2.224   3.302   4.810
10802SOL    HW233306   2.069   3.269   4.847
10803SOL     OW33307   4.474   4.217   5.276
10803SOL    HW133308   4.540   4.156   5.232
10803SOL    HW233309   4.450   4.291   5.213
10804SOL     OW33310   0.062   3.918   1.270
10804SOL    HW133311   0.050   4.003   1.218
10804SOL    HW233312   0.022   3.929   1.361
10805SOL     OW33313   3.057   6.780   6.768
10805SOL    HW133314   3.081   6.696   6.818
10805SOL    HW233315   3.133   6.806   6.708
10806SOL     OW33316   5.105   4.438   6.457
10806SOL    HW133317   5.049   4.361   6.487
10806SOL    HW233318   5.187   4.404   6.412
10807SOL     OW33319   2.779   6.933   3.410
10807SOL    HW133320   2.791   6.910   3.313
10807SOL    HW233321   2.682   6.938   3.432
10808SOL     OW33322   6.821   3.603   6.899
10808SOL    HW133323   6.876   3.680   6.932
10808SOL    HW233324   6.778   3.557   6.977
10809SOL     OW33325   2.218   6.609   3.726
10809SOL    HW133326   2.238   6.607   3.628
10809SOL    HW233327   2.267   6.684   3.768
10810SOL     OW33328   1.500   0.375   4.878
10810SOL    HW133329   1.570   0.376   4.806
10810SOL    HW233330   1.442   0.293   4.867
10811SOL     OW33331   4.795   4.627   5.587
10811SOL    HW133332   4.696   4.620   5.602
10811SOL    HW233333   4.830   4.706   5.638
10812SOL     OW33334   0.590   3.245   2.527
10812SOL    HW133335   0.518   3.296   2.481
10812SOL    HW233336   0.650   3.202   2.460
10813SOL     OW33337   1.654   5.995   0.056
10813SOL    HW133338   1.638   6.053   6.996
10813SOL    HW233339   1.686   6.051   0.132
10814SOL     OW33340   1.742   6.819   6.764
10814SOL    HW133341   1.758   6.894   6.699
10814SOL    HW233342   1.754   6.854   6.857
10815SOL     OW33343   5.082   4.769   3.061
10815SOL    HW133344   5.113   4.824   2.984
10815SOL    HW233345   5.014   4.703   3.031
10816SOL     OW33346   1.322   1.885   2.352
10816SOL    HW133347   1.289   1.855   2.442
10816SOL    HW233348   1.249   1.873   2.285
10817SOL     OW33349   5.398   0.012   2.365
10817SOL    HW133350   5.409   0.035   2.461
10817SOL    HW233351   5.470   0.057   2.312
10818SOL     OW33352   4.486   3.920   5.393
10818SOL    HW133353   4.437   4.001   5.360
10818SOL    HW233354   4.582   3.926   5.366
10819SOL     OW33355   6.702   4.443   6.981
10819SOL    HW133356   6.617   4.391   6.978
10819SOL    HW233357   6.688   4.533   6.940
10820SOL     OW33358   5.810   5.615   4.550
10820SOL    HW133359   5.833   5.704   4.511
10820SOL    HW233360   5.728   5.579   4.505
10821SOL     OW33361   5.397   6.432   1.770
10821SOL    HW133362   5.310   6.482   1.772
10821SOL    HW233363   5.448   6.451   1.854
10822SOL     OW33364   0.751   2.675   3.199
10822SOL    HW133365   0.740   2.577   3.182
10822SOL    HW233366   0.771   2.721   3.113
10823SOL     OW33367   1.433   5.036   1.955
10823SOL    HW133368   1.520   5.072   1.920
10823SOL    HW233369   1.416   5.074   2.046
10824SOL     OW33370   5.010   0.159   3.879
10824SOL    HW133371   5.023   0.059   3.881
10824SOL    HW233372   5.094   0.203   3.848
10825SOL     OW33373   2.687   0.595   7.020
10825SOL    HW133374   2.623   0.551   0.062
10825SOL    HW233375   2.768   0.537   7.009
10826SOL     OW33376   0.611   4.012   3.992
10826SOL    HW133377   0.710   4.012   4.003
10826SOL    HW233378   0.568   3.973   4.074
10827SOL     OW33379   5.680   3.880   4.698
10827SOL    HW133380   5.609   3.936   4.657
10827SOL    HW233381   5.718   3.818   4.628
10828SOL     OW33382   1.014   5.485   2.192
10828SOL    HW133383   1.030   5.388   2.212
10828SOL    HW233384   1.102   5.534   2.194
10829SOL     OW33385   3.857   2.406   0.480
10829SOL    HW133386   3.886   2.378   0.572
10829SOL    HW233387   3.887   2.500   0.464
10830SOL     OW33388   5.311   2.079   3.535
10830SOL    HW133389   5.308   2.176   3.558
10830SOL    HW233390   5.406   2.051   3.518
10831SOL     OW33391   4.049   5.756   1.652
10831SOL    HW133392   4.020   5.768   1.747
10831SOL    HW233393   4.146   5.780   1.644
10832SOL     OW33394   0.559   2.185   0.823
10832SOL    HW133395   0.476   2.228   0.857
10832SOL    HW233396   0.575   2.099   0.873
10833SOL     OW33397   1.410   0.923   3.670
10833SOL    HW133398   1.368   0.842   3.710
10833SOL    HW233399   1.468   0.967   3.739
10834SOL     OW33400   1.407   2.040   6.121
10834SOL    HW133401   1.408   2.134   6.088
10834SOL    HW233402   1.448   1.980   6.053
10835SOL     OW33403   6.217   1.590   1.296
10835SOL    HW133404   6.225   1.500   1.338
10835SOL    HW233405   6.288   1.650   1.334
10836SOL     OW33406   6.428   1.301   4.900
10836SOL    HW133407   6.421   1.386   4.951
10836SOL    HW233408   6.348   1.291   4.840
10837SOL     OW33409   0.245   5.049   0.294
10837SOL    HW133410   0.188   5.085   0.220
10837SOL    HW233411   0.322   5.110   0.309
10838SOL     OW33412   5.712   6.342   4.978
10838SOL    HW133413   5.733   6.410   4.908
10838SOL    HW233414   5.776   6.266   4.971
10839SOL     OW33415   3.260   3.104   0.077
10839SOL    HW133416   3.183   3.041   0.088
10839SOL    HW233417   3.337   3.056   0.035
10840SOL     OW33418   4.253   5.711   1.324
10840SOL    HW133419   4.169   5.763   1.308
10840SOL    HW233420   4.242   5.657   1.408
10841SOL     OW33421   3.536   6.483   0.044
10841SOL    HW133422   3.507   6.570   0.084
10841SOL    HW233423   3.595   6.501   6.986
10842SOL     OW33424   5.389   3.315   1.339
10842SOL    HW133425   5.406   3.332   1.436
10842SOL    HW233426   5.341   3.393   1.299
10843SOL     OW33427   0.769   2.225   2.139
10843SOL    HW133428   0.849   2.272   2.102
10843SOL    HW233429   0.686   2.264   2.100
10844SOL     OW33430   0.409   0.102   4.001
10844SOL    HW133431   0.469   0.124   4.078
10844SOL    HW233432   0.401   0.182   3.942
10845SOL     OW33433   3.109   0.601   0.217
10845SOL    HW133434   3.155   0.667   0.158
10845SOL    HW233435   3.039   0.647   0.271
10846SOL     OW33436   4.798   3.309   0.700
10846SOL    HW133437   4.699   3.306   0.718
10846SOL    HW233438   4.846   3.259   0.772
10847SOL     OW33439   3.244   2.657   6.668
10847SOL    HW133440   3.276   2.672   6.762
10847SOL    HW233441   3.287   2.575   6.631
10848SOL     OW33442   3.255   2.179   6.512
10848SOL    HW133443   3.268   2.088   6.471
10848SOL    HW233444   3.166   2.215   6.484
10849SOL     OW33445   2.694   4.614   3.305
10849SOL    HW133446   2.719   4.620   3.401
10849SOL    HW233447   2.634   4.691   3.281
10850SOL     OW33448   4.652   6.592   6.919
10850SOL    HW133449   4.742   6.548   6.922
10850SOL    HW233450   4.585   6.534   6.966
10851SOL     OW33451   2.933   2.994   6.546
10851SOL    HW133452   2.937   2.950   6.456
10851SOL    HW233453   2.839   3.018   6.567
10852SOL     OW33454   0.277   6.423   6.189
10852SOL    HW133455   0.364   6.432   6.140
10852SOL    HW233456   0.240   6.513   6.210
10853SOL     OW33457   3.441   1.620   5.694
10853SOL    HW133458   3.467   1.654   5.603
10853SOL    HW233459   3.351   1.656   5.719
10854SOL     OW33460   5.980   6.240   5.472
10854SOL    HW133461   6.059   6.212   5.526
10854SOL    HW233462   5.908   6.274   5.532
10855SOL     OW33463   3.062   6.301   1.958
10855SOL    HW133464   2.983   6.297   1.897
10855SOL    HW233465   3.125   6.372   1.928
10856SOL     OW33466   6.052   1.483   2.609
10856SOL    HW133467   6.072   1.428   2.690
10856SOL    HW233468   6.137   1.519   2.571
10857SOL     OW33469   5.609   3.341   3.876
10857SOL    HW133470   5.706   3.365   3.876
10857SOL    HW233471   5.588   3.287   3.957
10858SOL     OW33472   0.982   2.954   6.357
10858SOL    HW133473   0.961   2.864   6.394
10858SOL    HW233474   1.039   3.004   6.422
10859SOL     OW33475   2.101   3.968   4.143
10859SOL    HW133476   2.042   4.045   4.118
10859SOL    HW233477   2.131   3.922   4.061
10860SOL     OW33478   6.540   1.650   6.162
10860SOL    HW133479   6.560   1.651   6.260
10860SOL    HW233480   6.621   1.619   6.112
10861SOL     OW33481   3.869   2.932   2.596
10861SOL    HW133482   3.774   2.956   2.616
10861SOL    HW233483   3.921   2.928   2.681
10862SOL     OW33484   2.812   1.534   6.828
10862SOL    HW133485   2.869   1.606   6.870
10862SOL    HW233486   2.871   1.463   6.790
10863SOL     OW33487   4.058   0.374   2.341
10863SOL    HW133488   4.052   0.331   2.251
10863SOL    HW233489   3.973   0.423   2.360
10864SOL     OW33490   2.635   4.987   1.011
10864SOL    HW133491   2.574   5.027   0.942
10864SOL    HW233492   2.725   5.030   1.005
10865SOL     OW33493   5.636   1.799   3.814
10865SOL    HW133494   5.624   1.717   3.870
10865SOL    HW233495   5.548   1.844   3.800
10866SOL     OW33496   4.953   5.214   0.749
10866SOL    HW133497   4.908   5.125   0.755
10866SOL    HW233498   5.052   5.202   0.756
10867SOL     OW33499   3.125   4.254   0.457
10867SOL    HW133500   3.053   4.186   0.439
10867SOL    HW233501   3.128   4.275   0.555
10868SOL     OW33502   1.841   1.973   3.512
10868SOL    HW133503   1.840   1.873   3.522
10868SOL    HW233504   1.902   1.997   3.436
10869NA      NA33505   0.297   2.453   6.198
10870NA      NA33506   4.503   4.628   5.112
10871NA      NA33507   2.362   4.438   2.306
10872NA      NA33508   4.827   4.065   3.794
10873NA      NA33509   4.165   2.366   5.317
10874NA      NA33510   3.261   4.367   1.598
10875NA      NA33511   0.780   4.676   0.014
10876NA      NA33512   3.947   3.653   2.247
10877NA      NA33513   4.931   4.914   1.030
10878NA      NA33514   3.531   0.295   5.355
10879NA      NA33515   6.151   5.567   1.081
10880NA      NA33516   1.986   0.578   5.218
10881NA      NA33517   4.284   4.861   1.767
10882NA      NA33518   3.953   2.784   1.151
   7.02032   7.02032   7.02032
