Generated by trjconv : CNT in water t= 558.00000
33518
    1C        C    1   2.847   2.773   4.749
    1C        C    2   2.901   2.722   4.869
    1C        C    3   2.843   2.774   4.986
    1C        C    4   2.854   2.776   4.264
    1C        C    5   2.906   2.724   4.385
    1C        C    6   2.848   2.771   4.505
    1C        C    7   3.011   2.638   4.628
    1C        C    8   2.898   2.722   4.628
    1C        C    9   3.078   2.607   4.748
    1C        C   10   3.008   2.630   4.868
    1C        C   11   3.182   2.494   4.976
    1C        C   12   3.057   2.557   4.977
    1C        C   13   2.860   2.776   3.772
    1C        C   14   2.909   2.726   3.894
    1C        C   15   2.857   2.776   4.016
    1C        C   16   3.023   2.652   4.138
    1C        C   17   2.907   2.732   4.140
    1C        C   18   3.082   2.611   4.260
    1C        C   19   3.019   2.641   4.383
    1C        C   20   3.209   2.554   4.505
    1C        C   21   3.077   2.606   4.507
    1C        C   22   3.278   2.533   4.626
    1C        C   23   3.209   2.552   4.748
    1C        C   24   3.415   2.489   4.867
    1C        C   25   3.274   2.508   4.867
    1C        C   26   3.491   2.484   4.984
    1C        C   27   2.854   2.772   3.285
    1C        C   28   2.904   2.721   3.407
    1C        C   29   2.861   2.777   3.529
    1C        C   30   3.019   2.633   3.651
    1C        C   31   2.912   2.726   3.650
    1C        C   32   3.081   2.598   3.773
    1C        C   33   3.021   2.640   3.894
    1C        C   34   3.209   2.547   4.019
    1C        C   35   3.080   2.606   4.017
    1C        C   36   3.279   2.530   4.140
    1C        C   37   3.212   2.555   4.262
    1C        C   38   3.418   2.507   4.382
    1C        C   39   3.279   2.534   4.384
    1C        C   40   3.488   2.498   4.504
    1C        C   41   3.417   2.505   4.626
    1C        C   42   3.632   2.487   4.747
    1C        C   43   3.490   2.489   4.745
    1C        C   44   3.708   2.489   4.866
    1C        C   45   3.630   2.479   4.983
    1C        C   46   2.839   2.751   2.796
    1C        C   47   2.901   2.716   2.918
    1C        C   48   2.851   2.766   3.040
    1C        C   49   3.020   2.640   3.163
    1C        C   50   2.905   2.722   3.163
    1C        C   51   3.085   2.610   3.284
    1C        C   52   3.020   2.640   3.407
    1C        C   53   3.209   2.540   3.528
    1C        C   54   3.081   2.601   3.528
    1C        C   55   3.277   2.518   3.650
    1C        C   56   3.210   2.541   3.773
    1C        C   57   3.414   2.496   3.895
    1C        C   58   3.276   2.523   3.897
    1C        C   59   3.485   2.493   4.017
    1C        C   60   3.417   2.500   4.141
    1C        C   61   3.631   2.494   4.260
    1C        C   62   3.489   2.491   4.262
    1C        C   63   3.700   2.506   4.382
    1C        C   64   3.630   2.496   4.504
    1C        C   65   3.838   2.541   4.625
    1C        C   66   3.702   2.502   4.626
    1C        C   67   3.908   2.565   4.746
    1C        C   68   3.843   2.529   4.866
    1C        C   69   4.054   2.588   4.977
    1C        C   70   3.926   2.532   4.979
    1C        C   71   2.828   2.736   2.309
    1C        C   72   2.886   2.696   2.431
    1C        C   73   2.837   2.749   2.552
    1C        C   74   3.011   2.626   2.674
    1C        C   75   2.893   2.704   2.674
    1C        C   76   3.074   2.594   2.796
    1C        C   77   3.016   2.633   2.918
    1C        C   78   3.207   2.541   3.039
    1C        C   79   3.080   2.603   3.041
    1C        C   80   3.275   2.521   3.161
    1C        C   81   3.212   2.549   3.284
    1C        C   82   3.415   2.491   3.404
    1C        C   83   3.276   2.517   3.406
    1C        C   84   3.486   2.484   3.526
    1C        C   85   3.416   2.493   3.648
    1C        C   86   3.625   2.493   3.769
    1C        C   87   3.484   2.487   3.772
    1C        C   88   3.694   2.505   3.892
    1C        C   89   3.626   2.497   4.016
    1C        C   90   3.835   2.544   4.135
    1C        C   91   3.700   2.502   4.136
    1C        C   92   3.901   2.569   4.257
    1C        C   93   3.835   2.546   4.380
    1C        C   94   4.024   2.639   4.498
    1C        C   95   3.903   2.568   4.503
    1C        C   96   4.088   2.674   4.620
    1C        C   97   4.034   2.631   4.743
    1C        C   98   4.195   2.770   4.861
    1C        C   99   4.098   2.665   4.865
    1C        C  100   4.223   2.843   4.977
    1C        C  101   2.820   2.732   2.069
    1C        C  102   2.995   2.600   2.190
    1C        C  103   2.877   2.681   2.187
    1C        C  104   3.066   2.576   2.311
    1C        C  105   3.003   2.616   2.431
    1C        C  106   3.201   2.534   2.551
    1C        C  107   3.072   2.592   2.551
    1C        C  108   3.270   2.516   2.673
    1C        C  109   3.203   2.536   2.795
    1C        C  110   3.412   2.492   2.914
    1C        C  111   3.272   2.514   2.916
    1C        C  112   3.483   2.490   3.037
    1C        C  113   3.414   2.495   3.160
    1C        C  114   3.626   2.497   3.282
    1C        C  115   3.485   2.486   3.281
    1C        C  116   3.695   2.505   3.404
    1C        C  117   3.627   2.491   3.527
    1C        C  118   3.833   2.544   3.649
    1C        C  119   3.697   2.506   3.649
    1C        C  120   3.897   2.570   3.773
    1C        C  121   3.830   2.542   3.894
    1C        C  122   4.024   2.641   4.014
    1C        C  123   3.900   2.573   4.013
    1C        C  124   4.083   2.678   4.137
    1C        C  125   4.028   2.631   4.258
    1C        C  126   4.196   2.767   4.376
    1C        C  127   4.086   2.679   4.378
    1C        C  128   4.241   2.823   4.498
    1C        C  129   4.189   2.773   4.619
    1C        C  130   4.326   2.940   4.740
    1C        C  131   4.247   2.821   4.738
    1C        C  132   4.356   3.006   4.861
    1C        C  133   4.296   2.961   4.979
    1C        C  134   3.175   2.471   2.084
    1C        C  135   3.044   2.521   2.082
    1C        C  136   3.264   2.481   2.192
    1C        C  137   3.198   2.523   2.310
    1C        C  138   3.406   2.477   2.429
    1C        C  139   3.267   2.502   2.431
    1C        C  140   3.480   2.477   2.550
    1C        C  141   3.409   2.489   2.671
    1C        C  142   3.624   2.494   2.792
    1C        C  143   3.483   2.486   2.792
    1C        C  144   3.693   2.506   2.914
    1C        C  145   3.624   2.495   3.037
    1C        C  146   3.832   2.539   3.156
    1C        C  147   3.695   2.503   3.159
    1C        C  148   3.896   2.564   3.279
    1C        C  149   3.832   2.540   3.403
    1C        C  150   4.022   2.634   3.523
    1C        C  151   3.898   2.567   3.525
    1C        C  152   4.078   2.674   3.646
    1C        C  153   4.020   2.639   3.770
    1C        C  154   4.190   2.770   3.887
    1C        C  155   4.082   2.678   3.891
    1C        C  156   4.240   2.819   4.009
    1C        C  157   4.188   2.771   4.132
    1C        C  158   4.338   2.923   4.252
    1C        C  159   4.246   2.816   4.253
    1C        C  160   4.374   2.988   4.373
    1C        C  161   4.328   2.934   4.495
    1C        C  162   4.439   3.116   4.617
    1C        C  163   4.368   2.994   4.617
    1C        C  164   4.472   3.184   4.736
    1C        C  165   4.431   3.126   4.858
    1C        C  166   4.521   3.323   4.973
    1C        C  167   4.480   3.190   4.972
    1C        C  168   3.480   2.436   2.074
    1C        C  169   3.402   2.453   2.190
    1C        C  170   3.620   2.466   2.306
    1C        C  171   3.478   2.461   2.308
    1C        C  172   3.693   2.486   2.425
    1C        C  173   3.621   2.483   2.546
    1C        C  174   3.828   2.535   2.667
    1C        C  175   3.692   2.499   2.668
    1C        C  176   3.897   2.556   2.788
    1C        C  177   3.830   2.537   2.912
    1C        C  178   4.024   2.626   3.034
    1C        C  179   3.898   2.562   3.033
    1C        C  180   4.084   2.663   3.157
    1C        C  181   4.021   2.630   3.279
    1C        C  182   4.196   2.753   3.398
    1C        C  183   4.083   2.669   3.400
    1C        C  184   4.244   2.807   3.520
    1C        C  185   4.189   2.762   3.642
    1C        C  186   4.333   2.921   3.765
    1C        C  187   4.242   2.813   3.763
    1C        C  188   4.374   2.983   3.885
    1C        C  189   4.331   2.927   4.007
    1C        C  190   4.439   3.109   4.129
    1C        C  191   4.374   2.983   4.129
    1C        C  192   4.465   3.177   4.250
    1C        C  193   4.435   3.115   4.373
    1C        C  194   4.509   3.315   4.493
    1C        C  195   4.467   3.180   4.494
    1C        C  196   4.525   3.389   4.613
    1C        C  197   4.515   3.320   4.736
    1C        C  198   4.559   3.537   4.851
    1C        C  199   4.533   3.396   4.854
    1C        C  200   4.590   3.621   4.962
    1C        C  201   3.619   2.420   2.072
    1C        C  202   3.829   2.514   2.184
    1C        C  203   3.695   2.464   2.185
    1C        C  204   3.901   2.541   2.304
    1C        C  205   3.831   2.516   2.425
    1C        C  206   4.024   2.612   2.545
    1C        C  207   3.899   2.547   2.545
    1C        C  208   4.079   2.659   2.666
    1C        C  209   4.022   2.620   2.790
    1C        C  210   4.195   2.748   2.908
    1C        C  211   4.083   2.661   2.911
    1C        C  212   4.242   2.801   3.030
    1C        C  213   4.195   2.751   3.154
    1C        C  214   4.327   2.916   3.273
    1C        C  215   4.247   2.800   3.275
    1C        C  216   4.366   2.976   3.395
    1C        C  217   4.330   2.919   3.519
    1C        C  218   4.433   3.105   3.640
    1C        C  219   4.366   2.980   3.641
    1C        C  220   4.463   3.173   3.760
    1C        C  221   4.438   3.109   3.883
    1C        C  222   4.503   3.309   4.006
    1C        C  223   4.468   3.172   4.006
    1C        C  224   4.517   3.383   4.126
    1C        C  225   4.506   3.312   4.248
    1C        C  226   4.522   3.524   4.368
    1C        C  227   4.521   3.382   4.370
    1C        C  228   4.520   3.598   4.488
    1C        C  229   4.534   3.530   4.611
    1C        C  230   4.507   3.745   4.730
    1C        C  231   4.539   3.607   4.729
    1C        C  232   4.497   3.822   4.848
    1C        C  233   4.544   3.754   4.962
    1C        C  234   4.019   2.607   2.063
    1C        C  235   3.895   2.543   2.065
    1C        C  236   4.085   2.648   2.180
    1C        C  237   4.027   2.605   2.302
    1C        C  238   4.198   2.735   2.424
    1C        C  239   4.086   2.647   2.423
    1C        C  240   4.247   2.790   2.545
    1C        C  241   4.190   2.746   2.666
    1C        C  242   4.334   2.907   2.784
    1C        C  243   4.245   2.798   2.786
    1C        C  244   4.380   2.962   2.907
    1C        C  245   4.337   2.905   3.029
    1C        C  246   4.438   3.095   3.149
    1C        C  247   4.373   2.969   3.150
    1C        C  248   4.456   3.164   3.271
    1C        C  249   4.427   3.103   3.395
    1C        C  250   4.499   3.304   3.515
    1C        C  251   4.458   3.169   3.517
    1C        C  252   4.515   3.375   3.636
    1C        C  253   4.507   3.308   3.760
    1C        C  254   4.528   3.518   3.880
    1C        C  255   4.516   3.377   3.883
    1C        C  256   4.528   3.591   4.001
    1C        C  257   4.525   3.524   4.125
    1C        C  258   4.499   3.736   4.243
    1C        C  259   4.522   3.596   4.247
    1C        C  260   4.480   3.806   4.364
    1C        C  261   4.493   3.737   4.486
    1C        C  262   4.429   3.941   4.606
    1C        C  263   4.479   3.808   4.607
    1C        C  264   4.402   4.011   4.725
    1C        C  265   4.437   3.950   4.847
    1C        C  266   4.318   4.135   4.961
    1C        C  267   4.391   4.016   4.962
    1C        C  268   4.261   2.778   2.065
    1C        C  269   4.194   2.737   2.181
    1C        C  270   4.344   2.891   2.302
    1C        C  271   4.247   2.787   2.302
    1C        C  272   4.384   2.956   2.421
    1C        C  273   4.336   2.900   2.542
    1C        C  274   4.444   3.088   2.660
    1C        C  275   4.374   2.965   2.662
    1C        C  276   4.468   3.154   2.782
    1C        C  277   4.442   3.088   2.905
    1C        C  278   4.504   3.293   3.025
    1C        C  279   4.467   3.157   3.026
    1C        C  280   4.509   3.366   3.146
    1C        C  281   4.494   3.300   3.270
    1C        C  282   4.522   3.511   3.388
    1C        C  283   4.513   3.370   3.391
    1C        C  284   4.518   3.584   3.509
    1C        C  285   4.522   3.517   3.633
    1C        C  286   4.495   3.724   3.752
    1C        C  287   4.523   3.585   3.756
    1C        C  288   4.478   3.794   3.874
    1C        C  289   4.500   3.730   3.998
    1C        C  290   4.432   3.933   4.119
    1C        C  291   4.485   3.802   4.119
    1C        C  292   4.401   3.999   4.240
    1C        C  293   4.427   3.937   4.364
    1C        C  294   4.329   4.129   4.480
    1C        C  295   4.397   4.005   4.484
    1C        C  296   4.286   4.189   4.601
    1C        C  297   4.323   4.129   4.723
    1C        C  298   4.196   4.312   4.839
    1C        C  299   4.278   4.195   4.841
    1C        C  300   4.171   4.402   4.948
    1C        C  301   4.351   2.884   2.064
    1C        C  302   4.471   3.067   2.179
    1C        C  303   4.398   2.944   2.182
    1C        C  304   4.481   3.146   2.298
    1C        C  305   4.447   3.082   2.419
    1C        C  306   4.512   3.288   2.536
    1C        C  307   4.479   3.150   2.538
    1C        C  308   4.522   3.358   2.658
    1C        C  309   4.510   3.289   2.780
    1C        C  310   4.526   3.500   2.901
    1C        C  311   4.522   3.359   2.902
    1C        C  312   4.524   3.577   3.020
    1C        C  313   4.520   3.507   3.143
    1C        C  314   4.494   3.718   3.265
    1C        C  315   4.518   3.579   3.264
    1C        C  316   4.475   3.791   3.385
    1C        C  317   4.493   3.723   3.508
    1C        C  318   4.428   3.925   3.629
    1C        C  319   4.477   3.792   3.630
    1C        C  320   4.397   3.988   3.752
    1C        C  321   4.428   3.925   3.875
    1C        C  322   4.318   4.110   3.992
    1C        C  323   4.397   3.992   3.995
    1C        C  324   4.275   4.167   4.113
    1C        C  325   4.324   4.118   4.236
    1C        C  326   4.182   4.279   4.355
    1C        C  327   4.282   4.179   4.356
    1C        C  328   4.134   4.337   4.475
    1C        C  329   4.195   4.296   4.596
    1C        C  330   4.024   4.434   4.714
    1C        C  331   4.137   4.348   4.714
    1C        C  332   3.970   4.491   4.831
    1C        C  333   4.054   4.478   4.943
    1C        C  334   4.549   3.268   2.062
    1C        C  335   4.536   3.128   2.067
    1C        C  336   4.539   3.351   2.174
    1C        C  337   4.519   3.283   2.296
    1C        C  338   4.530   3.500   2.412
    1C        C  339   4.528   3.359   2.415
    1C        C  340   4.519   3.571   2.534
    1C        C  341   4.525   3.499   2.656
    1C        C  342   4.496   3.709   2.776
    1C        C  343   4.522   3.570   2.778
    1C        C  344   4.483   3.783   2.895
    1C        C  345   4.499   3.716   3.018
    1C        C  346   4.428   3.915   3.139
    1C        C  347   4.481   3.784   3.140
    1C        C  348   4.395   3.982   3.259
    1C        C  349   4.425   3.922   3.383
    1C        C  350   4.318   4.104   3.504
    1C        C  351   4.395   3.986   3.506
    1C        C  352   4.273   4.162   3.625
    1C        C  353   4.317   4.104   3.746
    1C        C  354   4.174   4.261   3.870
    1C        C  355   4.275   4.162   3.868
    1C        C  356   4.121   4.312   3.991
    1C        C  357   4.177   4.269   4.113
    1C        C  358   4.010   4.403   4.232
    1C        C  359   4.124   4.320   4.233
    1C        C  360   3.951   4.447   4.353
    1C        C  361   4.019   4.419   4.473
    1C        C  362   3.829   4.520   4.591
    1C        C  363   3.959   4.464   4.592
    1C        C  364   3.762   4.549   4.712
    1C        C  365   3.837   4.539   4.831
    1C        C  366   3.629   4.594   4.951
    1C        C  367   3.767   4.580   4.946
    1C        C  368   4.519   3.569   2.055
    1C        C  369   4.531   3.492   2.171
    1C        C  370   4.502   3.709   2.288
    1C        C  371   4.522   3.569   2.289
    1C        C  372   4.489   3.779   2.410
    1C        C  373   4.497   3.710   2.533
    1C        C  374   4.425   3.910   2.649
    1C        C  375   4.478   3.779   2.655
    1C        C  376   4.394   3.974   2.771
    1C        C  377   4.428   3.914   2.895
    1C        C  378   4.326   4.100   3.014
    1C        C  379   4.400   3.980   3.016
    1C        C  380   4.271   4.152   3.134
    1C        C  381   4.315   4.099   3.258
    1C        C  382   4.172   4.255   3.381
    1C        C  383   4.272   4.155   3.380
    1C        C  384   4.115   4.303   3.501
    1C        C  385   4.171   4.260   3.623
    1C        C  386   4.008   4.389   3.744
    1C        C  387   4.121   4.305   3.747
    1C        C  388   3.947   4.428   3.866
    1C        C  389   4.009   4.398   3.989
    1C        C  390   3.818   4.494   4.109
    1C        C  391   3.947   4.437   4.110
    1C        C  392   3.750   4.517   4.231
    1C        C  393   3.820   4.502   4.352
    1C        C  394   3.613   4.554   4.475
    1C        C  395   3.752   4.527   4.473
    1C        C  396   3.546   4.569   4.598
    1C        C  397   3.622   4.570   4.717
    1C        C  398   3.410   4.555   4.839
    1C        C  399   3.549   4.578   4.837
    1C        C  400   3.344   4.519   4.958
    1C        C  401   4.505   3.707   2.051
    1C        C  402   4.452   3.918   2.167
    1C        C  403   4.490   3.782   2.168
    1C        C  404   4.414   3.979   2.288
    1C        C  405   4.442   3.913   2.410
    1C        C  406   4.328   4.100   2.527
    1C        C  407   4.401   3.978   2.528
    1C        C  408   4.282   4.153   2.650
    1C        C  409   4.326   4.097   2.772
    1C        C  410   4.177   4.251   2.891
    1C        C  411   4.281   4.156   2.893
    1C        C  412   4.117   4.292   3.013
    1C        C  413   4.167   4.246   3.137
    1C        C  414   4.004   4.384   3.254
    1C        C  415   4.118   4.300   3.258
    1C        C  416   3.941   4.417   3.376
    1C        C  417   3.998   4.383   3.500
    1C        C  418   3.814   4.482   3.621
    1C        C  419   3.943   4.424   3.624
    1C        C  420   3.748   4.501   3.744
    1C        C  421   3.815   4.478   3.867
    1C        C  422   3.610   4.538   3.988
    1C        C  423   3.749   4.513   3.987
    1C        C  424   3.539   4.547   4.110
    1C        C  425   3.611   4.539   4.231
    1C        C  426   3.400   4.542   4.357
    1C        C  427   3.541   4.551   4.354
    1C        C  428   3.331   4.547   4.480
    1C        C  429   3.405   4.560   4.600
    1C        C  430   3.193   4.522   4.724
    1C        C  431   3.333   4.548   4.721
    1C        C  432   3.127   4.499   4.847
    1C        C  433   3.206   4.503   4.963
    1C        C  434   4.387   4.127   2.051
    1C        C  435   4.443   3.998   2.052
    1C        C  436   4.310   4.167   2.164
    1C        C  437   4.341   4.101   2.286
    1C        C  438   4.182   4.250   2.402
    1C        C  439   4.288   4.157   2.404
    1C        C  440   4.125   4.291   2.525
    1C        C  441   4.180   4.250   2.649
    1C        C  442   4.003   4.372   2.767
    1C        C  443   4.121   4.294   2.769
    1C        C  444   3.941   4.412   2.887
    1C        C  445   4.001   4.372   3.009
    1C        C  446   3.812   4.469   3.132
    1C        C  447   3.941   4.411   3.130
    1C        C  448   3.744   4.492   3.253
    1C        C  449   3.813   4.476   3.376
    1C        C  450   3.609   4.532   3.497
    1C        C  451   3.748   4.507   3.498
    1C        C  452   3.542   4.540   3.621
    1C        C  453   3.612   4.539   3.743
    1C        C  454   3.400   4.548   3.865
    1C        C  455   3.541   4.550   3.865
    1C        C  456   3.331   4.539   3.988
    1C        C  457   3.398   4.547   4.112
    1C        C  458   3.192   4.503   4.237
    1C        C  459   3.329   4.537   4.235
    1C        C  460   3.124   4.489   4.360
    1C        C  461   3.194   4.516   4.480
    1C        C  462   2.998   4.436   4.604
    1C        C  463   3.125   4.498   4.602
    1C        C  464   2.936   4.399   4.725
    1C        C  465   2.994   4.445   4.847
    1C        C  466   2.805   4.338   4.960
    1C        C  467   2.910   4.431   4.961
    1C        C  468   4.125   4.291   2.045
    1C        C  469   4.193   4.250   2.160
    1C        C  470   4.007   4.367   2.282
    1C        C  471   4.128   4.293   2.279
    1C        C  472   3.939   4.397   2.403
    1C        C  473   4.005   4.366   2.524
    1C        C  474   3.815   4.468   2.645
    1C        C  475   3.943   4.409   2.644
    1C        C  476   3.745   4.492   2.765
    1C        C  477   3.811   4.469   2.888
    1C        C  478   3.608   4.526   3.011
    1C        C  479   3.746   4.496   3.010
    1C        C  480   3.536   4.539   3.132
    1C        C  481   3.607   4.525   3.253
    1C        C  482   3.397   4.538   3.379
    1C        C  483   3.538   4.540   3.375
    1C        C  484   3.327   4.535   3.502
    1C        C  485   3.400   4.543   3.622
    1C        C  486   3.192   4.502   3.747
    1C        C  487   3.329   4.538   3.744
    1C        C  488   3.127   4.475   3.870
    1C        C  489   3.194   4.503   3.991
    1C        C  490   3.002   4.416   4.116
    1C        C  491   3.127   4.482   4.114
    1C        C  492   2.942   4.385   4.240
    1C        C  493   2.994   4.433   4.362
    1C        C  494   2.827   4.304   4.486
    1C        C  495   2.935   4.394   4.485
    1C        C  496   2.772   4.257   4.608
    1C        C  497   2.823   4.313   4.727
    1C        C  498   2.666   4.167   4.847
    1C        C  499   2.752   4.279   4.844
    1C        C  500   2.597   4.118   4.959
    1C        C  501   4.004   4.360   2.044
    1C        C  502   3.818   4.468   2.156
    1C        C  503   3.946   4.409   2.162
    1C        C  504   3.748   4.482   2.279
    1C        C  505   3.811   4.456   2.402
    1C        C  506   3.607   4.512   2.520
    1C        C  507   3.746   4.488   2.523
    1C        C  508   3.538   4.520   2.643
    1C        C  509   3.606   4.518   2.767
    1C        C  510   3.395   4.531   2.888
    1C        C  511   3.536   4.533   2.889
    1C        C  512   3.323   4.524   3.010
    1C        C  513   3.395   4.534   3.131
    1C        C  514   3.192   4.490   3.256
    1C        C  515   3.329   4.526   3.256
    1C        C  516   3.126   4.467   3.379
    1C        C  517   3.192   4.495   3.501
    1C        C  518   3.001   4.409   3.628
    1C        C  519   3.128   4.472   3.625
    1C        C  520   2.939   4.375   3.750
    1C        C  521   3.003   4.409   3.871
    1C        C  522   2.837   4.280   3.998
    1C        C  523   2.945   4.371   3.995
    1C        C  524   2.789   4.237   4.124
    1C        C  525   2.834   4.293   4.245
    1C        C  526   2.696   4.132   4.365
    1C        C  527   2.780   4.245   4.367
    1C        C  528   2.656   4.076   4.489
    1C        C  529   2.686   4.145   4.609
    1C        C  530   2.579   3.963   4.733
    1C        C  531   2.635   4.094   4.730
    1C        C  532   2.538   3.905   4.856
    1C        C  533   2.526   3.997   4.965
    1C        C  534   3.617   4.556   2.044
    1C        C  535   3.752   4.518   2.043
    1C        C  536   3.534   4.534   2.158
    1C        C  537   3.610   4.514   2.277
    1C        C  538   3.396   4.514   2.400
    1C        C  539   3.537   4.519   2.397
    1C        C  540   3.325   4.507   2.522
    1C        C  541   3.397   4.516   2.643
    1C        C  542   3.189   4.484   2.769
    1C        C  543   3.326   4.516   2.766
    1C        C  544   3.121   4.461   2.891
    1C        C  545   3.186   4.489   3.014
    1C        C  546   2.996   4.400   3.137
    1C        C  547   3.120   4.467   3.136
    1C        C  548   2.941   4.361   3.261
    1C        C  549   3.002   4.401   3.383
    1C        C  550   2.834   4.276   3.506
    1C        C  551   2.943   4.366   3.506
    1C        C  552   2.783   4.231   3.630
    1C        C  553   2.830   4.285   3.752
    1C        C  554   2.703   4.118   3.878
    1C        C  555   2.786   4.232   3.875
    1C        C  556   2.660   4.063   4.001
    1C        C  557   2.700   4.127   4.121
    1C        C  558   2.597   3.943   4.248
    1C        C  559   2.661   4.069   4.244
    1C        C  560   2.568   3.881   4.371
    1C        C  561   2.595   3.949   4.492
    1C        C  562   2.527   3.751   4.617
    1C        C  563   2.562   3.888   4.615
    1C        C  564   2.519   3.683   4.741
    1C        C  565   2.526   3.762   4.859
    1C        C  566   2.525   3.548   4.978
    1C        C  567   2.526   3.688   4.978
    1C        C  568   3.328   4.465   2.043
    1C        C  569   3.394   4.512   2.158
    1C        C  570   3.182   4.476   2.283
    1C        C  571   3.321   4.507   2.280
    1C        C  572   3.116   4.457   2.406
    1C        C  573   3.186   4.481   2.526
    1C        C  574   2.991   4.401   2.650
    1C        C  575   3.118   4.462   2.649
    1C        C  576   2.934   4.359   2.772
    1C        C  577   2.996   4.395   2.893
    1C        C  578   2.827   4.270   3.016
    1C        C  579   2.936   4.360   3.016
    1C        C  580   2.774   4.224   3.140
    1C        C  581   2.833   4.271   3.260
    1C        C  582   2.695   4.116   3.385
    1C        C  583   2.782   4.227   3.384
    1C        C  584   2.659   4.058   3.508
    1C        C  585   2.700   4.117   3.630
    1C        C  586   2.599   3.936   3.756
    1C        C  587   2.664   4.062   3.755
    1C        C  588   2.574   3.872   3.879
    1C        C  589   2.601   3.935   4.003
    1C        C  590   2.536   3.737   4.129
    1C        C  591   2.572   3.874   4.127
    1C        C  592   2.521   3.672   4.254
    1C        C  593   2.532   3.745   4.374
    1C        C  594   2.505   3.536   4.500
    1C        C  595   2.518   3.677   4.497
    1C        C  596   2.509   3.466   4.623
    1C        C  597   2.516   3.541   4.742
    1C        C  598   2.532   3.328   4.863
    1C        C  599   2.523   3.468   4.863
    1C        C  600   2.537   3.251   4.980
    1C        C  601   3.192   4.442   2.045
    1C        C  602   2.983   4.393   2.160
    1C        C  603   3.114   4.451   2.161
    1C        C  604   2.929   4.355   2.286
    1C        C  605   2.988   4.396   2.407
    1C        C  606   2.821   4.268   2.532
    1C        C  607   2.928   4.361   2.530
    1C        C  608   2.771   4.217   2.654
    1C        C  609   2.826   4.267   2.774
    1C        C  610   2.683   4.110   2.897
    1C        C  611   2.778   4.215   2.896
    1C        C  612   2.652   4.049   3.020
    1C        C  613   2.689   4.112   3.141
    1C        C  614   2.584   3.931   3.267
    1C        C  615   2.649   4.056   3.265
    1C        C  616   2.561   3.867   3.390
    1C        C  617   2.592   3.934   3.511
    1C        C  618   2.530   3.734   3.641
    1C        C  619   2.568   3.870   3.635
    1C        C  620   2.513   3.667   3.764
    1C        C  621   2.529   3.739   3.885
    1C        C  622   2.510   3.528   4.010
    1C        C  623   2.519   3.669   4.007
    1C        C  624   2.516   3.461   4.134
    1C        C  625   2.510   3.531   4.257
    1C        C  626   2.537   3.323   4.382
    1C        C  627   2.513   3.462   4.380
    1C        C  628   2.554   3.254   4.504
    1C        C  629   2.533   3.327   4.623
    1C        C  630   2.601   3.122   4.744
    1C        C  631   2.547   3.254   4.743
    1C        C  632   2.621   3.053   4.866
    1C        C  633   2.559   3.113   4.981
    1C        C  634   2.778   4.310   2.059
    1C        C  635   2.891   4.391   2.050
    1C        C  636   2.752   4.228   2.171
    1C        C  637   2.818   4.266   2.289
    1C        C  638   2.680   4.106   2.412
    1C        C  639   2.768   4.217   2.412
    1C        C  640   2.638   4.048   2.533
    1C        C  641   2.682   4.107   2.653
    1C        C  642   2.583   3.922   2.778
    1C        C  643   2.639   4.052   2.776
    1C        C  644   2.560   3.858   2.901
    1C        C  645   2.584   3.925   3.023
    1C        C  646   2.525   3.724   3.150
    1C        C  647   2.557   3.862   3.147
    1C        C  648   2.512   3.658   3.274
    1C        C  649   2.529   3.729   3.395
    1C        C  650   2.512   3.522   3.523
    1C        C  651   2.520   3.663   3.519
    1C        C  652   2.510   3.453   3.646
    1C        C  653   2.505   3.525   3.767
    1C        C  654   2.533   3.316   3.891
    1C        C  655   2.507   3.455   3.889
    1C        C  656   2.550   3.250   4.015
    1C        C  657   2.538   3.321   4.136
    1C        C  658   2.610   3.124   4.258
    1C        C  659   2.559   3.255   4.260
    1C        C  660   2.645   3.062   4.380
    1C        C  661   2.603   3.122   4.501
    1C        C  662   2.712   2.939   4.623
    1C        C  663   2.636   3.058   4.623
    1C        C  664   2.753   2.880   4.745
    1C        C  665   2.699   2.934   4.865
    1C        C  666   2.743   2.872   4.983
    1C        C  667   2.676   4.025   2.055
    1C        C  668   2.686   4.104   2.170
    1C        C  669   2.591   3.910   2.291
    1C        C  670   2.647   4.041   2.291
    1C        C  671   2.557   3.848   2.413
    1C        C  672   2.582   3.918   2.533
    1C        C  673   2.517   3.719   2.660
    1C        C  674   2.557   3.855   2.657
    1C        C  675   2.508   3.651   2.783
    1C        C  676   2.520   3.722   2.904
    1C        C  677   2.500   3.514   3.033
    1C        C  678   2.510   3.655   3.028
    1C        C  679   2.503   3.444   3.156
    1C        C  680   2.503   3.517   3.277
    1C        C  681   2.536   3.311   3.404
    1C        C  682   2.511   3.450   3.401
    1C        C  683   2.552   3.244   3.528
    1C        C  684   2.529   3.313   3.650
    1C        C  685   2.607   3.114   3.773
    1C        C  686   2.552   3.245   3.771
    1C        C  687   2.646   3.056   3.896
    1C        C  688   2.612   3.123   4.015
    1C        C  689   2.717   2.938   4.141
    1C        C  690   2.640   3.057   4.137
    1C        C  691   2.762   2.883   4.263
    1C        C  692   2.725   2.946   4.384
    1C        C  693   2.753   2.876   4.503
    1C        C  694   2.623   3.896   2.055
    1C        C  695   2.527   3.703   2.176
    1C        C  696   2.577   3.835   2.172
    1C        C  697   2.504   3.639   2.299
    1C        C  698   2.516   3.713   2.419
    1C        C  699   2.487   3.504   2.545
    1C        C  700   2.504   3.644   2.541
    1C        C  701   2.501   3.435   2.667
    1C        C  702   2.504   3.510   2.787
    1C        C  703   2.532   3.303   2.912
    1C        C  704   2.508   3.442   2.911
    1C        C  705   2.549   3.236   3.036
    1C        C  706   2.532   3.306   3.158
    1C        C  707   2.609   3.112   3.283
    1C        C  708   2.554   3.242   3.282
    1C        C  709   2.643   3.053   3.406
    1C        C  710   2.611   3.116   3.529
    1C        C  711   2.723   2.936   3.651
    1C        C  712   2.642   3.052   3.651
    1C        C  713   2.768   2.883   3.774
    1C        C  714   2.725   2.939   3.896
    1C        C  715   2.768   2.885   4.020
    1C        C  716   2.450   3.497   2.061
    1C        C  717   2.490   3.631   2.061
    1C        C  718   2.463   3.423   2.183
    1C        C  719   2.481   3.498   2.302
    1C        C  720   2.507   3.289   2.425
    1C        C  721   2.482   3.428   2.425
    1C        C  722   2.538   3.223   2.546
    1C        C  723   2.527   3.296   2.666
    1C        C  724   2.598   3.101   2.794
    1C        C  725   2.545   3.232   2.791
    1C        C  726   2.630   3.038   2.917
    1C        C  727   2.599   3.104   3.038
    1C        C  728   2.719   2.932   3.159
    1C        C  729   2.637   3.047   3.161
    1C        C  730   2.760   2.877   3.283
    1C        C  731   2.723   2.937   3.405
    1C        C  732   2.766   2.882   3.528
    1C        C  733   2.490   3.199   2.075
    1C        C  734   2.493   3.283   2.186
    1C        C  735   2.592   3.089   2.309
    1C        C  736   2.526   3.215   2.307
    1C        C  737   2.618   3.022   2.430
    1C        C  738   2.593   3.093   2.550
    1C        C  739   2.706   2.916   2.671
    1C        C  740   2.629   3.034   2.674
    1C        C  741   2.748   2.858   2.793
    1C        C  742   2.710   2.922   2.914
    1C        C  743   2.756   2.871   3.037
    1C        C  744   2.552   3.074   2.074
    1C        C  745   2.693   2.904   2.186
    1C        C  746   2.619   3.024   2.186
    1C        C  747   2.732   2.841   2.306
    1C        C  748   2.691   2.901   2.427
    1C        C  749   2.743   2.854   2.550
    1C        C  750   2.739   2.845   2.067
    1C        C  751   3.674   2.314   1.984
    1C        O  752   3.710   2.200   2.023
    1C        O  753   3.686   2.325   1.845
    1C        C  754   4.630   3.049   1.985
    1C        O  755   4.601   3.024   1.864
    1C        O  756   4.758   3.005   2.017
    1C        C  757   4.408   4.196   1.922
    1C        O  758   4.510   4.269   1.908
    1C        O  759   4.342   4.151   1.807
    1C        C  760   3.581   4.650   1.935
    1C        O  761   3.595   4.774   1.956
    1C        O  762   3.585   4.607   1.802
    1C        C  763   2.868   4.515   1.973
    1C        O  764   2.912   4.517   1.855
    1C        O  765   2.765   4.604   2.005
    1C        C  766   2.339   3.476   1.965
    1C        O  767   2.365   3.414   1.858
    1C        O  768   2.219   3.546   1.953
    1C        C  769   4.700   3.602   5.059
    1C        O  770   4.671   3.587   5.181
    1C        O  771   4.828   3.657   5.041
    1C        C  772   4.278   4.447   5.040
    1C        O  773   4.271   4.425   5.164
    1C        O  774   4.313   4.582   5.031
    1C        C  775   4.137   2.547   5.093
    1C        O  776   4.219   2.451   5.091
    1C        O  777   4.086   2.577   5.220
    1C        C  778   2.868   4.554   5.032
    1C        O  779   2.900   4.669   4.992
    1C        O  780   2.888   4.548   5.171
    1C        C  781   2.460   3.035   5.059
    1C        O  782   2.346   3.019   5.006
    1C        O  783   2.465   3.027   5.198
    1C        C  784   2.413   3.991   5.061
    1C        O  785   2.330   4.085   5.071
    1C        O  786   2.435   3.932   5.186
    1C        C  787   2.960   2.422   2.009
    1C        O  788   2.940   2.432   1.885
    1C        O  789   2.950   2.294   2.063
    1C        C  790   3.194   2.369   5.054
    1C        O  791   3.130   2.267   5.014
    1C        O  792   3.209   2.379   5.193
    1C        H  793   4.268   3.030   5.056
    1C        H  794   4.141   2.846   5.046
    1C        H  795   4.528   3.131   5.048
    1C        H  796   4.584   3.349   5.056
    1C        H  797   4.584   3.814   5.040
    1C        H  798   4.402   3.970   5.058
    1C        H  799   4.259   4.156   5.047
    1C        H  800   4.035   4.537   5.030
    1C        H  801   3.820   4.633   5.022
    1C        H  802   3.584   4.652   5.030
    1C        H  803   3.397   4.487   5.045
    1C        H  804   3.160   4.503   5.060
    1C        H  805   3.893   2.487   5.070
    1C        H  806   3.677   2.448   5.074
    1C        H  807   2.997   2.537   5.064
    1C        H  808   3.447   2.527   5.071
    1C        H  809   2.886   2.756   5.082
    1C        H  810   2.672   2.868   5.063
    1C        H  811   2.543   3.301   5.075
    1C        H  812   2.504   3.503   5.073
    1C        H  813   2.517   3.737   5.072
    1C        H  814   2.565   4.193   5.028
    1C        H  815   2.763   4.316   5.056
    1C        H  816   2.702   2.873   1.971
    1C        H  817   2.849   2.696   1.973
    1C        H  818   3.222   2.459   1.989
    1C        H  819   3.439   2.477   1.984
    1C        H  820   3.869   2.485   1.979
    1C        H  821   4.084   2.586   1.981
    1C        H  822   4.269   2.713   1.981
    1C        H  823   4.351   2.947   1.977
    1C        H  824   4.578   3.317   1.972
    1C        H  825   4.516   3.523   1.958
    1C        H  826   4.443   3.742   1.970
    1C        H  827   3.786   4.492   1.945
    1C        H  828   3.934   4.325   1.972
    1C        H  829   4.157   4.258   1.948
    1C        H  830   4.460   3.953   1.957
    1C        H  831   2.563   3.874   1.969
    1C        H  832   2.747   4.050   1.978
    1C        H  833   2.705   4.326   1.983
    1C        H  834   3.386   4.403   1.979
    1C        H  835   3.141   4.474   1.956
    1C        H  836   2.535   3.007   1.993
    1C        H  837   2.416   3.218   1.999
    1C        H  838   2.482   3.687   1.970
    2V3OU   H29  839   2.806   3.541   6.119
    2V3OU   C27  840   2.781   3.499   6.220
    2V3OU   H27  841   2.731   3.573   6.287
    2V3OU   H28  842   2.726   3.402   6.216
    2V3OU   O11  843   2.905   3.473   6.286
    2V3OU   C15  844   2.917   3.396   6.400
    2V3OU   C13  845   3.051   3.376   6.440
    2V3OU   C14  846   3.070   3.274   6.533
    2V3OU   C16  847   2.972   3.191   6.585
    2V3OU    H6  848   2.996   3.111   6.657
    2V3OU   C12  849   3.209   3.236   6.568
    2V3OU    O2  850   3.236   3.128   6.624
    2V3OU   C10  851   3.321   3.306   6.503
    2V3OU    C8  852   3.455   3.274   6.518
    2V3OU   O10  853   3.485   3.161   6.586
    2V3OU   H26  854   3.400   3.121   6.609
    2V3OU    C6  855   3.570   3.345   6.470
    2V3OU    C5  856   3.543   3.464   6.404
    2V3OU    C4  857   3.708   3.291   6.474
    2V3OU    H4  858   3.727   3.227   6.566
    2V3OU    H5  859   3.714   3.224   6.383
    2V3OU    C2  860   3.817   3.398   6.465
    2V3OU    O6  861   3.811   3.477   6.584
    2V3OU   H21  862   3.772   3.561   6.556
    2V3OU    C3  863   3.785   3.497   6.353
    2V3OU    H2  864   3.864   3.577   6.355
    2V3OU    H3  865   3.784   3.449   6.252
    2V3OU   C25  866   3.952   3.327   6.462
    2V3OU    O7  867   4.004   3.294   6.356
    2V3OU   C26  868   4.029   3.289   6.588
    2V3OU   H22  869   4.058   3.384   6.639
    2V3OU   H23  870   4.122   3.233   6.561
    2V3OU    O8  871   3.965   3.208   6.684
    2V3OU   H24  872   3.929   3.268   6.752
    2V3OU    C1  873   3.651   3.565   6.377
    2V3OU    H1  874   3.623   3.619   6.282
    2V3OU    O3  875   3.658   3.659   6.484
    2V3OU   C19  876   3.612   3.794   6.474
    2V3OU    H9  877   3.517   3.813   6.416
    2V3OU    O4  878   3.711   3.852   6.391
    2V3OU   C20  879   3.843   3.871   6.443
    2V3OU   H10  880   3.898   3.774   6.459
    2V3OU   C24  881   3.608   3.855   6.614
    2V3OU   H16  882   3.546   3.794   6.684
    2V3OU   H17  883   3.566   3.958   6.601
    2V3OU   C23  884   3.749   3.874   6.672
    2V3OU   H15  885   3.794   3.770   6.681
    2V3OU    N1  886   3.740   3.951   6.794
    2V3OU   H19  887   3.814   3.927   6.858
    2V3OU   H20  888   3.650   3.935   6.833
    2V3OU   C21  889   3.848   3.946   6.576
    2V3OU   H11  890   3.949   3.920   6.620
    2V3OU    O5  891   3.833   4.087   6.568
    2V3OU   H18  892   3.787   4.108   6.651
    2V3OU   C22  893   3.916   3.950   6.336
    2V3OU   H12  894   3.867   4.050   6.323
    2V3OU   H13  895   3.906   3.897   6.237
    2V3OU   H14  896   4.025   3.960   6.359
    2V3OU   C11  897   3.160   3.469   6.405
    2V3OU    O1  898   3.142   3.588   6.371
    2V3OU    C9  899   3.299   3.427   6.432
    2V3OU    C7  900   3.406   3.500   6.382
    2V3OU    O9  901   3.383   3.622   6.321
    2V3OU   H25  902   3.286   3.626   6.320
    2V3OU   C17  903   2.818   3.316   6.459
    2V3OU    H7  904   2.716   3.332   6.425
    2V3OU   C18  905   2.839   3.212   6.549
    2V3OU    H8  906   2.751   3.150   6.573
    3SOL     OW  907   3.043   3.371   4.540
    3SOL    HW1  908   3.027   3.464   4.508
    3SOL    HW2  909   2.985   3.353   4.620
    4SOL     OW  910   0.777   6.822   1.015
    4SOL    HW1  911   0.844   6.895   1.028
    4SOL    HW2  912   0.728   6.836   0.929
    5SOL     OW  913   3.848   2.408   0.628
    5SOL    HW1  914   3.868   2.465   0.708
    5SOL    HW2  915   3.758   2.365   0.639
    6SOL     OW  916   3.910   1.832   2.429
    6SOL    HW1  917   3.889   1.930   2.428
    6SOL    HW2  918   3.872   1.789   2.347
    7SOL     OW  919   2.404   2.753   4.705
    7SOL    HW1  920   2.453   2.669   4.727
    7SOL    HW2  921   2.380   2.752   4.608
    8SOL     OW  922   0.740   2.151   5.832
    8SOL    HW1  923   0.685   2.143   5.749
    8SOL    HW2  924   0.756   2.061   5.871
    9SOL     OW  925   1.729   2.429   6.053
    9SOL    HW1  926   1.805   2.444   6.117
    9SOL    HW2  927   1.726   2.333   6.026
   10SOL     OW  928   5.853   5.367   1.114
   10SOL    HW1  929   5.847   5.467   1.124
   10SOL    HW2  930   5.786   5.324   1.174
   11SOL     OW  931   3.389   1.432   0.332
   11SOL    HW1  932   3.305   1.384   0.358
   11SOL    HW2  933   3.428   1.476   0.413
   12SOL     OW  934   5.330   5.059   1.562
   12SOL    HW1  935   5.424   5.048   1.594
   12SOL    HW2  936   5.296   5.149   1.591
   13SOL     OW  937   5.386   5.665   1.754
   13SOL    HW1  938   5.324   5.593   1.785
   13SOL    HW2  939   5.475   5.654   1.799
   14SOL     OW  940   3.874   5.982   1.157
   14SOL    HW1  941   3.966   6.000   1.121
   14SOL    HW2  942   3.881   5.954   1.253
   15SOL     OW  943   0.835   6.515   6.860
   15SOL    HW1  944   0.866   6.507   6.766
   15SOL    HW2  945   0.895   6.463   6.920
   16SOL     OW  946   1.938   5.481   5.086
   16SOL    HW1  947   1.884   5.565   5.082
   16SOL    HW2  948   1.996   5.482   5.167
   17SOL     OW  949   0.378   2.160   3.652
   17SOL    HW1  950   0.463   2.124   3.690
   17SOL    HW2  951   0.300   2.127   3.707
   18SOL     OW  952   2.737   1.494   5.590
   18SOL    HW1  953   2.722   1.565   5.520
   18SOL    HW2  954   2.810   1.433   5.559
   19SOL     OW  955   2.750   5.239   2.843
   19SOL    HW1  956   2.776   5.210   2.936
   19SOL    HW2  957   2.763   5.338   2.835
   20SOL     OW  958   7.007   1.619   5.452
   20SOL    HW1  959   6.993   1.528   5.413
   20SOL    HW2  960   6.941   1.636   5.525
   21SOL     OW  961   1.388   3.806   1.571
   21SOL    HW1  962   1.444   3.884   1.600
   21SOL    HW2  963   1.393   3.734   1.640
   22SOL     OW  964   0.820   1.156   0.096
   22SOL    HW1  965   0.777   1.070   0.123
   22SOL    HW2  966   0.759   1.206   0.035
   23SOL     OW  967   6.771   5.182   6.720
   23SOL    HW1  968   6.739   5.252   6.656
   23SOL    HW2  969   6.701   5.111   6.728
   24SOL     OW  970   5.207   1.031   0.096
   24SOL    HW1  971   5.281   1.093   0.122
   24SOL    HW2  972   5.121   1.082   0.093
   25SOL     OW  973   1.293   0.804   4.883
   25SOL    HW1  974   1.382   0.785   4.841
   25SOL    HW2  975   1.242   0.869   4.826
   26SOL     OW  976   2.187   0.144   5.700
   26SOL    HW1  977   2.167   0.194   5.784
   26SOL    HW2  978   2.121   0.070   5.689
   27SOL     OW  979   0.174   6.841   2.627
   27SOL    HW1  980   0.083   6.882   2.623
   27SOL    HW2  981   0.238   6.906   2.669
   28SOL     OW  982   1.641   0.813   5.616
   28SOL    HW1  983   1.733   0.846   5.596
   28SOL    HW2  984   1.599   0.872   5.684
   29SOL     OW  985   5.621   0.917   1.123
   29SOL    HW1  986   5.707   0.939   1.076
   29SOL    HW2  987   5.587   0.999   1.168
   30SOL     OW  988   4.380   0.147   4.669
   30SOL    HW1  989   4.439   0.201   4.729
   30SOL    HW2  990   4.409   0.158   4.574
   31SOL     OW  991   6.315   4.916   4.851
   31SOL    HW1  992   6.372   4.894   4.772
   31SOL    HW2  993   6.292   4.831   4.900
   32SOL     OW  994   3.331   1.145   0.986
   32SOL    HW1  995   3.283   1.232   0.977
   32SOL    HW2  996   3.286   1.089   1.055
   33SOL     OW  997   1.830   4.787   6.002
   33SOL    HW1  998   1.854   4.823   6.092
   33SOL    HW2  999   1.734   4.809   5.981
   34SOL     OW 1000   2.577   6.735   4.989
   34SOL    HW1 1001   2.511   6.698   5.054
   34SOL    HW2 1002   2.631   6.806   5.034
   35SOL     OW 1003   1.431   2.499   4.435
   35SOL    HW1 1004   1.492   2.423   4.411
   35SOL    HW2 1005   1.479   2.586   4.424
   36SOL     OW 1006   5.524   1.373   4.246
   36SOL    HW1 1007   5.474   1.434   4.307
   36SOL    HW2 1008   5.460   1.325   4.187
   37SOL     OW 1009   1.933   6.686   4.632
   37SOL    HW1 1010   1.948   6.614   4.564
   37SOL    HW2 1011   1.865   6.750   4.599
   38SOL     OW 1012   0.802   3.344   0.993
   38SOL    HW1 1013   0.863   3.270   0.967
   38SOL    HW2 1014   0.843   3.396   1.068
   39SOL     OW 1015   6.629   5.407   1.166
   39SOL    HW1 1016   6.546   5.411   1.222
   39SOL    HW2 1017   6.620   5.334   1.098
   40SOL     OW 1018   4.001   0.732   0.054
   40SOL    HW1 1019   4.088   0.742   0.103
   40SOL    HW2 1020   4.010   0.770   6.988
   41SOL     OW 1021   5.806   4.167   1.708
   41SOL    HW1 1022   5.892   4.218   1.706
   41SOL    HW2 1023   5.730   4.228   1.689
   42SOL     OW 1024   2.785   3.690   0.335
   42SOL    HW1 1025   2.836   3.669   0.418
   42SOL    HW2 1026   2.760   3.787   0.335
   43SOL     OW 1027   4.783   0.293   3.996
   43SOL    HW1 1028   4.813   0.352   3.921
   43SOL    HW2 1029   4.689   0.317   4.022
   44SOL     OW 1030   6.835   0.547   0.007
   44SOL    HW1 1031   6.875   0.630   0.047
   44SOL    HW2 1032   6.901   0.472   0.012
   45SOL     OW 1033   2.512   3.871   5.885
   45SOL    HW1 1034   2.607   3.891   5.864
   45SOL    HW2 1035   2.505   3.783   5.931
   46SOL     OW 1036   1.447   4.436   4.513
   46SOL    HW1 1037   1.397   4.520   4.530
   46SOL    HW2 1038   1.423   4.400   4.422
   47SOL     OW 1039   6.271   4.201   6.938
   47SOL    HW1 1040   6.275   4.111   6.893
   47SOL    HW2 1041   6.276   4.272   6.868
   48SOL     OW 1042   0.372   4.467   6.883
   48SOL    HW1 1043   0.375   4.373   6.851
   48SOL    HW2 1044   0.448   4.482   6.948
   49SOL     OW 1045   2.814   1.369   6.785
   49SOL    HW1 1046   2.894   1.427   6.769
   49SOL    HW2 1047   2.731   1.419   6.763
   50SOL     OW 1048   5.228   2.349   6.211
   50SOL    HW1 1049   5.209   2.258   6.248
   50SOL    HW2 1050   5.223   2.417   6.285
   51SOL     OW 1051   1.408   6.187   1.950
   51SOL    HW1 1052   1.492   6.237   1.932
   51SOL    HW2 1053   1.389   6.188   2.048
   52SOL     OW 1054   5.936   2.384   2.548
   52SOL    HW1 1055   5.985   2.464   2.581
   52SOL    HW2 1056   5.879   2.409   2.469
   53SOL     OW 1057   4.172   0.462   0.667
   53SOL    HW1 1058   4.124   0.549   0.652
   53SOL    HW2 1059   4.207   0.460   0.761
   54SOL     OW 1060   0.119   1.046   6.401
   54SOL    HW1 1061   0.094   1.142   6.402
   54SOL    HW2 1062   0.206   1.033   6.450
   55SOL     OW 1063   2.196   3.375   6.283
   55SOL    HW1 1064   2.204   3.287   6.235
   55SOL    HW2 1065   2.197   3.360   6.381
   56SOL     OW 1066   0.545   2.521   6.065
   56SOL    HW1 1067   0.568   2.607   6.018
   56SOL    HW2 1068   0.459   2.532   6.114
   57SOL     OW 1069   4.029   5.303   1.324
   57SOL    HW1 1070   4.089   5.287   1.403
   57SOL    HW2 1071   4.017   5.217   1.274
   58SOL     OW 1072   0.609   1.032   6.854
   58SOL    HW1 1073   0.630   1.105   6.919
   58SOL    HW2 1074   0.693   0.985   6.828
   59SOL     OW 1075   3.635   3.054   0.157
   59SOL    HW1 1076   3.718   3.035   0.211
   59SOL    HW2 1077   3.660   3.102   0.074
   60SOL     OW 1078   6.686   2.576   2.628
   60SOL    HW1 1079   6.665   2.504   2.693
   60SOL    HW2 1080   6.602   2.600   2.578
   61SOL     OW 1081   1.484   5.594   2.582
   61SOL    HW1 1082   1.400   5.633   2.543
   61SOL    HW2 1083   1.527   5.534   2.514
   62SOL     OW 1084   5.107   3.014   3.558
   62SOL    HW1 1085   5.142   2.922   3.574
   62SOL    HW2 1086   5.170   3.064   3.498
   63SOL     OW 1087   4.140   7.013   6.586
   63SOL    HW1 1088   4.097   0.034   6.663
   63SOL    HW2 1089   4.072   6.955   6.540
   64SOL     OW 1090   1.902   2.214   6.788
   64SOL    HW1 1091   1.825   2.276   6.770
   64SOL    HW2 1092   1.985   2.267   6.802
   65SOL     OW 1093   0.578   5.380   5.380
   65SOL    HW1 1094   0.643   5.372   5.304
   65SOL    HW2 1095   0.529   5.467   5.372
   66SOL     OW 1096   4.457   1.117   0.992
   66SOL    HW1 1097   4.515   1.077   1.063
   66SOL    HW2 1098   4.372   1.150   1.034
   67SOL     OW 1099   0.073   3.416   1.546
   67SOL    HW1 1100   0.132   3.337   1.564
   67SOL    HW2 1101   0.128   3.499   1.542
   68SOL     OW 1102   0.915   1.552   6.340
   68SOL    HW1 1103   0.938   1.455   6.347
   68SOL    HW2 1104   0.859   1.578   6.419
   69SOL     OW 1105   1.636   0.284   6.224
   69SOL    HW1 1106   1.594   0.294   6.315
   69SOL    HW2 1107   1.679   0.370   6.198
   70SOL     OW 1108   4.334   5.051   3.376
   70SOL    HW1 1109   4.315   5.112   3.299
   70SOL    HW2 1110   4.315   4.957   3.350
   71SOL     OW 1111   5.454   1.137   5.117
   71SOL    HW1 1112   5.463   1.114   5.214
   71SOL    HW2 1113   5.410   1.227   5.108
   72SOL     OW 1114   6.699   0.939   2.561
   72SOL    HW1 1115   6.642   1.021   2.572
   72SOL    HW2 1116   6.756   0.927   2.642
   73SOL     OW 1117   3.029   0.890   1.095
   73SOL    HW1 1118   3.091   0.964   1.121
   73SOL    HW2 1119   3.067   0.802   1.123
   74SOL     OW 1120   2.536   0.883   0.481
   74SOL    HW1 1121   2.471   0.857   0.410
   74SOL    HW2 1122   2.519   0.978   0.507
   75SOL     OW 1123   2.762   2.791   1.681
   75SOL    HW1 1124   2.680   2.763   1.631
   75SOL    HW2 1125   2.773   2.890   1.674
   76SOL     OW 1126   3.583   5.390   6.345
   76SOL    HW1 1127   3.585   5.450   6.424
   76SOL    HW2 1128   3.666   5.403   6.290
   77SOL     OW 1129   6.576   5.124   4.597
   77SOL    HW1 1130   6.621   5.094   4.681
   77SOL    HW2 1131   6.639   5.113   4.520
   78SOL     OW 1132   5.471   1.425   1.482
   78SOL    HW1 1133   5.460   1.330   1.512
   78SOL    HW2 1134   5.383   1.459   1.448
   79SOL     OW 1135   1.640   3.922   4.304
   79SOL    HW1 1136   1.653   4.016   4.335
   79SOL    HW2 1137   1.543   3.897   4.315
   80SOL     OW 1138   3.988   2.307   5.379
   80SOL    HW1 1139   3.962   2.235   5.443
   80SOL    HW2 1140   3.906   2.352   5.345
   81SOL     OW 1141   2.633   4.896   3.408
   81SOL    HW1 1142   2.674   4.873   3.496
   81SOL    HW2 1143   2.548   4.845   3.396
   82SOL     OW 1144   3.097   0.528   1.702
   82SOL    HW1 1145   3.028   0.463   1.734
   82SOL    HW2 1146   3.178   0.479   1.672
   83SOL     OW 1147   5.797   2.067   3.773
   83SOL    HW1 1148   5.711   2.016   3.773
   83SOL    HW2 1149   5.815   2.103   3.864
   84SOL     OW 1150   5.150   2.128   2.832
   84SOL    HW1 1151   5.230   2.093   2.881
   84SOL    HW2 1152   5.178   2.201   2.770
   85SOL     OW 1153   2.299   5.372   3.751
   85SOL    HW1 1154   2.272   5.368   3.847
   85SOL    HW2 1155   2.375   5.435   3.740
   86SOL     OW 1156   5.054   0.903   0.655
   86SOL    HW1 1157   4.990   0.978   0.676
   86SOL    HW2 1158   5.038   0.871   0.562
   87SOL     OW 1159   2.661   2.807   0.260
   87SOL    HW1 1160   2.672   2.755   0.345
   87SOL    HW2 1161   2.587   2.873   0.271
   88SOL     OW 1162   1.699   1.763   1.112
   88SOL    HW1 1163   1.607   1.789   1.085
   88SOL    HW2 1164   1.709   1.773   1.211
   89SOL     OW 1165   4.002   3.842   4.817
   89SOL    HW1 1166   3.986   3.917   4.753
   89SOL    HW2 1167   3.961   3.865   4.905
   90SOL     OW 1168   0.201   3.385   2.502
   90SOL    HW1 1169   0.130   3.317   2.520
   90SOL    HW2 1170   0.226   3.431   2.588
   91SOL     OW 1171   4.518   5.431   0.430
   91SOL    HW1 1172   4.594   5.389   0.380
   91SOL    HW2 1173   4.551   5.465   0.518
   92SOL     OW 1174   5.909   5.792   6.712
   92SOL    HW1 1175   5.943   5.881   6.680
   92SOL    HW2 1176   5.943   5.775   6.804
   93SOL     OW 1177   3.089   3.494   1.660
   93SOL    HW1 1178   3.069   3.592   1.663
   93SOL    HW2 1179   3.035   3.452   1.587
   94SOL     OW 1180   3.034   1.144   4.254
   94SOL    HW1 1181   3.064   1.221   4.196
   94SOL    HW2 1182   3.027   1.062   4.198
   95SOL     OW 1183   1.065   6.193   4.775
   95SOL    HW1 1184   1.152   6.193   4.726
   95SOL    HW2 1185   1.080   6.169   4.871
   96SOL     OW 1186   6.893   6.490   6.788
   96SOL    HW1 1187   6.911   6.396   6.759
   96SOL    HW2 1188   6.972   6.547   6.764
   97SOL     OW 1189   3.794   4.984   5.036
   97SOL    HW1 1190   3.879   5.036   5.041
   97SOL    HW2 1191   3.775   4.961   4.940
   98SOL     OW 1192   0.278   2.689   4.963
   98SOL    HW1 1193   0.235   2.623   5.024
   98SOL    HW2 1194   0.208   2.738   4.911
   99SOL     OW 1195   4.553   4.429   4.676
   99SOL    HW1 1196   4.604   4.459   4.596
   99SOL    HW2 1197   4.517   4.337   4.660
  100SOL     OW 1198   1.588   1.612   5.087
  100SOL    HW1 1199   1.562   1.530   5.036
  100SOL    HW2 1200   1.687   1.627   5.079
  101SOL     OW 1201   5.482   2.705   2.160
  101SOL    HW1 1202   5.468   2.802   2.139
  101SOL    HW2 1203   5.510   2.656   2.077
  102SOL     OW 1204   3.960   6.647   0.438
  102SOL    HW1 1205   3.874   6.648   0.489
  102SOL    HW2 1206   4.007   6.734   0.450
  103SOL     OW 1207   1.623   2.386   1.592
  103SOL    HW1 1208   1.710   2.337   1.601
  103SOL    HW2 1209   1.578   2.358   1.508
  104SOL     OW 1210   0.614   4.473   1.211
  104SOL    HW1 1211   0.658   4.422   1.137
  104SOL    HW2 1212   0.684   4.519   1.266
  105SOL     OW 1213   6.405   1.842   5.017
  105SOL    HW1 1214   6.435   1.901   4.942
  105SOL    HW2 1215   6.372   1.898   5.093
  106SOL     OW 1216   4.802   3.170   1.541
  106SOL    HW1 1217   4.829   3.074   1.543
  106SOL    HW2 1218   4.710   3.178   1.502
  107SOL     OW 1219   4.392   6.868   2.386
  107SOL    HW1 1220   4.306   6.920   2.380
  107SOL    HW2 1221   4.417   6.857   2.482
  108SOL     OW 1222   3.400   1.353   4.784
  108SOL    HW1 1223   3.460   1.285   4.825
  108SOL    HW2 1224   3.321   1.308   4.742
  109SOL     OW 1225   2.140   2.067   5.010
  109SOL    HW1 1226   2.144   2.161   4.977
  109SOL    HW2 1227   2.111   2.066   5.105
  110SOL     OW 1228   4.339   4.609   5.509
  110SOL    HW1 1229   4.283   4.635   5.588
  110SOL    HW2 1230   4.365   4.512   5.517
  111SOL     OW 1231   6.678   2.981   1.504
  111SOL    HW1 1232   6.629   2.961   1.420
  111SOL    HW2 1233   6.622   2.955   1.583
  112SOL     OW 1234   4.148   6.287   4.978
  112SOL    HW1 1235   4.091   6.361   5.014
  112SOL    HW2 1236   4.205   6.250   5.051
  113SOL     OW 1237   0.765   5.454   1.897
  113SOL    HW1 1238   0.744   5.530   1.959
  113SOL    HW2 1239   0.859   5.424   1.911
  114SOL     OW 1240   0.033   1.733   1.578
  114SOL    HW1 1241   7.003   1.698   1.503
  114SOL    HW2 1242   7.003   1.788   1.639
  115SOL     OW 1243   4.359   1.233   3.060
  115SOL    HW1 1244   4.353   1.134   3.068
  115SOL    HW2 1245   4.335   1.275   3.148
  116SOL     OW 1246   5.949   5.590   0.508
  116SOL    HW1 1247   5.967   5.629   0.418
  116SOL    HW2 1248   5.870   5.635   0.549
  117SOL     OW 1249   2.505   1.571   0.573
  117SOL    HW1 1250   2.419   1.529   0.544
  117SOL    HW2 1251   2.576   1.551   0.505
  118SOL     OW 1252   0.452   2.072   2.155
  118SOL    HW1 1253   0.367   2.118   2.181
  118SOL    HW2 1254   0.528   2.136   2.159
  119SOL     OW 1255   5.276   5.557   4.854
  119SOL    HW1 1256   5.202   5.539   4.789
  119SOL    HW2 1257   5.355   5.500   4.831
  120SOL     OW 1258   4.653   2.110   4.727
  120SOL    HW1 1259   4.618   2.028   4.681
  120SOL    HW2 1260   4.702   2.167   4.660
  121SOL     OW 1261   0.240   5.482   6.030
  121SOL    HW1 1262   0.202   5.481   6.122
  121SOL    HW2 1263   0.297   5.401   6.016
  122SOL     OW 1264   0.425   4.574   5.710
  122SOL    HW1 1265   0.333   4.608   5.690
  122SOL    HW2 1266   0.452   4.508   5.639
  123SOL     OW 1267   0.951   2.855   1.181
  123SOL    HW1 1268   0.988   2.948   1.176
  123SOL    HW2 1269   0.923   2.835   1.275
  124SOL     OW 1270   2.172   3.772   6.675
  124SOL    HW1 1271   2.167   3.696   6.740
  124SOL    HW2 1272   2.102   3.758   6.604
  125SOL     OW 1273   4.166   2.480   0.585
  125SOL    HW1 1274   4.107   2.463   0.506
  125SOL    HW2 1275   4.112   2.473   0.669
  126SOL     OW 1276   3.699   3.236   4.858
  126SOL    HW1 1277   3.636   3.166   4.891
  126SOL    HW2 1278   3.754   3.271   4.934
  127SOL     OW 1279   7.024   4.877   5.644
  127SOL    HW1 1280   6.959   4.889   5.568
  127SOL    HW2 1281   0.054   4.959   5.653
  128SOL     OW 1282   5.157   4.168   5.725
  128SOL    HW1 1283   5.100   4.142   5.802
  128SOL    HW2 1284   5.162   4.268   5.719
  129SOL     OW 1285   0.811   5.178   1.509
  129SOL    HW1 1286   0.847   5.175   1.603
  129SOL    HW2 1287   0.761   5.093   1.491
  130SOL     OW 1288   6.412   3.558   5.011
  130SOL    HW1 1289   6.390   3.468   4.973
  130SOL    HW2 1290   6.329   3.602   5.045
  131SOL     OW 1291   0.810   3.463   2.623
  131SOL    HW1 1292   0.873   3.512   2.684
  131SOL    HW2 1293   0.853   3.379   2.592
  132SOL     OW 1294   3.804   3.019   1.374
  132SOL    HW1 1295   3.755   3.078   1.310
  132SOL    HW2 1296   3.751   3.010   1.459
  133SOL     OW 1297   4.153   4.214   5.571
  133SOL    HW1 1298   4.117   4.123   5.550
  133SOL    HW2 1299   4.097   4.256   5.642
  134SOL     OW 1300   6.740   1.541   6.766
  134SOL    HW1 1301   6.648   1.518   6.736
  134SOL    HW2 1302   6.738   1.626   6.820
  135SOL     OW 1303   4.291   4.661   3.547
  135SOL    HW1 1304   4.251   4.700   3.630
  135SOL    HW2 1305   4.351   4.584   3.572
  136SOL     OW 1306   4.026   6.659   6.043
  136SOL    HW1 1307   4.013   6.730   6.113
  136SOL    HW2 1308   3.937   6.633   6.005
  137SOL     OW 1309   2.128   4.057   0.440
  137SOL    HW1 1310   2.059   4.104   0.496
  137SOL    HW2 1311   2.176   3.990   0.496
  138SOL     OW 1312   0.771   5.535   0.892
  138SOL    HW1 1313   0.868   5.555   0.904
  138SOL    HW2 1314   0.761   5.464   0.821
  139SOL     OW 1315   1.041   1.044   1.172
  139SOL    HW1 1316   0.986   0.970   1.134
  139SOL    HW2 1317   0.981   1.120   1.197
  140SOL     OW 1318   3.303   7.012   1.976
  140SOL    HW1 1319   3.388   0.028   2.008
  140SOL    HW2 1320   3.265   6.954   2.049
  141SOL     OW 1321   1.432   2.381   0.042
  141SOL    HW1 1322   1.389   2.466   0.073
  141SOL    HW2 1323   1.473   2.333   0.120
  142SOL     OW 1324   1.703   3.795   7.026
  142SOL    HW1 1325   1.752   3.812   0.085
  142SOL    HW2 1326   1.706   3.697   7.005
  143SOL     OW 1327   5.672   5.561   1.931
  143SOL    HW1 1328   5.768   5.555   1.903
  143SOL    HW2 1329   5.664   5.628   2.005
  144SOL     OW 1330   2.293   5.478   2.997
  144SOL    HW1 1331   2.290   5.542   3.074
  144SOL    HW2 1332   2.204   5.435   2.985
  145SOL     OW 1333   7.001   5.757   3.416
  145SOL    HW1 1334   7.025   5.800   3.328
  145SOL    HW2 1335   7.016   5.659   3.410
  146SOL     OW 1336   0.329   0.384   5.335
  146SOL    HW1 1337   0.305   0.458   5.399
  146SOL    HW2 1338   0.396   0.324   5.379
  147SOL     OW 1339   6.051   0.168   4.844
  147SOL    HW1 1340   5.966   0.212   4.814
  147SOL    HW2 1341   6.071   0.195   4.938
  148SOL     OW 1342   1.518   6.669   2.589
  148SOL    HW1 1343   1.477   6.705   2.505
  148SOL    HW2 1344   1.533   6.744   2.654
  149SOL     OW 1345   1.854   2.503   4.731
  149SOL    HW1 1346   1.908   2.438   4.677
  149SOL    HW2 1347   1.916   2.568   4.776
  150SOL     OW 1348   5.422   3.150   5.673
  150SOL    HW1 1349   5.479   3.075   5.707
  150SOL    HW2 1350   5.332   3.145   5.716
  151SOL     OW 1351   6.264   2.643   2.016
  151SOL    HW1 1352   6.230   2.737   2.017
  151SOL    HW2 1353   6.229   2.596   1.935
  152SOL     OW 1354   6.943   2.694   0.523
  152SOL    HW1 1355   6.882   2.691   0.445
  152SOL    HW2 1356   0.003   2.737   0.497
  153SOL     OW 1357   1.915   1.594   4.093
  153SOL    HW1 1358   1.834   1.550   4.054
  153SOL    HW2 1359   1.918   1.690   4.064
  154SOL     OW 1360   6.984   1.088   4.191
  154SOL    HW1 1361   0.029   1.097   4.121
  154SOL    HW2 1362   6.959   0.992   4.202
  155SOL     OW 1363   5.644   4.713   3.061
  155SOL    HW1 1364   5.650   4.627   3.113
  155SOL    HW2 1365   5.553   4.720   3.020
  156SOL     OW 1366   4.339   0.096   1.220
  156SOL    HW1 1367   4.361   0.172   1.282
  156SOL    HW2 1368   4.250   0.057   1.245
  157SOL     OW 1369   5.279   7.016   0.793
  157SOL    HW1 1370   5.253   6.942   0.730
  157SOL    HW2 1371   5.377   7.011   0.810
  158SOL     OW 1372   0.685   2.889   4.784
  158SOL    HW1 1373   0.707   2.985   4.768
  158SOL    HW2 1374   0.757   2.831   4.744
  159SOL     OW 1375   6.576   5.122   6.427
  159SOL    HW1 1376   6.478   5.132   6.410
  159SOL    HW2 1377   6.601   5.025   6.428
  160SOL     OW 1378   4.038   0.235   1.361
  160SOL    HW1 1379   3.977   0.304   1.323
  160SOL    HW2 1380   4.009   0.144   1.330
  161SOL     OW 1381   6.484   6.961   0.599
  161SOL    HW1 1382   6.530   6.873   0.584
  161SOL    HW2 1383   6.553   0.008   0.600
  162SOL     OW 1384   4.174   6.778   5.219
  162SOL    HW1 1385   4.210   6.692   5.257
  162SOL    HW2 1386   4.177   6.774   5.119
  163SOL     OW 1387   1.151   3.996   2.454
  163SOL    HW1 1388   1.209   3.963   2.380
  163SOL    HW2 1389   1.065   3.945   2.453
  164SOL     OW 1390   1.898   2.274   2.906
  164SOL    HW1 1391   1.912   2.175   2.916
  164SOL    HW2 1392   1.873   2.295   2.811
  165SOL     OW 1393   0.353   5.993   4.482
  165SOL    HW1 1394   0.269   5.946   4.507
  165SOL    HW2 1395   0.371   6.067   4.547
  166SOL     OW 1396   0.880   4.976   4.150
  166SOL    HW1 1397   0.960   5.000   4.204
  166SOL    HW2 1398   0.905   4.910   4.080
  167SOL     OW 1399   0.208   1.342   3.116
  167SOL    HW1 1400   0.189   1.333   3.019
  167SOL    HW2 1401   0.304   1.319   3.133
  168SOL     OW 1402   3.277   3.757   3.329
  168SOL    HW1 1403   3.304   3.810   3.411
  168SOL    HW2 1404   3.321   3.797   3.249
  169SOL     OW 1405   4.867   2.636   6.013
  169SOL    HW1 1406   4.811   2.554   6.024
  169SOL    HW2 1407   4.909   2.660   6.101
  170SOL     OW 1408   6.951   5.149   2.130
  170SOL    HW1 1409   6.956   5.079   2.201
  170SOL    HW2 1410   6.900   5.113   2.051
  171SOL     OW 1411   3.357   2.441   0.948
  171SOL    HW1 1412   3.293   2.423   1.022
  171SOL    HW2 1413   3.307   2.479   0.869
  172SOL     OW 1414   1.561   1.199   0.262
  172SOL    HW1 1415   1.561   1.107   0.301
  172SOL    HW2 1416   1.468   1.235   0.261
  173SOL     OW 1417   5.903   0.487   5.037
  173SOL    HW1 1418   5.843   0.545   5.093
  173SOL    HW2 1419   5.997   0.519   5.045
  174SOL     OW 1420   6.802   4.317   5.020
  174SOL    HW1 1421   6.751   4.387   4.970
  174SOL    HW2 1422   6.778   4.320   5.117
  175SOL     OW 1423   0.910   5.764   2.907
  175SOL    HW1 1424   0.859   5.811   2.836
  175SOL    HW2 1425   0.859   5.766   2.993
  176SOL     OW 1426   6.159   4.204   1.033
  176SOL    HW1 1427   6.151   4.280   0.969
  176SOL    HW2 1428   6.117   4.229   1.120
  177SOL     OW 1429   6.067   2.836   4.152
  177SOL    HW1 1430   5.970   2.859   4.150
  177SOL    HW2 1431   6.116   2.894   4.086
  178SOL     OW 1432   1.319   5.940   5.101
  178SOL    HW1 1433   1.386   5.868   5.084
  178SOL    HW2 1434   1.366   6.026   5.120
  179SOL     OW 1435   3.499   4.161   1.884
  179SOL    HW1 1436   3.402   4.140   1.895
  179SOL    HW2 1437   3.548   4.135   1.967
  180SOL     OW 1438   4.577   1.155   6.313
  180SOL    HW1 1439   4.565   1.228   6.380
  180SOL    HW2 1440   4.519   1.174   6.233
  181SOL     OW 1441   3.596   0.437   5.233
  181SOL    HW1 1442   3.551   0.474   5.151
  181SOL    HW2 1443   3.539   0.454   5.313
  182SOL     OW 1444   3.073   3.033   5.664
  182SOL    HW1 1445   3.020   3.084   5.731
  182SOL    HW2 1446   3.037   3.051   5.572
  183SOL     OW 1447   2.904   0.894   3.472
  183SOL    HW1 1448   3.002   0.914   3.474
  183SOL    HW2 1449   2.874   0.882   3.377
  184SOL     OW 1450   4.931   6.404   3.493
  184SOL    HW1 1451   4.978   6.332   3.441
  184SOL    HW2 1452   4.874   6.362   3.563
  185SOL     OW 1453   0.638   6.429   5.299
  185SOL    HW1 1454   0.602   6.400   5.388
  185SOL    HW2 1455   0.663   6.526   5.303
  186SOL     OW 1456   3.229   5.660   6.442
  186SOL    HW1 1457   3.219   5.662   6.343
  186SOL    HW2 1458   3.141   5.635   6.484
  187SOL     OW 1459   3.498   5.357   0.691
  187SOL    HW1 1460   3.566   5.339   0.763
  187SOL    HW2 1461   3.409   5.376   0.733
  188SOL     OW 1462   1.718   4.126   4.052
  188SOL    HW1 1463   1.778   4.162   3.981
  188SOL    HW2 1464   1.741   4.030   4.070
  189SOL     OW 1465   5.876   4.529   6.199
  189SOL    HW1 1466   5.875   4.621   6.160
  189SOL    HW2 1467   5.909   4.464   6.131
  190SOL     OW 1468   5.810   6.537   0.409
  190SOL    HW1 1469   5.780   6.474   0.338
  190SOL    HW2 1470   5.902   6.510   0.440
  191SOL     OW 1471   1.994   3.452   5.845
  191SOL    HW1 1472   1.927   3.468   5.772
  191SOL    HW2 1473   1.970   3.507   5.925
  192SOL     OW 1474   0.584   0.269   1.335
  192SOL    HW1 1475   0.553   0.358   1.303
  192SOL    HW2 1476   0.542   0.197   1.279
  193SOL     OW 1477   3.087   0.136   1.685
  193SOL    HW1 1478   3.029   0.198   1.736
  193SOL    HW2 1479   3.134   0.186   1.612
  194SOL     OW 1480   4.182   5.696   3.391
  194SOL    HW1 1481   4.171   5.793   3.411
  194SOL    HW2 1482   4.279   5.670   3.399
  195SOL     OW 1483   3.241   0.553   1.255
  195SOL    HW1 1484   3.190   0.561   1.170
  195SOL    HW2 1485   3.195   0.606   1.327
  196SOL     OW 1486   3.869   3.089   1.048
  196SOL    HW1 1487   3.805   3.114   1.120
  196SOL    HW2 1488   3.905   3.172   1.005
  197SOL     OW 1489   1.665   5.794   0.673
  197SOL    HW1 1490   1.723   5.875   0.686
  197SOL    HW2 1491   1.689   5.751   0.586
  198SOL     OW 1492   5.946   7.016   6.163
  198SOL    HW1 1493   5.909   6.968   6.084
  198SOL    HW2 1494   6.009   0.062   6.133
  199SOL     OW 1495   2.176   1.252   3.554
  199SOL    HW1 1496   2.184   1.224   3.650
  199SOL    HW2 1497   2.084   1.232   3.521
  200SOL     OW 1498   1.750   3.720   4.483
  200SOL    HW1 1499   1.717   3.773   4.405
  200SOL    HW2 1500   1.846   3.742   4.500
  201SOL     OW 1501   4.948   1.172   0.055
  201SOL    HW1 1502   4.966   1.270   0.046
  201SOL    HW2 1503   4.924   1.134   6.991
  202SOL     OW 1504   4.149   0.528   2.777
  202SOL    HW1 1505   4.094   0.451   2.745
  202SOL    HW2 1506   4.207   0.560   2.702
  203SOL     OW 1507   5.746   3.005   0.395
  203SOL    HW1 1508   5.716   2.938   0.463
  203SOL    HW2 1509   5.803   3.074   0.440
  204SOL     OW 1510   2.029   6.284   1.042
  204SOL    HW1 1511   1.995   6.356   0.982
  204SOL    HW2 1512   1.954   6.248   1.098
  205SOL     OW 1513   5.361   0.799   1.381
  205SOL    HW1 1514   5.313   0.735   1.321
  205SOL    HW2 1515   5.417   0.861   1.325
  206SOL     OW 1516   7.014   6.065   1.051
  206SOL    HW1 1517   0.053   6.124   1.099
  206SOL    HW2 1518   0.037   6.013   0.981
  207SOL     OW 1519   6.644   2.296   5.588
  207SOL    HW1 1520   6.658   2.231   5.662
  207SOL    HW2 1521   6.698   2.269   5.508
  208SOL     OW 1522   4.297   3.630   0.247
  208SOL    HW1 1523   4.364   3.698   0.218
  208SOL    HW2 1524   4.295   3.625   0.347
  209SOL     OW 1525   6.951   0.128   3.961
  209SOL    HW1 1526   6.997   0.210   3.996
  209SOL    HW2 1527   6.933   0.064   4.036
  210SOL     OW 1528   4.178   1.703   0.938
  210SOL    HW1 1529   4.196   1.641   1.015
  210SOL    HW2 1530   4.202   1.796   0.964
  211SOL     OW 1531   0.672   2.912   2.305
  211SOL    HW1 1532   0.759   2.877   2.271
  211SOL    HW2 1533   0.685   2.950   2.397
  212SOL     OW 1534   1.138   5.157   5.618
  212SOL    HW1 1535   1.153   5.116   5.528
  212SOL    HW2 1536   1.063   5.222   5.613
  213SOL     OW 1537   3.852   2.572   1.277
  213SOL    HW1 1538   3.861   2.604   1.371
  213SOL    HW2 1539   3.801   2.639   1.223
  214SOL     OW 1540   1.094   6.038   3.958
  214SOL    HW1 1541   1.113   6.089   3.874
  214SOL    HW2 1542   1.030   6.090   4.014
  215SOL     OW 1543   3.552   3.862   3.159
  215SOL    HW1 1544   3.592   3.785   3.210
  215SOL    HW2 1545   3.486   3.826   3.093
  216SOL     OW 1546   3.045   0.441   5.543
  216SOL    HW1 1547   2.985   0.509   5.502
  216SOL    HW2 1548   3.124   0.486   5.584
  217SOL     OW 1549   6.805   1.804   5.283
  217SOL    HW1 1550   6.816   1.846   5.193
  217SOL    HW2 1551   6.891   1.810   5.333
  218SOL     OW 1552   3.020   4.544   5.792
  218SOL    HW1 1553   2.960   4.597   5.852
  218SOL    HW2 1554   2.978   4.534   5.702
  219SOL     OW 1555   2.966   5.738   6.524
  219SOL    HW1 1556   2.885   5.703   6.475
  219SOL    HW2 1557   2.936   5.791   6.603
  220SOL     OW 1558   0.954   5.126   0.427
  220SOL    HW1 1559   1.035   5.090   0.380
  220SOL    HW2 1560   0.956   5.226   0.424
  221SOL     OW 1561   5.981   3.003   5.018
  221SOL    HW1 1562   5.896   3.050   4.995
  221SOL    HW2 1563   6.017   2.958   4.936
  222SOL     OW 1564   1.855   0.031   4.838
  222SOL    HW1 1565   1.923   6.999   4.884
  222SOL    HW2 1566   1.895   0.068   4.754
  223SOL     OW 1567   5.903   4.310   2.762
  223SOL    HW1 1568   5.954   4.338   2.681
  223SOL    HW2 1569   5.812   4.352   2.760
  224SOL     OW 1570   5.091   3.001   2.814
  224SOL    HW1 1571   5.131   2.954   2.735
  224SOL    HW2 1572   4.992   3.009   2.800
  225SOL     OW 1573   5.303   6.357   1.631
  225SOL    HW1 1574   5.392   6.402   1.645
  225SOL    HW2 1575   5.309   6.262   1.661
  226SOL     OW 1576   1.098   6.135   2.480
  226SOL    HW1 1577   1.155   6.217   2.484
  226SOL    HW2 1578   1.002   6.160   2.495
  227SOL     OW 1579   1.197   4.060   3.428
  227SOL    HW1 1580   1.256   4.071   3.348
  227SOL    HW2 1581   1.116   4.008   3.403
  228SOL     OW 1582   3.946   5.882   2.826
  228SOL    HW1 1583   4.039   5.845   2.817
  228SOL    HW2 1584   3.897   5.833   2.898
  229SOL     OW 1585   6.219   5.677   2.791
  229SOL    HW1 1586   6.137   5.663   2.845
  229SOL    HW2 1587   6.256   5.768   2.810
  230SOL     OW 1588   0.742   4.877   5.842
  230SOL    HW1 1589   0.837   4.860   5.868
  230SOL    HW2 1590   0.686   4.892   5.924
  231SOL     OW 1591   0.396   1.658   6.548
  231SOL    HW1 1592   0.313   1.674   6.603
  231SOL    HW2 1593   0.469   1.623   6.607
  232SOL     OW 1594   1.491   3.852   5.711
  232SOL    HW1 1595   1.538   3.764   5.724
  232SOL    HW2 1596   1.542   3.924   5.759
  233SOL     OW 1597   3.316   0.256   6.733
  233SOL    HW1 1598   3.379   0.241   6.810
  233SOL    HW2 1599   3.333   0.187   6.663
  234SOL     OW 1600   1.873   4.892   6.682
  234SOL    HW1 1601   1.817   4.847   6.752
  234SOL    HW2 1602   1.941   4.827   6.648
  235SOL     OW 1603   4.010   3.751   5.975
  235SOL    HW1 1604   4.070   3.714   5.904
  235SOL    HW2 1605   4.009   3.851   5.968
  236SOL     OW 1606   6.915   1.273   6.338
  236SOL    HW1 1607   6.953   1.341   6.274
  236SOL    HW2 1608   6.904   1.186   6.291
  237SOL     OW 1609   6.773   6.692   2.474
  237SOL    HW1 1610   6.801   6.722   2.382
  237SOL    HW2 1611   6.854   6.687   2.533
  238SOL     OW 1612   0.461   2.392   2.690
  238SOL    HW1 1613   0.467   2.304   2.737
  238SOL    HW2 1614   0.468   2.377   2.591
  239SOL     OW 1615   6.075   4.813   0.392
  239SOL    HW1 1616   6.068   4.717   0.364
  239SOL    HW2 1617   6.168   4.833   0.422
  240SOL     OW 1618   7.019   1.843   4.700
  240SOL    HW1 1619   6.928   1.883   4.690
  240SOL    HW2 1620   0.060   1.900   4.651
  241SOL     OW 1621   6.024   2.200   4.852
  241SOL    HW1 1622   6.034   2.221   4.755
  241SOL    HW2 1623   6.114   2.202   4.896
  242SOL     OW 1624   2.890   2.240   4.037
  242SOL    HW1 1625   2.932   2.226   4.127
  242SOL    HW2 1626   2.961   2.246   3.967
  243SOL     OW 1627   4.985   1.358   6.826
  243SOL    HW1 1628   4.950   1.369   6.733
  243SOL    HW2 1629   5.082   1.332   6.822
  244SOL     OW 1630   0.576   1.724   6.333
  244SOL    HW1 1631   0.515   1.688   6.404
  244SOL    HW2 1632   0.602   1.651   6.271
  245SOL     OW 1633   5.516   2.116   4.110
  245SOL    HW1 1634   5.561   2.057   4.042
  245SOL    HW2 1635   5.457   2.061   4.168
  246SOL     OW 1636   5.365   3.478   4.672
  246SOL    HW1 1637   5.406   3.534   4.744
  246SOL    HW2 1638   5.405   3.502   4.583
  247SOL     OW 1639   2.975   0.542   2.923
  247SOL    HW1 1640   3.002   0.446   2.919
  247SOL    HW2 1641   3.056   0.600   2.907
  248SOL     OW 1642   0.858   2.443   2.870
  248SOL    HW1 1643   0.878   2.397   2.784
  248SOL    HW2 1644   0.766   2.481   2.867
  249SOL     OW 1645   2.431   5.700   5.490
  249SOL    HW1 1646   2.341   5.681   5.529
  249SOL    HW2 1647   2.498   5.710   5.563
  250SOL     OW 1648   5.214   2.306   6.949
  250SOL    HW1 1649   5.171   2.353   0.001
  250SOL    HW2 1650   5.271   2.232   6.983
  251SOL     OW 1651   2.245   0.848   1.352
  251SOL    HW1 1652   2.154   0.808   1.365
  251SOL    HW2 1653   2.237   0.935   1.305
  252SOL     OW 1654   7.015   2.251   0.509
  252SOL    HW1 1655   6.917   2.247   0.528
  252SOL    HW2 1656   0.024   2.158   0.496
  253SOL     OW 1657   2.435   4.549   6.290
  253SOL    HW1 1658   2.343   4.515   6.270
  253SOL    HW2 1659   2.467   4.511   6.376
  254SOL     OW 1660   5.044   3.607   6.443
  254SOL    HW1 1661   4.954   3.578   6.414
  254SOL    HW2 1662   5.095   3.643   6.365
  255SOL     OW 1663   4.753   2.296   2.275
  255SOL    HW1 1664   4.723   2.208   2.239
  255SOL    HW2 1665   4.677   2.362   2.269
  256SOL     OW 1666   0.147   6.140   1.465
  256SOL    HW1 1667   0.119   6.054   1.506
  256SOL    HW2 1668   0.247   6.148   1.469
  257SOL     OW 1669   2.986   5.867   6.145
  257SOL    HW1 1670   3.005   5.961   6.118
  257SOL    HW2 1671   3.060   5.834   6.204
  258SOL     OW 1672   4.210   5.470   4.323
  258SOL    HW1 1673   4.121   5.434   4.352
  258SOL    HW2 1674   4.199   5.566   4.297
  259SOL     OW 1675   0.775   1.740   2.003
  259SOL    HW1 1676   0.795   1.814   1.938
  259SOL    HW2 1677   0.825   1.658   1.976
  260SOL     OW 1678   6.566   6.724   5.538
  260SOL    HW1 1679   6.499   6.695   5.470
  260SOL    HW2 1680   6.646   6.764   5.492
  261SOL     OW 1681   0.477   0.710   4.141
  261SOL    HW1 1682   0.489   0.722   4.240
  261SOL    HW2 1683   0.467   0.613   4.121
  262SOL     OW 1684   1.688   5.473   1.318
  262SOL    HW1 1685   1.775   5.426   1.332
  262SOL    HW2 1686   1.705   5.565   1.282
  263SOL     OW 1687   0.714   4.382   4.745
  263SOL    HW1 1688   0.652   4.426   4.811
  263SOL    HW2 1689   0.808   4.410   4.764
  264SOL     OW 1690   3.602   4.086   0.567
  264SOL    HW1 1691   3.572   4.172   0.527
  264SOL    HW2 1692   3.525   4.042   0.614
  265SOL     OW 1693   4.157   5.472   3.967
  265SOL    HW1 1694   4.201   5.438   3.884
  265SOL    HW2 1695   4.098   5.402   4.006
  266SOL     OW 1696   4.289   3.524   6.819
  266SOL    HW1 1697   4.361   3.476   6.769
  266SOL    HW2 1698   4.244   3.461   6.881
  267SOL     OW 1699   2.760   2.576   5.744
  267SOL    HW1 1700   2.805   2.622   5.821
  267SOL    HW2 1701   2.732   2.644   5.676
  268SOL     OW 1702   1.872   4.275   3.887
  268SOL    HW1 1703   1.911   4.367   3.885
  268SOL    HW2 1704   1.910   4.221   3.812
  269SOL     OW 1705   3.348   1.866   5.520
  269SOL    HW1 1706   3.366   1.778   5.478
  269SOL    HW2 1707   3.430   1.899   5.567
  270SOL     OW 1708   5.455   5.973   4.795
  270SOL    HW1 1709   5.446   6.067   4.763
  270SOL    HW2 1710   5.536   5.965   4.853
  271SOL     OW 1711   2.679   1.813   0.329
  271SOL    HW1 1712   2.638   1.852   0.246
  271SOL    HW2 1713   2.612   1.812   0.403
  272SOL     OW 1714   5.504   4.682   0.096
  272SOL    HW1 1715   5.543   4.771   0.121
  272SOL    HW2 1716   5.442   4.693   0.019
  273SOL     OW 1717   1.231   5.909   4.324
  273SOL    HW1 1718   1.183   5.997   4.330
  273SOL    HW2 1719   1.270   5.899   4.232
  274SOL     OW 1720   5.302   2.365   2.793
  274SOL    HW1 1721   5.240   2.438   2.763
  274SOL    HW2 1722   5.374   2.352   2.725
  275SOL     OW 1723   5.793   5.660   5.492
  275SOL    HW1 1724   5.767   5.565   5.510
  275SOL    HW2 1725   5.821   5.704   5.578
  276SOL     OW 1726   0.868   0.206   4.637
  276SOL    HW1 1727   0.774   0.214   4.605
  276SOL    HW2 1728   0.869   0.181   4.734
  277SOL     OW 1729   3.551   3.118   5.453
  277SOL    HW1 1730   3.617   3.063   5.503
  277SOL    HW2 1731   3.599   3.171   5.383
  278SOL     OW 1732   5.784   4.586   2.428
  278SOL    HW1 1733   5.740   4.675   2.419
  278SOL    HW2 1734   5.716   4.513   2.413
  279SOL     OW 1735   0.779   4.313   3.790
  279SOL    HW1 1736   0.831   4.249   3.732
  279SOL    HW2 1737   0.811   4.305   3.884
  280SOL     OW 1738   4.633   1.466   3.470
  280SOL    HW1 1739   4.706   1.422   3.418
  280SOL    HW2 1740   4.657   1.562   3.486
  281SOL     OW 1741   5.098   4.992   5.087
  281SOL    HW1 1742   5.041   4.932   5.142
  281SOL    HW2 1743   5.066   5.086   5.096
  282SOL     OW 1744   0.426   2.347   6.838
  282SOL    HW1 1745   0.331   2.355   6.807
  282SOL    HW2 1746   0.432   2.375   6.934
  283SOL     OW 1747   6.144   4.076   2.377
  283SOL    HW1 1748   6.123   3.981   2.402
  283SOL    HW2 1749   6.140   4.134   2.458
  284SOL     OW 1750   5.827   6.434   3.337
  284SOL    HW1 1751   5.828   6.487   3.252
  284SOL    HW2 1752   5.772   6.482   3.405
  285SOL     OW 1753   4.272   5.914   6.287
  285SOL    HW1 1754   4.255   5.823   6.251
  285SOL    HW2 1755   4.277   5.980   6.212
  286SOL     OW 1756   3.456   5.013   5.826
  286SOL    HW1 1757   3.481   5.106   5.798
  286SOL    HW2 1758   3.432   4.959   5.746
  287SOL     OW 1759   3.750   6.290   0.740
  287SOL    HW1 1760   3.801   6.257   0.819
  287SOL    HW2 1761   3.808   6.285   0.659
  288SOL     OW 1762   4.491   0.899   0.137
  288SOL    HW1 1763   4.488   0.998   0.122
  288SOL    HW2 1764   4.511   0.854   0.050
  289SOL     OW 1765   4.885   5.173   4.372
  289SOL    HW1 1766   4.885   5.179   4.471
  289SOL    HW2 1767   4.836   5.091   4.343
  290SOL     OW 1768   3.467   0.592   4.982
  290SOL    HW1 1769   3.508   0.681   5.001
  290SOL    HW2 1770   3.529   0.537   4.927
  291SOL     OW 1771   6.030   0.787   4.698
  291SOL    HW1 1772   6.089   0.801   4.778
  291SOL    HW2 1773   5.959   0.720   4.720
  292SOL     OW 1774   3.260   0.592   3.487
  292SOL    HW1 1775   3.312   0.635   3.414
  292SOL    HW2 1776   3.219   0.662   3.545
  293SOL     OW 1777   5.226   0.897   2.960
  293SOL    HW1 1778   5.188   0.871   2.871
  293SOL    HW2 1779   5.261   0.991   2.955
  294SOL     OW 1780   6.860   1.176   0.036
  294SOL    HW1 1781   6.862   1.252   0.101
  294SOL    HW2 1782   6.814   1.204   6.978
  295SOL     OW 1783   0.132   0.037   5.052
  295SOL    HW1 1784   0.104   0.023   4.957
  295SOL    HW2 1785   0.188   0.119   5.059
  296SOL     OW 1786   0.486   2.080   1.029
  296SOL    HW1 1787   0.582   2.058   1.044
  296SOL    HW2 1788   0.448   2.018   0.960
  297SOL     OW 1789   5.092   3.086   3.085
  297SOL    HW1 1790   5.169   3.129   3.132
  297SOL    HW2 1791   5.115   3.070   2.989
  298SOL     OW 1792   4.245   0.030   5.304
  298SOL    HW1 1793   4.177   0.051   5.374
  298SOL    HW2 1794   4.255   6.957   5.297
  299SOL     OW 1795   0.686   1.139   6.063
  299SOL    HW1 1796   0.768   1.130   6.119
  299SOL    HW2 1797   0.702   1.099   5.973
  300SOL     OW 1798   4.173   6.130   4.129
  300SOL    HW1 1799   4.135   6.094   4.044
  300SOL    HW2 1800   4.201   6.053   4.188
  301SOL     OW 1801   6.616   6.140   5.026
  301SOL    HW1 1802   6.632   6.068   4.958
  301SOL    HW2 1803   6.594   6.226   4.979
  302SOL     OW 1804   0.372   6.799   2.000
  302SOL    HW1 1805   0.340   6.759   2.086
  302SOL    HW2 1806   0.470   6.817   2.007
  303SOL     OW 1807   5.354   5.519   2.547
  303SOL    HW1 1808   5.308   5.564   2.471
  303SOL    HW2 1809   5.286   5.477   2.607
  304SOL     OW 1810   1.284   0.584   3.821
  304SOL    HW1 1811   1.358   0.519   3.800
  304SOL    HW2 1812   1.246   0.563   3.911
  305SOL     OW 1813   2.281   2.096   1.431
  305SOL    HW1 1814   2.327   2.039   1.499
  305SOL    HW2 1815   2.182   2.082   1.437
  306SOL     OW 1816   0.474   0.230   2.521
  306SOL    HW1 1817   0.559   0.206   2.475
  306SOL    HW2 1818   0.397   0.205   2.462
  307SOL     OW 1819   3.881   3.923   4.012
  307SOL    HW1 1820   3.848   3.931   4.105
  307SOL    HW2 1821   3.949   3.850   4.006
  308SOL     OW 1822   6.527   1.930   2.131
  308SOL    HW1 1823   6.578   1.960   2.212
  308SOL    HW2 1824   6.534   1.999   2.059
  309SOL     OW 1825   1.941   4.638   0.342
  309SOL    HW1 1826   2.012   4.591   0.289
  309SOL    HW2 1827   1.855   4.638   0.290
  310SOL     OW 1828   4.912   6.508   4.926
  310SOL    HW1 1829   4.946   6.599   4.904
  310SOL    HW2 1830   4.988   6.443   4.925
  311SOL     OW 1831   1.825   6.234   2.388
  311SOL    HW1 1832   1.737   6.224   2.341
  311SOL    HW2 1833   1.842   6.153   2.444
  312SOL     OW 1834   3.268   0.632   4.375
  312SOL    HW1 1835   3.280   0.582   4.289
  312SOL    HW2 1836   3.301   0.575   4.451
  313SOL     OW 1837   3.116   3.128   3.076
  313SOL    HW1 1838   3.076   3.208   3.122
  313SOL    HW2 1839   3.170   3.075   3.142
  314SOL     OW 1840   2.716   4.914   6.287
  314SOL    HW1 1841   2.669   4.962   6.361
  314SOL    HW2 1842   2.756   4.829   6.323
  315SOL     OW 1843   6.151   0.745   4.932
  315SOL    HW1 1844   6.106   0.736   5.021
  315SOL    HW2 1845   6.178   0.655   4.898
  316SOL     OW 1846   4.073   0.871   5.309
  316SOL    HW1 1847   4.105   0.889   5.403
  316SOL    HW2 1848   4.021   0.786   5.308
  317SOL     OW 1849   1.049   1.995   1.447
  317SOL    HW1 1850   0.959   2.007   1.487
  317SOL    HW2 1851   1.062   2.060   1.372
  318SOL     OW 1852   0.922   0.620   3.199
  318SOL    HW1 1853   1.020   0.636   3.190
  318SOL    HW2 1854   0.882   0.600   3.110
  319SOL     OW 1855   0.986   1.180   2.249
  319SOL    HW1 1856   1.007   1.188   2.347
  319SOL    HW2 1857   0.905   1.236   2.229
  320SOL     OW 1858   4.989   1.446   0.043
  320SOL    HW1 1859   4.982   1.431   6.971
  320SOL    HW2 1860   5.076   1.490   0.064
  321SOL     OW 1861   4.065   3.264   0.943
  321SOL    HW1 1862   4.137   3.316   0.989
  321SOL    HW2 1863   4.103   3.176   0.913
  322SOL     OW 1864   2.894   1.703   6.924
  322SOL    HW1 1865   2.869   1.647   7.003
  322SOL    HW2 1866   2.972   1.761   6.948
  323SOL     OW 1867   1.097   3.997   2.055
  323SOL    HW1 1868   1.003   3.986   2.088
  323SOL    HW2 1869   1.155   3.926   2.095
  324SOL     OW 1870   6.162   0.530   4.031
  324SOL    HW1 1871   6.172   0.451   3.971
  324SOL    HW2 1872   6.066   0.557   4.036
  325SOL     OW 1873   6.212   3.440   1.018
  325SOL    HW1 1874   6.292   3.384   1.038
  325SOL    HW2 1875   6.129   3.384   1.028
  326SOL     OW 1876   6.886   5.630   6.956
  326SOL    HW1 1877   6.916   5.535   6.960
  326SOL    HW2 1878   6.820   5.642   6.883
  327SOL     OW 1879   4.500   6.372   6.426
  327SOL    HW1 1880   4.508   6.310   6.348
  327SOL    HW2 1881   4.437   6.447   6.402
  328SOL     OW 1882   1.867   4.309   3.330
  328SOL    HW1 1883   1.940   4.315   3.398
  328SOL    HW2 1884   1.866   4.393   3.275
  329SOL     OW 1885   3.318   2.910   2.284
  329SOL    HW1 1886   3.228   2.913   2.241
  329SOL    HW2 1887   3.368   2.830   2.250
  330SOL     OW 1888   2.451   3.681   6.687
  330SOL    HW1 1889   2.477   3.675   6.784
  330SOL    HW2 1890   2.354   3.703   6.680
  331SOL     OW 1891   5.134   5.363   3.690
  331SOL    HW1 1892   5.071   5.306   3.743
  331SOL    HW2 1893   5.156   5.317   3.604
  332SOL     OW 1894   5.921   1.711   2.852
  332SOL    HW1 1895   5.866   1.665   2.782
  332SOL    HW2 1896   5.982   1.645   2.895
  333SOL     OW 1897   4.029   6.264   3.497
  333SOL    HW1 1898   3.997   6.172   3.475
  333SOL    HW2 1899   4.037   6.317   3.413
  334SOL     OW 1900   3.852   3.319   4.367
  334SOL    HW1 1901   3.936   3.307   4.314
  334SOL    HW2 1902   3.856   3.261   4.449
  335SOL     OW 1903   4.293   1.357   0.745
  335SOL    HW1 1904   4.242   1.285   0.791
  335SOL    HW2 1905   4.230   1.414   0.692
  336SOL     OW 1906   4.131   2.010   5.044
  336SOL    HW1 1907   4.033   2.028   5.049
  336SOL    HW2 1908   4.147   1.912   5.033
  337SOL     OW 1909   0.253   1.640   5.499
  337SOL    HW1 1910   0.163   1.680   5.484
  337SOL    HW2 1911   0.316   1.671   5.427
  338SOL     OW 1912   4.701   1.239   1.861
  338SOL    HW1 1913   4.659   1.329   1.873
  338SOL    HW2 1914   4.673   1.201   1.773
  339SOL     OW 1915   4.016   4.771   6.218
  339SOL    HW1 1916   4.064   4.853   6.185
  339SOL    HW2 1917   3.917   4.783   6.205
  340SOL     OW 1918   4.922   3.107   4.984
  340SOL    HW1 1919   4.879   3.159   5.058
  340SOL    HW2 1920   4.964   3.171   4.919
  341SOL     OW 1921   0.175   0.321   1.845
  341SOL    HW1 1922   0.120   0.396   1.807
  341SOL    HW2 1923   0.162   0.239   1.790
  342SOL     OW 1924   4.433   1.099   2.075
  342SOL    HW1 1925   4.433   1.015   2.020
  342SOL    HW2 1926   4.526   1.135   2.083
  343SOL     OW 1927   6.167   7.010   1.884
  343SOL    HW1 1928   6.085   0.010   1.936
  343SOL    HW2 1929   6.249   0.013   1.933
  344SOL     OW 1930   6.990   2.724   1.447
  344SOL    HW1 1931   6.940   2.651   1.402
  344SOL    HW2 1932   0.031   2.763   1.384
  345SOL     OW 1933   6.908   2.631   4.729
  345SOL    HW1 1934   6.996   2.677   4.721
  345SOL    HW2 1935   6.840   2.693   4.769
  346SOL     OW 1936   1.645   5.882   2.451
  346SOL    HW1 1937   1.623   5.821   2.375
  346SOL    HW2 1938   1.727   5.934   2.430
  347SOL     OW 1939   2.159   4.347   1.257
  347SOL    HW1 1940   2.147   4.441   1.225
  347SOL    HW2 1941   2.079   4.321   1.312
  348SOL     OW 1942   5.273   4.654   1.546
  348SOL    HW1 1943   5.275   4.675   1.448
  348SOL    HW2 1944   5.306   4.561   1.561
  349SOL     OW 1945   5.881   5.170   0.644
  349SOL    HW1 1946   5.842   5.234   0.711
  349SOL    HW2 1947   5.809   5.140   0.581
  350SOL     OW 1948   2.556   1.357   0.938
  350SOL    HW1 1949   2.546   1.290   0.864
  350SOL    HW2 1950   2.613   1.433   0.906
  351SOL     OW 1951   3.638   4.270   1.456
  351SOL    HW1 1952   3.616   4.290   1.552
  351SOL    HW2 1953   3.635   4.171   1.442
  352SOL     OW 1954   4.669   0.072   2.334
  352SOL    HW1 1955   4.675   7.017   2.276
  352SOL    HW2 1956   4.696   0.048   2.428
  353SOL     OW 1957   2.626   5.937   0.338
  353SOL    HW1 1958   2.694   5.969   0.404
  353SOL    HW2 1959   2.553   5.889   0.386
  354SOL     OW 1960   1.134   2.240   0.704
  354SOL    HW1 1961   1.154   2.178   0.628
  354SOL    HW2 1962   1.126   2.334   0.670
  355SOL     OW 1963   7.003   2.927   3.580
  355SOL    HW1 1964   6.970   2.850   3.527
  355SOL    HW2 1965   0.034   2.894   3.655
  356SOL     OW 1966   2.534   0.566   6.020
  356SOL    HW1 1967   2.506   0.646   6.074
  356SOL    HW2 1968   2.621   0.585   5.976
  357SOL     OW 1969   5.284   5.821   4.136
  357SOL    HW1 1970   5.213   5.751   4.147
  357SOL    HW2 1971   5.365   5.779   4.095
  358SOL     OW 1972   3.490   6.361   6.957
  358SOL    HW1 1973   3.441   6.276   6.937
  358SOL    HW2 1974   3.563   6.342   7.022
  359SOL     OW 1975   2.091   2.540   1.603
  359SOL    HW1 1976   2.043   2.559   1.688
  359SOL    HW2 1977   2.187   2.520   1.622
  360SOL     OW 1978   2.185   4.037   3.247
  360SOL    HW1 1979   2.269   4.092   3.249
  360SOL    HW2 1980   2.187   3.977   3.168
  361SOL     OW 1981   0.103   2.504   2.926
  361SOL    HW1 1982   0.169   2.543   2.862
  361SOL    HW2 1983   0.056   2.578   2.975
  362SOL     OW 1984   3.784   3.502   2.772
  362SOL    HW1 1985   3.868   3.534   2.727
  362SOL    HW2 1986   3.746   3.575   2.828
  363SOL     OW 1987   4.435   4.916   0.416
  363SOL    HW1 1988   4.505   4.979   0.383
  363SOL    HW2 1989   4.377   4.964   0.482
  364SOL     OW 1990   1.255   0.438   0.285
  364SOL    HW1 1991   1.205   0.524   0.274
  364SOL    HW2 1992   1.302   0.416   0.199
  365SOL     OW 1993   5.470   0.277   3.892
  365SOL    HW1 1994   5.437   0.225   3.971
  365SOL    HW2 1995   5.535   0.221   3.840
  366SOL     OW 1996   5.096   1.823   0.152
  366SOL    HW1 1997   5.056   1.813   0.243
  366SOL    HW2 1998   5.102   1.920   0.128
  367SOL     OW 1999   5.534   0.887   0.003
  367SOL    HW1 2000   5.492   0.875   0.093
  367SOL    HW2 2001   5.572   0.979   7.022
  368SOL     OW 2002   2.806   1.914   5.897
  368SOL    HW1 2003   2.821   1.935   5.994
  368SOL    HW2 2004   2.831   1.819   5.880
  369SOL     OW 2005   4.770   4.458   0.117
  369SOL    HW1 2006   4.685   4.503   0.144
  369SOL    HW2 2007   4.843   4.526   0.111
  370SOL     OW 2008   1.810   2.242   3.162
  370SOL    HW1 2009   1.833   2.145   3.175
  370SOL    HW2 2010   1.851   2.275   3.077
  371SOL     OW 2011   2.735   5.588   0.137
  371SOL    HW1 2012   2.829   5.582   0.106
  371SOL    HW2 2013   2.676   5.612   0.060
  372SOL     OW 2014   2.571   5.879   6.502
  372SOL    HW1 2015   2.625   5.887   6.418
  372SOL    HW2 2016   2.540   5.970   6.530
  373SOL     OW 2017   6.225   4.784   3.036
  373SOL    HW1 2018   6.164   4.833   2.974
  373SOL    HW2 2019   6.238   4.690   3.003
  374SOL     OW 2020   2.793   2.239   2.261
  374SOL    HW1 2021   2.733   2.171   2.220
  374SOL    HW2 2022   2.857   2.275   2.192
  375SOL     OW 2023   0.348   5.893   4.023
  375SOL    HW1 2024   0.303   5.924   3.940
  375SOL    HW2 2025   0.440   5.932   4.028
  376SOL     OW 2026   4.225   0.333   3.560
  376SOL    HW1 2027   4.295   0.294   3.499
  376SOL    HW2 2028   4.147   0.362   3.506
  377SOL     OW 2029   3.079   2.893   6.384
  377SOL    HW1 2030   3.085   2.993   6.391
  377SOL    HW2 2031   3.170   2.854   6.376
  378SOL     OW 2032   4.175   1.267   1.940
  378SOL    HW1 2033   4.145   1.290   2.032
  378SOL    HW2 2034   4.218   1.177   1.940
  379SOL     OW 2035   3.964   2.918   6.628
  379SOL    HW1 2036   3.962   3.018   6.620
  379SOL    HW2 2037   3.942   2.877   6.540
  380SOL     OW 2038   4.713   1.909   0.766
  380SOL    HW1 2039   4.652   1.910   0.687
  380SOL    HW2 2040   4.761   1.821   0.770
  381SOL     OW 2041   1.834   3.710   2.485
  381SOL    HW1 2042   1.797   3.776   2.420
  381SOL    HW2 2043   1.900   3.755   2.545
  382SOL     OW 2044   5.882   6.896   0.668
  382SOL    HW1 2045   5.800   6.945   0.639
  382SOL    HW2 2046   5.866   6.797   0.662
  383SOL     OW 2047   4.998   3.075   0.837
  383SOL    HW1 2048   5.026   3.019   0.759
  383SOL    HW2 2049   5.017   3.171   0.818
  384SOL     OW 2050   0.890   3.173   5.293
  384SOL    HW1 2051   0.973   3.142   5.246
  384SOL    HW2 2052   0.819   3.193   5.226
  385SOL     OW 2053   4.397   2.050   6.786
  385SOL    HW1 2054   4.370   2.146   6.785
  385SOL    HW2 2055   4.317   1.993   6.807
  386SOL     OW 2056   4.028   6.379   5.251
  386SOL    HW1 2057   3.991   6.285   5.248
  386SOL    HW2 2058   3.952   6.444   5.258
  387SOL     OW 2059   2.291   6.077   4.094
  387SOL    HW1 2060   2.237   5.993   4.098
  387SOL    HW2 2061   2.255   6.144   4.158
  388SOL     OW 2062   1.507   4.786   5.655
  388SOL    HW1 2063   1.441   4.851   5.693
  388SOL    HW2 2064   1.474   4.752   5.567
  389SOL     OW 2065   3.059   3.397   0.512
  389SOL    HW1 2066   3.101   3.423   0.425
  389SOL    HW2 2067   3.107   3.318   0.550
  390SOL     OW 2068   2.503   1.424   4.596
  390SOL    HW1 2069   2.579   1.488   4.604
  390SOL    HW2 2070   2.448   1.447   4.516
  391SOL     OW 2071   0.907   2.442   7.005
  391SOL    HW1 2072   0.984   2.418   6.946
  391SOL    HW2 2073   0.822   2.435   6.954
  392SOL     OW 2074   3.289   5.294   4.850
  392SOL    HW1 2075   3.189   5.297   4.859
  392SOL    HW2 2076   3.325   5.216   4.901
  393SOL     OW 2077   6.194   3.953   5.493
  393SOL    HW1 2078   6.100   3.919   5.488
  393SOL    HW2 2079   6.208   4.025   5.425
  394SOL     OW 2080   2.135   1.480   6.433
  394SOL    HW1 2081   2.077   1.402   6.414
  394SOL    HW2 2082   2.082   1.564   6.423
  395SOL     OW 2083   0.123   3.083   1.072
  395SOL    HW1 2084   0.214   3.051   1.098
  395SOL    HW2 2085   0.067   3.093   1.154
  396SOL     OW 2086   3.207   2.864   5.926
  396SOL    HW1 2087   3.165   2.925   5.859
  396SOL    HW2 2088   3.220   2.774   5.886
  397SOL     OW 2089   4.343   0.864   6.442
  397SOL    HW1 2090   4.391   0.816   6.369
  397SOL    HW2 2091   4.286   0.936   6.403
  398SOL     OW 2092   0.191   4.556   2.435
  398SOL    HW1 2093   0.156   4.628   2.375
  398SOL    HW2 2094   0.164   4.467   2.398
  399SOL     OW 2095   4.875   5.578   1.670
  399SOL    HW1 2096   4.857   5.508   1.739
  399SOL    HW2 2097   4.954   5.551   1.615
  400SOL     OW 2098   2.069   4.775   4.888
  400SOL    HW1 2099   2.136   4.828   4.836
  400SOL    HW2 2100   2.080   4.793   4.986
  401SOL     OW 2101   6.041   1.659   1.299
  401SOL    HW1 2102   6.062   1.586   1.364
  401SOL    HW2 2103   6.123   1.711   1.279
  402SOL     OW 2104   0.036   4.837   0.831
  402SOL    HW1 2105   6.991   4.812   0.898
  402SOL    HW2 2106   0.041   4.767   0.760
  403SOL     OW 2107   4.693   5.004   1.031
  403SOL    HW1 2108   4.708   4.907   1.013
  403SOL    HW2 2109   4.618   5.037   0.974
  404SOL     OW 2110   0.030   5.575   4.884
  404SOL    HW1 2111   0.081   5.569   4.799
  404SOL    HW2 2112   0.081   5.530   4.958
  405SOL     OW 2113   1.368   2.169   1.481
  405SOL    HW1 2114   1.288   2.230   1.486
  405SOL    HW2 2115   1.341   2.083   1.437
  406SOL     OW 2116   0.682   2.546   3.752
  406SOL    HW1 2117   0.594   2.564   3.794
  406SOL    HW2 2118   0.756   2.573   3.814
  407SOL     OW 2119   3.604   2.034   4.118
  407SOL    HW1 2120   3.569   2.029   4.211
  407SOL    HW2 2121   3.701   2.008   4.117
  408SOL     OW 2122   2.608   0.252   3.483
  408SOL    HW1 2123   2.680   0.322   3.486
  408SOL    HW2 2124   2.604   0.213   3.391
  409SOL     OW 2125   6.869   3.756   4.283
  409SOL    HW1 2126   6.873   3.686   4.354
  409SOL    HW2 2127   6.882   3.846   4.325
  410SOL     OW 2128   3.051   6.786   6.174
  410SOL    HW1 2129   2.956   6.797   6.203
  410SOL    HW2 2130   3.112   6.810   6.250
  411SOL     OW 2131   0.535   4.095   5.464
  411SOL    HW1 2132   0.553   3.996   5.459
  411SOL    HW2 2133   0.509   4.128   5.373
  412SOL     OW 2134   4.166   6.794   2.692
  412SOL    HW1 2135   4.069   6.791   2.719
  412SOL    HW2 2136   4.196   6.701   2.669
  413SOL     OW 2137   2.387   1.151   2.727
  413SOL    HW1 2138   2.313   1.217   2.718
  413SOL    HW2 2139   2.379   1.103   2.814
  414SOL     OW 2140   4.994   4.901   0.727
  414SOL    HW1 2141   4.929   4.977   0.729
  414SOL    HW2 2142   5.060   4.911   0.802
  415SOL     OW 2143   4.043   0.212   2.154
  415SOL    HW1 2144   4.111   0.169   2.213
  415SOL    HW2 2145   4.080   0.220   2.061
  416SOL     OW 2146   4.025   5.981   6.964
  416SOL    HW1 2147   4.048   6.078   6.969
  416SOL    HW2 2148   4.087   5.930   7.023
  417SOL     OW 2149   5.363   5.042   1.092
  417SOL    HW1 2150   5.352   4.968   1.159
  417SOL    HW2 2151   5.360   5.130   1.139
  418SOL     OW 2152   6.290   5.111   6.465
  418SOL    HW1 2153   6.284   5.012   6.451
  418SOL    HW2 2154   6.217   5.140   6.526
  419SOL     OW 2155   5.297   5.635   0.353
  419SOL    HW1 2156   5.304   5.640   0.253
  419SOL    HW2 2157   5.329   5.546   0.385
  420SOL     OW 2158   4.929   4.206   6.618
  420SOL    HW1 2159   4.867   4.284   6.630
  420SOL    HW2 2160   4.919   4.143   6.695
  421SOL     OW 2161   1.655   6.656   6.541
  421SOL    HW1 2162   1.566   6.690   6.570
  421SOL    HW2 2163   1.645   6.605   6.456
  422SOL     OW 2164   6.332   4.058   0.128
  422SOL    HW1 2165   6.309   4.111   0.046
  422SOL    HW2 2166   6.343   3.962   0.103
  423SOL     OW 2167   1.075   3.703   6.448
  423SOL    HW1 2168   1.167   3.665   6.445
  423SOL    HW2 2169   1.064   3.770   6.374
  424SOL     OW 2170   1.540   4.387   7.015
  424SOL    HW1 2171   1.537   4.288   7.006
  424SOL    HW2 2172   1.462   4.427   6.967
  425SOL     OW 2173   3.695   0.201   0.003
  425SOL    HW1 2174   3.692   0.271   0.075
  425SOL    HW2 2175   3.790   0.179   7.007
  426SOL     OW 2176   6.991   3.909   6.266
  426SOL    HW1 2177   0.006   3.862   6.188
  426SOL    HW2 2178   0.035   3.931   6.333
  427SOL     OW 2179   4.276   3.448   0.073
  427SOL    HW1 2180   4.270   3.515   0.147
  427SOL    HW2 2181   4.241   3.360   0.104
  428SOL     OW 2182   4.119   1.538   5.383
  428SOL    HW1 2183   4.148   1.450   5.345
  428SOL    HW2 2184   4.166   1.612   5.336
  429SOL     OW 2185   2.770   6.863   0.123
  429SOL    HW1 2186   2.844   6.928   0.138
  429SOL    HW2 2187   2.808   6.775   0.095
  430SOL     OW 2188   2.921   0.197   4.139
  430SOL    HW1 2189   2.847   0.132   4.159
  430SOL    HW2 2190   2.982   0.157   4.071
  431SOL     OW 2191   3.603   0.844   0.035
  431SOL    HW1 2192   3.650   0.925   0.001
  431SOL    HW2 2193   3.562   0.794   6.984
  432SOL     OW 2194   6.805   0.828   0.996
  432SOL    HW1 2195   6.842   0.881   1.073
  432SOL    HW2 2196   6.791   0.889   0.918
  433SOL     OW 2197   3.074   5.886   5.127
  433SOL    HW1 2198   3.138   5.848   5.060
  433SOL    HW2 2199   3.107   5.867   5.220
  434SOL     OW 2200   6.219   3.603   1.291
  434SOL    HW1 2201   6.216   3.562   1.200
  434SOL    HW2 2202   6.127   3.632   1.317
  435SOL     OW 2203   3.720   3.717   0.745
  435SOL    HW1 2204   3.800   3.658   0.757
  435SOL    HW2 2205   3.646   3.685   0.804
  436SOL     OW 2206   3.258   0.865   0.645
  436SOL    HW1 2207   3.203   0.799   0.594
  436SOL    HW2 2208   3.246   0.849   0.743
  437SOL     OW 2209   6.781   6.859   6.032
  437SOL    HW1 2210   6.782   6.959   6.029
  437SOL    HW2 2211   6.793   6.829   6.127
  438SOL     OW 2212   1.478   3.353   0.942
  438SOL    HW1 2213   1.482   3.254   0.926
  438SOL    HW2 2214   1.570   3.387   0.959
  439SOL     OW 2215   6.221   4.908   1.900
  439SOL    HW1 2216   6.234   4.995   1.947
  439SOL    HW2 2217   6.129   4.905   1.861
  440SOL     OW 2218   1.413   3.270   2.890
  440SOL    HW1 2219   1.472   3.293   2.813
  440SOL    HW2 2220   1.430   3.333   2.966
  441SOL     OW 2221   0.656   0.918   3.012
  441SOL    HW1 2222   0.734   0.886   2.957
  441SOL    HW2 2223   0.613   0.995   2.966
  442SOL     OW 2224   0.248   4.953   6.043
  442SOL    HW1 2225   0.261   4.988   5.950
  442SOL    HW2 2226   0.165   4.897   6.046
  443SOL     OW 2227   0.732   4.479   5.471
  443SOL    HW1 2228   0.713   4.536   5.552
  443SOL    HW2 2229   0.705   4.529   5.389
  444SOL     OW 2230   4.962   2.897   6.369
  444SOL    HW1 2231   4.901   2.874   6.445
  444SOL    HW2 2232   4.920   2.968   6.312
  445SOL     OW 2233   1.768   4.018   3.514
  445SOL    HW1 2234   1.786   4.116   3.518
  445SOL    HW2 2235   1.826   3.976   3.445
  446SOL     OW 2236   2.705   5.208   4.307
  446SOL    HW1 2237   2.776   5.148   4.268
  446SOL    HW2 2238   2.620   5.156   4.318
  447SOL     OW 2239   6.760   6.046   0.939
  447SOL    HW1 2240   6.808   6.059   0.852
  447SOL    HW2 2241   6.821   5.998   1.002
  448SOL     OW 2242   4.419   0.138   5.806
  448SOL    HW1 2243   4.362   0.209   5.847
  448SOL    HW2 2244   4.398   0.050   5.847
  449SOL     OW 2245   5.174   0.190   4.321
  449SOL    HW1 2246   5.187   0.093   4.337
  449SOL    HW2 2247   5.076   0.210   4.310
  450SOL     OW 2248   6.793   6.454   3.406
  450SOL    HW1 2249   6.714   6.510   3.378
  450SOL    HW2 2250   6.867   6.466   3.339
  451SOL     OW 2251   6.291   3.281   3.882
  451SOL    HW1 2252   6.200   3.271   3.842
  451SOL    HW2 2253   6.286   3.272   3.981
  452SOL     OW 2254   6.881   5.270   5.841
  452SOL    HW1 2255   6.908   5.330   5.765
  452SOL    HW2 2256   6.957   5.261   5.905
  453SOL     OW 2257   3.295   1.978   5.932
  453SOL    HW1 2258   3.209   2.010   5.971
  453SOL    HW2 2259   3.350   2.056   5.902
  454SOL     OW 2260   0.632   6.247   0.264
  454SOL    HW1 2261   0.699   6.313   0.298
  454SOL    HW2 2262   0.588   6.201   0.341
  455SOL     OW 2263   5.345   1.190   4.629
  455SOL    HW1 2264   5.312   1.095   4.626
  455SOL    HW2 2265   5.341   1.224   4.722
  456SOL     OW 2266   4.010   5.183   0.225
  456SOL    HW1 2267   4.027   5.102   0.281
  456SOL    HW2 2268   3.944   5.161   0.153
  457SOL     OW 2269   0.943   4.695   1.595
  457SOL    HW1 2270   0.911   4.789   1.607
  457SOL    HW2 2271   1.043   4.693   1.597
  458SOL     OW 2272   0.556   5.955   5.390
  458SOL    HW1 2273   0.493   5.949   5.312
  458SOL    HW2 2274   0.636   6.009   5.364
  459SOL     OW 2275   1.859   0.792   3.146
  459SOL    HW1 2276   1.878   0.888   3.126
  459SOL    HW2 2277   1.761   0.781   3.166
  460SOL     OW 2278   6.612   2.372   3.981
  460SOL    HW1 2279   6.673   2.441   4.020
  460SOL    HW2 2280   6.662   2.286   3.969
  461SOL     OW 2281   5.575   5.357   5.260
  461SOL    HW1 2282   5.483   5.355   5.221
  461SOL    HW2 2283   5.630   5.426   5.213
  462SOL     OW 2284   2.558   1.868   0.087
  462SOL    HW1 2285   2.575   1.792   0.024
  462SOL    HW2 2286   2.629   1.938   0.074
  463SOL     OW 2287   6.723   5.779   2.198
  463SOL    HW1 2288   6.665   5.861   2.201
  463SOL    HW2 2289   6.796   5.792   2.131
  464SOL     OW 2290   2.110   1.561   5.847
  464SOL    HW1 2291   2.057   1.546   5.930
  464SOL    HW2 2292   2.086   1.492   5.779
  465SOL     OW 2293   0.372   3.084   5.763
  465SOL    HW1 2294   0.291   3.058   5.710
  465SOL    HW2 2295   0.438   3.129   5.702
  466SOL     OW 2296   2.504   1.154   3.347
  466SOL    HW1 2297   2.525   1.078   3.407
  466SOL    HW2 2298   2.550   1.141   3.259
  467SOL     OW 2299   2.088   2.007   5.267
  467SOL    HW1 2300   2.039   1.921   5.253
  467SOL    HW2 2301   2.142   2.001   5.351
  468SOL     OW 2302   3.401   3.485   2.499
  468SOL    HW1 2303   3.501   3.479   2.503
  468SOL    HW2 2304   3.375   3.574   2.462
  469SOL     OW 2305   3.355   6.131   0.319
  469SOL    HW1 2306   3.409   6.068   0.264
  469SOL    HW2 2307   3.284   6.080   0.367
  470SOL     OW 2308   4.363   6.881   3.054
  470SOL    HW1 2309   4.443   6.821   3.043
  470SOL    HW2 2310   4.393   6.976   3.053
  471SOL     OW 2311   2.928   2.063   4.454
  471SOL    HW1 2312   2.836   2.029   4.434
  471SOL    HW2 2313   2.987   2.049   4.374
  472SOL     OW 2314   4.072   4.399   5.344
  472SOL    HW1 2315   4.111   4.332   5.407
  472SOL    HW2 2316   4.132   4.408   5.264
  473SOL     OW 2317   0.971   4.331   4.009
  473SOL    HW1 2318   1.008   4.401   4.070
  473SOL    HW2 2319   1.031   4.321   3.930
  474SOL     OW 2320   5.089   4.501   4.936
  474SOL    HW1 2321   5.152   4.552   4.877
  474SOL    HW2 2322   5.116   4.405   4.938
  475SOL     OW 2323   1.912   6.784   6.546
  475SOL    HW1 2324   1.824   6.737   6.537
  475SOL    HW2 2325   1.932   6.800   6.643
  476SOL     OW 2326   0.472   5.614   2.242
  476SOL    HW1 2327   0.435   5.633   2.152
  476SOL    HW2 2328   0.564   5.654   2.250
  477SOL     OW 2329   1.655   5.217   3.810
  477SOL    HW1 2330   1.717   5.246   3.738
  477SOL    HW2 2331   1.661   5.280   3.887
  478SOL     OW 2332   1.764   5.492   3.084
  478SOL    HW1 2333   1.727   5.400   3.073
  478SOL    HW2 2334   1.699   5.560   3.049
  479SOL     OW 2335   3.580   1.578   1.213
  479SOL    HW1 2336   3.655   1.582   1.278
  479SOL    HW2 2337   3.512   1.648   1.235
  480SOL     OW 2338   1.521   6.325   3.228
  480SOL    HW1 2339   1.577   6.401   3.264
  480SOL    HW2 2340   1.582   6.253   3.195
  481SOL     OW 2341   2.861   6.773   1.275
  481SOL    HW1 2342   2.783   6.809   1.222
  481SOL    HW2 2343   2.828   6.704   1.339
  482SOL     OW 2344   5.596   5.262   1.177
  482SOL    HW1 2345   5.590   5.329   1.103
  482SOL    HW2 2346   5.513   5.265   1.232
  483SOL     OW 2347   6.170   1.557   1.886
  483SOL    HW1 2348   6.083   1.524   1.920
  483SOL    HW2 2349   6.154   1.619   1.809
  484SOL     OW 2350   6.633   2.434   4.965
  484SOL    HW1 2351   6.540   2.423   4.999
  484SOL    HW2 2352   6.636   2.413   4.868
  485SOL     OW 2353   3.466   6.034   1.790
  485SOL    HW1 2354   3.470   5.950   1.736
  485SOL    HW2 2355   3.371   6.064   1.798
  486SOL     OW 2356   0.371   0.943   5.942
  486SOL    HW1 2357   0.451   0.930   5.884
  486SOL    HW2 2358   0.357   0.862   5.998
  487SOL     OW 2359   6.397   2.915   6.224
  487SOL    HW1 2360   6.475   2.858   6.195
  487SOL    HW2 2361   6.394   2.919   6.324
  488SOL     OW 2362   0.916   3.841   2.444
  488SOL    HW1 2363   0.830   3.840   2.393
  488SOL    HW2 2364   0.895   3.850   2.542
  489SOL     OW 2365   3.182   5.980   6.484
  489SOL    HW1 2366   3.130   5.895   6.495
  489SOL    HW2 2367   3.279   5.959   6.473
  490SOL     OW 2368   5.126   6.718   4.049
  490SOL    HW1 2369   5.039   6.754   4.083
  490SOL    HW2 2370   5.138   6.624   4.080
  491SOL     OW 2371   6.950   2.417   3.680
  491SOL    HW1 2372   0.010   2.369   3.668
  491SOL    HW2 2373   6.884   2.384   3.612
  492SOL     OW 2374   1.830   1.133   4.819
  492SOL    HW1 2375   1.819   1.224   4.779
  492SOL    HW2 2376   1.926   1.119   4.843
  493SOL     OW 2377   6.041   4.142   4.552
  493SOL    HW1 2378   6.123   4.096   4.516
  493SOL    HW2 2379   5.962   4.117   4.496
  494SOL     OW 2380   6.465   1.615   6.857
  494SOL    HW1 2381   6.464   1.563   6.771
  494SOL    HW2 2382   6.396   1.579   6.919
  495SOL     OW 2383   4.540   4.034   0.915
  495SOL    HW1 2384   4.623   3.979   0.901
  495SOL    HW2 2385   4.497   4.052   0.826
  496SOL     OW 2386   5.934   2.850   2.781
  496SOL    HW1 2387   5.964   2.939   2.817
  496SOL    HW2 2388   5.998   2.818   2.712
  497SOL     OW 2389   3.781   6.685   4.296
  497SOL    HW1 2390   3.839   6.709   4.374
  497SOL    HW2 2391   3.724   6.764   4.271
  498SOL     OW 2392   1.316   2.870   2.294
  498SOL    HW1 2393   1.283   2.796   2.236
  498SOL    HW2 2394   1.243   2.938   2.305
  499SOL     OW 2395   2.932   0.910   5.213
  499SOL    HW1 2396   3.013   0.866   5.252
  499SOL    HW2 2397   2.857   0.906   5.279
  500SOL     OW 2398   1.666   4.607   2.067
  500SOL    HW1 2399   1.644   4.658   1.984
  500SOL    HW2 2400   1.706   4.668   2.135
  501SOL     OW 2401   1.314   4.779   0.051
  501SOL    HW1 2402   1.302   4.853   7.010
  501SOL    HW2 2403   1.407   4.782   0.089
  502SOL     OW 2404   3.282   4.934   6.268
  502SOL    HW1 2405   3.313   5.006   6.206
  502SOL    HW2 2406   3.256   4.975   6.356
  503SOL     OW 2407   5.751   5.739   4.820
  503SOL    HW1 2408   5.652   5.739   4.808
  503SOL    HW2 2409   5.795   5.711   4.734
  504SOL     OW 2410   1.984   5.857   4.898
  504SOL    HW1 2411   1.926   5.795   4.845
  504SOL    HW2 2412   2.077   5.855   4.861
  505SOL     OW 2413   3.818   6.597   5.273
  505SOL    HW1 2414   3.871   6.679   5.290
  505SOL    HW2 2415   3.740   6.594   5.335
  506SOL     OW 2416   2.074   3.349   0.195
  506SOL    HW1 2417   2.097   3.402   0.276
  506SOL    HW2 2418   2.027   3.265   0.223
  507SOL     OW 2419   3.854   1.957   4.114
  507SOL    HW1 2420   3.925   2.025   4.099
  507SOL    HW2 2421   3.876   1.904   4.196
  508SOL     OW 2422   5.941   4.360   3.926
  508SOL    HW1 2423   5.949   4.282   3.865
  508SOL    HW2 2424   5.845   4.384   3.938
  509SOL     OW 2425   4.498   2.916   0.985
  509SOL    HW1 2426   4.584   2.958   0.955
  509SOL    HW2 2427   4.508   2.817   0.983
  510SOL     OW 2428   0.946   3.813   4.818
  510SOL    HW1 2429   0.985   3.790   4.907
  510SOL    HW2 2430   1.003   3.775   4.746
  511SOL     OW 2431   0.334   6.435   1.340
  511SOL    HW1 2432   0.248   6.486   1.338
  511SOL    HW2 2433   0.323   6.350   1.289
  512SOL     OW 2434   1.065   3.860   6.218
  512SOL    HW1 2435   0.980   3.808   6.207
  512SOL    HW2 2436   1.112   3.867   6.130
  513SOL     OW 2437   1.126   5.185   4.841
  513SOL    HW1 2438   1.209   5.145   4.804
  513SOL    HW2 2439   1.140   5.209   4.937
  514SOL     OW 2440   6.314   1.722   3.361
  514SOL    HW1 2441   6.287   1.669   3.440
  514SOL    HW2 2442   6.247   1.710   3.287
  515SOL     OW 2443   2.276   5.355   0.249
  515SOL    HW1 2444   2.324   5.321   0.169
  515SOL    HW2 2445   2.180   5.327   0.245
  516SOL     OW 2446   1.477   5.071   2.960
  516SOL    HW1 2447   1.426   5.023   3.032
  516SOL    HW2 2448   1.415   5.135   2.914
  517SOL     OW 2449   4.836   0.713   6.288
  517SOL    HW1 2450   4.863   0.772   6.364
  517SOL    HW2 2451   4.911   0.651   6.266
  518SOL     OW 2452   2.432   1.947   0.867
  518SOL    HW1 2453   2.432   2.046   0.853
  518SOL    HW2 2454   2.340   1.911   0.854
  519SOL     OW 2455   0.947   0.091   6.842
  519SOL    HW1 2456   0.961   0.100   6.940
  519SOL    HW2 2457   0.900   0.004   6.823
  520SOL     OW 2458   5.814   4.138   4.392
  520SOL    HW1 2459   5.816   4.235   4.414
  520SOL    HW2 2460   5.821   4.126   4.293
  521SOL     OW 2461   5.745   0.577   0.713
  521SOL    HW1 2462   5.721   0.634   0.791
  521SOL    HW2 2463   5.824   0.616   0.667
  522SOL     OW 2464   3.546   3.603   5.854
  522SOL    HW1 2465   3.479   3.574   5.786
  522SOL    HW2 2466   3.502   3.666   5.919
  523SOL     OW 2467   6.546   6.883   4.229
  523SOL    HW1 2468   6.583   6.970   4.195
  523SOL    HW2 2469   6.504   6.832   4.154
  524SOL     OW 2470   4.135   0.986   5.596
  524SOL    HW1 2471   4.123   1.080   5.565
  524SOL    HW2 2472   4.122   0.982   5.695
  525SOL     OW 2473   2.401   2.379   6.743
  525SOL    HW1 2474   2.477   2.404   6.803
  525SOL    HW2 2475   2.395   2.280   6.735
  526SOL     OW 2476   4.343   5.337   4.530
  526SOL    HW1 2477   4.430   5.298   4.503
  526SOL    HW2 2478   4.302   5.385   4.452
  527SOL     OW 2479   0.500   2.224   0.206
  527SOL    HW1 2480   0.517   2.134   0.166
  527SOL    HW2 2481   0.586   2.275   0.211
  528SOL     OW 2482   2.097   1.696   5.476
  528SOL    HW1 2483   2.041   1.696   5.394
  528SOL    HW2 2484   2.072   1.618   5.533
  529SOL     OW 2485   6.464   4.884   4.131
  529SOL    HW1 2486   6.410   4.802   4.149
  529SOL    HW2 2487   6.432   4.928   4.047
  530SOL     OW 2488   0.593   2.573   5.159
  530SOL    HW1 2489   0.525   2.501   5.149
  530SOL    HW2 2490   0.609   2.617   5.071
  531SOL     OW 2491   0.122   0.793   0.345
  531SOL    HW1 2492   0.034   0.838   0.360
  531SOL    HW2 2493   0.189   0.860   0.314
  532SOL     OW 2494   2.122   0.505   5.898
  532SOL    HW1 2495   2.125   0.406   5.906
  532SOL    HW2 2496   2.033   0.534   5.861
  533SOL     OW 2497   5.070   0.441   4.819
  533SOL    HW1 2498   5.089   0.398   4.731
  533SOL    HW2 2499   4.998   0.509   4.807
  534SOL     OW 2500   3.043   5.114   2.832
  534SOL    HW1 2501   2.982   5.125   2.911
  534SOL    HW2 2502   3.002   5.156   2.752
  535SOL     OW 2503   6.410   4.224   2.582
  535SOL    HW1 2504   6.428   4.132   2.615
  535SOL    HW2 2505   6.415   4.226   2.483
  536SOL     OW 2506   0.845   6.644   0.701
  536SOL    HW1 2507   0.828   6.696   0.785
  536SOL    HW2 2508   0.758   6.609   0.666
  537SOL     OW 2509   2.195   6.933   3.555
  537SOL    HW1 2510   2.208   6.974   3.465
  537SOL    HW2 2511   2.099   6.905   3.565
  538SOL     OW 2512   1.708   4.609   4.121
  538SOL    HW1 2513   1.633   4.675   4.125
  538SOL    HW2 2514   1.671   4.516   4.117
  539SOL     OW 2515   1.322   6.193   0.705
  539SOL    HW1 2516   1.404   6.218   0.653
  539SOL    HW2 2517   1.259   6.144   0.646
  540SOL     OW 2518   1.465   2.968   1.190
  540SOL    HW1 2519   1.499   3.054   1.229
  540SOL    HW2 2520   1.493   2.892   1.249
  541SOL     OW 2521   3.973   5.089   5.368
  541SOL    HW1 2522   3.974   5.136   5.279
  541SOL    HW2 2523   3.931   4.998   5.357
  542SOL     OW 2524   5.778   6.608   6.557
  542SOL    HW1 2525   5.778   6.517   6.599
  542SOL    HW2 2526   5.754   6.600   6.461
  543SOL     OW 2527   6.355   6.332   0.836
  543SOL    HW1 2528   6.290   6.357   0.908
  543SOL    HW2 2529   6.412   6.256   0.868
  544SOL     OW 2530   0.465   5.515   0.376
  544SOL    HW1 2531   0.407   5.442   0.339
  544SOL    HW2 2532   0.517   5.557   0.301
  545SOL     OW 2533   3.700   1.674   4.143
  545SOL    HW1 2534   3.760   1.748   4.174
  545SOL    HW2 2535   3.606   1.692   4.171
  546SOL     OW 2536   1.467   2.482   0.489
  546SOL    HW1 2537   1.387   2.455   0.435
  546SOL    HW2 2538   1.515   2.400   0.521
  547SOL     OW 2539   3.141   1.643   0.352
  547SOL    HW1 2540   3.075   1.718   0.358
  547SOL    HW2 2541   3.107   1.565   0.403
  548SOL     OW 2542   2.895   3.182   5.333
  548SOL    HW1 2543   2.912   3.255   5.266
  548SOL    HW2 2544   2.818   3.126   5.302
  549SOL     OW 2545   0.439   4.080   1.288
  549SOL    HW1 2546   0.438   4.179   1.300
  549SOL    HW2 2547   0.517   4.054   1.230
  550SOL     OW 2548   6.649   3.493   0.324
  550SOL    HW1 2549   6.701   3.548   0.258
  550SOL    HW2 2550   6.654   3.536   0.414
  551SOL     OW 2551   0.526   1.307   0.299
  551SOL    HW1 2552   0.583   1.389   0.303
  551SOL    HW2 2553   0.452   1.321   0.233
  552SOL     OW 2554   4.731   4.789   0.425
  552SOL    HW1 2555   4.683   4.810   0.340
  552SOL    HW2 2556   4.709   4.695   0.452
  553SOL     OW 2557   1.187   2.381   1.434
  553SOL    HW1 2558   1.160   2.369   1.339
  553SOL    HW2 2559   1.252   2.457   1.441
  554SOL     OW 2560   4.683   4.958   5.036
  554SOL    HW1 2561   4.727   4.956   4.946
  554SOL    HW2 2562   4.589   4.989   5.027
  555SOL     OW 2563   1.406   4.456   5.164
  555SOL    HW1 2564   1.348   4.452   5.246
  555SOL    HW2 2565   1.376   4.387   5.098
  556SOL     OW 2566   6.083   3.540   2.756
  556SOL    HW1 2567   6.104   3.472   2.685
  556SOL    HW2 2568   5.984   3.544   2.770
  557SOL     OW 2569   6.787   5.781   6.038
  557SOL    HW1 2570   6.882   5.750   6.037
  557SOL    HW2 2571   6.727   5.705   6.063
  558SOL     OW 2572   4.476   3.628   5.592
  558SOL    HW1 2573   4.467   3.718   5.635
  558SOL    HW2 2574   4.486   3.639   5.493
  559SOL     OW 2575   5.860   5.637   5.989
  559SOL    HW1 2576   5.913   5.554   6.003
  559SOL    HW2 2577   5.913   5.716   6.017
  560SOL     OW 2578   4.144   6.537   6.872
  560SOL    HW1 2579   4.148   6.576   6.780
  560SOL    HW2 2580   4.050   6.538   6.905
  561SOL     OW 2581   5.645   6.447   2.053
  561SOL    HW1 2582   5.601   6.466   1.966
  561SOL    HW2 2583   5.739   6.483   2.052
  562SOL     OW 2584   6.458   1.015   0.324
  562SOL    HW1 2585   6.530   0.947   0.310
  562SOL    HW2 2586   6.386   0.977   0.382
  563SOL     OW 2587   2.966   0.420   4.845
  563SOL    HW1 2588   3.050   0.429   4.898
  563SOL    HW2 2589   2.965   0.489   4.773
  564SOL     OW 2590   0.718   1.642   5.672
  564SOL    HW1 2591   0.679   1.556   5.705
  564SOL    HW2 2592   0.815   1.629   5.650
  565SOL     OW 2593   4.360   4.104   6.034
  565SOL    HW1 2594   4.270   4.062   6.022
  565SOL    HW2 2595   4.430   4.032   6.033
  566SOL     OW 2596   6.312   4.862   2.339
  566SOL    HW1 2597   6.246   4.819   2.277
  566SOL    HW2 2598   6.397   4.880   2.289
  567SOL     OW 2599   3.778   3.897   5.238
  567SOL    HW1 2600   3.692   3.846   5.234
  567SOL    HW2 2601   3.769   3.972   5.303
  568SOL     OW 2602   1.854   1.120   6.119
  568SOL    HW1 2603   1.914   1.053   6.076
  568SOL    HW2 2604   1.793   1.075   6.184
  569SOL     OW 2605   2.066   4.180   6.834
  569SOL    HW1 2606   2.111   4.254   6.784
  569SOL    HW2 2607   2.016   4.122   6.770
  570SOL     OW 2608   0.104   6.572   0.364
  570SOL    HW1 2609   0.151   6.656   0.391
  570SOL    HW2 2610   0.088   6.574   0.265
  571SOL     OW 2611   4.048   6.283   2.130
  571SOL    HW1 2612   4.079   6.190   2.112
  571SOL    HW2 2613   3.958   6.297   2.088
  572SOL     OW 2614   1.694   4.155   4.463
  572SOL    HW1 2615   1.695   4.095   4.543
  572SOL    HW2 2616   1.698   4.251   4.493
  573SOL     OW 2617   3.036   2.105   0.162
  573SOL    HW1 2618   3.110   2.038   0.157
  573SOL    HW2 2619   3.042   2.168   0.084
  574SOL     OW 2620   2.738   2.025   3.938
  574SOL    HW1 2621   2.772   2.021   3.844
  574SOL    HW2 2622   2.779   2.103   3.985
  575SOL     OW 2623   5.362   2.265   6.560
  575SOL    HW1 2624   5.443   2.221   6.599
  575SOL    HW2 2625   5.385   2.358   6.531
  576SOL     OW 2626   0.946   2.637   2.489
  576SOL    HW1 2627   1.041   2.605   2.479
  576SOL    HW2 2628   0.944   2.718   2.547
  577SOL     OW 2629   3.801   1.869   4.419
  577SOL    HW1 2630   3.819   1.800   4.489
  577SOL    HW2 2631   3.811   1.961   4.459
  578SOL     OW 2632   0.280   3.747   4.181
  578SOL    HW1 2633   0.267   3.797   4.267
  578SOL    HW2 2634   0.191   3.716   4.147
  579SOL     OW 2635   3.896   3.708   0.303
  579SOL    HW1 2636   3.892   3.684   0.207
  579SOL    HW2 2637   3.805   3.736   0.335
  580SOL     OW 2638   0.496   6.932   0.257
  580SOL    HW1 2639   0.431   6.874   0.207
  580SOL    HW2 2640   0.534   6.881   0.334
  581SOL     OW 2641   4.056   3.557   2.655
  581SOL    HW1 2642   4.084   3.464   2.634
  581SOL    HW2 2643   4.057   3.612   2.572
  582SOL     OW 2644   6.426   4.114   0.739
  582SOL    HW1 2645   6.402   4.088   0.833
  582SOL    HW2 2646   6.504   4.060   0.709
  583SOL     OW 2647   2.381   6.577   6.776
  583SOL    HW1 2648   2.341   6.492   6.813
  583SOL    HW2 2649   2.469   6.594   6.819
  584SOL     OW 2650   1.086   4.932   5.040
  584SOL    HW1 2651   1.041   4.995   5.103
  584SOL    HW2 2652   1.057   4.952   4.946
  585SOL     OW 2653   5.653   0.636   5.631
  585SOL    HW1 2654   5.713   0.708   5.599
  585SOL    HW2 2655   5.561   0.650   5.594
  586SOL     OW 2656   2.734   6.194   1.478
  586SOL    HW1 2657   2.765   6.100   1.485
  586SOL    HW2 2658   2.773   6.237   1.396
  587SOL     OW 2659   1.622   3.397   6.000
  587SOL    HW1 2660   1.573   3.451   6.069
  587SOL    HW2 2661   1.670   3.322   6.045
  588SOL     OW 2662   2.119   0.104   1.646
  588SOL    HW1 2663   2.108   0.156   1.561
  588SOL    HW2 2664   2.213   0.112   1.678
  589SOL     OW 2665   4.555   5.315   1.893
  589SOL    HW1 2666   4.455   5.308   1.902
  589SOL    HW2 2667   4.577   5.350   1.802
  590SOL     OW 2668   6.369   3.209   1.776
  590SOL    HW1 2669   6.462   3.245   1.774
  590SOL    HW2 2670   6.324   3.228   1.688
  591SOL     OW 2671   2.441   0.145   2.904
  591SOL    HW1 2672   2.520   0.084   2.916
  591SOL    HW2 2673   2.455   0.202   2.823
  592SOL     OW 2674   5.083   0.353   5.674
  592SOL    HW1 2675   5.023   0.354   5.754
  592SOL    HW2 2676   5.079   0.262   5.631
  593SOL     OW 2677   6.940   1.052   4.867
  593SOL    HW1 2678   6.977   0.961   4.881
  593SOL    HW2 2679   7.015   1.118   4.859
  594SOL     OW 2680   5.489   2.252   1.252
  594SOL    HW1 2681   5.487   2.237   1.153
  594SOL    HW2 2682   5.477   2.165   1.299
  595SOL     OW 2683   3.994   6.877   3.698
  595SOL    HW1 2684   3.944   6.790   3.695
  595SOL    HW2 2685   4.089   6.862   3.671
  596SOL     OW 2686   0.733   4.318   1.027
  596SOL    HW1 2687   0.833   4.314   1.025
  596SOL    HW2 2688   0.698   4.332   0.935
  597SOL     OW 2689   4.304   2.409   6.102
  597SOL    HW1 2690   4.234   2.352   6.060
  597SOL    HW2 2691   4.309   2.497   6.056
  598SOL     OW 2692   2.963   4.088   1.372
  598SOL    HW1 2693   2.972   4.008   1.313
  598SOL    HW2 2694   2.981   4.061   1.467
  599SOL     OW 2695   6.641   5.742   3.763
  599SOL    HW1 2696   6.559   5.798   3.747
  599SOL    HW2 2697   6.614   5.650   3.789
  600SOL     OW 2698   3.033   1.388   1.559
  600SOL    HW1 2699   2.991   1.468   1.517
  600SOL    HW2 2700   2.962   1.327   1.595
  601SOL     OW 2701   1.811   4.806   3.032
  601SOL    HW1 2702   1.886   4.771   3.087
  601SOL    HW2 2703   1.765   4.880   3.081
  602SOL     OW 2704   6.965   0.370   2.208
  602SOL    HW1 2705   6.912   0.377   2.292
  602SOL    HW2 2706   0.023   0.318   2.225
  603SOL     OW 2707   4.134   1.659   3.047
  603SOL    HW1 2708   4.098   1.612   3.128
  603SOL    HW2 2709   4.197   1.731   3.075
  604SOL     OW 2710   0.980   3.640   5.465
  604SOL    HW1 2711   1.031   3.615   5.383
  604SOL    HW2 2712   0.882   3.637   5.446
  605SOL     OW 2713   5.471   0.285   4.525
  605SOL    HW1 2714   5.531   0.221   4.573
  605SOL    HW2 2715   5.376   0.260   4.543
  606SOL     OW 2716   2.831   0.151   2.666
  606SOL    HW1 2717   2.750   0.097   2.643
  606SOL    HW2 2718   2.893   0.095   2.721
  607SOL     OW 2719   3.822   0.740   4.419
  607SOL    HW1 2720   3.862   0.764   4.507
  607SOL    HW2 2721   3.724   0.760   4.421
  608SOL     OW 2722   5.254   3.321   1.562
  608SOL    HW1 2723   5.292   3.243   1.513
  608SOL    HW2 2724   5.325   3.364   1.618
  609SOL     OW 2725   3.325   4.058   5.343
  609SOL    HW1 2726   3.265   4.078   5.421
  609SOL    HW2 2727   3.280   3.990   5.284
  610SOL     OW 2728   6.232   1.825   4.689
  610SOL    HW1 2729   6.187   1.806   4.776
  610SOL    HW2 2730   6.164   1.858   4.623
  611SOL     OW 2731   5.557   0.102   0.162
  611SOL    HW1 2732   5.649   0.100   0.200
  611SOL    HW2 2733   5.556   0.058   0.072
  612SOL     OW 2734   2.155   5.105   6.350
  612SOL    HW1 2735   2.224   5.033   6.361
  612SOL    HW2 2736   2.083   5.073   6.289
  613SOL     OW 2737   3.856   1.111   6.503
  613SOL    HW1 2738   3.825   1.067   6.419
  613SOL    HW2 2739   3.778   1.157   6.547
  614SOL     OW 2740   4.605   3.186   1.126
  614SOL    HW1 2741   4.559   3.241   1.195
  614SOL    HW2 2742   4.682   3.138   1.167
  615SOL     OW 2743   5.209   6.598   0.415
  615SOL    HW1 2744   5.189   6.507   0.451
  615SOL    HW2 2745   5.135   6.661   0.440
  616SOL     OW 2746   4.810   1.102   4.296
  616SOL    HW1 2747   4.745   1.034   4.262
  616SOL    HW2 2748   4.886   1.109   4.233
  617SOL     OW 2749   6.582   6.357   4.850
  617SOL    HW1 2750   6.677   6.364   4.818
  617SOL    HW2 2751   6.558   6.439   4.902
  618SOL     OW 2752   5.403   4.704   0.614
  618SOL    HW1 2753   5.368   4.786   0.570
  618SOL    HW2 2754   5.389   4.711   0.713
  619SOL     OW 2755   2.174   6.997   6.757
  619SOL    HW1 2756   2.246   6.943   6.714
  619SOL    HW2 2757   2.172   6.978   6.855
  620SOL     OW 2758   4.647   2.085   2.135
  620SOL    HW1 2759   4.591   2.158   2.095
  620SOL    HW2 2760   4.697   2.037   2.063
  621SOL     OW 2761   3.086   0.556   6.379
  621SOL    HW1 2762   3.043   0.483   6.432
  621SOL    HW2 2763   3.126   0.623   6.442
  622SOL     OW 2764   0.731   3.344   5.814
  622SOL    HW1 2765   0.685   3.259   5.787
  622SOL    HW2 2766   0.814   3.321   5.866
  623SOL     OW 2767   6.584   1.312   3.093
  623SOL    HW1 2768   6.500   1.360   3.115
  623SOL    HW2 2769   6.570   1.254   3.013
  624SOL     OW 2770   6.914   1.347   6.612
  624SOL    HW1 2771   6.906   1.325   6.515
  624SOL    HW2 2772   6.827   1.385   6.645
  625SOL     OW 2773   3.294   1.410   1.649
  625SOL    HW1 2774   3.204   1.400   1.605
  625SOL    HW2 2775   3.339   1.492   1.613
  626SOL     OW 2776   0.645   5.919   3.644
  626SOL    HW1 2777   0.565   5.867   3.614
  626SOL    HW2 2778   0.724   5.857   3.647
  627SOL     OW 2779   6.394   5.332   6.603
  627SOL    HW1 2780   6.436   5.399   6.543
  627SOL    HW2 2781   6.372   5.250   6.551
  628SOL     OW 2782   3.757   4.579   6.427
  628SOL    HW1 2783   3.722   4.520   6.500
  628SOL    HW2 2784   3.716   4.670   6.435
  629SOL     OW 2785   1.562   6.937   0.135
  629SOL    HW1 2786   1.623   7.011   0.106
  629SOL    HW2 2787   1.526   6.958   0.226
  630SOL     OW 2788   6.589   1.994   1.127
  630SOL    HW1 2789   6.572   2.050   1.208
  630SOL    HW2 2790   6.681   2.013   1.092
  631SOL     OW 2791   1.837   3.555   3.107
  631SOL    HW1 2792   1.765   3.527   3.043
  631SOL    HW2 2793   1.918   3.584   3.055
  632SOL     OW 2794   3.198   4.446   1.035
  632SOL    HW1 2795   3.167   4.482   0.946
  632SOL    HW2 2796   3.135   4.477   1.106
  633SOL     OW 2797   0.803   5.716   0.398
  633SOL    HW1 2798   0.818   5.798   0.452
  633SOL    HW2 2799   0.851   5.639   0.441
  634SOL     OW 2800   3.146   3.391   5.522
  634SOL    HW1 2801   3.200   3.312   5.492
  634SOL    HW2 2802   3.068   3.359   5.576
  635SOL     OW 2803   6.020   6.723   6.844
  635SOL    HW1 2804   5.975   6.807   6.876
  635SOL    HW2 2805   6.114   6.721   6.878
  636SOL     OW 2806   2.291   1.310   4.787
  636SOL    HW1 2807   2.370   1.295   4.727
  636SOL    HW2 2808   2.318   1.293   4.882
  637SOL     OW 2809   6.912   1.630   2.342
  637SOL    HW1 2810   6.984   1.572   2.304
  637SOL    HW2 2811   6.951   1.693   2.409
  638SOL     OW 2812   6.854   3.639   5.035
  638SOL    HW1 2813   6.918   3.713   5.055
  638SOL    HW2 2814   6.883   3.555   5.081
  639SOL     OW 2815   5.922   3.024   2.020
  639SOL    HW1 2816   5.866   2.963   1.963
  639SOL    HW2 2817   5.871   3.049   2.102
  640SOL     OW 2818   0.087   3.432   3.031
  640SOL    HW1 2819   0.015   3.436   3.101
  640SOL    HW2 2820   0.060   3.487   2.952
  641SOL     OW 2821   2.308   5.422   4.426
  641SOL    HW1 2822   2.267   5.412   4.516
  641SOL    HW2 2823   2.244   5.390   4.356
  642SOL     OW 2824   0.568   5.418   4.957
  642SOL    HW1 2825   0.640   5.415   5.027
  642SOL    HW2 2826   0.597   5.365   4.878
  643SOL     OW 2827   4.295   5.330   0.591
  643SOL    HW1 2828   4.266   5.394   0.663
  643SOL    HW2 2829   4.365   5.374   0.535
  644SOL     OW 2830   5.999   0.217   4.404
  644SOL    HW1 2831   6.019   0.124   4.434
  644SOL    HW2 2832   6.013   0.223   4.305
  645SOL     OW 2833   4.226   6.445   1.760
  645SOL    HW1 2834   4.138   6.433   1.806
  645SOL    HW2 2835   4.300   6.420   1.822
  646SOL     OW 2836   3.699   1.938   5.170
  646SOL    HW1 2837   3.661   1.868   5.110
  646SOL    HW2 2838   3.647   1.940   5.256
  647SOL     OW 2839   2.940   1.842   0.421
  647SOL    HW1 2840   2.863   1.872   0.365
  647SOL    HW2 2841   2.955   1.908   0.495
  648SOL     OW 2842   5.593   1.700   3.993
  648SOL    HW1 2843   5.518   1.649   3.951
  648SOL    HW2 2844   5.622   1.654   4.077
  649SOL     OW 2845   2.854   5.983   0.489
  649SOL    HW1 2846   2.902   5.938   0.413
  649SOL    HW2 2847   2.916   5.990   0.568
  650SOL     OW 2848   1.935   3.105   1.102
  650SOL    HW1 2849   1.963   3.009   1.109
  650SOL    HW2 2850   1.870   3.126   1.174
  651SOL     OW 2851   0.566   1.533   3.335
  651SOL    HW1 2852   0.491   1.590   3.302
  651SOL    HW2 2853   0.552   1.438   3.305
  652SOL     OW 2854   3.882   6.079   0.879
  652SOL    HW1 2855   3.947   6.022   0.830
  652SOL    HW2 2856   3.868   6.043   0.971
  653SOL     OW 2857   1.268   0.385   2.529
  653SOL    HW1 2858   1.329   0.313   2.559
  653SOL    HW2 2859   1.270   0.461   2.594
  654SOL     OW 2860   1.117   6.932   5.977
  654SOL    HW1 2861   1.091   0.003   5.976
  654SOL    HW2 2862   1.062   6.882   5.910
  655SOL     OW 2863   0.926   3.691   0.715
  655SOL    HW1 2864   0.896   3.683   0.621
  655SOL    HW2 2865   0.950   3.786   0.736
  656SOL     OW 2866   2.231   0.271   7.021
  656SOL    HW1 2867   2.223   0.307   6.928
  656SOL    HW2 2868   2.274   0.181   7.019
  657SOL     OW 2869   3.767   3.614   4.074
  657SOL    HW1 2870   3.708   3.694   4.077
  657SOL    HW2 2871   3.863   3.642   4.078
  658SOL     OW 2872   1.966   0.619   3.926
  658SOL    HW1 2873   2.032   0.686   3.959
  658SOL    HW2 2874   1.921   0.655   3.843
  659SOL     OW 2875   1.824   5.979   6.780
  659SOL    HW1 2876   1.904   5.969   6.720
  659SOL    HW2 2877   1.741   5.979   6.724
  660SOL     OW 2878   5.375   3.968   2.371
  660SOL    HW1 2879   5.338   3.940   2.283
  660SOL    HW2 2880   5.474   3.981   2.363
  661SOL     OW 2881   4.681   5.426   3.805
  661SOL    HW1 2882   4.763   5.392   3.757
  661SOL    HW2 2883   4.665   5.371   3.887
  662SOL     OW 2884   6.201   3.561   0.129
  662SOL    HW1 2885   6.125   3.523   0.181
  662SOL    HW2 2886   6.168   3.594   0.040
  663SOL     OW 2887   0.932   4.681   6.217
  663SOL    HW1 2888   0.890   4.772   6.223
  663SOL    HW2 2889   0.883   4.626   6.150
  664SOL     OW 2890   1.889   0.126   5.864
  664SOL    HW1 2891   1.864   0.183   5.786
  664SOL    HW2 2892   1.818   0.058   5.880
  665SOL     OW 2893   2.385   4.591   3.174
  665SOL    HW1 2894   2.361   4.637   3.260
  665SOL    HW2 2895   2.463   4.637   3.132
  666SOL     OW 2896   3.407   0.676   6.844
  666SOL    HW1 2897   3.379   0.699   6.751
  666SOL    HW2 2898   3.433   0.579   6.848
  667SOL     OW 2899   1.108   3.023   2.325
  667SOL    HW1 2900   1.035   3.035   2.393
  667SOL    HW2 2901   1.141   3.113   2.296
  668SOL     OW 2902   5.035   0.144   0.681
  668SOL    HW1 2903   5.057   0.206   0.757
  668SOL    HW2 2904   5.091   0.062   0.687
  669SOL     OW 2905   0.240   5.480   2.773
  669SOL    HW1 2906   0.206   5.522   2.857
  669SOL    HW2 2907   0.275   5.551   2.711
  670SOL     OW 2908   3.788   4.041   2.662
  670SOL    HW1 2909   3.817   4.061   2.756
  670SOL    HW2 2910   3.854   3.980   2.619
  671SOL     OW 2911   2.216   0.171   6.366
  671SOL    HW1 2912   2.162   0.223   6.299
  671SOL    HW2 2913   2.249   0.086   6.323
  672SOL     OW 2914   1.223   2.746   3.194
  672SOL    HW1 2915   1.265   2.825   3.239
  672SOL    HW2 2916   1.284   2.667   3.202
  673SOL     OW 2917   5.105   0.286   6.605
  673SOL    HW1 2918   5.174   0.349   6.640
  673SOL    HW2 2919   5.061   0.326   6.525
  674SOL     OW 2920   7.024   2.411   4.537
  674SOL    HW1 2921   6.995   2.324   4.576
  674SOL    HW2 2922   6.971   2.485   4.578
  675SOL     OW 2923   5.625   6.367   3.972
  675SOL    HW1 2924   5.685   6.344   4.048
  675SOL    HW2 2925   5.587   6.283   3.932
  676SOL     OW 2926   2.560   5.362   4.478
  676SOL    HW1 2927   2.466   5.381   4.451
  676SOL    HW2 2928   2.610   5.321   4.402
  677SOL     OW 2929   4.289   6.595   0.063
  677SOL    HW1 2930   4.230   6.565   7.014
  677SOL    HW2 2931   4.246   6.571   0.150
  678SOL     OW 2932   2.139   1.353   6.095
  678SOL    HW1 2933   2.065   1.415   6.120
  678SOL    HW2 2934   2.103   1.281   6.035
  679SOL     OW 2935   6.341   0.268   2.348
  679SOL    HW1 2936   6.368   0.201   2.417
  679SOL    HW2 2937   6.286   0.223   2.278
  680SOL     OW 2938   5.726   4.370   4.919
  680SOL    HW1 2939   5.671   4.317   4.984
  680SOL    HW2 2940   5.780   4.308   4.863
  681SOL     OW 2941   1.220   6.580   2.091
  681SOL    HW1 2942   1.124   6.609   2.094
  681SOL    HW2 2943   1.233   6.502   2.153
  682SOL     OW 2944   0.324   0.746   6.146
  682SOL    HW1 2945   0.300   0.656   6.110
  682SOL    HW2 2946   0.295   0.753   6.241
  683SOL     OW 2947   5.264   1.588   1.833
  683SOL    HW1 2948   5.330   1.661   1.850
  683SOL    HW2 2949   5.311   1.500   1.832
  684SOL     OW 2950   0.022   5.938   6.485
  684SOL    HW1 2951   0.037   6.001   6.409
  684SOL    HW2 2952   0.011   5.990   6.569
  685SOL     OW 2953   6.483   0.714   6.288
  685SOL    HW1 2954   6.430   0.631   6.266
  685SOL    HW2 2955   6.447   0.791   6.236
  686SOL     OW 2956   5.769   5.094   2.298
  686SOL    HW1 2957   5.854   5.081   2.247
  686SOL    HW2 2958   5.696   5.120   2.235
  687SOL     OW 2959   5.551   1.804   6.173
  687SOL    HW1 2960   5.554   1.896   6.134
  687SOL    HW2 2961   5.642   1.763   6.167
  688SOL     OW 2962   6.182   3.079   5.381
  688SOL    HW1 2963   6.218   3.115   5.467
  688SOL    HW2 2964   6.167   3.154   5.317
  689SOL     OW 2965   5.283   4.384   4.326
  689SOL    HW1 2966   5.370   4.353   4.364
  689SOL    HW2 2967   5.229   4.304   4.297
  690SOL     OW 2968   0.164   3.306   4.509
  690SOL    HW1 2969   0.090   3.245   4.479
  690SOL    HW2 2970   0.208   3.267   4.590
  691SOL     OW 2971   7.011   2.988   6.817
  691SOL    HW1 2972   0.011   2.900   6.856
  691SOL    HW2 2973   6.985   2.976   6.721
  692SOL     OW 2974   2.850   0.365   3.419
  692SOL    HW1 2975   2.874   0.452   3.374
  692SOL    HW2 2976   2.934   0.321   3.450
  693SOL     OW 2977   6.522   1.899   3.407
  693SOL    HW1 2978   6.507   1.959   3.485
  693SOL    HW2 2979   6.446   1.834   3.400
  694SOL     OW 2980   1.687   0.508   2.397
  694SOL    HW1 2981   1.589   0.527   2.407
  694SOL    HW2 2982   1.719   0.543   2.309
  695SOL     OW 2983   4.510   5.492   6.724
  695SOL    HW1 2984   4.516   5.509   6.822
  695SOL    HW2 2985   4.428   5.538   6.687
  696SOL     OW 2986   5.502   6.110   2.189
  696SOL    HW1 2987   5.593   6.101   2.148
  696SOL    HW2 2988   5.506   6.177   2.263
  697SOL     OW 2989   1.371   3.603   3.667
  697SOL    HW1 2990   1.420   3.690   3.664
  697SOL    HW2 2991   1.323   3.589   3.581
  698SOL     OW 2992   4.832   5.978   3.774
  698SOL    HW1 2993   4.905   5.948   3.714
  698SOL    HW2 2994   4.862   6.057   3.828
  699SOL     OW 2995   0.964   4.532   6.436
  699SOL    HW1 2996   0.933   4.604   6.374
  699SOL    HW2 2997   0.953   4.562   6.531
  700SOL     OW 2998   1.861   1.628   4.978
  700SOL    HW1 2999   1.935   1.694   4.967
  700SOL    HW2 3000   1.899   1.539   5.005
  701SOL     OW 3001   0.978   4.711   4.865
  701SOL    HW1 3002   1.069   4.735   4.829
  701SOL    HW2 3003   0.966   4.752   4.955
  702SOL     OW 3004   6.106   5.929   5.396
  702SOL    HW1 3005   6.070   5.939   5.489
  702SOL    HW2 3006   6.089   5.836   5.364
  703SOL     OW 3007   5.216   4.458   6.341
  703SOL    HW1 3008   5.217   4.544   6.291
  703SOL    HW2 3009   5.179   4.386   6.282
  704SOL     OW 3010   2.255   6.846   1.827
  704SOL    HW1 3011   2.250   6.804   1.736
  704SOL    HW2 3012   2.204   6.791   1.892
  705SOL     OW 3013   0.823   1.926   3.827
  705SOL    HW1 3014   0.875   1.894   3.906
  705SOL    HW2 3015   0.886   1.960   3.757
  706SOL     OW 3016   5.119   3.452   4.474
  706SOL    HW1 3017   5.108   3.512   4.394
  706SOL    HW2 3018   5.216   3.438   4.492
  707SOL     OW 3019   5.206   2.795   2.945
  707SOL    HW1 3020   5.176   2.875   2.893
  707SOL    HW2 3021   5.264   2.824   3.021
  708SOL     OW 3022   4.274   1.127   2.305
  708SOL    HW1 3023   4.187   1.171   2.282
  708SOL    HW2 3024   4.312   1.083   2.224
  709SOL     OW 3025   1.086   5.245   6.838
  709SOL    HW1 3026   1.162   5.182   6.853
  709SOL    HW2 3027   1.082   5.311   6.914
  710SOL     OW 3028   3.101   3.917   2.639
  710SOL    HW1 3029   3.145   3.990   2.587
  710SOL    HW2 3030   3.170   3.861   2.684
  711SOL     OW 3031   0.399   0.667   5.032
  711SOL    HW1 3032   0.346   0.751   5.024
  711SOL    HW2 3033   0.479   0.672   4.972
  712SOL     OW 3034   0.242   3.803   3.005
  712SOL    HW1 3035   0.168   3.845   2.951
  712SOL    HW2 3036   0.289   3.735   2.949
  713SOL     OW 3037   3.275   3.720   4.771
  713SOL    HW1 3038   3.273   3.731   4.672
  713SOL    HW2 3039   3.350   3.773   4.810
  714SOL     OW 3040   4.950   4.804   5.258
  714SOL    HW1 3041   4.985   4.713   5.236
  714SOL    HW2 3042   4.854   4.810   5.228
  715SOL     OW 3043   6.152   0.058   6.390
  715SOL    HW1 3044   6.126   0.033   6.297
  715SOL    HW2 3045   6.251   0.052   6.401
  716SOL     OW 3046   6.208   5.618   0.643
  716SOL    HW1 3047   6.121   5.576   0.616
  716SOL    HW2 3048   6.254   5.654   0.562
  717SOL     OW 3049   6.382   3.289   5.989
  717SOL    HW1 3050   6.379   3.323   6.083
  717SOL    HW2 3051   6.478   3.271   5.964
  718SOL     OW 3052   2.854   2.637   6.963
  718SOL    HW1 3053   2.885   2.713   7.019
  718SOL    HW2 3054   2.932   2.594   6.918
  719SOL     OW 3055   5.685   4.476   0.072
  719SOL    HW1 3056   5.617   4.549   0.060
  719SOL    HW2 3057   5.777   4.515   0.075
  720SOL     OW 3058   3.839   1.320   5.572
  720SOL    HW1 3059   3.806   1.226   5.585
  720SOL    HW2 3060   3.930   1.318   5.530
  721SOL     OW 3061   1.251   6.980   5.630
  721SOL    HW1 3062   1.343   6.945   5.644
  721SOL    HW2 3063   1.254   0.054   5.620
  722SOL     OW 3064   4.818   0.001   5.172
  722SOL    HW1 3065   4.820   0.067   5.247
  722SOL    HW2 3066   4.724   7.019   5.137
  723SOL     OW 3067   1.442   3.448   1.725
  723SOL    HW1 3068   1.440   3.413   1.631
  723SOL    HW2 3069   1.350   3.443   1.764
  724SOL     OW 3070   0.265   1.618   5.119
  724SOL    HW1 3071   0.294   1.528   5.152
  724SOL    HW2 3072   0.298   1.688   5.182
  725SOL     OW 3073   2.478   5.328   2.428
  725SOL    HW1 3074   2.400   5.381   2.462
  725SOL    HW2 3075   2.447   5.236   2.404
  726SOL     OW 3076   5.235   6.021   5.483
  726SOL    HW1 3077   5.246   5.941   5.542
  726SOL    HW2 3078   5.325   6.062   5.466
  727SOL     OW 3079   2.329   4.336   4.410
  727SOL    HW1 3080   2.280   4.423   4.411
  727SOL    HW2 3081   2.361   4.315   4.502
  728SOL     OW 3082   6.633   2.826   5.811
  728SOL    HW1 3083   6.552   2.850   5.758
  728SOL    HW2 3084   6.670   2.740   5.778
  729SOL     OW 3085   4.504   1.671   0.747
  729SOL    HW1 3086   4.561   1.597   0.712
  729SOL    HW2 3087   4.413   1.665   0.707
  730SOL     OW 3088   5.869   1.452   4.478
  730SOL    HW1 3089   5.952   1.398   4.464
  730SOL    HW2 3090   5.884   1.545   4.446
  731SOL     OW 3091   6.991   2.261   4.149
  731SOL    HW1 3092   6.907   2.289   4.196
  731SOL    HW2 3093   0.012   2.342   4.114
  732SOL     OW 3094   0.600   3.664   3.599
  732SOL    HW1 3095   0.552   3.742   3.559
  732SOL    HW2 3096   0.633   3.688   3.691
  733SOL     OW 3097   4.472   5.104   4.331
  733SOL    HW1 3098   4.396   5.124   4.269
  733SOL    HW2 3099   4.439   5.045   4.405
  734SOL     OW 3100   0.983   5.821   6.809
  734SOL    HW1 3101   0.938   5.733   6.824
  734SOL    HW2 3102   1.082   5.810   6.815
  735SOL     OW 3103   3.039   4.713   6.952
  735SOL    HW1 3104   3.059   4.642   6.885
  735SOL    HW2 3105   2.949   4.697   6.992
  736SOL     OW 3106   5.768   0.862   2.578
  736SOL    HW1 3107   5.856   0.880   2.621
  736SOL    HW2 3108   5.696   0.856   2.648
  737SOL     OW 3109   5.304   4.131   0.120
  737SOL    HW1 3110   5.402   4.115   0.119
  737SOL    HW2 3111   5.281   4.209   0.062
  738SOL     OW 3112   0.984   4.227   3.202
  738SOL    HW1 3113   0.928   4.225   3.285
  738SOL    HW2 3114   0.928   4.259   3.125
  739SOL     OW 3115   4.757   6.675   6.139
  739SOL    HW1 3116   4.726   6.580   6.129
  739SOL    HW2 3117   4.823   6.696   6.066
  740SOL     OW 3118   5.060   7.004   0.084
  740SOL    HW1 3119   4.989   6.984   0.153
  740SOL    HW2 3120   5.145   6.959   0.110
  741SOL     OW 3121   2.538   0.184   3.727
  741SOL    HW1 3122   2.568   0.227   3.642
  741SOL    HW2 3123   2.565   0.088   3.727
  742SOL     OW 3124   1.216   6.565   2.752
  742SOL    HW1 3125   1.228   6.664   2.762
  742SOL    HW2 3126   1.305   6.520   2.753
  743SOL     OW 3127   1.514   3.265   3.934
  743SOL    HW1 3128   1.499   3.361   3.955
  743SOL    HW2 3129   1.491   3.209   4.014
  744SOL     OW 3130   6.528   5.275   0.654
  744SOL    HW1 3131   6.577   5.189   0.664
  744SOL    HW2 3132   6.456   5.265   0.586
  745SOL     OW 3133   1.928   5.719   2.851
  745SOL    HW1 3134   1.847   5.722   2.792
  745SOL    HW2 3135   1.899   5.712   2.947
  746SOL     OW 3136   3.379   0.157   3.153
  746SOL    HW1 3137   3.453   0.147   3.220
  746SOL    HW2 3138   3.305   0.211   3.193
  747SOL     OW 3139   6.611   3.454   1.152
  747SOL    HW1 3140   6.536   3.397   1.118
  747SOL    HW2 3141   6.597   3.548   1.120
  748SOL     OW 3142   3.774   2.988   2.756
  748SOL    HW1 3143   3.790   2.923   2.681
  748SOL    HW2 3144   3.862   3.017   2.793
  749SOL     OW 3145   5.804   2.295   5.277
  749SOL    HW1 3146   5.741   2.355   5.227
  749SOL    HW2 3147   5.807   2.323   5.373
  750SOL     OW 3148   2.978   3.302   1.457
  750SOL    HW1 3149   3.066   3.335   1.424
  750SOL    HW2 3150   2.981   3.202   1.465
  751SOL     OW 3151   5.335   1.600   0.369
  751SOL    HW1 3152   5.404   1.634   0.433
  751SOL    HW2 3153   5.255   1.568   0.419
  752SOL     OW 3154   4.574   0.976   1.750
  752SOL    HW1 3155   4.670   0.961   1.728
  752SOL    HW2 3156   4.551   0.927   1.834
  753SOL     OW 3157   4.121   1.677   2.590
  753SOL    HW1 3158   4.194   1.644   2.530
  753SOL    HW2 3159   4.061   1.738   2.539
  754SOL     OW 3160   5.558   5.785   0.276
  754SOL    HW1 3161   5.614   5.759   0.354
  754SOL    HW2 3162   5.463   5.760   0.293
  755SOL     OW 3163   6.203   5.683   2.511
  755SOL    HW1 3164   6.198   5.676   2.611
  755SOL    HW2 3165   6.199   5.591   2.471
  756SOL     OW 3166   3.070   6.423   3.719
  756SOL    HW1 3167   3.149   6.371   3.685
  756SOL    HW2 3168   3.087   6.521   3.710
  757SOL     OW 3169   6.522   1.176   3.533
  757SOL    HW1 3170   6.465   1.257   3.518
  757SOL    HW2 3171   6.495   1.132   3.619
  758SOL     OW 3172   4.520   2.230   1.028
  758SOL    HW1 3173   4.504   2.132   1.034
  758SOL    HW2 3174   4.603   2.248   0.976
  759SOL     OW 3175   2.203   1.079   1.210
  759SOL    HW1 3176   2.207   1.164   1.263
  759SOL    HW2 3177   2.126   1.084   1.146
  760SOL     OW 3178   4.718   1.978   5.798
  760SOL    HW1 3179   4.656   1.904   5.825
  760SOL    HW2 3180   4.722   1.984   5.698
  761SOL     OW 3181   5.331   0.982   6.800
  761SOL    HW1 3182   5.313   0.935   6.886
  761SOL    HW2 3183   5.373   0.919   6.735
  762SOL     OW 3184   2.015   4.789   4.512
  762SOL    HW1 3185   1.931   4.839   4.492
  762SOL    HW2 3186   2.016   4.703   4.461
  763SOL     OW 3187   6.317   5.132   6.814
  763SOL    HW1 3188   6.303   5.181   6.900
  763SOL    HW2 3189   6.362   5.193   6.748
  764SOL     OW 3190   5.849   1.293   3.037
  764SOL    HW1 3191   5.785   1.230   2.994
  764SOL    HW2 3192   5.917   1.242   3.089
  765SOL     OW 3193   0.200   6.760   3.234
  765SOL    HW1 3194   0.131   6.688   3.240
  765SOL    HW2 3195   0.160   6.848   3.261
  766SOL     OW 3196   6.449   6.661   0.257
  766SOL    HW1 3197   6.502   6.742   0.237
  766SOL    HW2 3198   6.450   6.599   0.178
  767SOL     OW 3199   6.142   6.306   1.514
  767SOL    HW1 3200   6.156   6.360   1.431
  767SOL    HW2 3201   6.184   6.353   1.592
  768SOL     OW 3202   3.326   6.575   3.920
  768SOL    HW1 3203   3.369   6.570   3.830
  768SOL    HW2 3204   3.236   6.617   3.911
  769SOL     OW 3205   3.959   1.111   0.265
  769SOL    HW1 3206   3.922   1.193   0.221
  769SOL    HW2 3207   3.899   1.083   0.340
  770SOL     OW 3208   3.065   4.829   4.492
  770SOL    HW1 3209   3.101   4.876   4.411
  770SOL    HW2 3210   3.124   4.751   4.514
  771SOL     OW 3211   0.900   6.103   4.550
  771SOL    HW1 3212   0.810   6.067   4.572
  771SOL    HW2 3213   0.945   6.135   4.633
  772SOL     OW 3214   0.177   4.367   5.759
  772SOL    HW1 3215   0.229   4.303   5.703
  772SOL    HW2 3216   0.194   4.460   5.728
  773SOL     OW 3217   0.251   3.031   2.434
  773SOL    HW1 3218   0.163   3.079   2.436
  773SOL    HW2 3219   0.287   3.024   2.527
  774SOL     OW 3220   1.672   0.820   1.689
  774SOL    HW1 3221   1.699   0.881   1.615
  774SOL    HW2 3222   1.606   0.753   1.655
  775SOL     OW 3223   1.513   2.699   4.239
  775SOL    HW1 3224   1.611   2.717   4.242
  775SOL    HW2 3225   1.487   2.670   4.147
  776SOL     OW 3226   1.854   0.559   5.032
  776SOL    HW1 3227   1.886   0.467   5.055
  776SOL    HW2 3228   1.781   0.586   5.095
  777SOL     OW 3229   4.352   6.843   6.584
  777SOL    HW1 3230   4.264   6.890   6.572
  777SOL    HW2 3231   4.368   6.828   6.682
  778SOL     OW 3232   4.346   5.452   4.937
  778SOL    HW1 3233   4.374   5.523   5.002
  778SOL    HW2 3234   4.410   5.375   4.942
  779SOL     OW 3235   0.780   0.545   2.238
  779SOL    HW1 3236   0.844   0.486   2.289
  779SOL    HW2 3237   0.825   0.578   2.155
  780SOL     OW 3238   5.587   2.580   4.823
  780SOL    HW1 3239   5.575   2.633   4.907
  780SOL    HW2 3240   5.568   2.637   4.744
  781SOL     OW 3241   0.361   2.686   6.673
  781SOL    HW1 3242   0.454   2.700   6.640
  781SOL    HW2 3243   0.339   2.589   6.671
  782SOL     OW 3244   6.859   4.907   0.533
  782SOL    HW1 3245   6.840   4.811   0.555
  782SOL    HW2 3246   6.892   4.913   0.439
  783SOL     OW 3247   1.986   4.870   0.120
  783SOL    HW1 3248   1.915   4.803   0.099
  783SOL    HW2 3249   2.073   4.823   0.134
  784SOL     OW 3250   5.217   4.956   3.481
  784SOL    HW1 3251   5.136   4.930   3.534
  784SOL    HW2 3252   5.299   4.926   3.528
  785SOL     OW 3253   6.147   2.356   4.043
  785SOL    HW1 3254   6.193   2.269   4.029
  785SOL    HW2 3255   6.048   2.343   4.038
  786SOL     OW 3256   6.089   6.476   0.540
  786SOL    HW1 3257   6.074   6.481   0.639
  786SOL    HW2 3258   6.183   6.503   0.520
  787SOL     OW 3259   4.540   1.122   6.872
  787SOL    HW1 3260   4.533   1.208   6.822
  787SOL    HW2 3261   4.628   1.079   6.851
  788SOL     OW 3262   0.697   4.587   3.336
  788SOL    HW1 3263   0.599   4.596   3.316
  788SOL    HW2 3264   0.709   4.543   3.425
  789SOL     OW 3265   5.507   2.721   0.948
  789SOL    HW1 3266   5.491   2.672   1.034
  789SOL    HW2 3267   5.595   2.692   0.909
  790SOL     OW 3268   3.388   0.389   3.698
  790SOL    HW1 3269   3.384   0.459   3.627
  790SOL    HW2 3270   3.477   0.392   3.743
  791SOL     OW 3271   4.302   1.734   5.265
  791SOL    HW1 3272   4.393   1.696   5.248
  791SOL    HW2 3273   4.310   1.821   5.314
  792SOL     OW 3274   5.382   0.435   3.365
  792SOL    HW1 3275   5.312   0.506   3.355
  792SOL    HW2 3276   5.376   0.396   3.457
  793SOL     OW 3277   6.991   0.397   6.618
  793SOL    HW1 3278   6.968   0.484   6.662
  793SOL    HW2 3279   6.971   0.402   6.520
  794SOL     OW 3280   3.396   4.583   5.317
  794SOL    HW1 3281   3.461   4.625   5.380
  794SOL    HW2 3282   3.406   4.484   5.320
  795SOL     OW 3283   4.998   5.266   6.989
  795SOL    HW1 3284   5.066   5.337   6.970
  795SOL    HW2 3285   4.913   5.287   6.939
  796SOL     OW 3286   0.210   1.355   5.466
  796SOL    HW1 3287   0.218   1.454   5.473
  796SOL    HW2 3288   0.200   1.315   5.557
  797SOL     OW 3289   6.055   2.915   5.605
  797SOL    HW1 3290   6.055   2.817   5.583
  797SOL    HW2 3291   6.102   2.966   5.533
  798SOL     OW 3292   6.651   0.894   4.921
  798SOL    HW1 3293   6.575   0.853   4.871
  798SOL    HW2 3294   6.736   0.876   4.872
  799SOL     OW 3295   6.843   3.635   3.285
  799SOL    HW1 3296   6.891   3.710   3.240
  799SOL    HW2 3297   6.889   3.549   3.265
  800SOL     OW 3298   6.930   1.339   2.222
  800SOL    HW1 3299   7.025   1.370   2.230
  800SOL    HW2 3300   6.905   1.290   2.306
  801SOL     OW 3301   0.235   2.521   3.822
  801SOL    HW1 3302   0.330   2.551   3.809
  801SOL    HW2 3303   0.210   2.457   3.750
  802SOL     OW 3304   6.480   1.514   1.805
  802SOL    HW1 3305   6.381   1.516   1.796
  802SOL    HW2 3306   6.505   1.518   1.901
  803SOL     OW 3307   1.585   0.157   4.705
  803SOL    HW1 3308   1.536   0.217   4.641
  803SOL    HW2 3309   1.649   0.212   4.758
  804SOL     OW 3310   6.298   6.655   0.972
  804SOL    HW1 3311   6.338   6.590   0.908
  804SOL    HW2 3312   6.257   6.731   0.921
  805SOL     OW 3313   1.857   3.112   5.267
  805SOL    HW1 3314   1.829   3.183   5.332
  805SOL    HW2 3315   1.834   3.141   5.174
  806SOL     OW 3316   4.698   0.474   0.504
  806SOL    HW1 3317   4.710   0.476   0.404
  806SOL    HW2 3318   4.608   0.437   0.526
  807SOL     OW 3319   0.930   6.970   2.828
  807SOL    HW1 3320   0.883   6.896   2.876
  807SOL    HW2 3321   0.964   0.012   2.894
  808SOL     OW 3322   6.049   3.898   5.002
  808SOL    HW1 3323   6.034   3.806   4.967
  808SOL    HW2 3324   6.145   3.908   5.029
  809SOL     OW 3325   0.813   5.754   6.164
  809SOL    HW1 3326   0.780   5.782   6.254
  809SOL    HW2 3327   0.887   5.814   6.136
  810SOL     OW 3328   6.510   5.569   6.458
  810SOL    HW1 3329   6.558   5.527   6.381
  810SOL    HW2 3330   6.543   5.663   6.470
  811SOL     OW 3331   3.676   5.132   3.418
  811SOL    HW1 3332   3.734   5.199   3.371
  811SOL    HW2 3333   3.582   5.165   3.422
  812SOL     OW 3334   6.880   0.408   2.674
  812SOL    HW1 3335   6.943   0.335   2.702
  812SOL    HW2 3336   6.849   0.458   2.755
  813SOL     OW 3337   5.510   5.305   1.810
  813SOL    HW1 3338   5.545   5.398   1.820
  813SOL    HW2 3339   5.428   5.306   1.752
  814SOL     OW 3340   5.012   5.658   1.102
  814SOL    HW1 3341   4.974   5.579   1.151
  814SOL    HW2 3342   4.938   5.721   1.079
  815SOL     OW 3343   1.110   1.229   0.704
  815SOL    HW1 3344   1.031   1.289   0.696
  815SOL    HW2 3345   1.079   1.137   0.729
  816SOL     OW 3346   5.375   0.642   1.704
  816SOL    HW1 3347   5.359   0.573   1.633
  816SOL    HW2 3348   5.468   0.678   1.695
  817SOL     OW 3349   0.932   2.158   2.124
  817SOL    HW1 3350   0.835   2.184   2.128
  817SOL    HW2 3351   0.943   2.065   2.161
  818SOL     OW 3352   5.111   1.474   2.628
  818SOL    HW1 3353   5.133   1.544   2.696
  818SOL    HW2 3354   5.042   1.412   2.665
  819SOL     OW 3355   7.000   5.381   2.243
  819SOL    HW1 3356   0.034   5.350   2.317
  819SOL    HW2 3357   6.982   5.304   2.181
  820SOL     OW 3358   1.649   2.781   4.785
  820SOL    HW1 3359   1.664   2.721   4.863
  820SOL    HW2 3360   1.693   2.742   4.704
  821SOL     OW 3361   1.273   4.050   0.563
  821SOL    HW1 3362   1.347   4.055   0.496
  821SOL    HW2 3363   1.310   4.027   0.653
  822SOL     OW 3364   1.137   3.194   4.500
  822SOL    HW1 3365   1.139   3.236   4.591
  822SOL    HW2 3366   1.044   3.164   4.479
  823SOL     OW 3367   3.487   3.982   1.644
  823SOL    HW1 3368   3.509   4.029   1.729
  823SOL    HW2 3369   3.567   3.981   1.584
  824SOL     OW 3370   6.233   2.325   6.240
  824SOL    HW1 3371   6.224   2.409   6.292
  824SOL    HW2 3372   6.252   2.346   6.144
  825SOL     OW 3373   1.168   3.736   1.430
  825SOL    HW1 3374   1.087   3.717   1.485
  825SOL    HW2 3375   1.234   3.789   1.484
  826SOL     OW 3376   1.583   3.705   5.999
  826SOL    HW1 3377   1.603   3.802   6.006
  826SOL    HW2 3378   1.574   3.666   6.091
  827SOL     OW 3379   3.244   4.835   1.116
  827SOL    HW1 3380   3.170   4.776   1.148
  827SOL    HW2 3381   3.217   4.880   1.031
  828SOL     OW 3382   6.253   0.498   5.913
  828SOL    HW1 3383   6.346   0.503   5.879
  828SOL    HW2 3384   6.234   0.576   5.973
  829SOL     OW 3385   3.467   3.542   5.411
  829SOL    HW1 3386   3.507   3.454   5.383
  829SOL    HW2 3387   3.405   3.526   5.488
  830SOL     OW 3388   4.497   3.601   5.931
  830SOL    HW1 3389   4.597   3.591   5.929
  830SOL    HW2 3390   4.459   3.575   5.842
  831SOL     OW 3391   5.854   0.399   4.535
  831SOL    HW1 3392   5.913   0.336   4.485
  831SOL    HW2 3393   5.854   0.374   4.632
  832SOL     OW 3394   2.434   1.783   5.752
  832SOL    HW1 3395   2.419   1.881   5.761
  832SOL    HW2 3396   2.419   1.739   5.840
  833SOL     OW 3397   1.370   0.622   5.760
  833SOL    HW1 3398   1.442   0.553   5.764
  833SOL    HW2 3399   1.301   0.596   5.693
  834SOL     OW 3400   3.289   4.693   5.824
  834SOL    HW1 3401   3.299   4.709   5.922
  834SOL    HW2 3402   3.192   4.676   5.803
  835SOL     OW 3403   3.963   1.189   2.877
  835SOL    HW1 3404   3.910   1.206   2.794
  835SOL    HW2 3405   4.053   1.230   2.868
  836SOL     OW 3406   2.688   0.887   6.637
  836SOL    HW1 3407   2.698   0.973   6.688
  836SOL    HW2 3408   2.599   0.847   6.658
  837SOL     OW 3409   4.184   1.760   4.934
  837SOL    HW1 3410   4.257   1.710   4.981
  837SOL    HW2 3411   4.191   1.746   4.836
  838SOL     OW 3412   1.335   6.321   2.507
  838SOL    HW1 3413   1.309   6.414   2.481
  838SOL    HW2 3414   1.394   6.324   2.588
  839SOL     OW 3415   3.071   1.416   1.828
  839SOL    HW1 3416   3.133   1.363   1.770
  839SOL    HW2 3417   2.976   1.388   1.812
  840SOL     OW 3418   0.697   1.264   5.567
  840SOL    HW1 3419   0.790   1.234   5.588
  840SOL    HW2 3420   0.696   1.309   5.477
  841SOL     OW 3421   0.398   3.488   1.285
  841SOL    HW1 3422   0.469   3.559   1.291
  841SOL    HW2 3423   0.359   3.472   1.376
  842SOL     OW 3424   3.422   4.935   3.996
  842SOL    HW1 3425   3.369   5.016   4.022
  842SOL    HW2 3426   3.504   4.929   4.053
  843SOL     OW 3427   6.963   3.724   2.189
  843SOL    HW1 3428   6.954   3.625   2.199
  843SOL    HW2 3429   7.000   3.745   2.098
  844SOL     OW 3430   5.702   5.027   6.791
  844SOL    HW1 3431   5.709   5.071   6.881
  844SOL    HW2 3432   5.793   4.999   6.760
  845SOL     OW 3433   2.304   4.895   5.751
  845SOL    HW1 3434   2.386   4.908   5.695
  845SOL    HW2 3435   2.226   4.875   5.692
  846SOL     OW 3436   4.456   2.428   7.000
  846SOL    HW1 3437   4.384   2.494   7.019
  846SOL    HW2 3438   4.545   2.474   7.005
  847SOL     OW 3439   5.277   3.821   2.082
  847SOL    HW1 3440   5.202   3.872   2.040
  847SOL    HW2 3441   5.243   3.734   2.118
  848SOL     OW 3442   6.193   6.885   5.347
  848SOL    HW1 3443   6.281   6.929   5.366
  848SOL    HW2 3444   6.194   6.792   5.382
  849SOL     OW 3445   0.988   5.619   4.176
  849SOL    HW1 3446   0.998   5.677   4.257
  849SOL    HW2 3447   0.990   5.523   4.205
  850SOL     OW 3448   3.806   0.637   3.214
  850SOL    HW1 3449   3.740   0.599   3.279
  850SOL    HW2 3450   3.899   0.617   3.246
  851SOL     OW 3451   6.890   0.749   5.691
  851SOL    HW1 3452   6.858   0.806   5.615
  851SOL    HW2 3453   6.974   0.787   5.729
  852SOL     OW 3454   2.877   4.586   5.553
  852SOL    HW1 3455   2.903   4.681   5.535
  852SOL    HW2 3456   2.779   4.575   5.534
  853SOL     OW 3457   0.846   4.351   0.667
  853SOL    HW1 3458   0.830   4.351   0.569
  853SOL    HW2 3459   0.759   4.338   0.715
  854SOL     OW 3460   6.137   5.448   1.340
  854SOL    HW1 3461   6.142   5.366   1.397
  854SOL    HW2 3462   6.061   5.505   1.371
  855SOL     OW 3463   5.239   0.409   0.687
  855SOL    HW1 3464   5.274   0.352   0.613
  855SOL    HW2 3465   5.156   0.455   0.659
  856SOL     OW 3466   1.587   0.436   5.149
  856SOL    HW1 3467   1.531   0.489   5.085
  856SOL    HW2 3468   1.571   0.339   5.134
  857SOL     OW 3469   5.222   3.578   1.445
  857SOL    HW1 3470   5.157   3.636   1.494
  857SOL    HW2 3471   5.232   3.491   1.494
  858SOL     OW 3472   3.646   3.741   1.992
  858SOL    HW1 3473   3.618   3.722   2.086
  858SOL    HW2 3474   3.731   3.794   1.992
  859SOL     OW 3475   0.207   4.426   0.766
  859SOL    HW1 3476   0.276   4.427   0.693
  859SOL    HW2 3477   0.250   4.400   0.852
  860SOL     OW 3478   1.580   3.660   6.557
  860SOL    HW1 3479   1.560   3.739   6.616
  860SOL    HW2 3480   1.567   3.576   6.610
  861SOL     OW 3481   3.777   4.249   5.849
  861SOL    HW1 3482   3.877   4.249   5.848
  861SOL    HW2 3483   3.743   4.340   5.826
  862SOL     OW 3484   4.508   4.602   3.118
  862SOL    HW1 3485   4.507   4.582   3.216
  862SOL    HW2 3486   4.563   4.534   3.070
  863SOL     OW 3487   5.892   2.424   1.296
  863SOL    HW1 3488   5.833   2.356   1.251
  863SOL    HW2 3489   5.970   2.378   1.337
  864SOL     OW 3490   0.406   5.210   2.785
  864SOL    HW1 3491   0.407   5.308   2.764
  864SOL    HW2 3492   0.482   5.165   2.738
  865SOL     OW 3493   2.033   0.944   3.733
  865SOL    HW1 3494   1.991   0.976   3.648
  865SOL    HW2 3495   2.074   0.854   3.719
  866SOL     OW 3496   4.746   1.010   1.122
  866SOL    HW1 3497   4.763   0.941   1.192
  866SOL    HW2 3498   4.753   0.969   1.031
  867SOL     OW 3499   2.501   1.697   6.552
  867SOL    HW1 3500   2.529   1.755   6.629
  867SOL    HW2 3501   2.564   1.711   6.476
  868SOL     OW 3502   5.402   2.439   3.330
  868SOL    HW1 3503   5.414   2.413   3.426
  868SOL    HW2 3504   5.328   2.384   3.290
  869SOL     OW 3505   6.548   3.712   1.119
  869SOL    HW1 3506   6.481   3.749   1.184
  869SOL    HW2 3507   6.639   3.743   1.145
  870SOL     OW 3508   6.291   1.998   0.538
  870SOL    HW1 3509   6.303   1.922   0.475
  870SOL    HW2 3510   6.380   2.036   0.563
  871SOL     OW 3511   6.323   4.580   0.601
  871SOL    HW1 3512   6.334   4.565   0.503
  871SOL    HW2 3513   6.390   4.525   0.651
  872SOL     OW 3514   0.095   1.906   1.782
  872SOL    HW1 3515   0.135   1.940   1.697
  872SOL    HW2 3516   0.118   1.968   1.857
  873SOL     OW 3517   3.763   6.817   4.731
  873SOL    HW1 3518   3.762   6.901   4.677
  873SOL    HW2 3519   3.677   6.809   4.781
  874SOL     OW 3520   0.712   4.096   6.538
  874SOL    HW1 3521   0.713   4.195   6.527
  874SOL    HW2 3522   0.794   4.057   6.496
  875SOL     OW 3523   6.390   5.846   6.243
  875SOL    HW1 3524   6.455   5.847   6.167
  875SOL    HW2 3525   6.342   5.758   6.244
  876SOL     OW 3526   2.001   2.070   1.437
  876SOL    HW1 3527   1.993   2.097   1.341
  876SOL    HW2 3528   1.912   2.037   1.471
  877SOL     OW 3529   5.347   5.734   6.579
  877SOL    HW1 3530   5.320   5.818   6.626
  877SOL    HW2 3531   5.365   5.754   6.482
  878SOL     OW 3532   3.737   2.933   0.757
  878SOL    HW1 3533   3.743   2.954   0.855
  878SOL    HW2 3534   3.701   3.012   0.708
  879SOL     OW 3535   4.852   3.112   3.435
  879SOL    HW1 3536   4.782   3.054   3.394
  879SOL    HW2 3537   4.937   3.060   3.446
  880SOL     OW 3538   4.271   5.685   1.490
  880SOL    HW1 3539   4.345   5.637   1.442
  880SOL    HW2 3540   4.275   5.782   1.469
  881SOL     OW 3541   4.811   4.544   2.982
  881SOL    HW1 3542   4.885   4.515   2.922
  881SOL    HW2 3543   4.844   4.615   3.045
  882SOL     OW 3544   0.731   2.092   4.580
  882SOL    HW1 3545   0.732   1.995   4.605
  882SOL    HW2 3546   0.636   2.125   4.578
  883SOL     OW 3547   3.307   4.850   0.055
  883SOL    HW1 3548   3.314   4.921   0.125
  883SOL    HW2 3549   3.215   4.850   0.016
  884SOL     OW 3550   4.153   4.013   1.584
  884SOL    HW1 3551   4.147   4.107   1.549
  884SOL    HW2 3552   4.147   4.014   1.684
  885SOL     OW 3553   4.847   5.996   5.538
  885SOL    HW1 3554   4.749   6.009   5.529
  885SOL    HW2 3555   4.895   6.046   5.466
  886SOL     OW 3556   3.734   2.237   6.501
  886SOL    HW1 3557   3.674   2.317   6.495
  886SOL    HW2 3558   3.797   2.249   6.578
  887SOL     OW 3559   5.889   5.712   5.073
  887SOL    HW1 3560   5.838   5.713   4.987
  887SOL    HW2 3561   5.868   5.795   5.126
  888SOL     OW 3562   6.270   0.394   3.596
  888SOL    HW1 3563   6.183   0.366   3.637
  888SOL    HW2 3564   6.328   0.436   3.666
  889SOL     OW 3565   0.596   0.247   4.545
  889SOL    HW1 3566   0.573   0.316   4.477
  889SOL    HW2 3567   0.625   0.163   4.499
  890SOL     OW 3568   1.544   3.981   1.735
  890SOL    HW1 3569   1.524   3.995   1.832
  890SOL    HW2 3570   1.595   3.896   1.723
  891SOL     OW 3571   6.025   3.724   6.682
  891SOL    HW1 3572   5.945   3.783   6.685
  891SOL    HW2 3573   6.036   3.686   6.591
  892SOL     OW 3574   2.046   5.590   1.788
  892SOL    HW1 3575   2.008   5.582   1.695
  892SOL    HW2 3576   2.039   5.684   1.820
  893SOL     OW 3577   2.061   0.498   2.312
  893SOL    HW1 3578   2.126   0.428   2.343
  893SOL    HW2 3579   2.014   0.537   2.390
  894SOL     OW 3580   1.406   5.575   4.725
  894SOL    HW1 3581   1.314   5.612   4.733
  894SOL    HW2 3582   1.427   5.518   4.805
  895SOL     OW 3583   2.124   0.468   4.704
  895SOL    HW1 3584   2.175   0.479   4.790
  895SOL    HW2 3585   2.174   0.514   4.630
  896SOL     OW 3586   5.151   6.268   3.332
  896SOL    HW1 3587   5.215   6.341   3.356
  896SOL    HW2 3588   5.186   6.181   3.365
  897SOL     OW 3589   5.768   1.206   6.192
  897SOL    HW1 3590   5.834   1.205   6.267
  897SOL    HW2 3591   5.726   1.296   6.186
  898SOL     OW 3592   5.175   6.670   3.429
  898SOL    HW1 3593   5.096   6.705   3.480
  898SOL    HW2 3594   5.156   6.673   3.331
  899SOL     OW 3595   1.584   4.878   0.125
  899SOL    HW1 3596   1.569   4.876   0.224
  899SOL    HW2 3597   1.638   4.958   0.101
  900SOL     OW 3598   0.630   5.056   3.485
  900SOL    HW1 3599   0.546   5.031   3.532
  900SOL    HW2 3600   0.615   5.058   3.386
  901SOL     OW 3601   5.991   2.002   3.592
  901SOL    HW1 3602   5.977   2.026   3.496
  901SOL    HW2 3603   5.915   2.036   3.646
  902SOL     OW 3604   1.360   6.220   0.042
  902SOL    HW1 3605   1.333   6.139   7.015
  902SOL    HW2 3606   1.454   6.209   0.075
  903SOL     OW 3607   0.456   4.993   6.294
  903SOL    HW1 3608   0.366   4.983   6.254
  903SOL    HW2 3609   0.516   5.043   6.231
  904SOL     OW 3610   2.364   1.000   4.385
  904SOL    HW1 3611   2.400   1.068   4.449
  904SOL    HW2 3612   2.431   0.981   4.314
  905SOL     OW 3613   6.016   3.288   3.813
  905SOL    HW1 3614   6.043   3.321   3.722
  905SOL    HW2 3615   5.973   3.363   3.864
  906SOL     OW 3616   6.266   3.691   5.420
  906SOL    HW1 3617   6.342   3.698   5.356
  906SOL    HW2 3618   6.233   3.783   5.442
  907SOL     OW 3619   0.438   3.391   2.375
  907SOL    HW1 3620   0.342   3.388   2.400
  907SOL    HW2 3621   0.481   3.471   2.415
  908SOL     OW 3622   2.571   1.178   3.698
  908SOL    HW1 3623   2.541   1.251   3.636
  908SOL    HW2 3624   2.598   1.098   3.644
  909SOL     OW 3625   4.212   6.629   1.314
  909SOL    HW1 3626   4.237   6.544   1.267
  909SOL    HW2 3627   4.265   6.705   1.276
  910SOL     OW 3628   1.787   1.154   1.941
  910SOL    HW1 3629   1.856   1.091   1.975
  910SOL    HW2 3630   1.815   1.189   1.851
  911SOL     OW 3631   0.637   3.751   0.762
  911SOL    HW1 3632   0.608   3.696   0.841
  911SOL    HW2 3633   0.733   3.733   0.742
  912SOL     OW 3634   1.711   1.262   6.852
  912SOL    HW1 3635   1.644   1.333   6.832
  912SOL    HW2 3636   1.782   1.262   6.781
  913SOL     OW 3637   2.094   1.748   2.691
  913SOL    HW1 3638   2.004   1.763   2.650
  913SOL    HW2 3639   2.140   1.836   2.703
  914SOL     OW 3640   2.440   5.091   1.957
  914SOL    HW1 3641   2.423   5.042   1.872
  914SOL    HW2 3642   2.363   5.152   1.977
  915SOL     OW 3643   2.419   2.231   0.856
  915SOL    HW1 3644   2.422   2.305   0.923
  915SOL    HW2 3645   2.383   2.265   0.770
  916SOL     OW 3646   1.120   3.302   2.624
  916SOL    HW1 3647   1.157   3.246   2.697
  916SOL    HW2 3648   1.036   3.261   2.588
  917SOL     OW 3649   3.582   0.960   5.816
  917SOL    HW1 3650   3.547   0.898   5.887
  917SOL    HW2 3651   3.521   0.959   5.737
  918SOL     OW 3652   0.444   2.126   4.573
  918SOL    HW1 3653   0.432   2.043   4.626
  918SOL    HW2 3654   0.413   2.111   4.479
  919SOL     OW 3655   1.488   0.497   1.038
  919SOL    HW1 3656   1.566   0.543   1.080
  919SOL    HW2 3657   1.404   0.548   1.056
  920SOL     OW 3658   1.711   1.399   3.320
  920SOL    HW1 3659   1.677   1.474   3.263
  920SOL    HW2 3660   1.793   1.360   3.279
  921SOL     OW 3661   3.827   4.538   0.161
  921SOL    HW1 3662   3.821   4.439   0.177
  921SOL    HW2 3663   3.921   4.568   0.178
  922SOL     OW 3664   2.556   5.868   0.052
  922SOL    HW1 3665   2.592   5.882   0.144
  922SOL    HW2 3666   2.458   5.850   0.057
  923SOL     OW 3667   4.169   1.151   0.050
  923SOL    HW1 3668   4.256   1.163   0.098
  923SOL    HW2 3669   4.099   1.120   0.115
  924SOL     OW 3670   5.918   4.661   2.177
  924SOL    HW1 3671   5.876   4.634   2.264
  924SOL    HW2 3672   5.856   4.722   2.128
  925SOL     OW 3673   6.852   2.195   2.287
  925SOL    HW1 3674   6.811   2.280   2.255
  925SOL    HW2 3675   6.936   2.215   2.338
  926SOL     OW 3676   3.660   5.964   1.407
  926SOL    HW1 3677   3.744   5.910   1.402
  926SOL    HW2 3678   3.681   6.054   1.446
  927SOL     OW 3679   4.585   5.390   4.754
  927SOL    HW1 3680   4.564   5.332   4.833
  927SOL    HW2 3681   4.565   5.339   4.670
  928SOL     OW 3682   0.262   1.607   1.489
  928SOL    HW1 3683   0.353   1.646   1.503
  928SOL    HW2 3684   0.193   1.672   1.519
  929SOL     OW 3685   0.215   2.191   2.246
  929SOL    HW1 3686   0.172   2.271   2.286
  929SOL    HW2 3687   0.167   2.108   2.275
  930SOL     OW 3688   6.228   5.152   2.010
  930SOL    HW1 3689   6.229   5.243   1.969
  930SOL    HW2 3690   6.260   5.158   2.105
  931SOL     OW 3691   1.017   2.770   1.756
  931SOL    HW1 3692   1.094   2.830   1.781
  931SOL    HW2 3693   1.042   2.718   1.673
  932SOL     OW 3694   4.617   5.871   1.324
  932SOL    HW1 3695   4.548   5.846   1.256
  932SOL    HW2 3696   4.575   5.873   1.415
  933SOL     OW 3697   0.855   6.303   3.348
  933SOL    HW1 3698   0.916   6.289   3.270
  933SOL    HW2 3699   0.796   6.224   3.360
  934SOL     OW 3700   3.215   1.409   5.409
  934SOL    HW1 3701   3.212   1.505   5.381
  934SOL    HW2 3702   3.293   1.395   5.470
  935SOL     OW 3703   1.372   3.834   4.335
  935SOL    HW1 3704   1.416   3.749   4.362
  935SOL    HW2 3705   1.332   3.823   4.244
  936SOL     OW 3706   1.144   1.407   1.901
  936SOL    HW1 3707   1.136   1.360   1.989
  936SOL    HW2 3708   1.240   1.407   1.872
  937SOL     OW 3709   5.053   2.289   3.637
  937SOL    HW1 3710   4.970   2.343   3.622
  937SOL    HW2 3711   5.047   2.244   3.726
  938SOL     OW 3712   0.577   0.839   6.400
  938SOL    HW1 3713   0.500   0.868   6.344
  938SOL    HW2 3714   0.661   0.846   6.347
  939SOL     OW 3715   6.079   0.967   4.502
  939SOL    HW1 3716   6.178   0.977   4.515
  939SOL    HW2 3717   6.042   0.910   4.575
  940SOL     OW 3718   6.596   0.350   3.818
  940SOL    HW1 3719   6.678   0.392   3.857
  940SOL    HW2 3720   6.622   0.272   3.762
  941SOL     OW 3721   5.920   2.591   5.625
  941SOL    HW1 3722   5.858   2.628   5.556
  941SOL    HW2 3723   5.867   2.562   5.705
  942SOL     OW 3724   4.571   6.876   5.155
  942SOL    HW1 3725   4.547   6.780   5.136
  942SOL    HW2 3726   4.500   6.936   5.118
  943SOL     OW 3727   5.099   2.420   0.138
  943SOL    HW1 3728   5.066   2.352   0.203
  943SOL    HW2 3729   5.133   2.500   0.187
  944SOL     OW 3730   4.954   4.295   3.877
  944SOL    HW1 3731   4.947   4.329   3.783
  944SOL    HW2 3732   4.885   4.224   3.892
  945SOL     OW 3733   5.922   3.376   6.672
  945SOL    HW1 3734   5.859   3.447   6.703
  945SOL    HW2 3735   5.938   3.311   6.747
  946SOL     OW 3736   6.147   3.675   6.915
  946SOL    HW1 3737   6.217   3.628   6.861
  946SOL    HW2 3738   6.059   3.671   6.866
  947SOL     OW 3739   0.776   2.850   5.210
  947SOL    HW1 3740   0.744   2.755   5.220
  947SOL    HW2 3741   0.790   2.890   5.300
  948SOL     OW 3742   3.527   1.601   0.524
  948SOL    HW1 3743   3.627   1.604   0.530
  948SOL    HW2 3744   3.488   1.590   0.615
  949SOL     OW 3745   5.358   6.314   6.249
  949SOL    HW1 3746   5.271   6.303   6.297
  949SOL    HW2 3747   5.427   6.350   6.312
  950SOL     OW 3748   3.239   5.203   1.020
  950SOL    HW1 3749   3.254   5.132   0.951
  950SOL    HW2 3750   3.170   5.171   1.086
  951SOL     OW 3751   1.384   2.927   3.836
  951SOL    HW1 3752   1.368   2.995   3.908
  951SOL    HW2 3753   1.449   2.964   3.769
  952SOL     OW 3754   5.023   1.246   1.183
  952SOL    HW1 3755   5.048   1.151   1.168
  952SOL    HW2 3756   4.947   1.251   1.248
  953SOL     OW 3757   4.541   6.532   5.870
  953SOL    HW1 3758   4.447   6.501   5.851
  953SOL    HW2 3759   4.561   6.612   5.814
  954SOL     OW 3760   6.182   0.258   1.421
  954SOL    HW1 3761   6.118   0.331   1.446
  954SOL    HW2 3762   6.209   0.269   1.326
  955SOL     OW 3763   0.847   5.962   2.717
  955SOL    HW1 3764   0.854   6.050   2.668
  955SOL    HW2 3765   0.793   5.974   2.800
  956SOL     OW 3766   1.840   2.648   0.760
  956SOL    HW1 3767   1.742   2.652   0.739
  956SOL    HW2 3768   1.886   2.727   0.721
  957SOL     OW 3769   2.066   6.456   4.944
  957SOL    HW1 3770   1.991   6.521   4.938
  957SOL    HW2 3771   2.065   6.412   5.034
  958SOL     OW 3772   4.594   2.710   6.738
  958SOL    HW1 3773   4.653   2.644   6.692
  958SOL    HW2 3774   4.609   2.707   6.836
  959SOL     OW 3775   1.837   3.933   0.547
  959SOL    HW1 3776   1.811   3.842   0.516
  959SOL    HW2 3777   1.755   3.986   0.568
  960SOL     OW 3778   1.526   4.598   5.897
  960SOL    HW1 3779   1.555   4.512   5.854
  960SOL    HW2 3780   1.547   4.674   5.835
  961SOL     OW 3781   3.452   6.597   6.810
  961SOL    HW1 3782   3.368   6.594   6.754
  961SOL    HW2 3783   3.465   6.509   6.855
  962SOL     OW 3784   1.028   0.234   3.323
  962SOL    HW1 3785   1.009   0.253   3.227
  962SOL    HW2 3786   1.010   0.137   3.343
  963SOL     OW 3787   5.804   6.948   2.191
  963SOL    HW1 3788   5.709   6.915   2.197
  963SOL    HW2 3789   5.842   6.958   2.283
  964SOL     OW 3790   5.887   3.991   1.388
  964SOL    HW1 3791   5.810   3.950   1.436
  964SOL    HW2 3792   5.875   3.978   1.290
  965SOL     OW 3793   1.915   1.731   0.462
  965SOL    HW1 3794   1.964   1.789   0.528
  965SOL    HW2 3795   1.838   1.782   0.425
  966SOL     OW 3796   6.329   2.477   2.215
  966SOL    HW1 3797   6.311   2.543   2.142
  966SOL    HW2 3798   6.245   2.460   2.266
  967SOL     OW 3799   1.160   5.365   2.669
  967SOL    HW1 3800   1.148   5.392   2.574
  967SOL    HW2 3801   1.104   5.424   2.728
  968SOL     OW 3802   6.783   4.206   0.105
  968SOL    HW1 3803   6.811   4.134   0.042
  968SOL    HW2 3804   6.716   4.265   0.059
  969SOL     OW 3805   3.935   6.147   6.203
  969SOL    HW1 3806   3.924   6.076   6.274
  969SOL    HW2 3807   3.964   6.232   6.246
  970SOL     OW 3808   5.352   3.340   6.234
  970SOL    HW1 3809   5.392   3.385   6.154
  970SOL    HW2 3810   5.271   3.289   6.206
  971SOL     OW 3811   0.339   2.845   0.045
  971SOL    HW1 3812   0.390   2.906   0.106
  971SOL    HW2 3813   0.378   2.753   0.052
  972SOL     OW 3814   4.874   6.707   0.420
  972SOL    HW1 3815   4.847   6.612   0.435
  972SOL    HW2 3816   4.886   6.752   0.509
  973SOL     OW 3817   6.533   3.629   5.628
  973SOL    HW1 3818   6.553   3.618   5.726
  973SOL    HW2 3819   6.452   3.687   5.618
  974SOL     OW 3820   2.036   0.382   4.437
  974SOL    HW1 3821   2.007   0.471   4.400
  974SOL    HW2 3822   2.103   0.396   4.509
  975SOL     OW 3823   3.005   0.113   5.548
  975SOL    HW1 3824   3.024   0.207   5.519
  975SOL    HW2 3825   3.021   0.105   5.646
  976SOL     OW 3826   0.134   4.598   3.896
  976SOL    HW1 3827   0.035   4.604   3.884
  976SOL    HW2 3828   0.179   4.667   3.839
  977SOL     OW 3829   0.636   2.272   2.041
  977SOL    HW1 3830   0.722   2.321   2.032
  977SOL    HW2 3831   0.577   2.321   2.105
  978SOL     OW 3832   5.710   2.894   4.513
  978SOL    HW1 3833   5.660   2.831   4.453
  978SOL    HW2 3834   5.644   2.955   4.557
  979SOL     OW 3835   6.403   1.854   2.889
  979SOL    HW1 3836   6.445   1.801   2.962
  979SOL    HW2 3837   6.443   1.826   2.801
  980SOL     OW 3838   6.539   6.988   5.679
  980SOL    HW1 3839   6.627   6.952   5.708
  980SOL    HW2 3840   6.492   6.919   5.624
  981SOL     OW 3841   6.380   2.989   5.931
  981SOL    HW1 3842   6.344   3.076   5.965
  981SOL    HW2 3843   6.424   2.939   6.007
  982SOL     OW 3844   1.504   4.380   0.801
  982SOL    HW1 3845   1.558   4.412   0.878
  982SOL    HW2 3846   1.557   4.312   0.749
  983SOL     OW 3847   5.394   1.834   3.456
  983SOL    HW1 3848   5.422   1.760   3.516
  983SOL    HW2 3849   5.396   1.803   3.361
  984SOL     OW 3850   4.832   3.024   5.358
  984SOL    HW1 3851   4.899   3.095   5.381
  984SOL    HW2 3852   4.760   3.022   5.427
  985SOL     OW 3853   1.603   4.530   0.597
  985SOL    HW1 3854   1.615   4.467   0.520
  985SOL    HW2 3855   1.553   4.483   0.670
  986SOL     OW 3856   5.042   4.453   6.007
  986SOL    HW1 3857   4.955   4.419   6.043
  986SOL    HW2 3858   5.117   4.396   6.043
  987SOL     OW 3859   3.857   6.880   2.576
  987SOL    HW1 3860   3.871   6.837   2.487
  987SOL    HW2 3861   3.767   6.853   2.612
  988SOL     OW 3862   3.455   2.913   1.497
  988SOL    HW1 3863   3.396   2.870   1.566
  988SOL    HW2 3864   3.505   2.842   1.447
  989SOL     OW 3865   0.759   0.857   4.382
  989SOL    HW1 3866   0.702   0.923   4.333
  989SOL    HW2 3867   0.777   0.778   4.322
  990SOL     OW 3868   5.513   6.379   1.816
  990SOL    HW1 3869   5.602   6.359   1.776
  990SOL    HW2 3870   5.482   6.300   1.870
  991SOL     OW 3871   5.835   1.953   5.602
  991SOL    HW1 3872   5.792   1.955   5.692
  991SOL    HW2 3873   5.808   1.869   5.554
  992SOL     OW 3874   0.177   2.807   1.283
  992SOL    HW1 3875   0.142   2.747   1.211
  992SOL    HW2 3876   0.272   2.831   1.262
  993SOL     OW 3877   3.907   6.504   4.696
  993SOL    HW1 3878   3.942   6.414   4.670
  993SOL    HW2 3879   3.808   6.499   4.708
  994SOL     OW 3880   3.108   3.327   2.828
  994SOL    HW1 3881   3.121   3.361   2.921
  994SOL    HW2 3882   3.107   3.227   2.829
  995SOL     OW 3883   0.732   1.200   4.738
  995SOL    HW1 3884   0.784   1.261   4.798
  995SOL    HW2 3885   0.686   1.255   4.667
  996SOL     OW 3886   0.737   3.401   0.079
  996SOL    HW1 3887   0.736   3.377   0.176
  996SOL    HW2 3888   0.723   3.318   0.025
  997SOL     OW 3889   0.136   1.987   0.734
  997SOL    HW1 3890   0.147   1.980   0.635
  997SOL    HW2 3891   0.153   1.898   0.776
  998SOL     OW 3892   5.177   6.734   3.166
  998SOL    HW1 3893   5.147   6.829   3.157
  998SOL    HW2 3894   5.273   6.727   3.138
  999SOL     OW 3895   6.389   5.966   1.159
  999SOL    HW1 3896   6.291   5.978   1.174
  999SOL    HW2 3897   6.418   5.879   1.197
 1000SOL     OW 3898   4.314   2.007   4.612
 1000SOL    HW1 3899   4.376   1.929   4.621
 1000SOL    HW2 3900   4.221   1.975   4.596
 1001SOL     OW 3901   4.499   1.122   5.292
 1001SOL    HW1 3902   4.423   1.094   5.233
 1001SOL    HW2 3903   4.548   1.042   5.324
 1002SOL     OW 3904   0.398   1.202   0.756
 1002SOL    HW1 3905   0.378   1.216   0.659
 1002SOL    HW2 3906   0.389   1.289   0.804
 1003SOL     OW 3907   4.146   5.099   2.576
 1003SOL    HW1 3908   4.062   5.059   2.613
 1003SOL    HW2 3909   4.148   5.197   2.597
 1004SOL     OW 3910   5.875   5.797   0.102
 1004SOL    HW1 3911   5.937   5.769   0.029
 1004SOL    HW2 3912   5.781   5.769   0.079
 1005SOL     OW 3913   6.887   5.653   3.680
 1005SOL    HW1 3914   6.921   5.666   3.587
 1005SOL    HW2 3915   6.797   5.695   3.689
 1006SOL     OW 3916   1.789   4.666   0.105
 1006SOL    HW1 3917   1.767   4.584   0.053
 1006SOL    HW2 3918   1.705   4.703   0.146
 1007SOL     OW 3919   7.019   1.466   3.267
 1007SOL    HW1 3920   0.058   1.475   3.343
 1007SOL    HW2 3921   0.035   1.415   3.193
 1008SOL     OW 3922   2.886   2.245   5.131
 1008SOL    HW1 3923   2.971   2.278   5.091
 1008SOL    HW2 3924   2.844   2.317   5.187
 1009SOL     OW 3925   3.017   6.121   6.051
 1009SOL    HW1 3926   3.079   6.141   5.975
 1009SOL    HW2 3927   2.995   6.206   6.099
 1010SOL     OW 3928   5.321   0.134   5.300
 1010SOL    HW1 3929   5.240   0.192   5.310
 1010SOL    HW2 3930   5.329   0.105   5.204
 1011SOL     OW 3931   2.901   5.469   3.938
 1011SOL    HW1 3932   2.863   5.557   3.910
 1011SOL    HW2 3933   2.886   5.456   4.036
 1012SOL     OW 3934   3.610   6.138   1.146
 1012SOL    HW1 3935   3.700   6.101   1.126
 1012SOL    HW2 3936   3.618   6.214   1.210
 1013SOL     OW 3937   0.893   0.437   0.065
 1013SOL    HW1 3938   0.954   0.359   0.079
 1013SOL    HW2 3939   0.908   0.475   7.000
 1014SOL     OW 3940   6.132   6.833   5.899
 1014SOL    HW1 3941   6.165   6.743   5.869
 1014SOL    HW2 3942   6.032   6.834   5.897
 1015SOL     OW 3943   2.705   0.618   4.849
 1015SOL    HW1 3944   2.765   0.589   4.775
 1015SOL    HW2 3945   2.612   0.631   4.813
 1016SOL     OW 3946   4.119   2.915   1.726
 1016SOL    HW1 3947   4.098   3.010   1.745
 1016SOL    HW2 3948   4.193   2.910   1.659
 1017SOL     OW 3949   5.053   0.759   5.960
 1017SOL    HW1 3950   5.098   0.675   5.991
 1017SOL    HW2 3951   5.109   0.837   5.986
 1018SOL     OW 3952   1.646   2.898   1.625
 1018SOL    HW1 3953   1.666   2.807   1.661
 1018SOL    HW2 3954   1.594   2.950   1.694
 1019SOL     OW 3955   6.081   1.907   0.676
 1019SOL    HW1 3956   6.126   1.825   0.711
 1019SOL    HW2 3957   6.149   1.965   0.630
 1020SOL     OW 3958   3.562   2.078   1.788
 1020SOL    HW1 3959   3.610   2.164   1.804
 1020SOL    HW2 3960   3.611   2.023   1.721
 1021SOL     OW 3961   6.705   1.138   1.179
 1021SOL    HW1 3962   6.801   1.116   1.160
 1021SOL    HW2 3963   6.673   1.082   1.255
 1022SOL     OW 3964   3.089   2.490   6.888
 1022SOL    HW1 3965   3.102   2.549   6.808
 1022SOL    HW2 3966   3.178   2.465   6.925
 1023SOL     OW 3967   6.831   0.772   4.732
 1023SOL    HW1 3968   6.921   0.792   4.693
 1023SOL    HW2 3969   6.807   0.677   4.712
 1024SOL     OW 3970   6.350   2.726   3.757
 1024SOL    HW1 3971   6.286   2.658   3.722
 1024SOL    HW2 3972   6.306   2.816   3.758
 1025SOL     OW 3973   2.920   4.745   1.431
 1025SOL    HW1 3974   2.945   4.704   1.519
 1025SOL    HW2 3975   2.895   4.840   1.444
 1026SOL     OW 3976   0.576   2.246   6.059
 1026SOL    HW1 3977   0.570   2.346   6.052
 1026SOL    HW2 3978   0.649   2.213   5.999
 1027SOL     OW 3979   2.471   4.649   1.276
 1027SOL    HW1 3980   2.560   4.622   1.314
 1027SOL    HW2 3981   2.428   4.716   1.336
 1028SOL     OW 3982   0.032   5.571   0.190
 1028SOL    HW1 3983   7.014   5.648   0.236
 1028SOL    HW2 3984   7.012   5.486   0.216
 1029SOL     OW 3985   3.629   0.416   4.840
 1029SOL    HW1 3986   3.649   0.432   4.743
 1029SOL    HW2 3987   3.714   0.397   4.888
 1030SOL     OW 3988   3.811   4.840   5.273
 1030SOL    HW1 3989   3.830   4.876   5.181
 1030SOL    HW2 3990   3.715   4.814   5.279
 1031SOL     OW 3991   2.532   5.848   0.912
 1031SOL    HW1 3992   2.448   5.900   0.927
 1031SOL    HW2 3993   2.509   5.758   0.872
 1032SOL     OW 3994   1.243   1.536   4.892
 1032SOL    HW1 3995   1.322   1.590   4.921
 1032SOL    HW2 3996   1.180   1.595   4.841
 1033SOL     OW 3997   2.386   6.978   2.228
 1033SOL    HW1 3998   2.363   6.881   2.238
 1033SOL    HW2 3999   2.303   0.004   2.208
 1034SOL     OW 4000   0.968   6.682   2.109
 1034SOL    HW1 4001   0.926   6.680   2.018
 1034SOL    HW2 4002   0.919   6.620   2.170
 1035SOL     OW 4003   3.457   1.648   2.766
 1035SOL    HW1 4004   3.452   1.718   2.837
 1035SOL    HW2 4005   3.443   1.691   2.676
 1036SOL     OW 4006   4.683   6.758   6.802
 1036SOL    HW1 4007   4.709   6.691   6.733
 1036SOL    HW2 4008   4.752   6.759   6.874
 1037SOL     OW 4009   3.684   1.496   6.084
 1037SOL    HW1 4010   3.592   1.491   6.124
 1037SOL    HW2 4011   3.744   1.433   6.133
 1038SOL     OW 4012   2.642   2.165   5.576
 1038SOL    HW1 4013   2.669   2.068   5.571
 1038SOL    HW2 4014   2.713   2.217   5.622
 1039SOL     OW 4015   4.947   1.783   3.628
 1039SOL    HW1 4016   4.917   1.796   3.722
 1039SOL    HW2 4017   4.978   1.870   3.590
 1040SOL     OW 4018   6.301   3.848   4.171
 1040SOL    HW1 4019   6.372   3.813   4.233
 1040SOL    HW2 4020   6.279   3.780   4.102
 1041SOL     OW 4021   1.781   6.889   4.525
 1041SOL    HW1 4022   1.781   6.989   4.520
 1041SOL    HW2 4023   1.693   6.854   4.491
 1042SOL     OW 4024   4.509   4.006   0.582
 1042SOL    HW1 4025   4.478   3.942   0.652
 1042SOL    HW2 4026   4.604   3.984   0.557
 1043SOL     OW 4027   4.091   0.504   6.748
 1043SOL    HW1 4028   4.050   0.472   6.662
 1043SOL    HW2 4029   4.132   0.594   6.734
 1044SOL     OW 4030   3.943   3.808   2.994
 1044SOL    HW1 4031   4.022   3.766   2.949
 1044SOL    HW2 4032   3.865   3.745   2.989
 1045SOL     OW 4033   4.075   0.840   3.458
 1045SOL    HW1 4034   4.077   0.892   3.373
 1045SOL    HW2 4035   4.018   0.887   3.525
 1046SOL     OW 4036   3.216   0.697   2.171
 1046SOL    HW1 4037   3.214   0.625   2.102
 1046SOL    HW2 4038   3.189   0.659   2.260
 1047SOL     OW 4039   0.491   5.988   1.784
 1047SOL    HW1 4040   0.579   6.017   1.822
 1047SOL    HW2 4041   0.437   6.068   1.758
 1048SOL     OW 4042   6.304   3.893   5.070
 1048SOL    HW1 4043   6.336   3.925   4.981
 1048SOL    HW2 4044   6.370   3.828   5.108
 1049SOL     OW 4045   0.589   3.182   5.609
 1049SOL    HW1 4046   0.530   3.163   5.531
 1049SOL    HW2 4047   0.668   3.235   5.579
 1050SOL     OW 4048   2.615   0.824   1.159
 1050SOL    HW1 4049   2.654   0.847   1.248
 1050SOL    HW2 4050   2.532   0.879   1.144
 1051SOL     OW 4051   4.998   4.523   1.714
 1051SOL    HW1 4052   4.946   4.574   1.646
 1051SOL    HW2 4053   5.017   4.581   1.793
 1052SOL     OW 4054   3.660   0.447   3.805
 1052SOL    HW1 4055   3.679   0.537   3.846
 1052SOL    HW2 4056   3.735   0.385   3.825
 1053SOL     OW 4057   3.464   4.948   3.721
 1053SOL    HW1 4058   3.492   5.042   3.704
 1053SOL    HW2 4059   3.465   4.930   3.819
 1054SOL     OW 4060   4.452   5.889   4.780
 1054SOL    HW1 4061   4.432   5.809   4.723
 1054SOL    HW2 4062   4.548   5.914   4.769
 1055SOL     OW 4063   3.714   4.926   4.757
 1055SOL    HW1 4064   3.647   4.892   4.822
 1055SOL    HW2 4065   3.676   4.924   4.665
 1056SOL     OW 4066   2.682   6.064   6.896
 1056SOL    HW1 4067   2.614   6.009   6.945
 1056SOL    HW2 4068   2.754   6.093   6.958
 1057SOL     OW 4069   3.905   4.020   1.360
 1057SOL    HW1 4070   3.858   3.997   1.275
 1057SOL    HW2 4071   3.853   3.982   1.437
 1058SOL     OW 4072   2.773   6.574   2.164
 1058SOL    HW1 4073   2.860   6.545   2.202
 1058SOL    HW2 4074   2.788   6.650   2.101
 1059SOL     OW 4075   3.792   0.736   0.494
 1059SOL    HW1 4076   3.790   0.699   0.402
 1059SOL    HW2 4077   3.698   0.742   0.530
 1060SOL     OW 4078   3.525   1.436   4.096
 1060SOL    HW1 4079   3.587   1.514   4.100
 1060SOL    HW2 4080   3.458   1.443   4.170
 1061SOL     OW 4081   2.181   5.768   1.395
 1061SOL    HW1 4082   2.083   5.770   1.376
 1061SOL    HW2 4083   2.231   5.767   1.308
 1062SOL     OW 4084   4.923   4.426   4.386
 1062SOL    HW1 4085   5.019   4.421   4.413
 1062SOL    HW2 4086   4.870   4.471   4.458
 1063SOL     OW 4087   2.879   2.382   6.219
 1063SOL    HW1 4088   2.932   2.348   6.141
 1063SOL    HW2 4089   2.793   2.331   6.224
 1064SOL     OW 4090   0.367   2.864   1.946
 1064SOL    HW1 4091   0.374   2.891   2.042
 1064SOL    HW2 4092   0.278   2.820   1.930
 1065SOL     OW 4093   4.750   5.011   5.846
 1065SOL    HW1 4094   4.765   4.994   5.943
 1065SOL    HW2 4095   4.777   5.105   5.824
 1066SOL     OW 4096   4.799   0.242   3.538
 1066SOL    HW1 4097   4.769   0.176   3.468
 1066SOL    HW2 4098   4.720   0.273   3.591
 1067SOL     OW 4099   2.970   3.963   0.111
 1067SOL    HW1 4100   3.024   3.941   0.029
 1067SOL    HW2 4101   2.941   4.059   0.107
 1068SOL     OW 4102   0.605   4.980   1.519
 1068SOL    HW1 4103   0.555   4.900   1.484
 1068SOL    HW2 4104   0.545   5.032   1.580
 1069SOL     OW 4105   3.718   2.874   2.437
 1069SOL    HW1 4106   3.730   2.777   2.458
 1069SOL    HW2 4107   3.738   2.890   2.340
 1070SOL     OW 4108   2.189   6.663   0.595
 1070SOL    HW1 4109   2.104   6.629   0.555
 1070SOL    HW2 4110   2.231   6.591   0.651
 1071SOL     OW 4111   4.977   5.334   3.327
 1071SOL    HW1 4112   4.912   5.259   3.326
 1071SOL    HW2 4113   4.969   5.387   3.242
 1072SOL     OW 4114   3.873   5.762   3.108
 1072SOL    HW1 4115   3.883   5.673   3.152
 1072SOL    HW2 4116   3.778   5.793   3.118
 1073SOL     OW 4117   2.787   5.413   3.483
 1073SOL    HW1 4118   2.849   5.383   3.411
 1073SOL    HW2 4119   2.794   5.512   3.494
 1074SOL     OW 4120   1.786   5.122   3.338
 1074SOL    HW1 4121   1.784   5.048   3.406
 1074SOL    HW2 4122   1.877   5.127   3.298
 1075SOL     OW 4123   0.586   3.834   2.770
 1075SOL    HW1 4124   0.497   3.867   2.738
 1075SOL    HW2 4125   0.592   3.844   2.869
 1076SOL     OW 4126   6.475   3.914   2.959
 1076SOL    HW1 4127   6.459   3.962   2.872
 1076SOL    HW2 4128   6.530   3.833   2.942
 1077SOL     OW 4129   4.627   6.935   1.912
 1077SOL    HW1 4130   4.545   6.934   1.855
 1077SOL    HW2 4131   4.700   6.984   1.864
 1078SOL     OW 4132   7.010   2.997   2.052
 1078SOL    HW1 4133   0.026   2.912   2.020
 1078SOL    HW2 4134   0.051   3.070   2.049
 1079SOL     OW 4135   1.687   4.650   3.526
 1079SOL    HW1 4136   1.787   4.651   3.527
 1079SOL    HW2 4137   1.655   4.560   3.496
 1080SOL     OW 4138   1.906   5.522   4.014
 1080SOL    HW1 4139   1.866   5.581   4.083
 1080SOL    HW2 4140   1.892   5.426   4.040
 1081SOL     OW 4141   1.508   0.626   0.073
 1081SOL    HW1 4142   1.512   0.725   0.065
 1081SOL    HW2 4143   1.561   0.596   0.153
 1082SOL     OW 4144   2.209   0.117   1.157
 1082SOL    HW1 4145   2.146   0.079   1.089
 1082SOL    HW2 4146   2.288   0.156   1.110
 1083SOL     OW 4147   3.724   2.606   1.767
 1083SOL    HW1 4148   3.694   2.674   1.834
 1083SOL    HW2 4149   3.721   2.515   1.808
 1084SOL     OW 4150   6.795   3.830   1.205
 1084SOL    HW1 4151   6.826   3.817   1.299
 1084SOL    HW2 4152   6.799   3.927   1.182
 1085SOL     OW 4153   1.665   5.611   4.414
 1085SOL    HW1 4154   1.589   5.666   4.382
 1085SOL    HW2 4155   1.631   5.539   4.474
 1086SOL     OW 4156   2.784   5.661   2.252
 1086SOL    HW1 4157   2.707   5.597   2.255
 1086SOL    HW2 4158   2.818   5.669   2.158
 1087SOL     OW 4159   3.524   3.054   4.923
 1087SOL    HW1 4160   3.452   3.049   4.854
 1087SOL    HW2 4161   3.552   2.961   4.949
 1088SOL     OW 4162   0.189   4.475   2.706
 1088SOL    HW1 4163   0.175   4.495   2.609
 1088SOL    HW2 4164   0.150   4.385   2.728
 1089SOL     OW 4165   6.712   0.295   3.047
 1089SOL    HW1 4166   6.701   0.251   2.958
 1089SOL    HW2 4167   6.768   0.238   3.106
 1090SOL     OW 4168   1.847   2.445   6.638
 1090SOL    HW1 4169   1.929   2.457   6.582
 1090SOL    HW2 4170   1.839   2.522   6.702
 1091SOL     OW 4171   0.662   2.333   5.492
 1091SOL    HW1 4172   0.707   2.245   5.505
 1091SOL    HW2 4173   0.721   2.393   5.438
 1092SOL     OW 4174   2.488   4.727   1.573
 1092SOL    HW1 4175   2.551   4.653   1.550
 1092SOL    HW2 4176   2.400   4.710   1.529
 1093SOL     OW 4177   0.140   2.659   1.717
 1093SOL    HW1 4178   0.089   2.687   1.635
 1093SOL    HW2 4179   0.214   2.598   1.691
 1094SOL     OW 4180   0.905   6.216   2.681
 1094SOL    HW1 4181   0.951   6.167   2.755
 1094SOL    HW2 4182   0.923   6.314   2.689
 1095SOL     OW 4183   0.785   3.493   6.470
 1095SOL    HW1 4184   0.778   3.592   6.476
 1095SOL    HW2 4185   0.741   3.461   6.386
 1096SOL     OW 4186   3.655   3.154   1.973
 1096SOL    HW1 4187   3.580   3.133   2.036
 1096SOL    HW2 4188   3.679   3.251   1.980
 1097SOL     OW 4189   2.849   4.675   5.957
 1097SOL    HW1 4190   2.787   4.651   6.031
 1097SOL    HW2 4191   2.864   4.774   5.957
 1098SOL     OW 4192   3.812   0.119   2.629
 1098SOL    HW1 4193   3.822   0.025   2.598
 1098SOL    HW2 4194   3.779   0.176   2.553
 1099SOL     OW 4195   3.527   0.222   2.011
 1099SOL    HW1 4196   3.479   0.279   1.945
 1099SOL    HW2 4197   3.621   0.254   2.020
 1100SOL     OW 4198   6.698   0.896   0.339
 1100SOL    HW1 4199   6.725   0.974   0.397
 1100SOL    HW2 4200   6.730   0.811   0.381
 1101SOL     OW 4201   5.196   2.738   0.972
 1101SOL    HW1 4202   5.275   2.679   0.957
 1101SOL    HW2 4203   5.227   2.831   0.993
 1102SOL     OW 4204   0.501   3.456   4.253
 1102SOL    HW1 4205   0.530   3.377   4.307
 1102SOL    HW2 4206   0.416   3.434   4.205
 1103SOL     OW 4207   0.076   3.388   0.001
 1103SOL    HW1 4208   0.027   3.302   0.009
 1103SOL    HW2 4209   0.022   3.462   0.042
 1104SOL     OW 4210   2.480   5.890   5.991
 1104SOL    HW1 4211   2.500   5.891   6.089
 1104SOL    HW2 4212   2.547   5.834   5.943
 1105SOL     OW 4213   4.101   5.433   1.049
 1105SOL    HW1 4214   4.099   5.425   1.149
 1105SOL    HW2 4215   4.068   5.523   1.022
 1106SOL     OW 4216   0.996   1.354   6.816
 1106SOL    HW1 4217   1.038   1.387   6.901
 1106SOL    HW2 4218   0.979   1.432   6.756
 1107SOL     OW 4219   6.890   0.332   1.856
 1107SOL    HW1 4220   6.948   0.267   1.905
 1107SOL    HW2 4221   6.876   0.414   1.912
 1108SOL     OW 4222   1.302   1.288   0.299
 1108SOL    HW1 4223   1.204   1.267   0.293
 1108SOL    HW2 4224   1.319   1.378   0.259
 1109SOL     OW 4225   4.332   1.134   3.760
 1109SOL    HW1 4226   4.353   1.101   3.852
 1109SOL    HW2 4227   4.396   1.094   3.694
 1110SOL     OW 4228   3.514   2.927   2.659
 1110SOL    HW1 4229   3.433   2.952   2.606
 1110SOL    HW2 4230   3.596   2.960   2.612
 1111SOL     OW 4231   4.380   6.787   6.867
 1111SOL    HW1 4232   4.478   6.776   6.855
 1111SOL    HW2 4233   4.345   6.714   6.925
 1112SOL     OW 4234   1.183   1.403   2.433
 1112SOL    HW1 4235   1.215   1.313   2.405
 1112SOL    HW2 4236   1.167   1.404   2.532
 1113SOL     OW 4237   6.301   3.557   1.560
 1113SOL    HW1 4238   6.283   3.461   1.581
 1113SOL    HW2 4239   6.293   3.573   1.462
 1114SOL     OW 4240   5.913   1.348   5.538
 1114SOL    HW1 4241   5.846   1.418   5.565
 1114SOL    HW2 4242   5.975   1.387   5.470
 1115SOL     OW 4243   2.325   4.762   0.829
 1115SOL    HW1 4244   2.374   4.695   0.885
 1115SOL    HW2 4245   2.230   4.769   0.861
 1116SOL     OW 4246   3.626   6.217   6.328
 1116SOL    HW1 4247   3.594   6.240   6.419
 1116SOL    HW2 4248   3.670   6.297   6.287
 1117SOL     OW 4249   2.603   3.412   0.874
 1117SOL    HW1 4250   2.598   3.477   0.798
 1117SOL    HW2 4251   2.632   3.460   0.957
 1118SOL     OW 4252   1.515   3.206   1.329
 1118SOL    HW1 4253   1.568   3.225   1.412
 1118SOL    HW2 4254   1.460   3.285   1.305
 1119SOL     OW 4255   2.964   3.821   3.442
 1119SOL    HW1 4256   3.023   3.876   3.500
 1119SOL    HW2 4257   2.977   3.847   3.346
 1120SOL     OW 4258   3.829   1.009   3.946
 1120SOL    HW1 4259   3.893   1.054   3.884
 1120SOL    HW2 4260   3.880   0.960   4.017
 1121SOL     OW 4261   5.178   3.485   3.535
 1121SOL    HW1 4262   5.221   3.479   3.445
 1121SOL    HW2 4263   5.087   3.525   3.526
 1122SOL     OW 4264   4.637   5.370   6.496
 1122SOL    HW1 4265   4.595   5.420   6.572
 1122SOL    HW2 4266   4.676   5.284   6.530
 1123SOL     OW 4267   3.621   1.059   2.111
 1123SOL    HW1 4268   3.568   1.143   2.107
 1123SOL    HW2 4269   3.565   0.982   2.082
 1124SOL     OW 4270   1.926   5.207   4.347
 1124SOL    HW1 4271   1.928   5.120   4.296
 1124SOL    HW2 4272   1.836   5.250   4.336
 1125SOL     OW 4273   3.244   3.559   5.013
 1125SOL    HW1 4274   3.199   3.638   5.055
 1125SOL    HW2 4275   3.258   3.577   4.915
 1126SOL     OW 4276   6.241   0.515   2.419
 1126SOL    HW1 4277   6.166   0.527   2.354
 1126SOL    HW2 4278   6.289   0.430   2.399
 1127SOL     OW 4279   2.172   5.839   6.319
 1127SOL    HW1 4280   2.223   5.918   6.353
 1127SOL    HW2 4281   2.077   5.844   6.351
 1128SOL     OW 4282   2.372   2.433   4.505
 1128SOL    HW1 4283   2.449   2.373   4.529
 1128SOL    HW2 4284   2.335   2.406   4.416
 1129SOL     OW 4285   4.176   6.038   6.036
 1129SOL    HW1 4286   4.116   6.100   6.086
 1129SOL    HW2 4287   4.122   5.965   5.994
 1130SOL     OW 4288   0.268   5.204   5.577
 1130SOL    HW1 4289   0.200   5.172   5.512
 1130SOL    HW2 4290   0.344   5.139   5.581
 1131SOL     OW 4291   6.861   4.830   5.875
 1131SOL    HW1 4292   6.805   4.750   5.899
 1131SOL    HW2 4293   6.888   4.824   5.779
 1132SOL     OW 4294   5.701   6.565   4.906
 1132SOL    HW1 4295   5.638   6.540   4.833
 1132SOL    HW2 4296   5.691   6.662   4.928
 1133SOL     OW 4297   6.881   2.406   6.899
 1133SOL    HW1 4298   6.836   2.491   6.925
 1133SOL    HW2 4299   6.814   2.344   6.856
 1134SOL     OW 4300   0.273   2.779   6.270
 1134SOL    HW1 4301   0.287   2.693   6.222
 1134SOL    HW2 4302   0.234   2.847   6.207
 1135SOL     OW 4303   6.851   1.580   4.448
 1135SOL    HW1 4304   6.812   1.612   4.534
 1135SOL    HW2 4305   6.818   1.488   4.427
 1136SOL     OW 4306   3.377   5.255   4.307
 1136SOL    HW1 4307   3.304   5.296   4.251
 1136SOL    HW2 4308   3.352   5.262   4.404
 1137SOL     OW 4309   1.434   0.917   0.101
 1137SOL    HW1 4310   1.446   0.935   0.003
 1137SOL    HW2 4311   1.338   0.896   0.119
 1138SOL     OW 4312   1.089   3.839   5.912
 1138SOL    HW1 4313   1.034   3.795   5.841
 1138SOL    HW2 4314   1.146   3.771   5.958
 1139SOL     OW 4315   0.671   0.367   2.640
 1139SOL    HW1 4316   0.749   0.310   2.667
 1139SOL    HW2 4317   0.595   0.308   2.612
 1140SOL     OW 4318   3.938   2.189   2.992
 1140SOL    HW1 4319   3.942   2.152   3.085
 1140SOL    HW2 4320   3.908   2.117   2.929
 1141SOL     OW 4321   6.751   6.224   6.146
 1141SOL    HW1 4322   6.672   6.285   6.138
 1141SOL    HW2 4323   6.834   6.272   6.120
 1142SOL     OW 4324   6.935   0.358   4.815
 1142SOL    HW1 4325   6.893   0.378   4.726
 1142SOL    HW2 4326   6.934   0.441   4.871
 1143SOL     OW 4327   4.792   2.299   1.151
 1143SOL    HW1 4328   4.763   2.233   1.221
 1143SOL    HW2 4329   4.885   2.330   1.172
 1144SOL     OW 4330   0.993   6.218   5.108
 1144SOL    HW1 4331   1.064   6.274   5.064
 1144SOL    HW2 4332   0.905   6.266   5.103
 1145SOL     OW 4333   1.929   5.040   4.849
 1145SOL    HW1 4334   2.020   5.061   4.813
 1145SOL    HW2 4335   1.921   4.942   4.865
 1146SOL     OW 4336   5.891   1.616   1.554
 1146SOL    HW1 4337   5.795   1.606   1.579
 1146SOL    HW2 4338   5.899   1.626   1.454
 1147SOL     OW 4339   6.550   3.547   1.978
 1147SOL    HW1 4340   6.620   3.603   2.022
 1147SOL    HW2 4341   6.509   3.597   1.902
 1148SOL     OW 4342   5.495   0.868   6.139
 1148SOL    HW1 4343   5.495   0.935   6.213
 1148SOL    HW2 4344   5.477   0.914   6.052
 1149SOL     OW 4345   5.670   2.922   2.981
 1149SOL    HW1 4346   5.681   2.932   2.882
 1149SOL    HW2 4347   5.647   2.828   3.002
 1150SOL     OW 4348   1.623   5.547   5.640
 1150SOL    HW1 4349   1.706   5.498   5.612
 1150SOL    HW2 4350   1.637   5.587   5.731
 1151SOL     OW 4351   2.416   5.239   0.042
 1151SOL    HW1 4352   2.506   5.242   0.086
 1151SOL    HW2 4353   2.380   5.146   0.048
 1152SOL     OW 4354   0.372   1.044   3.355
 1152SOL    HW1 4355   0.426   0.960   3.365
 1152SOL    HW2 4356   0.370   1.093   3.442
 1153SOL     OW 4357   2.446   4.901   2.600
 1153SOL    HW1 4358   2.452   4.874   2.504
 1153SOL    HW2 4359   2.537   4.928   2.633
 1154SOL     OW 4360   1.277   4.411   2.222
 1154SOL    HW1 4361   1.224   4.388   2.304
 1154SOL    HW2 4362   1.373   4.388   2.237
 1155SOL     OW 4363   4.390   0.435   2.111
 1155SOL    HW1 4364   4.411   0.353   2.058
 1155SOL    HW2 4365   4.450   0.440   2.191
 1156SOL     OW 4366   1.839   0.886   4.225
 1156SOL    HW1 4367   1.851   0.958   4.293
 1156SOL    HW2 4368   1.855   0.923   4.134
 1157SOL     OW 4369   1.745   3.136   3.869
 1157SOL    HW1 4370   1.649   3.164   3.870
 1157SOL    HW2 4371   1.752   3.044   3.831
 1158SOL     OW 4372   4.570   6.191   6.160
 1158SOL    HW1 4373   4.621   6.136   6.225
 1158SOL    HW2 4374   4.532   6.132   6.088
 1159SOL     OW 4375   6.130   4.236   2.598
 1159SOL    HW1 4376   6.221   4.254   2.635
 1159SOL    HW2 4377   6.088   4.323   2.570
 1160SOL     OW 4378   2.553   2.657   1.096
 1160SOL    HW1 4379   2.593   2.734   1.046
 1160SOL    HW2 4380   2.511   2.593   1.032
 1161SOL     OW 4381   4.187   0.714   3.650
 1161SOL    HW1 4382   4.167   0.753   3.559
 1161SOL    HW2 4383   4.118   0.645   3.672
 1162SOL     OW 4384   3.296   5.105   1.594
 1162SOL    HW1 4385   3.262   5.078   1.504
 1162SOL    HW2 4386   3.231   5.168   1.636
 1163SOL     OW 4387   5.109   6.981   2.322
 1163SOL    HW1 4388   5.179   6.936   2.268
 1163SOL    HW2 4389   5.122   6.959   2.419
 1164SOL     OW 4390   6.505   3.946   4.590
 1164SOL    HW1 4391   6.568   3.878   4.626
 1164SOL    HW2 4392   6.529   4.036   4.627
 1165SOL     OW 4393   0.856   4.626   2.354
 1165SOL    HW1 4394   0.899   4.561   2.416
 1165SOL    HW2 4395   0.758   4.609   2.350
 1166SOL     OW 4396   3.343   1.159   6.865
 1166SOL    HW1 4397   3.292   1.221   6.924
 1166SOL    HW2 4398   3.348   1.069   6.908
 1167SOL     OW 4399   4.263   1.791   5.793
 1167SOL    HW1 4400   4.260   1.872   5.735
 1167SOL    HW2 4401   4.189   1.728   5.766
 1168SOL     OW 4402   5.724   0.524   3.388
 1168SOL    HW1 4403   5.702   0.492   3.480
 1168SOL    HW2 4404   5.794   0.596   3.394
 1169SOL     OW 4405   1.096   3.179   0.863
 1169SOL    HW1 4406   1.119   3.087   0.897
 1169SOL    HW2 4407   1.175   3.239   0.874
 1170SOL     OW 4408   2.675   0.816   1.543
 1170SOL    HW1 4409   2.727   0.870   1.610
 1170SOL    HW2 4410   2.617   0.877   1.490
 1171SOL     OW 4411   3.776   1.023   0.485
 1171SOL    HW1 4412   3.698   1.071   0.444
 1171SOL    HW2 4413   3.770   0.925   0.462
 1172SOL     OW 4414   3.129   3.766   5.785
 1172SOL    HW1 4415   3.140   3.844   5.723
 1172SOL    HW2 4416   3.198   3.697   5.763
 1173SOL     OW 4417   5.451   6.978   5.450
 1173SOL    HW1 4418   5.446   7.007   5.546
 1173SOL    HW2 4419   5.409   0.022   5.392
 1174SOL     OW 4420   3.955   5.905   6.709
 1174SOL    HW1 4421   3.999   5.949   6.787
 1174SOL    HW2 4422   3.953   5.806   6.723
 1175SOL     OW 4423   6.950   5.233   4.534
 1175SOL    HW1 4424   0.003   5.191   4.578
 1175SOL    HW2 4425   6.973   5.257   4.440
 1176SOL     OW 4426   5.804   2.655   1.197
 1176SOL    HW1 4427   5.852   2.585   1.249
 1176SOL    HW2 4428   5.737   2.700   1.256
 1177SOL     OW 4429   6.566   3.265   6.446
 1177SOL    HW1 4430   6.577   3.351   6.496
 1177SOL    HW2 4431   6.627   3.265   6.367
 1178SOL     OW 4432   5.333   4.729   2.619
 1178SOL    HW1 4433   5.363   4.646   2.572
 1178SOL    HW2 4434   5.235   4.724   2.637
 1179SOL     OW 4435   1.293   5.448   6.080
 1179SOL    HW1 4436   1.384   5.421   6.111
 1179SOL    HW2 4437   1.241   5.485   6.157
 1180SOL     OW 4438   2.199   0.280   4.054
 1180SOL    HW1 4439   2.117   0.322   4.015
 1180SOL    HW2 4440   2.273   0.284   3.987
 1181SOL     OW 4441   1.488   4.835   2.377
 1181SOL    HW1 4442   1.440   4.783   2.306
 1181SOL    HW2 4443   1.530   4.771   2.442
 1182SOL     OW 4444   1.606   3.731   4.018
 1182SOL    HW1 4445   1.687   3.750   4.074
 1182SOL    HW2 4446   1.551   3.814   4.010
 1183SOL     OW 4447   4.298   5.492   0.850
 1183SOL    HW1 4448   4.315   5.591   0.857
 1183SOL    HW2 4449   4.235   5.464   0.923
 1184SOL     OW 4450   3.298   2.681   6.503
 1184SOL    HW1 4451   3.368   2.610   6.509
 1184SOL    HW2 4452   3.309   2.731   6.417
 1185SOL     OW 4453   3.082   1.292   6.402
 1185SOL    HW1 4454   3.164   1.329   6.446
 1185SOL    HW2 4455   3.001   1.332   6.444
 1186SOL     OW 4456   4.050   0.963   4.863
 1186SOL    HW1 4457   4.037   1.037   4.929
 1186SOL    HW2 4458   3.974   0.961   4.799
 1187SOL     OW 4459   1.364   1.839   4.879
 1187SOL    HW1 4460   1.365   1.811   4.783
 1187SOL    HW2 4461   1.456   1.828   4.918
 1188SOL     OW 4462   1.732   0.949   5.258
 1188SOL    HW1 4463   1.795   0.923   5.331
 1188SOL    HW2 4464   1.658   0.882   5.253
 1189SOL     OW 4465   0.590   0.997   1.432
 1189SOL    HW1 4466   0.616   0.901   1.443
 1189SOL    HW2 4467   0.643   1.037   1.357
 1190SOL     OW 4468   3.864   5.565   1.990
 1190SOL    HW1 4469   3.785   5.626   1.980
 1190SOL    HW2 4470   3.901   5.574   2.082
 1191SOL     OW 4471   2.316   4.420   1.508
 1191SOL    HW1 4472   2.310   4.517   1.487
 1191SOL    HW2 4473   2.319   4.407   1.607
 1192SOL     OW 4474   3.791   5.335   2.826
 1192SOL    HW1 4475   3.832   5.423   2.801
 1192SOL    HW2 4476   3.857   5.283   2.881
 1193SOL     OW 4477   3.109   0.152   3.926
 1193SOL    HW1 4478   3.183   0.132   3.862
 1193SOL    HW2 4479   3.066   0.239   3.901
 1194SOL     OW 4480   6.302   1.733   2.106
 1194SOL    HW1 4481   6.395   1.772   2.106
 1194SOL    HW2 4482   6.278   1.705   2.013
 1195SOL     OW 4483   3.513   0.089   6.881
 1195SOL    HW1 4484   3.497   0.011   6.941
 1195SOL    HW2 4485   3.586   0.146   6.918
 1196SOL     OW 4486   1.647   5.441   3.437
 1196SOL    HW1 4487   1.643   5.358   3.381
 1196SOL    HW2 4488   1.559   5.452   3.484
 1197SOL     OW 4489   3.669   5.063   6.826
 1197SOL    HW1 4490   3.749   5.047   6.884
 1197SOL    HW2 4491   3.681   5.017   6.738
 1198SOL     OW 4492   3.573   0.355   2.841
 1198SOL    HW1 4493   3.503   0.287   2.860
 1198SOL    HW2 4494   3.544   0.444   2.876
 1199SOL     OW 4495   3.473   3.830   4.041
 1199SOL    HW1 4496   3.401   3.766   4.015
 1199SOL    HW2 4497   3.540   3.836   3.967
 1200SOL     OW 4498   4.543   3.501   1.205
 1200SOL    HW1 4499   4.540   3.601   1.206
 1200SOL    HW2 4500   4.524   3.466   1.297
 1201SOL     OW 4501   1.790   2.063   5.010
 1201SOL    HW1 4502   1.812   2.040   5.105
 1201SOL    HW2 4503   1.692   2.083   5.003
 1202SOL     OW 4504   6.423   6.951   4.714
 1202SOL    HW1 4505   6.431   6.916   4.621
 1202SOL    HW2 4506   6.490   6.908   4.773
 1203SOL     OW 4507   6.208   6.957   2.857
 1203SOL    HW1 4508   6.192   0.023   2.821
 1203SOL    HW2 4509   6.222   6.962   2.956
 1204SOL     OW 4510   1.763   0.103   0.049
 1204SOL    HW1 4511   1.708   0.170   7.025
 1204SOL    HW2 4512   1.820   0.150   0.117
 1205SOL     OW 4513   0.763   3.014   6.005
 1205SOL    HW1 4514   0.832   3.008   6.077
 1205SOL    HW2 4515   0.806   3.001   5.916
 1206SOL     OW 4516   6.812   1.098   4.610
 1206SOL    HW1 4517   6.888   1.141   4.562
 1206SOL    HW2 4518   6.839   1.080   4.705
 1207SOL     OW 4519   6.138   6.387   6.366
 1207SOL    HW1 4520   6.091   6.341   6.290
 1207SOL    HW2 4521   6.167   6.319   6.433
 1208SOL     OW 4522   3.515   3.484   3.011
 1208SOL    HW1 4523   3.446   3.495   2.939
 1208SOL    HW2 4524   3.470   3.460   3.097
 1209SOL     OW 4525   0.143   4.324   4.590
 1209SOL    HW1 4526   0.131   4.257   4.663
 1209SOL    HW2 4527   0.120   4.281   4.502
 1210SOL     OW 4528   2.226   0.293   2.661
 1210SOL    HW1 4529   2.202   0.382   2.702
 1210SOL    HW2 4530   2.172   0.221   2.704
 1211SOL     OW 4531   0.483   3.491   3.409
 1211SOL    HW1 4532   0.457   3.407   3.456
 1211SOL    HW2 4533   0.510   3.560   3.476
 1212SOL     OW 4534   1.335   4.372   3.879
 1212SOL    HW1 4535   1.397   4.450   3.889
 1212SOL    HW2 4536   1.366   4.298   3.938
 1213SOL     OW 4537   5.945   3.828   5.520
 1213SOL    HW1 4538   5.858   3.869   5.492
 1213SOL    HW2 4539   5.959   3.843   5.618
 1214SOL     OW 4540   1.522   1.550   1.565
 1214SOL    HW1 4541   1.459   1.483   1.526
 1214SOL    HW2 4542   1.470   1.622   1.611
 1215SOL     OW 4543   0.297   5.637   2.021
 1215SOL    HW1 4544   0.342   5.622   1.932
 1215SOL    HW2 4545   0.199   5.620   2.012
 1216SOL     OW 4546   2.466   0.025   1.368
 1216SOL    HW1 4547   2.499   0.040   1.274
 1216SOL    HW2 4548   2.379   7.003   1.365
 1217SOL     OW 4549   2.007   2.528   3.069
 1217SOL    HW1 4550   1.958   2.451   3.028
 1217SOL    HW2 4551   2.001   2.607   3.007
 1218SOL     OW 4552   0.965   3.914   3.323
 1218SOL    HW1 4553   0.912   3.996   3.343
 1218SOL    HW2 4554   0.928   3.868   3.243
 1219SOL     OW 4555   2.358   5.816   3.141
 1219SOL    HW1 4556   2.312   5.802   3.053
 1219SOL    HW2 4557   2.318   5.755   3.210
 1220SOL     OW 4558   6.475   5.092   2.742
 1220SOL    HW1 4559   6.561   5.123   2.702
 1220SOL    HW2 4560   6.449   5.003   2.703
 1221SOL     OW 4561   4.628   4.597   5.528
 1221SOL    HW1 4562   4.545   4.653   5.523
 1221SOL    HW2 4563   4.682   4.610   5.444
 1222SOL     OW 4564   6.953   4.217   1.343
 1222SOL    HW1 4565   6.873   4.275   1.359
 1222SOL    HW2 4566   6.923   4.130   1.303
 1223SOL     OW 4567   0.079   4.847   4.757
 1223SOL    HW1 4568   0.036   4.880   4.673
 1223SOL    HW2 4569   0.009   4.807   4.817
 1224SOL     OW 4570   4.405   4.304   1.267
 1224SOL    HW1 4571   4.389   4.390   1.314
 1224SOL    HW2 4572   4.411   4.320   1.168
 1225SOL     OW 4573   4.700   1.999   6.866
 1225SOL    HW1 4574   4.603   2.013   6.843
 1225SOL    HW2 4575   4.756   2.062   6.813
 1226SOL     OW 4576   6.064   5.851   0.689
 1226SOL    HW1 4577   6.121   5.915   0.739
 1226SOL    HW2 4578   6.095   5.757   0.705
 1227SOL     OW 4579   4.783   4.054   0.077
 1227SOL    HW1 4580   4.769   4.139   0.128
 1227SOL    HW2 4581   4.874   4.017   0.098
 1228SOL     OW 4582   3.808   3.935   4.279
 1228SOL    HW1 4583   3.822   3.968   4.372
 1228SOL    HW2 4584   3.733   3.869   4.277
 1229SOL     OW 4585   2.246   5.541   2.514
 1229SOL    HW1 4586   2.320   5.582   2.566
 1229SOL    HW2 4587   2.170   5.519   2.575
 1230SOL     OW 4588   4.592   4.279   0.501
 1230SOL    HW1 4589   4.515   4.342   0.514
 1230SOL    HW2 4590   4.597   4.218   0.580
 1231SOL     OW 4591   2.246   1.504   0.523
 1231SOL    HW1 4592   2.209   1.533   0.434
 1231SOL    HW2 4593   2.213   1.565   0.594
 1232SOL     OW 4594   2.838   2.313   5.695
 1232SOL    HW1 4595   2.934   2.299   5.719
 1232SOL    HW2 4596   2.806   2.400   5.732
 1233SOL     OW 4597   0.469   5.226   4.485
 1233SOL    HW1 4598   0.452   5.132   4.455
 1233SOL    HW2 4599   0.538   5.268   4.426
 1234SOL     OW 4600   6.244   4.505   6.128
 1234SOL    HW1 4601   6.235   4.601   6.101
 1234SOL    HW2 4602   6.280   4.500   6.221
 1235SOL     OW 4603   6.128   5.075   0.620
 1235SOL    HW1 4604   6.174   5.148   0.570
 1235SOL    HW2 4605   6.036   5.105   0.645
 1236SOL     OW 4606   0.555   1.099   2.865
 1236SOL    HW1 4607   0.559   1.196   2.889
 1236SOL    HW2 4608   0.482   1.085   2.797
 1237SOL     OW 4609   1.088   0.360   4.316
 1237SOL    HW1 4610   1.013   0.301   4.288
 1237SOL    HW2 4611   1.163   0.304   4.351
 1238SOL     OW 4612   0.161   0.800   3.953
 1238SOL    HW1 4613   0.213   0.787   3.869
 1238SOL    HW2 4614   0.181   0.725   4.016
 1239SOL     OW 4615   4.906   4.391   3.635
 1239SOL    HW1 4616   4.967   4.436   3.569
 1239SOL    HW2 4617   4.848   4.326   3.586
 1240SOL     OW 4618   0.412   3.757   1.020
 1240SOL    HW1 4619   0.488   3.694   1.031
 1240SOL    HW2 4620   0.445   3.843   0.981
 1241SOL     OW 4621   3.500   5.254   5.714
 1241SOL    HW1 4622   3.539   5.345   5.726
 1241SOL    HW2 4623   3.459   5.246   5.623
 1242SOL     OW 4624   2.072   5.448   0.754
 1242SOL    HW1 4625   2.125   5.415   0.676
 1242SOL    HW2 4626   1.997   5.506   0.720
 1243SOL     OW 4627   7.015   3.874   3.549
 1243SOL    HW1 4628   6.972   3.928   3.622
 1243SOL    HW2 4629   0.081   3.846   3.579
 1244SOL     OW 4630   6.987   6.674   4.753
 1244SOL    HW1 4631   6.983   6.633   4.662
 1244SOL    HW2 4632   7.000   6.772   4.745
 1245SOL     OW 4633   4.834   6.687   1.025
 1245SOL    HW1 4634   4.902   6.614   1.032
 1245SOL    HW2 4635   4.771   6.681   1.102
 1246SOL     OW 4636   5.624   2.332   1.876
 1246SOL    HW1 4637   5.599   2.325   1.779
 1246SOL    HW2 4638   5.607   2.244   1.921
 1247SOL     OW 4639   5.004   6.667   2.339
 1247SOL    HW1 4640   4.931   6.630   2.282
 1247SOL    HW2 4641   5.092   6.656   2.293
 1248SOL     OW 4642   0.659   7.003   4.950
 1248SOL    HW1 4643   0.666   6.903   4.944
 1248SOL    HW2 4644   0.607   0.002   5.031
 1249SOL     OW 4645   6.191   6.487   6.643
 1249SOL    HW1 4646   6.164   6.519   6.552
 1249SOL    HW2 4647   6.171   6.558   6.711
 1250SOL     OW 4648   0.406   4.465   5.066
 1250SOL    HW1 4649   0.316   4.484   5.027
 1250SOL    HW2 4650   0.450   4.552   5.092
 1251SOL     OW 4651   2.819   0.447   2.669
 1251SOL    HW1 4652   2.857   0.471   2.579
 1251SOL    HW2 4653   2.811   0.347   2.676
 1252SOL     OW 4654   2.369   5.269   6.396
 1252SOL    HW1 4655   2.284   5.220   6.375
 1252SOL    HW2 4656   2.346   5.359   6.433
 1253SOL     OW 4657   2.970   5.639   0.051
 1253SOL    HW1 4658   3.005   5.730   0.072
 1253SOL    HW2 4659   3.029   5.595   7.010
 1254SOL     OW 4660   6.216   1.395   4.005
 1254SOL    HW1 4661   6.118   1.409   4.010
 1254SOL    HW2 4662   6.252   1.375   4.097
 1255SOL     OW 4663   6.069   2.052   6.006
 1255SOL    HW1 4664   6.154   1.999   6.010
 1255SOL    HW2 4665   6.063   2.098   5.917
 1256SOL     OW 4666   6.900   5.464   5.646
 1256SOL    HW1 4667   6.953   5.455   5.562
 1256SOL    HW2 4668   6.805   5.484   5.624
 1257SOL     OW 4669   0.063   6.211   3.407
 1257SOL    HW1 4670   0.129   6.139   3.424
 1257SOL    HW2 4671   0.098   6.298   3.442
 1258SOL     OW 4672   4.266   5.272   6.872
 1258SOL    HW1 4673   4.184   5.217   6.859
 1258SOL    HW2 4674   4.246   5.367   6.846
 1259SOL     OW 4675   5.241   6.807   5.222
 1259SOL    HW1 4676   5.275   6.735   5.283
 1259SOL    HW2 4677   5.248   6.775   5.127
 1260SOL     OW 4678   3.117   0.971   0.431
 1260SOL    HW1 4679   3.025   1.001   0.455
 1260SOL    HW2 4680   3.165   0.942   0.513
 1261SOL     OW 4681   0.368   4.441   4.449
 1261SOL    HW1 4682   0.287   4.385   4.461
 1261SOL    HW2 4683   0.341   4.536   4.432
 1262SOL     OW 4684   3.956   5.788   1.640
 1262SOL    HW1 4685   3.948   5.697   1.682
 1262SOL    HW2 4686   3.971   5.856   1.712
 1263SOL     OW 4687   6.775   1.425   1.322
 1263SOL    HW1 4688   6.693   1.432   1.266
 1263SOL    HW2 4689   6.781   1.334   1.363
 1264SOL     OW 4690   6.293   2.280   4.814
 1264SOL    HW1 4691   6.325   2.329   4.895
 1264SOL    HW2 4692   6.322   2.184   4.819
 1265SOL     OW 4693   5.933   5.650   4.602
 1265SOL    HW1 4694   5.981   5.722   4.551
 1265SOL    HW2 4695   5.980   5.563   4.590
 1266SOL     OW 4696   2.842   0.810   3.750
 1266SOL    HW1 4697   2.876   0.829   3.658
 1266SOL    HW2 4698   2.807   0.717   3.754
 1267SOL     OW 4699   0.481   4.598   2.067
 1267SOL    HW1 4700   0.398   4.555   2.033
 1267SOL    HW2 4701   0.537   4.629   1.990
 1268SOL     OW 4702   5.831   4.317   6.820
 1268SOL    HW1 4703   5.739   4.300   6.855
 1268SOL    HW2 4704   5.898   4.270   6.877
 1269SOL     OW 4705   6.690   4.810   6.429
 1269SOL    HW1 4706   6.658   4.731   6.376
 1269SOL    HW2 4707   6.789   4.817   6.421
 1270SOL     OW 4708   1.408   1.784   4.047
 1270SOL    HW1 4709   1.485   1.790   3.983
 1270SOL    HW2 4710   1.322   1.797   3.998
 1271SOL     OW 4711   5.905   2.953   3.139
 1271SOL    HW1 4712   5.821   2.953   3.084
 1271SOL    HW2 4713   5.932   2.859   3.159
 1272SOL     OW 4714   6.123   6.440   7.022
 1272SOL    HW1 4715   6.131   6.530   6.980
 1272SOL    HW2 4716   6.110   6.450   0.095
 1273SOL     OW 4717   2.417   0.174   5.024
 1273SOL    HW1 4718   2.441   0.173   5.121
 1273SOL    HW2 4719   2.487   0.223   4.973
 1274SOL     OW 4720   5.750   2.275   2.164
 1274SOL    HW1 4721   5.758   2.286   2.065
 1274SOL    HW2 4722   5.668   2.222   2.185
 1275SOL     OW 4723   4.067   1.541   3.833
 1275SOL    HW1 4724   3.978   1.564   3.873
 1275SOL    HW2 4725   4.054   1.497   3.744
 1276SOL     OW 4726   5.857   6.956   2.481
 1276SOL    HW1 4727   5.945   6.936   2.525
 1276SOL    HW2 4728   5.783   6.921   2.537
 1277SOL     OW 4729   1.404   1.530   4.489
 1277SOL    HW1 4730   1.472   1.479   4.436
 1277SOL    HW2 4731   1.377   1.477   4.569
 1278SOL     OW 4732   3.286   1.574   5.121
 1278SOL    HW1 4733   3.224   1.639   5.166
 1278SOL    HW2 4734   3.305   1.605   5.028
 1279SOL     OW 4735   2.342   5.153   0.582
 1279SOL    HW1 4736   2.253   5.133   0.623
 1279SOL    HW2 4737   2.339   5.241   0.536
 1280SOL     OW 4738   1.251   6.090   2.723
 1280SOL    HW1 4739   1.339   6.137   2.736
 1280SOL    HW2 4740   1.231   6.084   2.626
 1281SOL     OW 4741   0.695   6.652   4.045
 1281SOL    HW1 4742   0.695   6.612   3.953
 1281SOL    HW2 4743   0.763   6.607   4.102
 1282SOL     OW 4744   1.472   6.449   2.740
 1282SOL    HW1 4745   1.484   6.525   2.675
 1282SOL    HW2 4746   1.552   6.443   2.799
 1283SOL     OW 4747   5.108   4.238   5.135
 1283SOL    HW1 4748   5.178   4.241   5.207
 1283SOL    HW2 4749   5.150   4.208   5.049
 1284SOL     OW 4750   3.086   1.787   3.127
 1284SOL    HW1 4751   3.017   1.858   3.113
 1284SOL    HW2 4752   3.045   1.697   3.112
 1285SOL     OW 4753   5.869   2.898   6.063
 1285SOL    HW1 4754   5.921   2.933   5.985
 1285SOL    HW2 4755   5.930   2.889   6.142
 1286SOL     OW 4756   5.890   5.695   0.973
 1286SOL    HW1 4757   5.982   5.703   1.013
 1286SOL    HW2 4758   5.860   5.784   0.940
 1287SOL     OW 4759   6.555   3.983   5.674
 1287SOL    HW1 4760   6.494   3.911   5.706
 1287SOL    HW2 4761   6.529   4.070   5.715
 1288SOL     OW 4762   6.706   3.646   3.813
 1288SOL    HW1 4763   6.608   3.664   3.822
 1288SOL    HW2 4764   6.737   3.674   3.722
 1289SOL     OW 4765   0.370   4.922   2.767
 1289SOL    HW1 4766   0.349   4.890   2.859
 1289SOL    HW2 4767   0.381   5.022   2.768
 1290SOL     OW 4768   0.623   0.148   1.817
 1290SOL    HW1 4769   0.562   0.159   1.738
 1290SOL    HW2 4770   0.629   0.234   1.867
 1291SOL     OW 4771   1.576   6.112   1.300
 1291SOL    HW1 4772   1.507   6.071   1.241
 1291SOL    HW2 4773   1.558   6.087   1.395
 1292SOL     OW 4774   1.270   5.812   6.774
 1292SOL    HW1 4775   1.283   5.726   6.824
 1292SOL    HW2 4776   1.251   5.886   6.838
 1293SOL     OW 4777   6.363   2.038   6.610
 1293SOL    HW1 4778   6.413   2.094   6.676
 1293SOL    HW2 4779   6.285   2.089   6.575
 1294SOL     OW 4780   0.555   1.656   3.580
 1294SOL    HW1 4781   0.497   1.732   3.550
 1294SOL    HW2 4782   0.561   1.587   3.508
 1295SOL     OW 4783   4.885   3.570   1.449
 1295SOL    HW1 4784   4.905   3.547   1.353
 1295SOL    HW2 4785   4.917   3.496   1.508
 1296SOL     OW 4786   3.447   1.965   6.965
 1296SOL    HW1 4787   3.533   2.006   6.993
 1296SOL    HW2 4788   3.375   1.991   0.004
 1297SOL     OW 4789   6.734   0.617   5.912
 1297SOL    HW1 4790   6.748   0.689   5.980
 1297SOL    HW2 4791   6.779   0.643   5.826
 1298SOL     OW 4792   6.480   3.196   3.631
 1298SOL    HW1 4793   6.444   3.215   3.722
 1298SOL    HW2 4794   6.555   3.129   3.638
 1299SOL     OW 4795   1.708   3.090   4.236
 1299SOL    HW1 4796   1.774   3.165   4.238
 1299SOL    HW2 4797   1.668   3.077   4.327
 1300SOL     OW 4798   3.987   3.347   2.941
 1300SOL    HW1 4799   4.028   3.399   3.016
 1300SOL    HW2 4800   3.944   3.410   2.877
 1301SOL     OW 4801   1.404   1.721   2.276
 1301SOL    HW1 4802   1.402   1.787   2.200
 1301SOL    HW2 4803   1.312   1.714   2.316
 1302SOL     OW 4804   2.331   6.208   5.711
 1302SOL    HW1 4805   2.252   6.242   5.659
 1302SOL    HW2 4806   2.321   6.236   5.807
 1303SOL     OW 4807   3.270   0.278   1.291
 1303SOL    HW1 4808   3.254   0.376   1.279
 1303SOL    HW2 4809   3.201   0.226   1.239
 1304SOL     OW 4810   3.836   1.061   5.834
 1304SOL    HW1 4811   3.844   1.051   5.735
 1304SOL    HW2 4812   3.744   1.033   5.863
 1305SOL     OW 4813   5.675   6.629   3.889
 1305SOL    HW1 4814   5.661   6.531   3.876
 1305SOL    HW2 4815   5.589   6.677   3.874
 1306SOL     OW 4816   1.506   5.399   4.525
 1306SOL    HW1 4817   1.435   5.438   4.584
 1306SOL    HW2 4818   1.562   5.336   4.578
 1307SOL     OW 4819   0.847   1.131   4.120
 1307SOL    HW1 4820   0.773   1.094   4.175
 1307SOL    HW2 4821   0.892   1.205   4.169
 1308SOL     OW 4822   4.506   5.990   3.182
 1308SOL    HW1 4823   4.583   6.000   3.244
 1308SOL    HW2 4824   4.528   6.032   3.094
 1309SOL     OW 4825   5.131   3.058   4.374
 1309SOL    HW1 4826   5.207   3.121   4.360
 1309SOL    HW2 4827   5.130   3.026   4.469
 1310SOL     OW 4828   5.175   3.425   5.762
 1310SOL    HW1 4829   5.240   3.494   5.793
 1310SOL    HW2 4830   5.208   3.334   5.787
 1311SOL     OW 4831   4.945   5.133   5.573
 1311SOL    HW1 4832   4.988   5.050   5.607
 1311SOL    HW2 4833   5.006   5.178   5.507
 1312SOL     OW 4834   6.489   0.434   1.751
 1312SOL    HW1 4835   6.441   0.347   1.738
 1312SOL    HW2 4836   6.427   0.501   1.791
 1313SOL     OW 4837   3.024   5.217   4.872
 1313SOL    HW1 4838   3.057   5.144   4.812
 1313SOL    HW2 4839   2.978   5.176   4.951
 1314SOL     OW 4840   6.558   1.280   6.052
 1314SOL    HW1 4841   6.564   1.218   5.973
 1314SOL    HW2 4842   6.463   1.307   6.065
 1315SOL     OW 4843   1.613   6.715   3.591
 1315SOL    HW1 4844   1.668   6.633   3.575
 1315SOL    HW2 4845   1.544   6.723   3.519
 1316SOL     OW 4846   3.006   6.513   3.311
 1316SOL    HW1 4847   2.996   6.439   3.244
 1316SOL    HW2 4848   3.062   6.586   3.271
 1317SOL     OW 4849   0.673   3.690   3.852
 1317SOL    HW1 4850   0.610   3.761   3.885
 1317SOL    HW2 4851   0.688   3.623   3.925
 1318SOL     OW 4852   0.894   6.318   1.520
 1318SOL    HW1 4853   0.806   6.324   1.473
 1318SOL    HW2 4854   0.910   6.224   1.549
 1319SOL     OW 4855   6.572   0.241   0.581
 1319SOL    HW1 4856   6.615   0.231   0.491
 1319SOL    HW2 4857   6.473   0.246   0.571
 1320SOL     OW 4858   4.945   5.867   4.623
 1320SOL    HW1 4859   5.036   5.901   4.646
 1320SOL    HW2 4860   4.938   5.852   4.525
 1321SOL     OW 4861   3.578   1.195   0.394
 1321SOL    HW1 4862   3.568   1.294   0.387
 1321SOL    HW2 4863   3.535   1.151   0.315
 1322SOL     OW 4864   5.338   1.331   6.279
 1322SOL    HW1 4865   5.244   1.302   6.265
 1322SOL    HW2 4866   5.353   1.419   6.233
 1323SOL     OW 4867   6.774   0.587   3.998
 1323SOL    HW1 4868   6.815   0.671   3.964
 1323SOL    HW2 4869   6.677   0.603   4.019
 1324SOL     OW 4870   1.084   2.506   0.613
 1324SOL    HW1 4871   1.005   2.544   0.564
 1324SOL    HW2 4872   1.153   2.577   0.625
 1325SOL     OW 4873   4.111   5.717   4.046
 1325SOL    HW1 4874   4.020   5.717   4.088
 1325SOL    HW2 4875   4.134   5.625   4.016
 1326SOL     OW 4876   5.648   4.010   4.942
 1326SOL    HW1 4877   5.655   4.085   4.876
 1326SOL    HW2 4878   5.556   4.008   4.980
 1327SOL     OW 4879   2.926   6.124   4.287
 1327SOL    HW1 4880   2.940   6.222   4.279
 1327SOL    HW2 4881   2.974   6.077   4.213
 1328SOL     OW 4882   2.474   1.270   1.507
 1328SOL    HW1 4883   2.491   1.217   1.590
 1328SOL    HW2 4884   2.560   1.291   1.462
 1329SOL     OW 4885   1.234   6.385   1.873
 1329SOL    HW1 4886   1.241   6.454   1.945
 1329SOL    HW2 4887   1.310   6.320   1.881
 1330SOL     OW 4888   4.673   6.452   0.952
 1330SOL    HW1 4889   4.754   6.418   1.001
 1330SOL    HW2 4890   4.680   6.551   0.942
 1331SOL     OW 4891   1.043   2.094   1.874
 1331SOL    HW1 4892   1.000   2.118   1.961
 1331SOL    HW2 4893   1.106   2.166   1.846
 1332SOL     OW 4894   4.417   2.272   1.293
 1332SOL    HW1 4895   4.463   2.261   1.204
 1332SOL    HW2 4896   4.411   2.369   1.316
 1333SOL     OW 4897   4.144   3.594   4.860
 1333SOL    HW1 4898   4.176   3.543   4.779
 1333SOL    HW2 4899   4.122   3.688   4.834
 1334SOL     OW 4900   0.961   3.268   3.780
 1334SOL    HW1 4901   0.947   3.242   3.876
 1334SOL    HW2 4902   1.057   3.290   3.766
 1335SOL     OW 4903   1.509   5.661   3.111
 1335SOL    HW1 4904   1.547   5.698   3.196
 1335SOL    HW2 4905   1.485   5.736   3.050
 1336SOL     OW 4906   0.038   6.884   5.642
 1336SOL    HW1 4907   0.041   6.794   5.598
 1336SOL    HW2 4908   0.121   6.898   5.695
 1337SOL     OW 4909   4.089   0.006   0.095
 1337SOL    HW1 4910   4.119   0.089   0.143
 1337SOL    HW2 4911   4.133   0.001   0.006
 1338SOL     OW 4912   3.013   5.157   1.210
 1338SOL    HW1 4913   2.961   5.131   1.129
 1338SOL    HW2 4914   2.950   5.172   1.286
 1339SOL     OW 4915   0.144   4.323   6.633
 1339SOL    HW1 4916   0.118   4.405   6.683
 1339SOL    HW2 4917   0.177   4.348   6.542
 1340SOL     OW 4918   2.768   1.385   6.130
 1340SOL    HW1 4919   2.728   1.456   6.072
 1340SOL    HW2 4920   2.830   1.426   6.196
 1341SOL     OW 4921   5.763   2.487   4.631
 1341SOL    HW1 4922   5.713   2.484   4.545
 1341SOL    HW2 4923   5.701   2.507   4.706
 1342SOL     OW 4924   0.608   6.762   1.634
 1342SOL    HW1 4925   0.655   6.806   1.710
 1342SOL    HW2 4926   0.629   6.664   1.633
 1343SOL     OW 4927   2.617   5.856   4.024
 1343SOL    HW1 4928   2.666   5.874   4.110
 1343SOL    HW2 4929   2.518   5.858   4.042
 1344SOL     OW 4930   5.417   1.585   2.797
 1344SOL    HW1 4931   5.375   1.675   2.785
 1344SOL    HW2 4932   5.517   1.595   2.795
 1345SOL     OW 4933   0.303   5.636   2.556
 1345SOL    HW1 4934   0.383   5.696   2.552
 1345SOL    HW2 4935   0.220   5.692   2.569
 1346SOL     OW 4936   0.271   1.581   3.462
 1346SOL    HW1 4937   0.276   1.607   3.366
 1346SOL    HW2 4938   0.249   1.484   3.469
 1347SOL     OW 4939   4.395   0.803   3.832
 1347SOL    HW1 4940   4.359   0.870   3.898
 1347SOL    HW2 4941   4.325   0.783   3.764
 1348SOL     OW 4942   4.554   5.726   4.415
 1348SOL    HW1 4943   4.572   5.821   4.441
 1348SOL    HW2 4944   4.488   5.725   4.339
 1349SOL     OW 4945   4.647   2.183   0.414
 1349SOL    HW1 4946   4.618   2.170   0.320
 1349SOL    HW2 4947   4.601   2.117   0.473
 1350SOL     OW 4948   3.078   0.923   4.963
 1350SOL    HW1 4949   3.041   0.929   4.870
 1350SOL    HW2 4950   3.012   0.961   5.027
 1351SOL     OW 4951   1.924   1.557   3.603
 1351SOL    HW1 4952   1.943   1.599   3.514
 1351SOL    HW2 4953   1.997   1.581   3.667
 1352SOL     OW 4954   1.278   6.648   4.266
 1352SOL    HW1 4955   1.243   6.600   4.347
 1352SOL    HW2 4956   1.223   6.730   4.250
 1353SOL     OW 4957   2.167   3.015   5.440
 1353SOL    HW1 4958   2.174   3.109   5.406
 1353SOL    HW2 4959   2.072   2.995   5.463
 1354SOL     OW 4960   0.578   0.173   0.140
 1354SOL    HW1 4961   0.581   0.242   0.212
 1354SOL    HW2 4962   0.576   0.082   0.181
 1355SOL     OW 4963   3.871   2.946   6.897
 1355SOL    HW1 4964   3.953   2.919   6.949
 1355SOL    HW2 4965   3.883   2.922   6.801
 1356SOL     OW 4966   3.331   2.655   1.742
 1356SOL    HW1 4967   3.312   2.753   1.750
 1356SOL    HW2 4968   3.247   2.603   1.757
 1357SOL     OW 4969   3.480   3.037   5.769
 1357SOL    HW1 4970   3.476   2.950   5.818
 1357SOL    HW2 4971   3.432   3.028   5.681
 1358SOL     OW 4972   1.637   3.572   5.770
 1358SOL    HW1 4973   1.714   3.634   5.754
 1358SOL    HW2 4974   1.625   3.559   5.869
 1359SOL     OW 4975   0.298   1.870   6.350
 1359SOL    HW1 4976   0.317   1.828   6.439
 1359SOL    HW2 4977   0.382   1.909   6.314
 1360SOL     OW 4978   3.228   3.623   4.141
 1360SOL    HW1 4979   3.269   3.611   4.050
 1360SOL    HW2 4980   3.148   3.564   4.149
 1361SOL     OW 4981   0.963   6.663   1.180
 1361SOL    HW1 4982   0.888   6.722   1.150
 1361SOL    HW2 4983   1.026   6.648   1.104
 1362SOL     OW 4984   3.432   1.706   6.843
 1362SOL    HW1 4985   3.492   1.648   6.898
 1362SOL    HW2 4986   3.411   1.790   6.893
 1363SOL     OW 4987   0.052   6.556   0.927
 1363SOL    HW1 4988   7.011   6.498   0.880
 1363SOL    HW2 4989   0.014   6.648   0.937
 1364SOL     OW 4990   1.450   3.712   0.810
 1364SOL    HW1 4991   1.497   3.800   0.802
 1364SOL    HW2 4992   1.473   3.670   0.898
 1365SOL     OW 4993   1.019   3.497   6.231
 1365SOL    HW1 4994   1.023   3.566   6.304
 1365SOL    HW2 4995   1.112   3.467   6.210
 1366SOL     OW 4996   3.609   0.143   1.460
 1366SOL    HW1 4997   3.602   0.238   1.429
 1366SOL    HW2 4998   3.638   0.140   1.555
 1367SOL     OW 4999   1.180   0.036   4.347
 1367SOL    HW1 5000   1.178   0.101   4.422
 1367SOL    HW2 5001   1.147   6.973   4.379
 1368SOL     OW 5002   1.777   6.424   4.745
 1368SOL    HW1 5003   1.854   6.393   4.690
 1368SOL    HW2 5004   1.785   6.522   4.763
 1369SOL     OW 5005   2.246   5.432   4.030
 1369SOL    HW1 5006   2.190   5.451   4.111
 1369SOL    HW2 5007   2.239   5.508   3.966
 1370SOL     OW 5008   6.626   2.243   3.137
 1370SOL    HW1 5009   6.573   2.322   3.106
 1370SOL    HW2 5010   6.718   2.271   3.164
 1371SOL     OW 5011   6.052   2.260   5.803
 1371SOL    HW1 5012   5.956   2.267   5.777
 1371SOL    HW2 5013   6.106   2.231   5.724
 1372SOL     OW 5014   5.469   2.488   1.431
 1372SOL    HW1 5015   5.371   2.503   1.450
 1372SOL    HW2 5016   5.481   2.399   1.387
 1373SOL     OW 5017   5.943   3.114   1.622
 1373SOL    HW1 5018   5.963   3.029   1.671
 1373SOL    HW2 5019   5.957   3.101   1.524
 1374SOL     OW 5020   4.084   3.298   2.581
 1374SOL    HW1 5021   3.995   3.271   2.544
 1374SOL    HW2 5022   4.153   3.289   2.509
 1375SOL     OW 5023   5.223   4.779   4.386
 1375SOL    HW1 5024   5.306   4.824   4.354
 1375SOL    HW2 5025   5.177   4.837   4.453
 1376SOL     OW 5026   2.912   4.116   5.720
 1376SOL    HW1 5027   2.929   4.091   5.625
 1376SOL    HW2 5028   2.885   4.212   5.725
 1377SOL     OW 5029   1.200   1.905   3.063
 1377SOL    HW1 5030   1.169   1.814   3.089
 1377SOL    HW2 5031   1.165   1.973   3.127
 1378SOL     OW 5032   5.015   2.240   4.392
 1378SOL    HW1 5033   4.981   2.292   4.314
 1378SOL    HW2 5034   5.080   2.296   4.443
 1379SOL     OW 5035   4.361   5.533   0.250
 1379SOL    HW1 5036   4.423   5.497   0.320
 1379SOL    HW2 5037   4.280   5.476   0.243
 1380SOL     OW 5038   0.601   6.144   3.789
 1380SOL    HW1 5039   0.618   6.056   3.747
 1380SOL    HW2 5040   0.517   6.184   3.751
 1381SOL     OW 5041   6.280   2.733   5.844
 1381SOL    HW1 5042   6.278   2.801   5.917
 1381SOL    HW2 5043   6.314   2.775   5.760
 1382SOL     OW 5044   4.116   2.320   6.530
 1382SOL    HW1 5045   4.124   2.222   6.510
 1382SOL    HW2 5046   4.154   2.372   6.453
 1383SOL     OW 5047   6.335   0.730   0.937
 1383SOL    HW1 5048   6.375   0.681   0.860
 1383SOL    HW2 5049   6.401   0.737   1.011
 1384SOL     OW 5050   6.093   1.954   2.010
 1384SOL    HW1 5051   6.152   1.887   2.055
 1384SOL    HW2 5052   6.039   2.003   2.079
 1385SOL     OW 5053   7.002   5.998   1.862
 1385SOL    HW1 5054   6.965   5.926   1.921
 1385SOL    HW2 5055   0.076   5.997   1.869
 1386SOL     OW 5056   2.044   6.368   3.933
 1386SOL    HW1 5057   2.046   6.436   4.007
 1386SOL    HW2 5058   2.136   6.337   3.913
 1387SOL     OW 5059   1.947   6.098   1.766
 1387SOL    HW1 5060   1.863   6.114   1.818
 1387SOL    HW2 5061   2.017   6.165   1.794
 1388SOL     OW 5062   6.627   0.432   1.515
 1388SOL    HW1 5063   6.564   0.445   1.592
 1388SOL    HW2 5064   6.584   0.465   1.431
 1389SOL     OW 5065   6.196   0.791   2.091
 1389SOL    HW1 5066   6.207   0.864   2.023
 1389SOL    HW2 5067   6.105   0.799   2.133
 1390SOL     OW 5068   1.367   1.767   4.617
 1390SOL    HW1 5069   1.390   1.851   4.567
 1390SOL    HW2 5070   1.418   1.690   4.578
 1391SOL     OW 5071   0.405   2.905   3.505
 1391SOL    HW1 5072   0.417   2.959   3.588
 1391SOL    HW2 5073   0.378   2.812   3.530
 1392SOL     OW 5074   5.191   4.165   4.208
 1392SOL    HW1 5075   5.239   4.082   4.238
 1392SOL    HW2 5076   5.099   4.141   4.178
 1393SOL     OW 5077   3.733   5.219   6.527
 1393SOL    HW1 5078   3.685   5.276   6.460
 1393SOL    HW2 5079   3.832   5.228   6.513
 1394SOL     OW 5080   1.188   6.026   6.904
 1394SOL    HW1 5081   1.124   6.101   6.887
 1394SOL    HW2 5082   1.156   5.972   6.982
 1395SOL     OW 5083   3.942   4.614   5.800
 1395SOL    HW1 5084   3.878   4.689   5.780
 1395SOL    HW2 5085   3.927   4.583   5.894
 1396SOL     OW 5086   5.847   6.108   3.568
 1396SOL    HW1 5087   5.937   6.138   3.598
 1396SOL    HW2 5088   5.777   6.168   3.607
 1397SOL     OW 5089   4.804   6.228   5.331
 1397SOL    HW1 5090   4.827   6.315   5.289
 1397SOL    HW2 5091   4.888   6.178   5.352
 1398SOL     OW 5092   1.917   0.620   4.346
 1398SOL    HW1 5093   1.954   0.686   4.280
 1398SOL    HW2 5094   1.856   0.668   4.410
 1399SOL     OW 5095   2.859   5.753   1.995
 1399SOL    HW1 5096   2.805   5.715   1.920
 1399SOL    HW2 5097   2.822   5.842   2.021
 1400SOL     OW 5098   1.172   0.399   2.984
 1400SOL    HW1 5099   1.262   0.363   3.009
 1400SOL    HW2 5100   1.156   0.485   3.031
 1401SOL     OW 5101   6.703   1.675   4.215
 1401SOL    HW1 5102   6.774   1.614   4.250
 1401SOL    HW2 5103   6.651   1.712   4.291
 1402SOL     OW 5104   6.652   3.080   6.917
 1402SOL    HW1 5105   6.652   3.152   6.847
 1402SOL    HW2 5106   6.587   3.104   6.989
 1403SOL     OW 5107   3.765   0.535   1.984
 1403SOL    HW1 5108   3.669   0.563   1.979
 1403SOL    HW2 5109   3.818   0.608   2.027
 1404SOL     OW 5110   4.937   1.826   0.388
 1404SOL    HW1 5111   4.859   1.783   0.432
 1404SOL    HW2 5112   4.930   1.925   0.397
 1405SOL     OW 5113   3.066   2.851   1.106
 1405SOL    HW1 5114   3.077   2.756   1.134
 1405SOL    HW2 5115   2.978   2.886   1.140
 1406SOL     OW 5116   1.196   4.219   1.583
 1406SOL    HW1 5117   1.290   4.201   1.612
 1406SOL    HW2 5118   1.138   4.235   1.664
 1407SOL     OW 5119   6.846   2.116   2.728
 1407SOL    HW1 5120   6.940   2.136   2.702
 1407SOL    HW2 5121   6.835   2.018   2.741
 1408SOL     OW 5122   6.110   6.118   6.243
 1408SOL    HW1 5123   6.105   6.127   6.342
 1408SOL    HW2 5124   6.206   6.106   6.216
 1409SOL     OW 5125   0.666   1.479   3.739
 1409SOL    HW1 5126   0.735   1.527   3.794
 1409SOL    HW2 5127   0.600   1.545   3.703
 1410SOL     OW 5128   6.230   2.311   7.001
 1410SOL    HW1 5129   6.176   2.233   6.969
 1410SOL    HW2 5130   6.173   2.368   0.035
 1411SOL     OW 5131   1.783   0.651   2.165
 1411SOL    HW1 5132   1.761   0.666   2.068
 1411SOL    HW2 5133   1.881   0.662   2.179
 1412SOL     OW 5134   1.155   2.578   6.626
 1412SOL    HW1 5135   1.177   2.652   6.562
 1412SOL    HW2 5136   1.228   2.570   6.693
 1413SOL     OW 5137   2.524   6.751   3.148
 1413SOL    HW1 5138   2.618   6.757   3.182
 1413SOL    HW2 5139   2.498   6.655   3.138
 1414SOL     OW 5140   2.705   1.021   2.126
 1414SOL    HW1 5141   2.659   0.955   2.066
 1414SOL    HW2 5142   2.689   1.114   2.092
 1415SOL     OW 5143   4.856   6.042   5.010
 1415SOL    HW1 5144   4.921   6.081   4.945
 1415SOL    HW2 5145   4.898   5.963   5.056
 1416SOL     OW 5146   4.275   5.374   3.757
 1416SOL    HW1 5147   4.314   5.460   3.727
 1416SOL    HW2 5148   4.322   5.298   3.713
 1417SOL     OW 5149   3.164   3.110   6.200
 1417SOL    HW1 5150   3.234   3.040   6.211
 1417SOL    HW2 5151   3.205   3.192   6.160
 1418SOL     OW 5152   3.555   4.167   2.924
 1418SOL    HW1 5153   3.638   4.112   2.936
 1418SOL    HW2 5154   3.531   4.211   3.010
 1419SOL     OW 5155   3.904   6.204   3.971
 1419SOL    HW1 5156   3.956   6.121   3.953
 1419SOL    HW2 5157   3.896   6.257   3.886
 1420SOL     OW 5158   0.267   5.950   1.967
 1420SOL    HW1 5159   0.292   5.933   2.063
 1420SOL    HW2 5160   0.341   5.918   1.908
 1421SOL     OW 5161   3.871   1.146   2.058
 1421SOL    HW1 5162   3.784   1.103   2.082
 1421SOL    HW2 5163   3.908   1.102   1.976
 1422SOL     OW 5164   2.784   0.293   0.420
 1422SOL    HW1 5165   2.823   0.224   0.481
 1422SOL    HW2 5166   2.694   0.321   0.454
 1423SOL     OW 5167   5.027   0.593   1.904
 1423SOL    HW1 5168   5.037   0.687   1.872
 1423SOL    HW2 5169   4.936   0.559   1.882
 1424SOL     OW 5170   0.067   4.891   2.569
 1424SOL    HW1 5171   0.079   4.818   2.638
 1424SOL    HW2 5172   0.115   4.973   2.600
 1425SOL     OW 5173   1.554   0.345   4.500
 1425SOL    HW1 5174   1.494   0.345   4.420
 1425SOL    HW2 5175   1.591   0.437   4.514
 1426SOL     OW 5176   1.890   1.173   5.519
 1426SOL    HW1 5177   1.959   1.237   5.485
 1426SOL    HW2 5178   1.864   1.199   5.612
 1427SOL     OW 5179   5.696   0.677   5.275
 1427SOL    HW1 5180   5.597   0.667   5.265
 1427SOL    HW2 5181   5.719   0.775   5.271
 1428SOL     OW 5182   5.409   1.163   0.290
 1428SOL    HW1 5183   5.320   1.192   0.325
 1428SOL    HW2 5184   5.482   1.203   0.347
 1429SOL     OW 5185   5.888   6.452   6.862
 1429SOL    HW1 5186   5.924   6.542   6.837
 1429SOL    HW2 5187   5.950   6.407   6.925
 1430SOL     OW 5188   2.047   4.435   3.007
 1430SOL    HW1 5189   2.095   4.471   2.927
 1430SOL    HW2 5190   2.112   4.387   3.066
 1431SOL     OW 5191   1.349   0.290   1.149
 1431SOL    HW1 5192   1.276   0.303   1.215
 1431SOL    HW2 5193   1.367   0.376   1.102
 1432SOL     OW 5194   2.917   0.179   0.851
 1432SOL    HW1 5195   2.953   0.152   0.762
 1432SOL    HW2 5196   2.829   0.226   0.839
 1433SOL     OW 5197   4.265   0.222   4.204
 1433SOL    HW1 5198   4.231   0.263   4.119
 1433SOL    HW2 5199   4.211   0.141   4.226
 1434SOL     OW 5200   1.172   1.141   5.118
 1434SOL    HW1 5201   1.129   1.123   5.029
 1434SOL    HW2 5202   1.157   1.236   5.144
 1435SOL     OW 5203   6.903   2.275   3.192
 1435SOL    HW1 5204   6.923   2.362   3.147
 1435SOL    HW2 5205   6.913   2.286   3.291
 1436SOL     OW 5206   4.406   3.819   0.745
 1436SOL    HW1 5207   4.329   3.839   0.805
 1436SOL    HW2 5208   4.443   3.729   0.767
 1437SOL     OW 5209   4.455   1.512   2.253
 1437SOL    HW1 5210   4.553   1.526   2.239
 1437SOL    HW2 5211   4.407   1.526   2.166
 1438SOL     OW 5212   2.478   0.743   1.717
 1438SOL    HW1 5213   2.483   0.644   1.727
 1438SOL    HW2 5214   2.543   0.773   1.648
 1439SOL     OW 5215   0.316   5.872   2.232
 1439SOL    HW1 5216   0.229   5.870   2.282
 1439SOL    HW2 5217   0.352   5.779   2.224
 1440SOL     OW 5218   2.166   2.946   2.003
 1440SOL    HW1 5219   2.151   2.855   2.042
 1440SOL    HW2 5220   2.264   2.958   1.984
 1441SOL     OW 5221   5.251   6.062   0.350
 1441SOL    HW1 5222   5.167   6.053   0.295
 1441SOL    HW2 5223   5.231   6.118   0.431
 1442SOL     OW 5224   5.071   5.242   0.496
 1442SOL    HW1 5225   5.060   5.157   0.445
 1442SOL    HW2 5226   4.982   5.272   0.531
 1443SOL     OW 5227   0.262   2.422   1.990
 1443SOL    HW1 5228   0.337   2.397   2.051
 1443SOL    HW2 5229   0.278   2.382   1.900
 1444SOL     OW 5230   0.599   5.401   6.206
 1444SOL    HW1 5231   0.650   5.405   6.291
 1444SOL    HW2 5232   0.504   5.426   6.223
 1445SOL     OW 5233   0.790   3.186   1.471
 1445SOL    HW1 5234   0.801   3.175   1.570
 1445SOL    HW2 5235   0.829   3.107   1.424
 1446SOL     OW 5236   6.709   5.849   0.727
 1446SOL    HW1 5237   6.698   5.933   0.780
 1446SOL    HW2 5238   6.665   5.773   0.776
 1447SOL     OW 5239   6.444   5.395   4.317
 1447SOL    HW1 5240   6.345   5.391   4.325
 1447SOL    HW2 5241   6.483   5.441   4.397
 1448SOL     OW 5242   0.979   1.830   6.075
 1448SOL    HW1 5243   0.989   1.865   5.982
 1448SOL    HW2 5244   0.882   1.812   6.093
 1449SOL     OW 5245   2.101   3.415   2.951
 1449SOL    HW1 5246   2.120   3.479   3.026
 1449SOL    HW2 5247   2.124   3.459   2.864
 1450SOL     OW 5248   3.341   2.108   3.798
 1450SOL    HW1 5249   3.418   2.167   3.821
 1450SOL    HW2 5250   3.326   2.042   3.872
 1451SOL     OW 5251   3.210   1.453   2.480
 1451SOL    HW1 5252   3.243   1.547   2.487
 1451SOL    HW2 5253   3.110   1.453   2.483
 1452SOL     OW 5254   4.119   2.725   6.743
 1452SOL    HW1 5255   4.061   2.655   6.786
 1452SOL    HW2 5256   4.064   2.807   6.724
 1453SOL     OW 5257   0.555   3.817   5.437
 1453SOL    HW1 5258   0.462   3.784   5.451
 1453SOL    HW2 5259   0.620   3.749   5.471
 1454SOL     OW 5260   3.566   2.118   2.861
 1454SOL    HW1 5261   3.648   2.124   2.917
 1454SOL    HW2 5262   3.591   2.129   2.764
 1455SOL     OW 5263   0.262   5.179   2.451
 1455SOL    HW1 5264   0.275   5.244   2.376
 1455SOL    HW2 5265   0.273   5.086   2.416
 1456SOL     OW 5266   6.313   5.700   4.036
 1456SOL    HW1 5267   6.268   5.698   4.125
 1456SOL    HW2 5268   6.402   5.655   4.043
 1457SOL     OW 5269   0.969   5.024   6.438
 1457SOL    HW1 5270   0.918   4.985   6.362
 1457SOL    HW2 5271   0.905   5.051   6.510
 1458SOL     OW 5272   5.889   5.345   5.104
 1458SOL    HW1 5273   5.934   5.413   5.046
 1458SOL    HW2 5274   5.958   5.294   5.155
 1459SOL     OW 5275   6.533   6.611   4.992
 1459SOL    HW1 5276   6.441   6.650   4.982
 1459SOL    HW2 5277   6.548   6.587   5.088
 1460SOL     OW 5278   1.694   6.359   5.024
 1460SOL    HW1 5279   1.716   6.398   4.935
 1460SOL    HW2 5280   1.776   6.317   5.064
 1461SOL     OW 5281   5.922   3.108   3.976
 1461SOL    HW1 5282   5.903   3.020   3.932
 1461SOL    HW2 5283   5.970   3.168   3.911
 1462SOL     OW 5284   0.535   1.614   1.837
 1462SOL    HW1 5285   0.439   1.586   1.837
 1462SOL    HW2 5286   0.550   1.686   1.904
 1463SOL     OW 5287   1.494   5.564   6.862
 1463SOL    HW1 5288   1.450   5.503   6.928
 1463SOL    HW2 5289   1.487   5.526   6.770
 1464SOL     OW 5290   1.128   4.219   4.439
 1464SOL    HW1 5291   1.221   4.205   4.407
 1464SOL    HW2 5292   1.069   4.147   4.403
 1465SOL     OW 5293   1.387   2.850   4.863
 1465SOL    HW1 5294   1.325   2.876   4.789
 1465SOL    HW2 5295   1.477   2.829   4.825
 1466SOL     OW 5296   5.522   1.221   2.737
 1466SOL    HW1 5297   5.488   1.182   2.823
 1466SOL    HW2 5298   5.445   1.253   2.682
 1467SOL     OW 5299   0.588   6.967   3.351
 1467SOL    HW1 5300   0.579   6.891   3.414
 1467SOL    HW2 5301   0.534   6.949   3.268
 1468SOL     OW 5302   3.258   5.569   2.431
 1468SOL    HW1 5303   3.166   5.555   2.467
 1468SOL    HW2 5304   3.269   5.663   2.401
 1469SOL     OW 5305   6.015   4.164   3.263
 1469SOL    HW1 5306   6.055   4.100   3.197
 1469SOL    HW2 5307   5.975   4.112   3.339
 1470SOL     OW 5308   6.379   1.921   2.391
 1470SOL    HW1 5309   6.366   1.878   2.302
 1470SOL    HW2 5310   6.365   2.020   2.383
 1471SOL     OW 5311   4.775   0.085   0.596
 1471SOL    HW1 5312   4.860   0.111   0.643
 1471SOL    HW2 5313   4.797   0.053   0.504
 1472SOL     OW 5314   1.902   0.826   6.478
 1472SOL    HW1 5315   1.972   0.812   6.409
 1472SOL    HW2 5316   1.942   0.873   6.557
 1473SOL     OW 5317   1.497   5.742   3.660
 1473SOL    HW1 5318   1.472   5.668   3.598
 1473SOL    HW2 5319   1.433   5.744   3.737
 1474SOL     OW 5320   2.419   4.939   1.724
 1474SOL    HW1 5321   2.437   4.857   1.669
 1474SOL    HW2 5322   2.385   5.011   1.664
 1475SOL     OW 5323   5.835   0.300   6.524
 1475SOL    HW1 5324   5.840   0.383   6.579
 1475SOL    HW2 5325   5.871   0.318   6.432
 1476SOL     OW 5326   5.429   0.042   6.424
 1476SOL    HW1 5327   5.378   0.112   6.373
 1476SOL    HW2 5328   5.432   6.983   6.371
 1477SOL     OW 5329   3.261   4.289   1.681
 1477SOL    HW1 5330   3.320   4.365   1.655
 1477SOL    HW2 5331   3.165   4.317   1.676
 1478SOL     OW 5332   4.712   4.790   6.440
 1478SOL    HW1 5333   4.790   4.784   6.503
 1478SOL    HW2 5334   4.706   4.883   6.403
 1479SOL     OW 5335   4.831   4.019   1.089
 1479SOL    HW1 5336   4.824   3.971   1.176
 1479SOL    HW2 5337   4.798   3.960   1.015
 1480SOL     OW 5338   2.721   0.830   4.305
 1480SOL    HW1 5339   2.806   0.830   4.253
 1480SOL    HW2 5340   2.648   0.789   4.250
 1481SOL     OW 5341   4.534   2.255   6.104
 1481SOL    HW1 5342   4.449   2.305   6.124
 1481SOL    HW2 5343   4.515   2.184   6.037
 1482SOL     OW 5344   6.269   1.176   1.529
 1482SOL    HW1 5345   6.184   1.218   1.560
 1482SOL    HW2 5346   6.340   1.189   1.599
 1483SOL     OW 5347   6.260   0.224   0.070
 1483SOL    HW1 5348   6.325   0.300   0.081
 1483SOL    HW2 5349   6.214   0.231   7.008
 1484SOL     OW 5350   3.818   5.862   5.512
 1484SOL    HW1 5351   3.891   5.804   5.549
 1484SOL    HW2 5352   3.733   5.845   5.562
 1485SOL     OW 5353   4.938   3.608   3.456
 1485SOL    HW1 5354   4.919   3.526   3.403
 1485SOL    HW2 5355   4.853   3.643   3.496
 1486SOL     OW 5356   4.795   5.838   4.145
 1486SOL    HW1 5357   4.841   5.790   4.071
 1486SOL    HW2 5358   4.755   5.771   4.208
 1487SOL     OW 5359   6.421   1.405   0.724
 1487SOL    HW1 5360   6.396   1.310   0.706
 1487SOL    HW2 5361   6.394   1.429   0.818
 1488SOL     OW 5362   6.588   2.116   2.546
 1488SOL    HW1 5363   6.546   2.188   2.491
 1488SOL    HW2 5364   6.661   2.155   2.602
 1489SOL     OW 5365   3.080   4.871   0.237
 1489SOL    HW1 5366   3.142   4.947   0.219
 1489SOL    HW2 5367   2.987   4.895   0.209
 1490SOL     OW 5368   6.728   3.266   2.315
 1490SOL    HW1 5369   6.631   3.280   2.293
 1490SOL    HW2 5370   6.777   3.237   2.232
 1491SOL     OW 5371   5.247   2.813   3.689
 1491SOL    HW1 5372   5.291   2.876   3.752
 1491SOL    HW2 5373   5.215   2.732   3.738
 1492SOL     OW 5374   0.444   2.258   2.430
 1492SOL    HW1 5375   0.490   2.184   2.479
 1492SOL    HW2 5376   0.355   2.226   2.398
 1493SOL     OW 5377   6.165   2.169   6.477
 1493SOL    HW1 5378   6.100   2.232   6.519
 1493SOL    HW2 5379   6.190   2.202   6.386
 1494SOL     OW 5380   0.174   4.223   6.248
 1494SOL    HW1 5381   0.148   4.230   6.152
 1494SOL    HW2 5382   0.230   4.302   6.272
 1495SOL     OW 5383   6.881   4.010   4.379
 1495SOL    HW1 5384   6.889   4.051   4.470
 1495SOL    HW2 5385   6.786   4.014   4.348
 1496SOL     OW 5386   6.703   6.436   5.853
 1496SOL    HW1 5387   6.722   6.446   5.951
 1496SOL    HW2 5388   6.618   6.483   5.831
 1497SOL     OW 5389   6.097   2.374   2.304
 1497SOL    HW1 5390   6.051   2.361   2.392
 1497SOL    HW2 5391   6.029   2.372   2.231
 1498SOL     OW 5392   3.531   4.473   0.609
 1498SOL    HW1 5393   3.454   4.516   0.654
 1498SOL    HW2 5394   3.546   4.515   0.520
 1499SOL     OW 5395   0.265   4.686   4.348
 1499SOL    HW1 5396   0.303   4.664   4.258
 1499SOL    HW2 5397   0.173   4.724   4.338
 1500SOL     OW 5398   1.595   5.686   2.214
 1500SOL    HW1 5399   1.581   5.605   2.271
 1500SOL    HW2 5400   1.507   5.727   2.191
 1501SOL     OW 5401   6.727   1.480   0.749
 1501SOL    HW1 5402   6.728   1.444   0.842
 1501SOL    HW2 5403   6.640   1.527   0.732
 1502SOL     OW 5404   0.045   6.640   6.386
 1502SOL    HW1 5405   0.033   6.739   6.392
 1502SOL    HW2 5406   0.130   6.620   6.336
 1503SOL     OW 5407   6.957   4.676   1.813
 1503SOL    HW1 5408   6.864   4.699   1.843
 1503SOL    HW2 5409   6.964   4.689   1.714
 1504SOL     OW 5410   1.699   6.842   3.250
 1504SOL    HW1 5411   1.744   6.916   3.200
 1504SOL    HW2 5412   1.607   6.828   3.214
 1505SOL     OW 5413   6.256   5.358   4.989
 1505SOL    HW1 5414   6.342   5.402   4.961
 1505SOL    HW2 5415   6.191   5.428   5.018
 1506SOL     OW 5416   1.533   0.745   0.745
 1506SOL    HW1 5417   1.553   0.794   0.830
 1506SOL    HW2 5418   1.444   0.775   0.709
 1507SOL     OW 5419   3.003   2.196   3.519
 1507SOL    HW1 5420   2.922   2.207   3.460
 1507SOL    HW2 5421   3.086   2.200   3.464
 1508SOL     OW 5422   1.942   0.412   1.810
 1508SOL    HW1 5423   1.913   0.374   1.898
 1508SOL    HW2 5424   2.024   0.469   1.824
 1509SOL     OW 5425   5.157   1.166   3.870
 1509SOL    HW1 5426   5.106   1.214   3.799
 1509SOL    HW2 5427   5.173   1.072   3.841
 1510SOL     OW 5428   3.738   6.127   5.115
 1510SOL    HW1 5429   3.753   6.204   5.053
 1510SOL    HW2 5430   3.789   6.047   5.083
 1511SOL     OW 5431   3.201   3.828   5.205
 1511SOL    HW1 5432   3.114   3.876   5.195
 1511SOL    HW2 5433   3.201   3.775   5.289
 1512SOL     OW 5434   5.193   6.380   0.759
 1512SOL    HW1 5435   5.290   6.376   0.736
 1512SOL    HW2 5436   5.144   6.309   0.710
 1513SOL     OW 5437   2.685   0.922   5.628
 1513SOL    HW1 5438   2.733   0.882   5.706
 1513SOL    HW2 5439   2.587   0.924   5.647
 1514SOL     OW 5440   2.921   2.211   6.688
 1514SOL    HW1 5441   2.965   2.256   6.765
 1514SOL    HW2 5442   2.900   2.279   6.617
 1515SOL     OW 5443   3.658   0.469   2.608
 1515SOL    HW1 5444   3.703   0.404   2.546
 1515SOL    HW2 5445   3.623   0.420   2.688
 1516SOL     OW 5446   6.334   6.912   6.065
 1516SOL    HW1 5447   6.373   7.001   6.042
 1516SOL    HW2 5448   6.266   6.886   5.996
 1517SOL     OW 5449   2.608   5.945   3.124
 1517SOL    HW1 5450   2.520   5.901   3.138
 1517SOL    HW2 5451   2.682   5.881   3.145
 1518SOL     OW 5452   0.799   2.944   6.638
 1518SOL    HW1 5453   0.817   2.931   6.541
 1518SOL    HW2 5454   0.720   3.004   6.650
 1519SOL     OW 5455   0.108   4.544   6.796
 1519SOL    HW1 5456   0.087   4.625   6.851
 1519SOL    HW2 5457   0.196   4.506   6.824
 1520SOL     OW 5458   0.056   6.720   3.643
 1520SOL    HW1 5459   0.042   6.808   3.688
 1520SOL    HW2 5460   0.107   6.733   3.558
 1521SOL     OW 5461   1.985   5.233   6.550
 1521SOL    HW1 5462   1.907   5.225   6.487
 1521SOL    HW2 5463   2.068   5.203   6.503
 1522SOL     OW 5464   5.300   6.237   4.285
 1522SOL    HW1 5465   5.216   6.187   4.264
 1522SOL    HW2 5466   5.378   6.192   4.242
 1523SOL     OW 5467   2.780   6.697   0.449
 1523SOL    HW1 5468   2.771   6.634   0.527
 1523SOL    HW2 5469   2.817   6.784   0.481
 1524SOL     OW 5470   2.173   2.122   3.598
 1524SOL    HW1 5471   2.122   2.163   3.673
 1524SOL    HW2 5472   2.130   2.145   3.510
 1525SOL     OW 5473   4.807   4.444   6.147
 1525SOL    HW1 5474   4.760   4.355   6.142
 1525SOL    HW2 5475   4.749   4.510   6.194
 1526SOL     OW 5476   1.036   1.527   1.182
 1526SOL    HW1 5477   0.994   1.484   1.102
 1526SOL    HW2 5478   1.116   1.474   1.210
 1527SOL     OW 5479   4.963   1.563   4.658
 1527SOL    HW1 5480   4.918   1.476   4.680
 1527SOL    HW2 5481   4.976   1.570   4.559
 1528SOL     OW 5482   3.706   3.530   2.476
 1528SOL    HW1 5483   3.801   3.505   2.459
 1528SOL    HW2 5484   3.686   3.518   2.574
 1529SOL     OW 5485   4.291   1.464   5.903
 1529SOL    HW1 5486   4.349   1.538   5.937
 1529SOL    HW2 5487   4.219   1.502   5.844
 1530SOL     OW 5488   2.311   6.916   0.849
 1530SOL    HW1 5489   2.400   6.938   0.808
 1530SOL    HW2 5490   2.239   6.967   0.803
 1531SOL     OW 5491   4.562   5.987   4.481
 1531SOL    HW1 5492   4.606   5.990   4.571
 1531SOL    HW2 5493   4.601   6.059   4.423
 1532SOL     OW 5494   2.678   5.923   1.331
 1532SOL    HW1 5495   2.692   5.985   1.253
 1532SOL    HW2 5496   2.682   5.975   1.416
 1533SOL     OW 5497   5.589   6.369   1.081
 1533SOL    HW1 5498   5.537   6.432   1.138
 1533SOL    HW2 5499   5.684   6.367   1.111
 1534SOL     OW 5500   2.538   5.057   6.454
 1534SOL    HW1 5501   2.484   4.994   6.398
 1534SOL    HW2 5502   2.501   5.149   6.446
 1535SOL     OW 5503   5.288   4.259   3.440
 1535SOL    HW1 5504   5.387   4.250   3.441
 1535SOL    HW2 5505   5.259   4.307   3.358
 1536SOL     OW 5506   4.457   3.867   6.469
 1536SOL    HW1 5507   4.407   3.901   6.550
 1536SOL    HW2 5508   4.551   3.901   6.471
 1537SOL     OW 5509   2.683   4.993   2.703
 1537SOL    HW1 5510   2.714   4.968   2.611
 1537SOL    HW2 5511   2.736   5.071   2.736
 1538SOL     OW 5512   2.963   1.406   0.336
 1538SOL    HW1 5513   3.025   1.332   0.307
 1538SOL    HW2 5514   2.944   1.466   0.259
 1539SOL     OW 5515   6.710   3.190   1.017
 1539SOL    HW1 5516   6.720   3.286   1.041
 1539SOL    HW2 5517   6.698   3.180   0.919
 1540SOL     OW 5518   3.648   6.474   3.276
 1540SOL    HW1 5519   3.627   6.448   3.371
 1540SOL    HW2 5520   3.656   6.391   3.220
 1541SOL     OW 5521   4.561   2.856   5.499
 1541SOL    HW1 5522   4.477   2.841   5.553
 1541SOL    HW2 5523   4.640   2.823   5.551
 1542SOL     OW 5524   6.993   5.297   2.925
 1542SOL    HW1 5525   0.016   5.305   2.838
 1542SOL    HW2 5526   6.945   5.383   2.945
 1543SOL     OW 5527   3.077   5.526   0.448
 1543SOL    HW1 5528   3.061   5.437   0.404
 1543SOL    HW2 5529   3.148   5.575   0.397
 1544SOL     OW 5530   4.093   3.388   3.929
 1544SOL    HW1 5531   4.035   3.370   3.849
 1544SOL    HW2 5532   4.115   3.301   3.974
 1545SOL     OW 5533   5.838   5.382   1.544
 1545SOL    HW1 5534   5.868   5.287   1.548
 1545SOL    HW2 5535   5.873   5.431   1.624
 1546SOL     OW 5536   6.109   6.415   5.606
 1546SOL    HW1 5537   6.162   6.368   5.535
 1546SOL    HW2 5538   6.021   6.369   5.619
 1547SOL     OW 5539   1.986   3.635   6.050
 1547SOL    HW1 5540   1.956   3.607   6.141
 1547SOL    HW2 5541   2.078   3.673   6.057
 1548SOL     OW 5542   6.617   2.317   0.850
 1548SOL    HW1 5543   6.522   2.292   0.836
 1548SOL    HW2 5544   6.625   2.416   0.860
 1549SOL     OW 5545   5.248   0.619   4.653
 1549SOL    HW1 5546   5.331   0.599   4.602
 1549SOL    HW2 5547   5.245   0.565   4.737
 1550SOL     OW 5548   3.121   3.117   3.902
 1550SOL    HW1 5549   3.142   3.082   3.993
 1550SOL    HW2 5550   3.022   3.134   3.896
 1551SOL     OW 5551   6.694   5.058   5.914
 1551SOL    HW1 5552   6.697   4.959   5.929
 1551SOL    HW2 5553   6.787   5.093   5.902
 1552SOL     OW 5554   1.893   4.283   1.382
 1552SOL    HW1 5555   1.826   4.248   1.446
 1552SOL    HW2 5556   1.863   4.372   1.348
 1553SOL     OW 5557   1.790   2.172   6.019
 1553SOL    HW1 5558   1.728   2.098   5.993
 1553SOL    HW2 5559   1.824   2.156   6.112
 1554SOL     OW 5560   4.266   1.867   3.206
 1554SOL    HW1 5561   4.276   1.844   3.303
 1554SOL    HW2 5562   4.334   1.936   3.181
 1555SOL     OW 5563   5.995   4.972   5.558
 1555SOL    HW1 5564   6.084   5.003   5.523
 1555SOL    HW2 5565   5.997   4.873   5.571
 1556SOL     OW 5566   2.046   1.206   5.833
 1556SOL    HW1 5567   1.953   1.183   5.804
 1556SOL    HW2 5568   2.093   1.254   5.758
 1557SOL     OW 5569   0.692   1.949   5.124
 1557SOL    HW1 5570   0.736   1.964   5.035
 1557SOL    HW2 5571   0.593   1.943   5.111
 1558SOL     OW 5572   0.065   6.648   4.459
 1558SOL    HW1 5573   0.100   6.618   4.370
 1558SOL    HW2 5574   0.138   6.640   4.528
 1559SOL     OW 5575   1.161   1.415   5.450
 1559SOL    HW1 5576   1.110   1.457   5.374
 1559SOL    HW2 5577   1.257   1.445   5.446
 1560SOL     OW 5578   0.013   0.334   0.047
 1560SOL    HW1 5579   0.084   0.399   0.019
 1560SOL    HW2 5580   0.028   0.246   0.001
 1561SOL     OW 5581   6.188   6.408   2.051
 1561SOL    HW1 5582   6.180   6.315   2.015
 1561SOL    HW2 5583   6.279   6.444   2.030
 1562SOL     OW 5584   5.394   0.833   4.034
 1562SOL    HW1 5585   5.478   0.877   4.005
 1562SOL    HW2 5586   5.395   0.737   4.007
 1563SOL     OW 5587   3.345   6.894   5.771
 1563SOL    HW1 5588   3.271   6.906   5.837
 1563SOL    HW2 5589   3.395   6.809   5.792
 1564SOL     OW 5590   1.073   2.077   3.233
 1564SOL    HW1 5591   1.110   2.166   3.261
 1564SOL    HW2 5592   0.981   2.066   3.270
 1565SOL     OW 5593   6.372   4.477   1.175
 1565SOL    HW1 5594   6.355   4.492   1.078
 1565SOL    HW2 5595   6.322   4.395   1.205
 1566SOL     OW 5596   6.033   4.479   2.534
 1566SOL    HW1 5597   5.951   4.536   2.530
 1566SOL    HW2 5598   6.069   4.466   2.441
 1567SOL     OW 5599   6.723   5.674   5.536
 1567SOL    HW1 5600   6.674   5.690   5.450
 1567SOL    HW2 5601   6.815   5.712   5.529
 1568SOL     OW 5602   0.134   0.033   0.093
 1568SOL    HW1 5603   0.070   6.987   0.066
 1568SOL    HW2 5604   0.223   0.014   0.053
 1569SOL     OW 5605   3.382   6.323   5.503
 1569SOL    HW1 5606   3.475   6.357   5.509
 1569SOL    HW2 5607   3.327   6.384   5.445
 1570SOL     OW 5608   3.154   2.312   1.752
 1570SOL    HW1 5609   3.081   2.352   1.807
 1570SOL    HW2 5610   3.215   2.259   1.812
 1571SOL     OW 5611   0.429   3.465   0.694
 1571SOL    HW1 5612   0.366   3.400   0.737
 1571SOL    HW2 5613   0.521   3.426   0.695
 1572SOL     OW 5614   0.834   5.619   2.617
 1572SOL    HW1 5615   0.912   5.557   2.607
 1572SOL    HW2 5616   0.799   5.614   2.711
 1573SOL     OW 5617   4.347   6.782   0.272
 1573SOL    HW1 5618   4.339   6.708   0.205
 1573SOL    HW2 5619   4.257   6.802   0.310
 1574SOL     OW 5620   5.372   2.678   2.513
 1574SOL    HW1 5621   5.391   2.584   2.484
 1574SOL    HW2 5622   5.274   2.688   2.534
 1575SOL     OW 5623   3.304   1.778   0.601
 1575SOL    HW1 5624   3.361   1.810   0.677
 1575SOL    HW2 5625   3.358   1.722   0.539
 1576SOL     OW 5626   6.063   5.155   3.248
 1576SOL    HW1 5627   6.140   5.168   3.186
 1576SOL    HW2 5628   6.097   5.141   3.341
 1577SOL     OW 5629   1.531   0.306   0.416
 1577SOL    HW1 5630   1.450   0.329   0.470
 1577SOL    HW2 5631   1.551   0.380   0.352
 1578SOL     OW 5632   5.621   5.628   4.486
 1578SOL    HW1 5633   5.676   5.712   4.486
 1578SOL    HW2 5634   5.675   5.554   4.446
 1579SOL     OW 5635   6.947   0.132   3.046
 1579SOL    HW1 5636   6.985   0.040   3.033
 1579SOL    HW2 5637   6.960   0.186   2.963
 1580SOL     OW 5638   3.004   4.041   6.004
 1580SOL    HW1 5639   3.086   4.056   6.059
 1580SOL    HW2 5640   3.027   4.046   5.907
 1581SOL     OW 5641   6.290   3.158   4.640
 1581SOL    HW1 5642   6.278   3.088   4.570
 1581SOL    HW2 5643   6.238   3.240   4.615
 1582SOL     OW 5644   6.139   6.054   4.776
 1582SOL    HW1 5645   6.138   6.154   4.781
 1582SOL    HW2 5646   6.047   6.018   4.789
 1583SOL     OW 5647   2.153   2.293   2.381
 1583SOL    HW1 5648   2.139   2.386   2.415
 1583SOL    HW2 5649   2.206   2.297   2.296
 1584SOL     OW 5650   2.413   0.543   6.546
 1584SOL    HW1 5651   2.435   0.498   6.633
 1584SOL    HW2 5652   2.324   0.510   6.514
 1585SOL     OW 5653   6.159   1.102   6.186
 1585SOL    HW1 5654   6.081   1.095   6.124
 1585SOL    HW2 5655   6.130   1.146   6.271
 1586SOL     OW 5656   4.114   3.495   3.145
 1586SOL    HW1 5657   4.183   3.485   3.217
 1586SOL    HW2 5658   4.132   3.579   3.094
 1587SOL     OW 5659   2.469   6.733   6.127
 1587SOL    HW1 5660   2.492   6.646   6.172
 1587SOL    HW2 5661   2.460   6.804   6.197
 1588SOL     OW 5662   5.853   3.888   1.146
 1588SOL    HW1 5663   5.912   3.930   1.077
 1588SOL    HW2 5664   5.768   3.858   1.103
 1589SOL     OW 5665   4.765   5.259   3.053
 1589SOL    HW1 5666   4.695   5.188   3.053
 1589SOL    HW2 5667   4.728   5.344   3.090
 1590SOL     OW 5668   2.396   6.674   5.180
 1590SOL    HW1 5669   2.363   6.584   5.152
 1590SOL    HW2 5670   2.377   6.687   5.277
 1591SOL     OW 5671   1.404   3.763   0.564
 1591SOL    HW1 5672   1.410   3.718   0.653
 1591SOL    HW2 5673   1.463   3.844   0.563
 1592SOL     OW 5674   3.937   3.942   3.671
 1592SOL    HW1 5675   3.973   3.989   3.751
 1592SOL    HW2 5676   3.982   3.852   3.663
 1593SOL     OW 5677   1.706   4.450   4.533
 1593SOL    HW1 5678   1.716   4.464   4.631
 1593SOL    HW2 5679   1.609   4.446   4.509
 1594SOL     OW 5680   1.440   5.015   3.480
 1594SOL    HW1 5681   1.404   5.090   3.535
 1594SOL    HW2 5682   1.389   4.932   3.499
 1595SOL     OW 5683   0.078   4.317   5.045
 1595SOL    HW1 5684   0.103   4.404   5.003
 1595SOL    HW2 5685   0.003   4.275   4.993
 1596SOL     OW 5686   2.689   5.307   0.137
 1596SOL    HW1 5687   2.733   5.262   0.059
 1596SOL    HW2 5688   2.711   5.404   0.136
 1597SOL     OW 5689   2.254   0.217   0.278
 1597SOL    HW1 5690   2.190   0.275   0.329
 1597SOL    HW2 5691   2.277   0.261   0.192
 1598SOL     OW 5692   6.911   5.317   1.554
 1598SOL    HW1 5693   6.823   5.359   1.532
 1598SOL    HW2 5694   6.908   5.281   1.648
 1599SOL     OW 5695   3.067   5.242   0.352
 1599SOL    HW1 5696   3.107   5.183   0.281
 1599SOL    HW2 5697   3.091   5.206   0.442
 1600SOL     OW 5698   3.154   1.045   5.483
 1600SOL    HW1 5699   3.099   0.971   5.443
 1600SOL    HW2 5700   3.194   1.099   5.409
 1601SOL     OW 5701   1.446   5.414   4.959
 1601SOL    HW1 5702   1.424   5.318   4.942
 1601SOL    HW2 5703   1.410   5.440   5.049
 1602SOL     OW 5704   0.588   3.869   2.271
 1602SOL    HW1 5705   0.613   3.777   2.304
 1602SOL    HW2 5706   0.499   3.864   2.225
 1603SOL     OW 5707   5.732   6.653   0.635
 1603SOL    HW1 5708   5.674   6.593   0.690
 1603SOL    HW2 5709   5.748   6.612   0.546
 1604SOL     OW 5710   0.800   5.625   4.929
 1604SOL    HW1 5711   0.834   5.585   4.844
 1604SOL    HW2 5712   0.855   5.592   5.006
 1605SOL     OW 5713   5.459   5.747   2.629
 1605SOL    HW1 5714   5.487   5.804   2.552
 1605SOL    HW2 5715   5.407   5.669   2.595
 1606SOL     OW 5716   5.667   6.023   4.975
 1606SOL    HW1 5717   5.684   6.120   4.957
 1606SOL    HW2 5718   5.733   5.990   5.042
 1607SOL     OW 5719   4.305   3.110   1.078
 1607SOL    HW1 5720   4.267   3.018   1.088
 1607SOL    HW2 5721   4.405   3.104   1.079
 1608SOL     OW 5722   2.637   0.645   0.513
 1608SOL    HW1 5723   2.584   0.728   0.498
 1608SOL    HW2 5724   2.597   0.569   0.461
 1609SOL     OW 5725   5.238   0.914   5.628
 1609SOL    HW1 5726   5.153   0.868   5.653
 1609SOL    HW2 5727   5.229   0.955   5.538
 1610SOL     OW 5728   5.085   6.098   2.982
 1610SOL    HW1 5729   5.028   6.166   3.028
 1610SOL    HW2 5730   5.160   6.143   2.935
 1611SOL     OW 5731   4.150   3.447   1.567
 1611SOL    HW1 5732   4.229   3.485   1.616
 1611SOL    HW2 5733   4.126   3.508   1.491
 1612SOL     OW 5734   3.439   0.504   4.588
 1612SOL    HW1 5735   3.413   0.520   4.684
 1612SOL    HW2 5736   3.537   0.520   4.576
 1613SOL     OW 5737   1.720   0.409   0.606
 1613SOL    HW1 5738   1.669   0.353   0.540
 1613SOL    HW2 5739   1.659   0.438   0.679
 1614SOL     OW 5740   0.002   2.288   5.285
 1614SOL    HW1 5741   0.078   2.283   5.350
 1614SOL    HW2 5742   6.942   2.278   5.334
 1615SOL     OW 5743   6.463   4.829   5.528
 1615SOL    HW1 5744   6.474   4.755   5.595
 1615SOL    HW2 5745   6.535   4.897   5.543
 1616SOL     OW 5746   2.302   2.091   6.524
 1616SOL    HW1 5747   2.236   2.152   6.480
 1616SOL    HW2 5748   2.319   2.122   6.618
 1617SOL     OW 5749   3.881   0.772   4.107
 1617SOL    HW1 5750   3.966   0.825   4.118
 1617SOL    HW2 5751   3.842   0.752   4.197
 1618SOL     OW 5752   5.496   2.486   2.319
 1618SOL    HW1 5753   5.595   2.485   2.305
 1618SOL    HW2 5754   5.455   2.558   2.264
 1619SOL     OW 5755   1.767   2.685   4.264
 1619SOL    HW1 5756   1.816   2.598   4.256
 1619SOL    HW2 5757   1.827   2.759   4.236
 1620SOL     OW 5758   3.913   5.995   1.836
 1620SOL    HW1 5759   3.882   5.944   1.916
 1620SOL    HW2 5760   3.916   6.093   1.858
 1621SOL     OW 5761   2.156   1.603   2.272
 1621SOL    HW1 5762   2.066   1.572   2.301
 1621SOL    HW2 5763   2.193   1.665   2.341
 1622SOL     OW 5764   2.272   2.322   4.731
 1622SOL    HW1 5765   2.224   2.341   4.816
 1622SOL    HW2 5766   2.216   2.351   4.654
 1623SOL     OW 5767   2.386   1.776   4.596
 1623SOL    HW1 5768   2.448   1.814   4.664
 1623SOL    HW2 5769   2.371   1.679   4.616
 1624SOL     OW 5770   2.316   0.797   0.750
 1624SOL    HW1 5771   2.409   0.798   0.714
 1624SOL    HW2 5772   2.299   0.710   0.796
 1625SOL     OW 5773   0.577   6.180   1.184
 1625SOL    HW1 5774   0.584   6.228   1.096
 1625SOL    HW2 5775   0.565   6.082   1.167
 1626SOL     OW 5776   2.065   3.184   5.931
 1626SOL    HW1 5777   2.043   3.281   5.916
 1626SOL    HW2 5778   2.105   3.173   6.022
 1627SOL     OW 5779   4.853   3.728   3.710
 1627SOL    HW1 5780   4.949   3.748   3.692
 1627SOL    HW2 5781   4.818   3.790   3.779
 1628SOL     OW 5782   2.753   3.179   0.254
 1628SOL    HW1 5783   2.692   3.152   0.328
 1628SOL    HW2 5784   2.838   3.215   0.291
 1629SOL     OW 5785   3.285   2.133   2.859
 1629SOL    HW1 5786   3.281   2.123   2.760
 1629SOL    HW2 5787   3.379   2.152   2.887
 1630SOL     OW 5788   5.885   4.794   4.305
 1630SOL    HW1 5789   5.829   4.874   4.329
 1630SOL    HW2 5790   5.949   4.775   4.379
 1631SOL     OW 5791   0.985   0.164   5.936
 1631SOL    HW1 5792   1.007   0.184   5.840
 1631SOL    HW2 5793   0.893   0.200   5.956
 1632SOL     OW 5794   4.796   6.754   0.058
 1632SOL    HW1 5795   4.772   6.847   0.029
 1632SOL    HW2 5796   4.745   6.731   0.141
 1633SOL     OW 5797   6.179   3.465   3.336
 1633SOL    HW1 5798   6.211   3.384   3.288
 1633SOL    HW2 5799   6.117   3.439   3.410
 1634SOL     OW 5800   4.097   1.100   1.157
 1634SOL    HW1 5801   4.171   1.151   1.199
 1634SOL    HW2 5802   4.097   1.006   1.191
 1635SOL     OW 5803   1.407   5.112   4.049
 1635SOL    HW1 5804   1.492   5.062   4.031
 1635SOL    HW2 5805   1.350   5.060   4.112
 1636SOL     OW 5806   2.619   6.410   0.270
 1636SOL    HW1 5807   2.703   6.450   0.307
 1636SOL    HW2 5808   2.566   6.370   0.344
 1637SOL     OW 5809   0.741   2.389   2.374
 1637SOL    HW1 5810   0.706   2.297   2.356
 1637SOL    HW2 5811   0.795   2.389   2.458
 1638SOL     OW 5812   1.490   2.397   5.521
 1638SOL    HW1 5813   1.506   2.456   5.600
 1638SOL    HW2 5814   1.455   2.452   5.445
 1639SOL     OW 5815   4.305   5.104   2.374
 1639SOL    HW1 5816   4.236   5.128   2.442
 1639SOL    HW2 5817   4.352   5.020   2.402
 1640SOL     OW 5818   5.223   0.558   1.203
 1640SOL    HW1 5819   5.256   0.596   1.116
 1640SOL    HW2 5820   5.202   0.461   1.191
 1641SOL     OW 5821   6.809   2.543   5.147
 1641SOL    HW1 5822   6.810   2.642   5.137
 1641SOL    HW2 5823   6.756   2.503   5.071
 1642SOL     OW 5824   0.707   2.223   1.530
 1642SOL    HW1 5825   0.793   2.274   1.530
 1642SOL    HW2 5826   0.643   2.264   1.595
 1643SOL     OW 5827   3.746   0.705   5.501
 1643SOL    HW1 5828   3.751   0.745   5.592
 1643SOL    HW2 5829   3.655   0.718   5.464
 1644SOL     OW 5830   4.131   1.126   0.472
 1644SOL    HW1 5831   4.060   1.146   0.539
 1644SOL    HW2 5832   4.088   1.107   0.383
 1645SOL     OW 5833   1.912   6.236   6.561
 1645SOL    HW1 5834   1.866   6.308   6.613
 1645SOL    HW2 5835   1.860   6.217   6.478
 1646SOL     OW 5836   1.933   3.676   0.461
 1646SOL    HW1 5837   1.877   3.605   0.503
 1646SOL    HW2 5838   1.970   3.736   0.533
 1647SOL     OW 5839   5.914   2.931   2.407
 1647SOL    HW1 5840   6.006   2.918   2.371
 1647SOL    HW2 5841   5.850   2.872   2.358
 1648SOL     OW 5842   3.604   6.800   2.710
 1648SOL    HW1 5843   3.540   6.834   2.641
 1648SOL    HW2 5844   3.564   6.813   2.801
 1649SOL     OW 5845   2.419   0.156   3.183
 1649SOL    HW1 5846   2.394   0.065   3.217
 1649SOL    HW2 5847   2.409   0.158   3.084
 1650SOL     OW 5848   3.044   6.880   4.100
 1650SOL    HW1 5849   3.121   6.936   4.131
 1650SOL    HW2 5850   3.002   6.834   4.179
 1651SOL     OW 5851   1.203   0.184   2.044
 1651SOL    HW1 5852   1.177   0.241   2.121
 1651SOL    HW2 5853   1.121   0.147   2.000
 1652SOL     OW 5854   3.120   3.236   1.734
 1652SOL    HW1 5855   3.101   3.301   1.661
 1652SOL    HW2 5856   3.045   3.170   1.740
 1653SOL     OW 5857   1.373   5.284   1.102
 1653SOL    HW1 5858   1.398   5.319   1.192
 1653SOL    HW2 5859   1.340   5.190   1.111
 1654SOL     OW 5860   0.449   1.989   3.969
 1654SOL    HW1 5861   0.353   1.974   3.942
 1654SOL    HW2 5862   0.506   1.993   3.887
 1655SOL     OW 5863   4.682   4.296   5.517
 1655SOL    HW1 5864   4.673   4.391   5.549
 1655SOL    HW2 5865   4.592   4.262   5.490
 1656SOL     OW 5866   0.227   3.672   2.388
 1656SOL    HW1 5867   0.151   3.606   2.388
 1656SOL    HW2 5868   0.251   3.695   2.482
 1657SOL     OW 5869   1.213   0.503   5.239
 1657SOL    HW1 5870   1.278   0.476   5.168
 1657SOL    HW2 5871   1.204   0.603   5.240
 1658SOL     OW 5872   6.084   6.280   2.962
 1658SOL    HW1 5873   6.073   6.283   3.062
 1658SOL    HW2 5874   6.146   6.353   2.933
 1659SOL     OW 5875   5.158   2.065   6.556
 1659SOL    HW1 5876   5.099   2.076   6.476
 1659SOL    HW2 5877   5.229   2.135   6.556
 1660SOL     OW 5878   2.325   6.285   3.354
 1660SOL    HW1 5879   2.379   6.300   3.437
 1660SOL    HW2 5880   2.316   6.187   3.337
 1661SOL     OW 5881   3.041   0.279   2.907
 1661SOL    HW1 5882   3.001   0.188   2.918
 1661SOL    HW2 5883   3.117   0.275   2.843
 1662SOL     OW 5884   6.564   1.105   2.914
 1662SOL    HW1 5885   6.622   1.029   2.887
 1662SOL    HW2 5886   6.501   1.127   2.840
 1663SOL     OW 5887   2.116   0.220   3.746
 1663SOL    HW1 5888   2.060   0.266   3.677
 1663SOL    HW2 5889   2.213   0.230   3.722
 1664SOL     OW 5890   2.222   5.347   4.683
 1664SOL    HW1 5891   2.153   5.405   4.728
 1664SOL    HW2 5892   2.176   5.270   4.639
 1665SOL     OW 5893   0.386   1.169   3.587
 1665SOL    HW1 5894   0.395   1.089   3.646
 1665SOL    HW2 5895   0.461   1.232   3.605
 1666SOL     OW 5896   5.691   2.723   6.180
 1666SOL    HW1 5897   5.760   2.773   6.128
 1666SOL    HW2 5898   5.607   2.716   6.126
 1667SOL     OW 5899   6.868   0.673   0.375
 1667SOL    HW1 5900   6.834   0.627   0.456
 1667SOL    HW2 5901   6.876   0.607   0.300
 1668SOL     OW 5902   1.705   0.390   4.819
 1668SOL    HW1 5903   1.750   0.390   4.909
 1668SOL    HW2 5904   1.749   0.459   4.761
 1669SOL     OW 5905   5.815   5.979   6.108
 1669SOL    HW1 5906   5.793   6.025   6.194
 1669SOL    HW2 5907   5.906   5.939   6.115
 1670SOL     OW 5908   6.561   3.494   6.643
 1670SOL    HW1 5909   6.495   3.532   6.709
 1670SOL    HW2 5910   6.618   3.427   6.689
 1671SOL     OW 5911   5.561   5.358   0.508
 1671SOL    HW1 5912   5.470   5.367   0.467
 1671SOL    HW2 5913   5.561   5.282   0.573
 1672SOL     OW 5914   1.838   5.369   2.332
 1672SOL    HW1 5915   1.914   5.432   2.339
 1672SOL    HW2 5916   1.860   5.284   2.380
 1673SOL     OW 5917   6.228   2.652   3.404
 1673SOL    HW1 5918   6.307   2.597   3.430
 1673SOL    HW2 5919   6.152   2.634   3.468
 1674SOL     OW 5920   2.537   5.595   6.952
 1674SOL    HW1 5921   2.541   5.695   6.957
 1674SOL    HW2 5922   2.455   5.568   6.903
 1675SOL     OW 5923   4.491   2.005   0.564
 1675SOL    HW1 5924   4.452   2.006   0.656
 1675SOL    HW2 5925   4.427   1.962   0.500
 1676SOL     OW 5926   2.762   1.122   4.353
 1676SOL    HW1 5927   2.840   1.130   4.291
 1676SOL    HW2 5928   2.721   1.031   4.345
 1677SOL     OW 5929   5.956   0.347   5.894
 1677SOL    HW1 5930   5.877   0.380   5.946
 1677SOL    HW2 5931   6.032   0.411   5.906
 1678SOL     OW 5932   5.091   6.987   1.501
 1678SOL    HW1 5933   5.047   6.971   1.590
 1678SOL    HW2 5934   5.190   6.996   1.514
 1679SOL     OW 5935   5.626   4.342   0.336
 1679SOL    HW1 5936   5.704   4.364   0.394
 1679SOL    HW2 5937   5.649   4.361   0.240
 1680SOL     OW 5938   0.817   2.533   5.337
 1680SOL    HW1 5939   0.895   2.516   5.276
 1680SOL    HW2 5940   0.735   2.546   5.282
 1681SOL     OW 5941   4.586   5.115   0.262
 1681SOL    HW1 5942   4.507   5.170   0.235
 1681SOL    HW2 5943   4.650   5.172   0.314
 1682SOL     OW 5944   6.889   2.762   5.398
 1682SOL    HW1 5945   6.792   2.778   5.378
 1682SOL    HW2 5946   6.907   2.664   5.401
 1683SOL     OW 5947   5.233   5.415   6.028
 1683SOL    HW1 5948   5.305   5.384   6.089
 1683SOL    HW2 5949   5.161   5.345   6.023
 1684SOL     OW 5950   0.454   6.510   4.108
 1684SOL    HW1 5951   0.478   6.429   4.054
 1684SOL    HW2 5952   0.526   6.578   4.101
 1685SOL     OW 5953   0.695   1.735   0.602
 1685SOL    HW1 5954   0.649   1.822   0.584
 1685SOL    HW2 5955   0.757   1.714   0.527
 1686SOL     OW 5956   2.161   6.339   6.641
 1686SOL    HW1 5957   2.065   6.315   6.629
 1686SOL    HW2 5958   2.194   6.390   6.562
 1687SOL     OW 5959   3.043   6.483   2.216
 1687SOL    HW1 5960   3.078   6.401   2.261
 1687SOL    HW2 5961   3.086   6.493   2.127
 1688SOL     OW 5962   0.852   1.520   3.352
 1688SOL    HW1 5963   0.889   1.612   3.344
 1688SOL    HW2 5964   0.752   1.524   3.351
 1689SOL     OW 5965   3.278   1.811   1.709
 1689SOL    HW1 5966   3.180   1.802   1.688
 1689SOL    HW2 5967   3.297   1.767   1.797
 1690SOL     OW 5968   0.866   2.613   0.467
 1690SOL    HW1 5969   0.782   2.648   0.509
 1690SOL    HW2 5970   0.856   2.613   0.368
 1691SOL     OW 5971   4.203   4.689   2.469
 1691SOL    HW1 5972   4.167   4.665   2.379
 1691SOL    HW2 5973   4.269   4.620   2.498
 1692SOL     OW 5974   1.335   0.202   3.501
 1692SOL    HW1 5975   1.267   0.253   3.553
 1692SOL    HW2 5976   1.326   0.105   3.521
 1693SOL     OW 5977   3.681   1.886   3.685
 1693SOL    HW1 5978   3.766   1.885   3.737
 1693SOL    HW2 5979   3.664   1.795   3.647
 1694SOL     OW 5980   6.086   5.691   5.282
 1694SOL    HW1 5981   6.028   5.685   5.201
 1694SOL    HW2 5982   6.171   5.640   5.266
 1695SOL     OW 5983   3.956   1.237   6.020
 1695SOL    HW1 5984   3.921   1.293   6.095
 1695SOL    HW2 5985   3.882   1.183   5.981
 1696SOL     OW 5986   3.031   5.998   1.927
 1696SOL    HW1 5987   3.071   5.922   1.978
 1696SOL    HW2 5988   2.969   5.963   1.857
 1697SOL     OW 5989   1.184   1.860   1.809
 1697SOL    HW1 5990   1.141   1.806   1.737
 1697SOL    HW2 5991   1.123   1.936   1.835
 1698SOL     OW 5992   4.727   2.181   0.842
 1698SOL    HW1 5993   4.705   2.116   0.769
 1698SOL    HW2 5994   4.784   2.136   0.910
 1699SOL     OW 5995   2.636   4.640   0.526
 1699SOL    HW1 5996   2.562   4.580   0.495
 1699SOL    HW2 5997   2.598   4.716   0.579
 1700SOL     OW 5998   5.919   2.633   4.825
 1700SOL    HW1 5999   5.886   2.593   4.740
 1700SOL    HW2 6000   5.938   2.730   4.811
 1701SOL     OW 6001   6.249   2.849   5.269
 1701SOL    HW1 6002   6.188   2.780   5.309
 1701SOL    HW2 6003   6.226   2.939   5.305
 1702SOL     OW 6004   4.514   2.847   1.662
 1702SOL    HW1 6005   4.449   2.897   1.603
 1702SOL    HW2 6006   4.557   2.911   1.725
 1703SOL     OW 6007   1.729   3.791   0.288
 1703SOL    HW1 6008   1.679   3.726   0.345
 1703SOL    HW2 6009   1.825   3.763   0.281
 1704SOL     OW 6010   0.132   1.157   2.518
 1704SOL    HW1 6011   0.125   1.219   2.596
 1704SOL    HW2 6012   0.082   1.073   2.538
 1705SOL     OW 6013   4.009   3.093   2.842
 1705SOL    HW1 6014   3.980   3.183   2.875
 1705SOL    HW2 6015   4.090   3.104   2.785
 1706SOL     OW 6016   2.144   0.483   6.449
 1706SOL    HW1 6017   2.118   0.449   6.358
 1706SOL    HW2 6018   2.074   0.457   6.515
 1707SOL     OW 6019   4.901   1.331   2.739
 1707SOL    HW1 6020   4.845   1.404   2.702
 1707SOL    HW2 6021   4.909   1.257   2.672
 1708SOL     OW 6022   0.326   4.793   1.489
 1708SOL    HW1 6023   0.288   4.709   1.450
 1708SOL    HW2 6024   0.253   4.847   1.529
 1709SOL     OW 6025   2.659   5.566   4.931
 1709SOL    HW1 6026   2.668   5.541   5.027
 1709SOL    HW2 6027   2.704   5.498   4.873
 1710SOL     OW 6028   6.750   5.087   4.385
 1710SOL    HW1 6029   6.749   5.140   4.300
 1710SOL    HW2 6030   6.835   5.105   4.434
 1711SOL     OW 6031   1.544   4.183   5.350
 1711SOL    HW1 6032   1.601   4.257   5.315
 1711SOL    HW2 6033   1.464   4.172   5.291
 1712SOL     OW 6034   2.110   4.888   1.678
 1712SOL    HW1 6035   2.037   4.953   1.699
 1712SOL    HW2 6036   2.180   4.932   1.622
 1713SOL     OW 6037   1.939   2.895   0.616
 1713SOL    HW1 6038   2.026   2.944   0.623
 1713SOL    HW2 6039   1.864   2.961   0.612
 1714SOL     OW 6040   4.167   1.129   1.455
 1714SOL    HW1 6041   4.218   1.109   1.539
 1714SOL    HW2 6042   4.224   1.184   1.394
 1715SOL     OW 6043   0.394   3.225   3.824
 1715SOL    HW1 6044   0.370   3.135   3.788
 1715SOL    HW2 6045   0.341   3.295   3.776
 1716SOL     OW 6046   0.217   0.538   6.789
 1716SOL    HW1 6047   0.175   0.614   6.739
 1716SOL    HW2 6048   0.297   0.571   6.839
 1717SOL     OW 6049   3.177   0.493   6.717
 1717SOL    HW1 6050   3.228   0.408   6.725
 1717SOL    HW2 6051   3.115   0.502   6.795
 1718SOL     OW 6052   1.866   4.226   5.186
 1718SOL    HW1 6053   1.826   4.143   5.148
 1718SOL    HW2 6054   1.822   4.306   5.145
 1719SOL     OW 6055   1.943   3.535   1.191
 1719SOL    HW1 6056   1.916   3.581   1.276
 1719SOL    HW2 6057   2.016   3.587   1.147
 1720SOL     OW 6058   6.948   1.937   2.123
 1720SOL    HW1 6059   7.006   1.993   2.065
 1720SOL    HW2 6060   6.870   1.991   2.154
 1721SOL     OW 6061   1.434   6.351   4.569
 1721SOL    HW1 6062   1.531   6.326   4.574
 1721SOL    HW2 6063   1.378   6.268   4.572
 1722SOL     OW 6064   5.765   0.254   1.917
 1722SOL    HW1 6065   5.777   0.315   1.994
 1722SOL    HW2 6066   5.833   0.275   1.846
 1723SOL     OW 6067   5.635   0.899   2.817
 1723SOL    HW1 6068   5.625   0.996   2.842
 1723SOL    HW2 6069   5.585   0.843   2.883
 1724SOL     OW 6070   4.976   0.509   0.546
 1724SOL    HW1 6071   5.022   0.436   0.496
 1724SOL    HW2 6072   4.882   0.518   0.513
 1725SOL     OW 6073   3.592   5.629   1.897
 1725SOL    HW1 6074   3.502   5.665   1.873
 1725SOL    HW2 6075   3.592   5.530   1.884
 1726SOL     OW 6076   6.722   3.811   4.698
 1726SOL    HW1 6077   6.767   3.742   4.642
 1726SOL    HW2 6078   6.676   3.767   4.775
 1727SOL     OW 6079   2.630   3.428   5.356
 1727SOL    HW1 6080   2.560   3.500   5.362
 1727SOL    HW2 6081   2.711   3.464   5.311
 1728SOL     OW 6082   4.054   5.152   3.453
 1728SOL    HW1 6083   4.145   5.110   3.448
 1728SOL    HW2 6084   3.987   5.091   3.412
 1729SOL     OW 6085   1.600   3.664   1.791
 1729SOL    HW1 6086   1.551   3.723   1.855
 1729SOL    HW2 6087   1.543   3.585   1.768
 1730SOL     OW 6088   5.434   1.857   4.846
 1730SOL    HW1 6089   5.442   1.766   4.806
 1730SOL    HW2 6090   5.525   1.893   4.868
 1731SOL     OW 6091   0.211   6.826   0.373
 1731SOL    HW1 6092   0.221   6.926   0.381
 1731SOL    HW2 6093   0.266   6.794   0.296
 1732SOL     OW 6094   0.667   4.499   6.920
 1732SOL    HW1 6095   0.616   4.479   6.836
 1732SOL    HW2 6096   0.765   4.499   6.899
 1733SOL     OW 6097   1.083   4.237   6.667
 1733SOL    HW1 6098   1.093   4.269   6.572
 1733SOL    HW2 6099   1.105   4.140   6.672
 1734SOL     OW 6100   5.348   4.195   1.273
 1734SOL    HW1 6101   5.423   4.254   1.244
 1734SOL    HW2 6102   5.289   4.175   1.194
 1735SOL     OW 6103   5.353   5.726   0.087
 1735SOL    HW1 6104   5.417   5.802   0.076
 1735SOL    HW2 6105   5.364   5.662   0.011
 1736SOL     OW 6106   3.216   3.474   0.289
 1736SOL    HW1 6107   3.230   3.376   0.276
 1736SOL    HW2 6108   3.303   3.518   0.308
 1737SOL     OW 6109   0.585   5.609   3.262
 1737SOL    HW1 6110   0.677   5.621   3.224
 1737SOL    HW2 6111   0.583   5.526   3.318
 1738SOL     OW 6112   0.851   1.379   1.937
 1738SOL    HW1 6113   0.825   1.331   2.021
 1738SOL    HW2 6114   0.951   1.389   1.935
 1739SOL     OW 6115   4.145   2.515   6.298
 1739SOL    HW1 6116   4.204   2.461   6.238
 1739SOL    HW2 6117   4.199   2.553   6.373
 1740SOL     OW 6118   0.743   1.730   5.329
 1740SOL    HW1 6119   0.825   1.772   5.368
 1740SOL    HW2 6120   0.662   1.766   5.374
 1741SOL     OW 6121   1.835   1.155   2.401
 1741SOL    HW1 6122   1.931   1.168   2.426
 1741SOL    HW2 6123   1.817   1.058   2.388
 1742SOL     OW 6124   5.830   6.360   4.151
 1742SOL    HW1 6125   5.769   6.325   4.222
 1742SOL    HW2 6126   5.924   6.355   4.184
 1743SOL     OW 6127   4.924   1.372   0.377
 1743SOL    HW1 6128   4.857   1.349   0.448
 1743SOL    HW2 6129   4.877   1.388   0.290
 1744SOL     OW 6130   3.217   6.143   1.803
 1744SOL    HW1 6131   3.151   6.083   1.849
 1744SOL    HW2 6132   3.169   6.222   1.765
 1745SOL     OW 6133   6.968   3.341   5.107
 1745SOL    HW1 6134   0.038   3.336   5.135
 1745SOL    HW2 6135   6.962   3.338   5.007
 1746SOL     OW 6136   2.455   1.274   5.883
 1746SOL    HW1 6137   2.480   1.351   5.824
 1746SOL    HW2 6138   2.504   1.281   5.970
 1747SOL     OW 6139   5.024   6.915   5.321
 1747SOL    HW1 6140   5.111   6.892   5.277
 1747SOL    HW2 6141   4.955   6.932   5.251
 1748SOL     OW 6142   5.496   0.908   1.596
 1748SOL    HW1 6143   5.406   0.883   1.560
 1748SOL    HW2 6144   5.567   0.884   1.529
 1749SOL     OW 6145   5.098   0.251   6.192
 1749SOL    HW1 6146   5.192   0.237   6.160
 1749SOL    HW2 6147   5.055   0.162   6.210
 1750SOL     OW 6148   4.443   0.229   4.414
 1750SOL    HW1 6149   4.383   0.212   4.336
 1750SOL    HW2 6150   4.535   0.197   4.393
 1751SOL     OW 6151   1.804   5.792   4.692
 1751SOL    HW1 6152   1.854   5.834   4.616
 1751SOL    HW2 6153   1.708   5.780   4.667
 1752SOL     OW 6154   7.024   1.918   6.334
 1752SOL    HW1 6155   7.025   1.926   6.234
 1752SOL    HW2 6156   0.085   1.952   6.370
 1753SOL     OW 6157   2.561   6.376   2.521
 1753SOL    HW1 6158   2.545   6.361   2.618
 1753SOL    HW2 6159   2.598   6.468   2.507
 1754SOL     OW 6160   3.313   2.948   1.771
 1754SOL    HW1 6161   3.340   3.029   1.823
 1754SOL    HW2 6162   3.214   2.949   1.755
 1755SOL     OW 6163   6.534   4.475   0.306
 1755SOL    HW1 6164   6.573   4.450   0.218
 1755SOL    HW2 6165   6.573   4.418   0.378
 1756SOL     OW 6166   5.652   5.363   4.399
 1756SOL    HW1 6167   5.641   5.320   4.309
 1756SOL    HW2 6168   5.580   5.331   4.460
 1757SOL     OW 6169   3.393   0.454   5.419
 1757SOL    HW1 6170   3.321   0.397   5.380
 1757SOL    HW2 6171   3.396   0.440   5.518
 1758SOL     OW 6172   3.430   1.669   3.365
 1758SOL    HW1 6173   3.425   1.713   3.455
 1758SOL    HW2 6174   3.386   1.580   3.369
 1759SOL     OW 6175   0.335   5.716   5.983
 1759SOL    HW1 6176   0.321   5.771   6.066
 1759SOL    HW2 6177   0.291   5.627   5.996
 1760SOL     OW 6178   4.848   6.697   2.042
 1760SOL    HW1 6179   4.758   6.687   1.997
 1760SOL    HW2 6180   4.897   6.610   2.036
 1761SOL     OW 6181   5.424   3.165   1.425
 1761SOL    HW1 6182   5.472   3.242   1.383
 1761SOL    HW2 6183   5.418   3.090   1.358
 1762SOL     OW 6184   5.711   2.812   0.593
 1762SOL    HW1 6185   5.643   2.857   0.651
 1762SOL    HW2 6186   5.798   2.807   0.642
 1763SOL     OW 6187   2.140   2.870   3.707
 1763SOL    HW1 6188   2.146   2.920   3.620
 1763SOL    HW2 6189   2.179   2.926   3.780
 1764SOL     OW 6190   6.599   3.520   4.222
 1764SOL    HW1 6191   6.598   3.614   4.188
 1764SOL    HW2 6192   6.600   3.456   4.145
 1765SOL     OW 6193   2.182   3.697   6.316
 1765SOL    HW1 6194   2.176   3.735   6.223
 1765SOL    HW2 6195   2.178   3.597   6.310
 1766SOL     OW 6196   6.277   3.522   5.839
 1766SOL    HW1 6197   6.246   3.483   5.752
 1766SOL    HW2 6198   6.354   3.470   5.873
 1767SOL     OW 6199   6.486   4.822   1.085
 1767SOL    HW1 6200   6.561   4.832   1.020
 1767SOL    HW2 6201   6.399   4.814   1.035
 1768SOL     OW 6202   6.237   6.483   3.469
 1768SOL    HW1 6203   6.151   6.453   3.510
 1768SOL    HW2 6204   6.245   6.582   3.478
 1769SOL     OW 6205   4.876   0.933   3.593
 1769SOL    HW1 6206   4.814   0.883   3.653
 1769SOL    HW2 6207   4.826   0.966   3.513
 1770SOL     OW 6208   3.526   5.515   5.723
 1770SOL    HW1 6209   3.495   5.601   5.763
 1770SOL    HW2 6210   3.485   5.503   5.633
 1771SOL     OW 6211   4.688   6.543   6.570
 1771SOL    HW1 6212   4.753   6.487   6.622
 1771SOL    HW2 6213   4.625   6.483   6.521
 1772SOL     OW 6214   2.750   6.150   2.955
 1772SOL    HW1 6215   2.781   6.129   2.862
 1772SOL    HW2 6216   2.707   6.069   2.995
 1773SOL     OW 6217   1.183   0.219   0.443
 1773SOL    HW1 6218   1.224   0.303   0.410
 1773SOL    HW2 6219   1.084   0.232   0.456
 1774SOL     OW 6220   3.022   4.916   2.594
 1774SOL    HW1 6221   2.999   5.009   2.623
 1774SOL    HW2 6222   3.119   4.911   2.570
 1775SOL     OW 6223   1.014   4.720   1.230
 1775SOL    HW1 6224   1.069   4.700   1.149
 1775SOL    HW2 6225   1.041   4.809   1.266
 1776SOL     OW 6226   3.197   6.520   5.379
 1776SOL    HW1 6227   3.192   6.612   5.420
 1776SOL    HW2 6228   3.122   6.465   5.413
 1777SOL     OW 6229   3.146   6.554   0.254
 1777SOL    HW1 6230   3.163   6.570   0.351
 1777SOL    HW2 6231   3.217   6.493   0.218
 1778SOL     OW 6232   7.021   3.172   5.775
 1778SOL    HW1 6233   0.001   3.216   5.865
 1778SOL    HW2 6234   6.930   3.132   5.764
 1779SOL     OW 6235   3.803   0.217   5.809
 1779SOL    HW1 6236   3.731   0.218   5.740
 1779SOL    HW2 6237   3.798   0.133   5.862
 1780SOL     OW 6238   3.152   3.391   6.945
 1780SOL    HW1 6239   3.104   3.313   6.985
 1780SOL    HW2 6240   3.136   3.472   7.002
 1781SOL     OW 6241   3.086   5.699   3.579
 1781SOL    HW1 6242   2.991   5.723   3.558
 1781SOL    HW2 6243   3.110   5.613   3.535
 1782SOL     OW 6244   3.033   1.723   4.443
 1782SOL    HW1 6245   3.007   1.701   4.537
 1782SOL    HW2 6246   2.951   1.722   4.385
 1783SOL     OW 6247   2.280   6.070   6.936
 1783SOL    HW1 6248   2.203   6.022   6.978
 1783SOL    HW2 6249   2.309   6.021   6.855
 1784SOL     OW 6250   2.938   0.258   5.997
 1784SOL    HW1 6251   2.855   0.255   6.053
 1784SOL    HW2 6252   2.920   0.307   5.912
 1785SOL     OW 6253   6.700   5.348   1.785
 1785SOL    HW1 6254   6.641   5.334   1.707
 1785SOL    HW2 6255   6.646   5.375   1.864
 1786SOL     OW 6256   3.861   2.671   1.529
 1786SOL    HW1 6257   3.807   2.664   1.613
 1786SOL    HW2 6258   3.890   2.766   1.516
 1787SOL     OW 6259   3.810   0.594   5.139
 1787SOL    HW1 6260   3.752   0.527   5.186
 1787SOL    HW2 6261   3.890   0.615   5.195
 1788SOL     OW 6262   1.284   4.928   5.777
 1788SOL    HW1 6263   1.227   5.010   5.766
 1788SOL    HW2 6264   1.277   4.895   5.871
 1789SOL     OW 6265   5.943   6.980   6.896
 1789SOL    HW1 6266   5.976   0.009   6.973
 1789SOL    HW2 6267   5.966   7.025   6.810
 1790SOL     OW 6268   2.709   6.708   2.813
 1790SOL    HW1 6269   2.750   6.727   2.723
 1790SOL    HW2 6270   2.770   6.648   2.865
 1791SOL     OW 6271   0.391   6.345   2.484
 1791SOL    HW1 6272   0.386   6.250   2.453
 1791SOL    HW2 6273   0.484   6.378   2.474
 1792SOL     OW 6274   1.258   3.453   4.186
 1792SOL    HW1 6275   1.284   3.485   4.095
 1792SOL    HW2 6276   1.338   3.449   4.245
 1793SOL     OW 6277   0.295   0.450   3.750
 1793SOL    HW1 6278   0.265   0.431   3.844
 1793SOL    HW2 6279   0.390   0.481   3.750
 1794SOL     OW 6280   4.193   5.554   6.384
 1794SOL    HW1 6281   4.289   5.578   6.396
 1794SOL    HW2 6282   4.167   5.563   6.288
 1795SOL     OW 6283   0.384   3.058   6.908
 1795SOL    HW1 6284   0.456   3.098   6.964
 1795SOL    HW2 6285   0.357   2.969   6.946
 1796SOL     OW 6286   3.765   0.713   5.780
 1796SOL    HW1 6287   3.745   0.794   5.835
 1796SOL    HW2 6288   3.756   0.631   5.837
 1797SOL     OW 6289   0.274   1.350   1.557
 1797SOL    HW1 6290   0.352   1.302   1.516
 1797SOL    HW2 6291   0.283   1.448   1.540
 1798SOL     OW 6292   5.567   1.468   3.221
 1798SOL    HW1 6293   5.499   1.428   3.161
 1798SOL    HW2 6294   5.650   1.489   3.170
 1799SOL     OW 6295   2.313   1.825   0.234
 1799SOL    HW1 6296   2.407   1.841   0.205
 1799SOL    HW2 6297   2.250   1.873   0.172
 1800SOL     OW 6298   3.275   4.920   2.532
 1800SOL    HW1 6299   3.321   4.913   2.444
 1800SOL    HW2 6300   3.340   4.899   2.605
 1801SOL     OW 6301   5.596   6.893   0.642
 1801SOL    HW1 6302   5.615   6.982   0.602
 1801SOL    HW2 6303   5.662   6.826   0.607
 1802SOL     OW 6304   5.882   4.771   3.606
 1802SOL    HW1 6305   5.846   4.819   3.526
 1802SOL    HW2 6306   5.955   4.709   3.577
 1803SOL     OW 6307   5.716   5.029   1.212
 1803SOL    HW1 6308   5.665   5.106   1.175
 1803SOL    HW2 6309   5.673   4.943   1.182
 1804SOL     OW 6310   3.096   3.604   6.087
 1804SOL    HW1 6311   3.038   3.573   6.162
 1804SOL    HW2 6312   3.048   3.673   6.034
 1805SOL     OW 6313   5.994   2.980   6.660
 1805SOL    HW1 6314   6.068   2.973   6.727
 1805SOL    HW2 6315   5.915   2.926   6.691
 1806SOL     OW 6316   6.853   0.403   0.499
 1806SOL    HW1 6317   6.798   0.327   0.466
 1806SOL    HW2 6318   6.935   0.412   0.442
 1807SOL     OW 6319   6.500   2.029   5.956
 1807SOL    HW1 6320   6.558   2.050   6.034
 1807SOL    HW2 6321   6.412   1.994   5.989
 1808SOL     OW 6322   2.334   4.680   4.358
 1808SOL    HW1 6323   2.430   4.655   4.343
 1808SOL    HW2 6324   2.324   4.724   4.447
 1809SOL     OW 6325   3.760   0.437   6.458
 1809SOL    HW1 6326   3.750   0.524   6.505
 1809SOL    HW2 6327   3.826   0.447   6.383
 1810SOL     OW 6328   3.185   6.419   2.580
 1810SOL    HW1 6329   3.236   6.438   2.664
 1810SOL    HW2 6330   3.087   6.422   2.598
 1811SOL     OW 6331   5.905   5.783   2.770
 1811SOL    HW1 6332   5.938   5.839   2.847
 1811SOL    HW2 6333   5.965   5.798   2.691
 1812SOL     OW 6334   4.627   5.029   6.363
 1812SOL    HW1 6335   4.688   5.082   6.423
 1812SOL    HW2 6336   4.532   5.043   6.391
 1813SOL     OW 6337   6.745   5.557   5.212
 1813SOL    HW1 6338   6.838   5.594   5.214
 1813SOL    HW2 6339   6.724   5.524   5.120
 1814SOL     OW 6340   4.775   6.336   2.686
 1814SOL    HW1 6341   4.716   6.316   2.608
 1814SOL    HW2 6342   4.852   6.392   2.657
 1815SOL     OW 6343   0.169   1.286   2.777
 1815SOL    HW1 6344   0.153   1.210   2.840
 1815SOL    HW2 6345   0.268   1.302   2.768
 1816SOL     OW 6346   1.259   5.037   1.044
 1816SOL    HW1 6347   1.243   5.096   0.965
 1816SOL    HW2 6348   1.296   4.950   1.014
 1817SOL     OW 6349   1.296   5.652   1.777
 1817SOL    HW1 6350   1.231   5.661   1.702
 1817SOL    HW2 6351   1.379   5.705   1.757
 1818SOL     OW 6352   1.110   1.678   3.159
 1818SOL    HW1 6353   1.198   1.655   3.201
 1818SOL    HW2 6354   1.043   1.698   3.230
 1819SOL     OW 6355   0.394   4.040   2.438
 1819SOL    HW1 6356   0.441   3.962   2.396
 1819SOL    HW2 6357   0.458   4.117   2.445
 1820SOL     OW 6358   5.663   0.326   2.873
 1820SOL    HW1 6359   5.751   0.280   2.861
 1820SOL    HW2 6360   5.668   0.418   2.832
 1821SOL     OW 6361   1.676   1.879   3.362
 1821SOL    HW1 6362   1.659   1.954   3.426
 1821SOL    HW2 6363   1.703   1.797   3.414
 1822SOL     OW 6364   2.999   3.791   2.044
 1822SOL    HW1 6365   2.991   3.890   2.050
 1822SOL    HW2 6366   3.094   3.765   2.029
 1823SOL     OW 6367   4.438   0.216   2.342
 1823SOL    HW1 6368   4.448   0.313   2.364
 1823SOL    HW2 6369   4.527   0.171   2.347
 1824SOL     OW 6370   5.261   2.245   1.493
 1824SOL    HW1 6371   5.278   2.247   1.592
 1824SOL    HW2 6372   5.329   2.187   1.448
 1825SOL     OW 6373   0.656   0.380   1.980
 1825SOL    HW1 6374   0.562   0.405   2.003
 1825SOL    HW2 6375   0.707   0.360   2.063
 1826SOL     OW 6376   2.852   6.063   6.360
 1826SOL    HW1 6377   2.798   5.998   6.308
 1826SOL    HW2 6378   2.949   6.039   6.353
 1827SOL     OW 6379   6.056   0.075   1.600
 1827SOL    HW1 6380   6.108   0.065   1.685
 1827SOL    HW2 6381   6.104   0.138   1.539
 1828SOL     OW 6382   1.586   2.659   7.010
 1828SOL    HW1 6383   1.581   2.755   0.012
 1828SOL    HW2 6384   1.500   2.613   0.007
 1829SOL     OW 6385   6.074   5.284   1.732
 1829SOL    HW1 6386   6.036   5.359   1.786
 1829SOL    HW2 6387   6.173   5.279   1.747
 1830SOL     OW 6388   4.954   6.633   3.644
 1830SOL    HW1 6389   4.873   6.626   3.703
 1830SOL    HW2 6390   4.961   6.551   3.587
 1831SOL     OW 6391   5.532   0.725   3.436
 1831SOL    HW1 6392   5.478   0.696   3.515
 1831SOL    HW2 6393   5.588   0.649   3.404
 1832SOL     OW 6394   4.603   2.564   0.264
 1832SOL    HW1 6395   4.559   2.647   0.298
 1832SOL    HW2 6396   4.657   2.522   0.337
 1833SOL     OW 6397   5.536   1.776   5.616
 1833SOL    HW1 6398   5.531   1.736   5.707
 1833SOL    HW2 6399   5.530   1.876   5.623
 1834SOL     OW 6400   2.721   3.957   0.374
 1834SOL    HW1 6401   2.640   4.010   0.400
 1834SOL    HW2 6402   2.789   3.964   0.447
 1835SOL     OW 6403   1.705   4.478   6.796
 1835SOL    HW1 6404   1.721   4.425   6.713
 1835SOL    HW2 6405   1.654   4.422   6.862
 1836SOL     OW 6406   1.100   6.682   0.578
 1836SOL    HW1 6407   1.009   6.675   0.618
 1836SOL    HW2 6408   1.133   6.591   0.553
 1837SOL     OW 6409   0.581   2.425   4.899
 1837SOL    HW1 6410   0.585   2.524   4.887
 1837SOL    HW2 6411   0.674   2.388   4.898
 1838SOL     OW 6412   0.980   2.764   5.051
 1838SOL    HW1 6413   0.898   2.800   5.096
 1838SOL    HW2 6414   1.011   2.681   5.099
 1839SOL     OW 6415   0.776   1.848   6.510
 1839SOL    HW1 6416   0.838   1.919   6.477
 1839SOL    HW2 6417   0.729   1.806   6.433
 1840SOL     OW 6418   1.028   5.605   0.956
 1840SOL    HW1 6419   1.104   5.611   0.890
 1840SOL    HW2 6420   1.052   5.540   1.029
 1841SOL     OW 6421   1.215   2.836   3.635
 1841SOL    HW1 6422   1.116   2.839   3.646
 1841SOL    HW2 6423   1.259   2.875   3.716
 1842SOL     OW 6424   0.952   5.466   6.351
 1842SOL    HW1 6425   1.016   5.395   6.381
 1842SOL    HW2 6426   0.861   5.427   6.342
 1843SOL     OW 6427   4.599   2.096   4.992
 1843SOL    HW1 6428   4.597   2.107   4.892
 1843SOL    HW2 6429   4.630   2.181   5.034
 1844SOL     OW 6430   5.441   3.957   3.730
 1844SOL    HW1 6431   5.485   4.043   3.754
 1844SOL    HW2 6432   5.454   3.891   3.804
 1845SOL     OW 6433   4.164   6.261   1.030
 1845SOL    HW1 6434   4.087   6.324   1.020
 1845SOL    HW2 6435   4.250   6.312   1.017
 1846SOL     OW 6436   3.661   1.479   5.420
 1846SOL    HW1 6437   3.717   1.431   5.488
 1846SOL    HW2 6438   3.716   1.495   5.338
 1847SOL     OW 6439   1.423   6.817   6.652
 1847SOL    HW1 6440   1.465   6.845   6.739
 1847SOL    HW2 6441   1.323   6.823   6.660
 1848SOL     OW 6442   2.023   0.300   2.909
 1848SOL    HW1 6443   2.065   0.232   2.968
 1848SOL    HW2 6444   1.995   0.379   2.963
 1849SOL     OW 6445   3.082   0.717   6.581
 1849SOL    HW1 6446   3.117   0.637   6.631
 1849SOL    HW2 6447   2.983   0.707   6.568
 1850SOL     OW 6448   5.299   1.945   2.122
 1850SOL    HW1 6449   5.293   2.034   2.076
 1850SOL    HW2 6450   5.207   1.913   2.144
 1851SOL     OW 6451   6.452   3.961   2.660
 1851SOL    HW1 6452   6.371   3.902   2.673
 1851SOL    HW2 6453   6.500   3.934   2.577
 1852SOL     OW 6454   5.069   2.002   5.757
 1852SOL    HW1 6455   5.038   2.097   5.752
 1852SOL    HW2 6456   5.139   1.986   5.687
 1853SOL     OW 6457   1.159   4.520   0.564
 1853SOL    HW1 6458   1.146   4.430   0.522
 1853SOL    HW2 6459   1.086   4.535   0.631
 1854SOL     OW 6460   2.546   5.101   3.919
 1854SOL    HW1 6461   2.549   5.177   3.854
 1854SOL    HW2 6462   2.522   5.136   4.010
 1855SOL     OW 6463   6.176   4.454   2.300
 1855SOL    HW1 6464   6.274   4.450   2.319
 1855SOL    HW2 6465   6.161   4.489   2.208
 1856SOL     OW 6466   5.263   2.968   6.367
 1856SOL    HW1 6467   5.254   3.036   6.440
 1856SOL    HW2 6468   5.174   2.952   6.325
 1857SOL     OW 6469   4.995   1.494   3.511
 1857SOL    HW1 6470   4.965   1.583   3.546
 1857SOL    HW2 6471   4.936   1.466   3.434
 1858SOL     OW 6472   5.789   3.500   2.825
 1858SOL    HW1 6473   5.698   3.482   2.787
 1858SOL    HW2 6474   5.790   3.590   2.868
 1859SOL     OW 6475   6.088   1.481   2.935
 1859SOL    HW1 6476   6.166   1.472   2.873
 1859SOL    HW2 6477   6.036   1.395   2.936
 1860SOL     OW 6478   3.946   2.172   4.810
 1860SOL    HW1 6479   4.036   2.211   4.829
 1860SOL    HW2 6480   3.887   2.185   4.889
 1861SOL     OW 6481   5.568   5.919   2.419
 1861SOL    HW1 6482   5.490   5.977   2.394
 1861SOL    HW2 6483   5.636   5.974   2.467
 1862SOL     OW 6484   2.098   1.638   0.719
 1862SOL    HW1 6485   2.093   1.569   0.792
 1862SOL    HW2 6486   2.067   1.726   0.754
 1863SOL     OW 6487   1.899   2.461   1.830
 1863SOL    HW1 6488   1.888   2.432   1.925
 1863SOL    HW2 6489   1.904   2.381   1.771
 1864SOL     OW 6490   0.835   6.435   2.995
 1864SOL    HW1 6491   0.824   6.337   3.016
 1864SOL    HW2 6492   0.867   6.445   2.901
 1865SOL     OW 6493   5.054   2.610   6.633
 1865SOL    HW1 6494   5.067   2.516   6.664
 1865SOL    HW2 6495   5.112   2.671   6.686
 1866SOL     OW 6496   4.996   5.233   2.098
 1866SOL    HW1 6497   4.897   5.220   2.087
 1866SOL    HW2 6498   5.043   5.146   2.087
 1867SOL     OW 6499   0.425   4.718   6.312
 1867SOL    HW1 6500   0.391   4.708   6.406
 1867SOL    HW2 6501   0.461   4.811   6.300
 1868SOL     OW 6502   6.950   4.233   5.637
 1868SOL    HW1 6503   0.019   4.263   5.647
 1868SOL    HW2 6504   6.936   4.147   5.686
 1869SOL     OW 6505   6.607   1.828   4.451
 1869SOL    HW1 6506   6.618   1.797   4.545
 1869SOL    HW2 6507   6.600   1.928   4.450
 1870SOL     OW 6508   2.315   4.372   4.728
 1870SOL    HW1 6509   2.300   4.277   4.754
 1870SOL    HW2 6510   2.231   4.424   4.743
 1871SOL     OW 6511   1.552   0.174   0.859
 1871SOL    HW1 6512   1.483   0.155   0.790
 1871SOL    HW2 6513   1.550   0.272   0.883
 1872SOL     OW 6514   2.076   4.729   6.573
 1872SOL    HW1 6515   2.175   4.733   6.564
 1872SOL    HW2 6516   2.041   4.651   6.520
 1873SOL     OW 6517   5.021   0.252   0.146
 1873SOL    HW1 6518   5.027   0.154   0.126
 1873SOL    HW2 6519   5.100   0.299   0.105
 1874SOL     OW 6520   0.572   4.253   2.445
 1874SOL    HW1 6521   0.620   4.222   2.527
 1874SOL    HW2 6522   0.636   4.256   2.368
 1875SOL     OW 6523   1.201   6.702   1.680
 1875SOL    HW1 6524   1.191   6.664   1.588
 1875SOL    HW2 6525   1.286   6.669   1.720
 1876SOL     OW 6526   2.263   6.515   3.713
 1876SOL    HW1 6527   2.197   6.537   3.785
 1876SOL    HW2 6528   2.337   6.459   3.751
 1877SOL     OW 6529   0.356   6.801   3.715
 1877SOL    HW1 6530   0.395   6.893   3.710
 1877SOL    HW2 6531   0.259   6.804   3.695
 1878SOL     OW 6532   6.466   2.334   5.830
 1878SOL    HW1 6533   6.396   2.339   5.901
 1878SOL    HW2 6534   6.533   2.264   5.854
 1879SOL     OW 6535   1.263   4.605   5.939
 1879SOL    HW1 6536   1.361   4.619   5.928
 1879SOL    HW2 6537   1.233   4.530   5.880
 1880SOL     OW 6538   6.239   0.514   4.790
 1880SOL    HW1 6539   6.254   0.423   4.828
 1880SOL    HW2 6540   6.270   0.516   4.695
 1881SOL     OW 6541   6.979   2.556   0.156
 1881SOL    HW1 6542   6.896   2.605   0.183
 1881SOL    HW2 6543   0.016   2.550   0.234
 1882SOL     OW 6544   1.546   6.305   6.819
 1882SOL    HW1 6545   1.552   6.219   6.869
 1882SOL    HW2 6546   1.638   6.341   6.804
 1883SOL     OW 6547   0.496   1.760   4.104
 1883SOL    HW1 6548   0.454   1.816   4.033
 1883SOL    HW2 6549   0.586   1.729   4.073
 1884SOL     OW 6550   6.823   2.292   1.218
 1884SOL    HW1 6551   6.828   2.263   1.123
 1884SOL    HW2 6552   6.787   2.385   1.223
 1885SOL     OW 6553   2.605   1.337   4.341
 1885SOL    HW1 6554   2.664   1.256   4.339
 1885SOL    HW2 6555   2.608   1.379   4.432
 1886SOL     OW 6556   0.577   6.214   2.971
 1886SOL    HW1 6557   0.540   6.193   3.062
 1886SOL    HW2 6558   0.512   6.272   2.921
 1887SOL     OW 6559   2.514   6.234   6.158
 1887SOL    HW1 6560   2.576   6.258   6.234
 1887SOL    HW2 6561   2.563   6.177   6.092
 1888SOL     OW 6562   2.590   0.666   3.180
 1888SOL    HW1 6563   2.565   0.569   3.182
 1888SOL    HW2 6564   2.688   0.676   3.194
 1889SOL     OW 6565   0.803   3.323   3.032
 1889SOL    HW1 6566   0.712   3.334   3.071
 1889SOL    HW2 6567   0.854   3.409   3.042
 1890SOL     OW 6568   1.278   5.935   4.763
 1890SOL    HW1 6569   1.201   5.892   4.715
 1890SOL    HW2 6570   1.278   5.906   4.858
 1891SOL     OW 6571   3.331   3.512   3.229
 1891SOL    HW1 6572   3.332   3.608   3.258
 1891SOL    HW2 6573   3.334   3.453   3.309
 1892SOL     OW 6574   0.888   0.158   2.663
 1892SOL    HW1 6575   0.909   0.069   2.702
 1892SOL    HW2 6576   0.948   0.227   2.703
 1893SOL     OW 6577   3.634   2.935   4.382
 1893SOL    HW1 6578   3.684   2.946   4.468
 1893SOL    HW2 6579   3.538   2.918   4.401
 1894SOL     OW 6580   3.376   3.390   4.195
 1894SOL    HW1 6581   3.352   3.487   4.196
 1894SOL    HW2 6582   3.473   3.380   4.218
 1895SOL     OW 6583   1.793   5.820   0.079
 1895SOL    HW1 6584   1.716   5.863   0.127
 1895SOL    HW2 6585   1.809   5.729   0.118
 1896SOL     OW 6586   6.406   2.619   1.390
 1896SOL    HW1 6587   6.384   2.563   1.310
 1896SOL    HW2 6588   6.380   2.714   1.373
 1897SOL     OW 6589   1.096   4.483   4.218
 1897SOL    HW1 6590   1.195   4.482   4.205
 1897SOL    HW2 6591   1.072   4.416   4.288
 1898SOL     OW 6592   1.550   6.027   2.667
 1898SOL    HW1 6593   1.560   5.975   2.752
 1898SOL    HW2 6594   1.544   5.964   2.590
 1899SOL     OW 6595   0.140   1.052   2.228
 1899SOL    HW1 6596   0.105   0.958   2.218
 1899SOL    HW2 6597   0.124   1.084   2.321
 1900SOL     OW 6598   3.000   6.835   6.673
 1900SOL    HW1 6599   3.006   6.870   6.580
 1900SOL    HW2 6600   2.923   6.876   6.720
 1901SOL     OW 6601   2.745   3.355   1.894
 1901SOL    HW1 6602   2.675   3.389   1.956
 1901SOL    HW2 6603   2.829   3.408   1.906
 1902SOL     OW 6604   1.352   6.800   5.202
 1902SOL    HW1 6605   1.385   6.834   5.290
 1902SOL    HW2 6606   1.373   6.703   5.193
 1903SOL     OW 6607   0.966   1.763   4.373
 1903SOL    HW1 6608   0.997   1.698   4.304
 1903SOL    HW2 6609   0.977   1.856   4.339
 1904SOL     OW 6610   6.002   5.919   1.834
 1904SOL    HW1 6611   6.005   5.970   1.748
 1904SOL    HW2 6612   5.906   5.910   1.864
 1905SOL     OW 6613   0.733   1.656   4.025
 1905SOL    HW1 6614   0.750   1.560   4.047
 1905SOL    HW2 6615   0.806   1.712   4.063
 1906SOL     OW 6616   0.811   6.546   4.525
 1906SOL    HW1 6617   0.760   6.601   4.592
 1906SOL    HW2 6618   0.897   6.516   4.566
 1907SOL     OW 6619   5.695   3.127   0.927
 1907SOL    HW1 6620   5.632   3.072   0.873
 1907SOL    HW2 6621   5.758   3.067   0.977
 1908SOL     OW 6622   3.825   0.653   1.549
 1908SOL    HW1 6623   3.824   0.661   1.450
 1908SOL    HW2 6624   3.783   0.735   1.590
 1909SOL     OW 6625   6.368   5.476   4.655
 1909SOL    HW1 6626   6.379   5.497   4.752
 1909SOL    HW2 6627   6.324   5.553   4.609
 1910SOL     OW 6628   0.651   6.259   5.774
 1910SOL    HW1 6629   0.615   6.182   5.722
 1910SOL    HW2 6630   0.629   6.344   5.727
 1911SOL     OW 6631   6.021   6.050   4.310
 1911SOL    HW1 6632   6.034   6.146   4.335
 1911SOL    HW2 6633   5.930   6.037   4.271
 1912SOL     OW 6634   3.594   5.095   2.266
 1912SOL    HW1 6635   3.576   5.084   2.364
 1912SOL    HW2 6636   3.577   5.190   2.239
 1913SOL     OW 6637   3.059   4.485   6.798
 1913SOL    HW1 6638   3.001   4.406   6.778
 1913SOL    HW2 6639   3.064   4.544   6.717
 1914SOL     OW 6640   3.403   4.326   6.838
 1914SOL    HW1 6641   3.379   4.417   6.805
 1914SOL    HW2 6642   3.347   4.304   6.918
 1915SOL     OW 6643   3.287   2.997   6.907
 1915SOL    HW1 6644   3.330   2.961   6.990
 1915SOL    HW2 6645   3.200   2.950   6.891
 1916SOL     OW 6646   4.290   0.812   2.338
 1916SOL    HW1 6647   4.290   0.864   2.423
 1916SOL    HW2 6648   4.201   0.822   2.292
 1917SOL     OW 6649   1.885   4.171   1.768
 1917SOL    HW1 6650   1.945   4.094   1.744
 1917SOL    HW2 6651   1.825   4.192   1.692
 1918SOL     OW 6652   5.333   2.393   3.596
 1918SOL    HW1 6653   5.278   2.313   3.575
 1918SOL    HW2 6654   5.284   2.452   3.660
 1919SOL     OW 6655   6.395   2.117   6.233
 1919SOL    HW1 6656   6.360   2.041   6.179
 1919SOL    HW2 6657   6.339   2.198   6.216
 1920SOL     OW 6658   4.310   3.653   0.527
 1920SOL    HW1 6659   4.257   3.587   0.579
 1920SOL    HW2 6660   4.353   3.718   0.589
 1921SOL     OW 6661   2.338   2.294   0.554
 1921SOL    HW1 6662   2.252   2.254   0.522
 1921SOL    HW2 6663   2.414   2.258   0.499
 1922SOL     OW 6664   3.155   3.261   4.315
 1922SOL    HW1 6665   3.228   3.325   4.291
 1922SOL    HW2 6666   3.106   3.295   4.395
 1923SOL     OW 6667   3.091   0.589   4.055
 1923SOL    HW1 6668   3.189   0.591   4.073
 1923SOL    HW2 6669   3.074   0.543   3.968
 1924SOL     OW 6670   5.513   0.792   0.598
 1924SOL    HW1 6671   5.574   0.851   0.545
 1924SOL    HW2 6672   5.445   0.751   0.537
 1925SOL     OW 6673   0.987   4.245   0.947
 1925SOL    HW1 6674   0.924   4.171   0.920
 1925SOL    HW2 6675   1.067   4.242   0.887
 1926SOL     OW 6676   3.711   0.167   1.714
 1926SOL    HW1 6677   3.805   0.179   1.683
 1926SOL    HW2 6678   3.681   0.250   1.761
 1927SOL     OW 6679   2.016   5.776   1.059
 1927SOL    HW1 6680   1.937   5.833   1.078
 1927SOL    HW2 6681   1.988   5.680   1.055
 1928SOL     OW 6682   6.864   4.442   2.867
 1928SOL    HW1 6683   6.812   4.357   2.861
 1928SOL    HW2 6684   6.832   4.506   2.797
 1929SOL     OW 6685   3.696   6.761   3.597
 1929SOL    HW1 6686   3.687   6.680   3.539
 1929SOL    HW2 6687   3.750   6.831   3.549
 1930SOL     OW 6688   3.520   3.212   0.318
 1930SOL    HW1 6689   3.421   3.211   0.327
 1930SOL    HW2 6690   3.550   3.135   0.261
 1931SOL     OW 6691   6.686   3.363   3.781
 1931SOL    HW1 6692   6.628   3.339   3.703
 1931SOL    HW2 6693   6.669   3.458   3.807
 1932SOL     OW 6694   5.101   0.577   2.516
 1932SOL    HW1 6695   5.075   0.540   2.605
 1932SOL    HW2 6696   5.036   0.648   2.489
 1933SOL     OW 6697   1.538   1.288   1.165
 1933SOL    HW1 6698   1.461   1.268   1.105
 1933SOL    HW2 6699   1.623   1.259   1.121
 1934SOL     OW 6700   0.304   0.933   0.229
 1934SOL    HW1 6701   0.401   0.924   0.207
 1934SOL    HW2 6702   0.250   0.920   0.146
 1935SOL     OW 6703   5.889   5.146   3.715
 1935SOL    HW1 6704   5.850   5.104   3.633
 1935SOL    HW2 6705   5.984   5.119   3.724
 1936SOL     OW 6706   5.059   3.279   6.197
 1936SOL    HW1 6707   4.983   3.239   6.248
 1936SOL    HW2 6708   5.035   3.372   6.168
 1937SOL     OW 6709   6.943   4.981   6.960
 1937SOL    HW1 6710   6.966   5.051   0.002
 1937SOL    HW2 6711   6.858   4.935   6.987
 1938SOL     OW 6712   6.892   2.105   0.180
 1938SOL    HW1 6713   6.844   2.193   0.177
 1938SOL    HW2 6714   6.826   2.031   0.168
 1939SOL     OW 6715   0.486   0.142   4.244
 1939SOL    HW1 6716   0.522   0.086   4.170
 1939SOL    HW2 6717   0.404   0.190   4.213
 1940SOL     OW 6718   0.517   5.288   1.377
 1940SOL    HW1 6719   0.603   5.275   1.426
 1940SOL    HW2 6720   0.520   5.238   1.290
 1941SOL     OW 6721   6.133   1.133   4.282
 1941SOL    HW1 6722   6.104   1.066   4.350
 1941SOL    HW2 6723   6.053   1.170   4.235
 1942SOL     OW 6724   0.330   5.289   2.072
 1942SOL    HW1 6725   0.269   5.289   1.993
 1942SOL    HW2 6726   0.303   5.362   2.135
 1943SOL     OW 6727   0.751   2.988   3.907
 1943SOL    HW1 6728   0.708   2.932   3.836
 1943SOL    HW2 6729   0.781   2.930   3.983
 1944SOL     OW 6730   0.674   2.920   3.593
 1944SOL    HW1 6731   0.608   2.900   3.520
 1944SOL    HW2 6732   0.661   3.015   3.624
 1945SOL     OW 6733   5.155   1.641   2.410
 1945SOL    HW1 6734   5.188   1.589   2.332
 1945SOL    HW2 6735   5.161   1.585   2.493
 1946SOL     OW 6736   5.540   5.388   0.951
 1946SOL    HW1 6737   5.615   5.441   0.910
 1946SOL    HW2 6738   5.464   5.450   0.972
 1947SOL     OW 6739   6.251   5.265   2.662
 1947SOL    HW1 6740   6.176   5.228   2.717
 1947SOL    HW2 6741   6.328   5.201   2.664
 1948SOL     OW 6742   5.420   3.491   3.697
 1948SOL    HW1 6743   5.378   3.503   3.607
 1948SOL    HW2 6744   5.504   3.437   3.689
 1949SOL     OW 6745   3.139   4.394   6.445
 1949SOL    HW1 6746   3.092   4.471   6.488
 1949SOL    HW2 6747   3.126   4.398   6.346
 1950SOL     OW 6748   3.748   4.006   3.468
 1950SOL    HW1 6749   3.686   3.938   3.507
 1950SOL    HW2 6750   3.836   4.001   3.515
 1951SOL     OW 6751   6.639   5.757   5.790
 1951SOL    HW1 6752   6.711   5.741   5.858
 1951SOL    HW2 6753   6.673   5.732   5.700
 1952SOL     OW 6754   5.775   4.210   6.568
 1952SOL    HW1 6755   5.814   4.249   6.652
 1952SOL    HW2 6756   5.687   4.253   6.549
 1953SOL     OW 6757   0.848   0.911   6.843
 1953SOL    HW1 6758   0.897   0.955   6.918
 1953SOL    HW2 6759   0.846   0.812   6.857
 1954SOL     OW 6760   4.056   6.652   2.139
 1954SOL    HW1 6761   4.096   6.595   2.210
 1954SOL    HW2 6762   4.130   6.694   2.086
 1955SOL     OW 6763   6.387   2.480   4.118
 1955SOL    HW1 6764   6.300   2.438   4.094
 1955SOL    HW2 6765   6.463   2.429   4.077
 1956SOL     OW 6766   4.808   1.168   1.589
 1956SOL    HW1 6767   4.801   1.211   1.499
 1956SOL    HW2 6768   4.896   1.191   1.630
 1957SOL     OW 6769   6.535   2.493   4.366
 1957SOL    HW1 6770   6.472   2.504   4.290
 1957SOL    HW2 6771   6.561   2.583   4.402
 1958SOL     OW 6772   3.876   1.951   0.478
 1958SOL    HW1 6773   3.790   2.001   0.461
 1958SOL    HW2 6774   3.942   2.013   0.521
 1959SOL     OW 6775   1.550   1.429   5.568
 1959SOL    HW1 6776   1.495   1.490   5.625
 1959SOL    HW2 6777   1.502   1.412   5.482
 1960SOL     OW 6778   5.452   4.492   2.764
 1960SOL    HW1 6779   5.458   4.495   2.664
 1960SOL    HW2 6780   5.442   4.585   2.800
 1961SOL     OW 6781   0.505   4.064   4.499
 1961SOL    HW1 6782   0.519   4.093   4.593
 1961SOL    HW2 6783   0.585   4.016   4.466
 1962SOL     OW 6784   0.520   6.738   2.307
 1962SOL    HW1 6785   0.472   6.818   2.343
 1962SOL    HW2 6786   0.454   6.666   2.285
 1963SOL     OW 6787   0.868   2.742   6.790
 1963SOL    HW1 6788   0.884   2.664   6.731
 1963SOL    HW2 6789   0.838   2.820   6.736
 1964SOL     OW 6790   5.720   3.396   0.868
 1964SOL    HW1 6791   5.708   3.297   0.876
 1964SOL    HW2 6792   5.633   3.441   0.887
 1965SOL     OW 6793   6.063   4.342   4.175
 1965SOL    HW1 6794   5.983   4.359   4.231
 1965SOL    HW2 6795   6.036   4.334   4.079
 1966SOL     OW 6796   0.886   5.094   6.728
 1966SOL    HW1 6797   0.950   5.162   6.763
 1966SOL    HW2 6798   0.808   5.087   6.790
 1967SOL     OW 6799   6.677   2.812   5.062
 1967SOL    HW1 6800   6.616   2.853   4.995
 1967SOL    HW2 6801   6.699   2.878   5.133
 1968SOL     OW 6802   2.351   1.420   6.281
 1968SOL    HW1 6803   2.300   1.379   6.205
 1968SOL    HW2 6804   2.286   1.459   6.346
 1969SOL     OW 6805   0.991   5.972   0.885
 1969SOL    HW1 6806   0.986   6.071   0.883
 1969SOL    HW2 6807   1.029   5.943   0.973
 1970SOL     OW 6808   5.341   4.359   3.699
 1970SOL    HW1 6809   5.283   4.345   3.618
 1970SOL    HW2 6810   5.309   4.300   3.773
 1971SOL     OW 6811   1.486   4.932   4.581
 1971SOL    HW1 6812   1.469   5.011   4.522
 1971SOL    HW2 6813   1.543   4.865   4.532
 1972SOL     OW 6814   6.088   2.042   2.568
 1972SOL    HW1 6815   6.156   2.080   2.632
 1972SOL    HW2 6816   6.000   2.033   2.615
 1973SOL     OW 6817   3.487   2.227   0.446
 1973SOL    HW1 6818   3.442   2.223   0.535
 1973SOL    HW2 6819   3.529   2.139   0.425
 1974SOL     OW 6820   2.392   6.761   4.765
 1974SOL    HW1 6821   2.450   6.748   4.846
 1974SOL    HW2 6822   2.326   6.687   4.759
 1975SOL     OW 6823   2.068   2.936   2.303
 1975SOL    HW1 6824   2.082   3.023   2.350
 1975SOL    HW2 6825   1.970   2.920   2.292
 1976SOL     OW 6826   1.418   1.180   5.021
 1976SOL    HW1 6827   1.482   1.104   5.028
 1976SOL    HW2 6828   1.333   1.156   5.068
 1977SOL     OW 6829   0.908   3.672   6.682
 1977SOL    HW1 6830   0.939   3.691   6.589
 1977SOL    HW2 6831   0.972   3.610   6.727
 1978SOL     OW 6832   3.013   0.237   2.134
 1978SOL    HW1 6833   2.966   0.202   2.214
 1978SOL    HW2 6834   3.082   0.304   2.163
 1979SOL     OW 6835   5.412   4.178   6.377
 1979SOL    HW1 6836   5.391   4.197   6.281
 1979SOL    HW2 6837   5.335   4.132   6.420
 1980SOL     OW 6838   4.230   0.502   1.309
 1980SOL    HW1 6839   4.152   0.440   1.318
 1980SOL    HW2 6840   4.225   0.549   1.221
 1981SOL     OW 6841   4.229   2.169   1.911
 1981SOL    HW1 6842   4.326   2.191   1.921
 1981SOL    HW2 6843   4.192   2.213   1.829
 1982SOL     OW 6844   1.383   2.779   6.279
 1982SOL    HW1 6845   1.350   2.687   6.259
 1982SOL    HW2 6846   1.441   2.811   6.204
 1983SOL     OW 6847   0.291   1.536   1.865
 1983SOL    HW1 6848   0.226   1.552   1.791
 1983SOL    HW2 6849   0.245   1.548   1.953
 1984SOL     OW 6850   4.974   4.012   5.911
 1984SOL    HW1 6851   4.905   4.071   5.870
 1984SOL    HW2 6852   4.986   3.931   5.855
 1985SOL     OW 6853   6.148   4.040   4.070
 1985SOL    HW1 6854   6.119   4.093   4.149
 1985SOL    HW2 6855   6.219   3.975   4.097
 1986SOL     OW 6856   2.966   3.190   2.466
 1986SOL    HW1 6857   3.043   3.155   2.520
 1986SOL    HW2 6858   2.953   3.133   2.385
 1987SOL     OW 6859   2.430   1.129   2.339
 1987SOL    HW1 6860   2.502   1.197   2.348
 1987SOL    HW2 6861   2.431   1.090   2.247
 1988SOL     OW 6862   0.911   2.014   2.754
 1988SOL    HW1 6863   0.975   2.091   2.747
 1988SOL    HW2 6864   0.856   2.023   2.837
 1989SOL     OW 6865   3.044   5.433   4.703
 1989SOL    HW1 6866   3.038   5.515   4.760
 1989SOL    HW2 6867   3.036   5.351   4.761
 1990SOL     OW 6868   4.197   6.225   0.543
 1990SOL    HW1 6869   4.266   6.270   0.600
 1990SOL    HW2 6870   4.229   6.223   0.448
 1991SOL     OW 6871   2.618   5.867   1.812
 1991SOL    HW1 6872   2.555   5.899   1.741
 1991SOL    HW2 6873   2.711   5.864   1.775
 1992SOL     OW 6874   1.162   6.445   3.003
 1992SOL    HW1 6875   1.190   6.483   2.915
 1992SOL    HW2 6876   1.144   6.519   3.068
 1993SOL     OW 6877   1.883   1.795   2.538
 1993SOL    HW1 6878   1.839   1.706   2.521
 1993SOL    HW2 6879   1.862   1.857   2.462
 1994SOL     OW 6880   3.239   3.390   1.392
 1994SOL    HW1 6881   3.226   3.433   1.303
 1994SOL    HW2 6882   3.337   3.370   1.405
 1995SOL     OW 6883   5.937   1.472   4.007
 1995SOL    HW1 6884   5.884   1.498   4.088
 1995SOL    HW2 6885   5.938   1.549   3.942
 1996SOL     OW 6886   4.755   0.740   0.666
 1996SOL    HW1 6887   4.838   0.766   0.617
 1996SOL    HW2 6888   4.704   0.673   0.612
 1997SOL     OW 6889   3.814   1.276   3.678
 1997SOL    HW1 6890   3.787   1.330   3.599
 1997SOL    HW2 6891   3.736   1.263   3.739
 1998SOL     OW 6892   2.714   3.577   1.085
 1998SOL    HW1 6893   2.783   3.531   1.141
 1998SOL    HW2 6894   2.757   3.653   1.035
 1999SOL     OW 6895   0.826   6.850   6.580
 1999SOL    HW1 6896   0.811   6.835   6.678
 1999SOL    HW2 6897   0.906   6.909   6.567
 2000SOL     OW 6898   4.298   4.553   6.446
 2000SOL    HW1 6899   4.203   4.580   6.462
 2000SOL    HW2 6900   4.319   4.471   6.500
 2001SOL     OW 6901   1.255   1.898   0.939
 2001SOL    HW1 6902   1.309   1.914   0.856
 2001SOL    HW2 6903   1.315   1.862   1.010
 2002SOL     OW 6904   5.749   5.498   0.816
 2002SOL    HW1 6905   5.718   5.513   0.722
 2002SOL    HW2 6906   5.804   5.576   0.846
 2003SOL     OW 6907   5.975   5.949   1.200
 2003SOL    HW1 6908   6.002   5.991   1.113
 2003SOL    HW2 6909   5.876   5.962   1.213
 2004SOL     OW 6910   4.105   0.163   3.265
 2004SOL    HW1 6911   4.051   0.233   3.219
 2004SOL    HW2 6912   4.069   0.147   3.357
 2005SOL     OW 6913   1.478   6.550   6.927
 2005SOL    HW1 6914   1.537   6.558   7.008
 2005SOL    HW2 6915   1.483   6.457   6.891
 2006SOL     OW 6916   6.133   0.004   2.276
 2006SOL    HW1 6917   6.105   6.994   2.187
 2006SOL    HW2 6918   6.078   0.085   2.298
 2007SOL     OW 6919   5.502   5.142   5.839
 2007SOL    HW1 6920   5.507   5.046   5.813
 2007SOL    HW2 6921   5.408   5.165   5.863
 2008SOL     OW 6922   1.849   3.314   2.730
 2008SOL    HW1 6923   1.920   3.331   2.661
 2008SOL    HW2 6924   1.889   3.262   2.806
 2009SOL     OW 6925   6.192   6.980   3.132
 2009SOL    HW1 6926   6.116   0.014   3.156
 2009SOL    HW2 6927   6.166   6.884   3.147
 2010SOL     OW 6928   0.512   1.406   1.274
 2010SOL    HW1 6929   0.578   1.481   1.277
 2010SOL    HW2 6930   0.520   1.351   1.357
 2011SOL     OW 6931   1.112   0.017   5.090
 2011SOL    HW1 6932   1.197   6.998   5.063
 2011SOL    HW2 6933   1.133   0.101   5.141
 2012SOL     OW 6934   0.253   2.648   0.579
 2012SOL    HW1 6935   0.247   2.721   0.647
 2012SOL    HW2 6936   0.221   2.562   0.620
 2013SOL     OW 6937   0.918   2.794   2.247
 2013SOL    HW1 6938   0.948   2.735   2.322
 2013SOL    HW2 6939   0.995   2.850   2.216
 2014SOL     OW 6940   3.774   1.546   3.904
 2014SOL    HW1 6941   3.778   1.450   3.932
 2014SOL    HW2 6942   3.774   1.604   3.985
 2015SOL     OW 6943   3.649   6.235   1.872
 2015SOL    HW1 6944   3.590   6.315   1.858
 2015SOL    HW2 6945   3.602   6.153   1.841
 2016SOL     OW 6946   1.887   0.904   5.473
 2016SOL    HW1 6947   1.984   0.898   5.449
 2016SOL    HW2 6948   1.868   0.996   5.508
 2017SOL     OW 6949   2.876   6.407   4.349
 2017SOL    HW1 6950   2.868   6.505   4.334
 2017SOL    HW2 6951   2.792   6.373   4.392
 2018SOL     OW 6952   0.638   0.524   4.384
 2018SOL    HW1 6953   0.737   0.531   4.390
 2018SOL    HW2 6954   0.596   0.560   4.467
 2019SOL     OW 6955   6.623   4.644   6.677
 2019SOL    HW1 6956   6.531   4.671   6.707
 2019SOL    HW2 6957   6.652   4.704   6.602
 2020SOL     OW 6958   1.840   6.866   1.181
 2020SOL    HW1 6959   1.798   6.924   1.251
 2020SOL    HW2 6960   1.921   6.911   1.144
 2021SOL     OW 6961   0.109   5.776   4.120
 2021SOL    HW1 6962   0.106   5.689   4.072
 2021SOL    HW2 6963   0.199   5.817   4.109
 2022SOL     OW 6964   1.518   3.333   4.244
 2022SOL    HW1 6965   1.606   3.375   4.223
 2022SOL    HW2 6966   1.520   3.298   4.338
 2023SOL     OW 6967   0.170   5.506   6.969
 2023SOL    HW1 6968   0.195   5.414   6.998
 2023SOL    HW2 6969   0.140   5.559   0.022
 2024SOL     OW 6970   6.890   5.457   3.385
 2024SOL    HW1 6971   6.927   5.420   3.471
 2024SOL    HW2 6972   6.893   5.387   3.314
 2025SOL     OW 6973   2.312   6.797   4.511
 2025SOL    HW1 6974   2.362   6.807   4.597
 2025SOL    HW2 6975   2.215   6.817   4.525
 2026SOL     OW 6976   1.472   6.896   5.438
 2026SOL    HW1 6977   1.558   6.853   5.464
 2026SOL    HW2 6978   1.472   6.992   5.468
 2027SOL     OW 6979   6.714   5.715   2.654
 2027SOL    HW1 6980   6.765   5.800   2.667
 2027SOL    HW2 6981   6.641   5.730   2.588
 2028SOL     OW 6982   2.480   5.821   4.950
 2028SOL    HW1 6983   2.571   5.805   4.913
 2028SOL    HW2 6984   2.480   5.905   5.004
 2029SOL     OW 6985   6.379   1.888   6.972
 2029SOL    HW1 6986   6.411   1.841   0.028
 2029SOL    HW2 6987   6.414   1.841   6.891
 2030SOL     OW 6988   1.855   6.838   2.851
 2030SOL    HW1 6989   1.918   6.775   2.897
 2030SOL    HW2 6990   1.864   6.829   2.752
 2031SOL     OW 6991   0.384   6.622   5.666
 2031SOL    HW1 6992   0.450   6.696   5.657
 2031SOL    HW2 6993   0.296   6.650   5.629
 2032SOL     OW 6994   2.307   2.787   6.072
 2032SOL    HW1 6995   2.286   2.881   6.043
 2032SOL    HW2 6996   2.383   2.752   6.018
 2033SOL     OW 6997   2.479   0.961   1.412
 2033SOL    HW1 6998   2.448   1.047   1.453
 2033SOL    HW2 6999   2.402   0.897   1.407
 2034SOL     OW 7000   0.790   4.595   5.226
 2034SOL    HW1 7001   0.722   4.649   5.177
 2034SOL    HW2 7002   0.878   4.599   5.178
 2035SOL     OW 7003   5.786   5.424   2.723
 2035SOL    HW1 7004   5.739   5.501   2.766
 2035SOL    HW2 7005   5.833   5.370   2.793
 2036SOL     OW 7006   0.706   3.831   6.106
 2036SOL    HW1 7007   0.750   3.745   6.079
 2036SOL    HW2 7008   0.765   3.908   6.083
 2037SOL     OW 7009   0.843   2.541   6.455
 2037SOL    HW1 7010   0.901   2.471   6.496
 2037SOL    HW2 7011   0.899   2.605   6.402
 2038SOL     OW 7012   1.045   1.217   5.893
 2038SOL    HW1 7013   0.997   1.168   5.820
 2038SOL    HW2 7014   0.986   1.288   5.931
 2039SOL     OW 7015   5.401   5.553   3.929
 2039SOL    HW1 7016   5.373   5.625   3.866
 2039SOL    HW2 7017   5.389   5.464   3.884
 2040SOL     OW 7018   2.862   2.055   0.637
 2040SOL    HW1 7019   2.818   1.970   0.667
 2040SOL    HW2 7020   2.820   2.133   0.684
 2041SOL     OW 7021   3.016   6.874   6.970
 2041SOL    HW1 7022   2.947   6.901   6.902
 2041SOL    HW2 7023   3.091   6.939   6.970
 2042SOL     OW 7024   0.098   0.037   6.156
 2042SOL    HW1 7025   0.118   6.965   6.150
 2042SOL    HW2 7026   0.016   0.052   6.211
 2043SOL     OW 7027   0.308   3.970   6.823
 2043SOL    HW1 7028   0.210   3.958   6.837
 2043SOL    HW2 7029   0.355   3.883   6.843
 2044SOL     OW 7030   3.689   0.474   1.724
 2044SOL    HW1 7031   3.768   0.503   1.668
 2044SOL    HW2 7032   3.708   0.494   1.820
 2045SOL     OW 7033   1.842   5.875   3.429
 2045SOL    HW1 7034   1.769   5.819   3.389
 2045SOL    HW2 7035   1.825   5.887   3.526
 2046SOL     OW 7036   1.071   2.748   5.677
 2046SOL    HW1 7037   1.039   2.662   5.637
 2046SOL    HW2 7038   1.092   2.813   5.604
 2047SOL     OW 7039   6.726   7.010   1.768
 2047SOL    HW1 7040   6.673   6.959   1.701
 2047SOL    HW2 7041   6.722   0.082   1.747
 2048SOL     OW 7042   1.850   0.668   3.402
 2048SOL    HW1 7043   1.894   0.711   3.482
 2048SOL    HW2 7044   1.850   0.732   3.326
 2049SOL     OW 7045   4.681   2.161   5.458
 2049SOL    HW1 7046   4.634   2.193   5.541
 2049SOL    HW2 7047   4.758   2.103   5.484
 2050SOL     OW 7048   0.416   0.789   2.720
 2050SOL    HW1 7049   0.411   0.775   2.818
 2050SOL    HW2 7050   0.406   0.886   2.699
 2051SOL     OW 7051   3.125   6.967   6.426
 2051SOL    HW1 7052   3.199   6.938   6.487
 2051SOL    HW2 7053   3.117   0.041   6.427
 2052SOL     OW 7054   0.153   3.981   1.308
 2052SOL    HW1 7055   0.223   4.046   1.279
 2052SOL    HW2 7056   0.096   3.956   1.230
 2053SOL     OW 7057   5.617   4.806   2.365
 2053SOL    HW1 7058   5.523   4.779   2.385
 2053SOL    HW2 7059   5.616   4.891   2.313
 2054SOL     OW 7060   3.339   4.113   2.777
 2054SOL    HW1 7061   3.276   4.110   2.854
 2054SOL    HW2 7062   3.429   4.142   2.808
 2055SOL     OW 7063   4.005   2.478   5.875
 2055SOL    HW1 7064   4.034   2.517   5.787
 2055SOL    HW2 7065   4.010   2.548   5.946
 2056SOL     OW 7066   2.718   4.813   1.863
 2056SOL    HW1 7067   2.754   4.736   1.915
 2056SOL    HW2 7068   2.679   4.780   1.778
 2057SOL     OW 7069   5.670   3.308   3.700
 2057SOL    HW1 7070   5.604   3.234   3.703
 2057SOL    HW2 7071   5.750   3.284   3.755
 2058SOL     OW 7072   5.331   6.956   3.357
 2058SOL    HW1 7073   5.300   6.893   3.287
 2058SOL    HW2 7074   5.271   6.950   3.437
 2059SOL     OW 7075   1.953   1.971   5.693
 2059SOL    HW1 7076   1.905   2.054   5.721
 2059SOL    HW2 7077   2.021   1.994   5.623
 2060SOL     OW 7078   1.302   2.496   6.324
 2060SOL    HW1 7079   1.210   2.469   6.297
 2060SOL    HW2 7080   1.347   2.419   6.370
 2061SOL     OW 7081   1.639   1.819   3.899
 2061SOL    HW1 7082   1.648   1.914   3.871
 2061SOL    HW2 7083   1.730   1.777   3.904
 2062SOL     OW 7084   5.368   5.272   3.793
 2062SOL    HW1 7085   5.280   5.300   3.753
 2062SOL    HW2 7086   5.434   5.254   3.721
 2063SOL     OW 7087   1.015   1.592   4.191
 2063SOL    HW1 7088   1.063   1.550   4.113
 2063SOL    HW2 7089   0.945   1.528   4.225
 2064SOL     OW 7090   0.621   4.142   4.776
 2064SOL    HW1 7091   0.649   4.233   4.746
 2064SOL    HW2 7092   0.692   4.103   4.836
 2065SOL     OW 7093   3.759   3.547   5.664
 2065SOL    HW1 7094   3.764   3.614   5.590
 2065SOL    HW2 7095   3.673   3.558   5.713
 2066SOL     OW 7096   2.115   2.695   4.556
 2066SOL    HW1 7097   2.126   2.720   4.652
 2066SOL    HW2 7098   2.201   2.659   4.520
 2067SOL     OW 7099   6.429   4.581   2.341
 2067SOL    HW1 7100   6.357   4.648   2.358
 2067SOL    HW2 7101   6.516   4.617   2.375
 2068SOL     OW 7102   3.505   6.269   4.236
 2068SOL    HW1 7103   3.549   6.214   4.165
 2068SOL    HW2 7104   3.576   6.316   4.289
 2069SOL     OW 7105   6.445   1.784   3.741
 2069SOL    HW1 7106   6.503   1.863   3.718
 2069SOL    HW2 7107   6.477   1.704   3.690
 2070SOL     OW 7108   0.275   4.910   1.902
 2070SOL    HW1 7109   0.276   4.812   1.885
 2070SOL    HW2 7110   0.332   4.931   1.982
 2071SOL     OW 7111   6.790   2.419   4.336
 2071SOL    HW1 7112   6.692   2.436   4.327
 2071SOL    HW2 7113   6.840   2.505   4.329
 2072SOL     OW 7114   5.493   3.446   6.033
 2072SOL    HW1 7115   5.588   3.417   6.032
 2072SOL    HW2 7116   5.485   3.537   5.992
 2073SOL     OW 7117   3.521   5.481   6.954
 2073SOL    HW1 7118   3.508   5.382   6.956
 2073SOL    HW2 7119   3.600   5.505   7.011
 2074SOL     OW 7120   3.607   4.737   5.450
 2074SOL    HW1 7121   3.608   4.837   5.451
 2074SOL    HW2 7122   3.698   4.703   5.469
 2075SOL     OW 7123   5.393   1.974   1.194
 2075SOL    HW1 7124   5.443   1.894   1.228
 2075SOL    HW2 7125   5.301   1.947   1.169
 2076SOL     OW 7126   6.690   6.849   3.649
 2076SOL    HW1 7127   6.784   6.881   3.637
 2076SOL    HW2 7128   6.665   6.855   3.746
 2077SOL     OW 7129   0.319   4.323   0.993
 2077SOL    HW1 7130   0.253   4.282   1.056
 2077SOL    HW2 7131   0.373   4.392   1.041
 2078SOL     OW 7132   0.774   2.916   6.359
 2078SOL    HW1 7133   0.681   2.899   6.328
 2078SOL    HW2 7134   0.837   2.859   6.306
 2079SOL     OW 7135   6.127   1.664   3.167
 2079SOL    HW1 7136   6.032   1.673   3.196
 2079SOL    HW2 7137   6.131   1.612   3.082
 2080SOL     OW 7138   2.229   3.788   6.054
 2080SOL    HW1 7139   2.201   3.876   6.015
 2080SOL    HW2 7140   2.327   3.775   6.040
 2081SOL     OW 7141   0.615   6.106   2.544
 2081SOL    HW1 7142   0.657   6.196   2.560
 2081SOL    HW2 7143   0.603   6.059   2.631
 2082SOL     OW 7144   0.105   5.772   3.790
 2082SOL    HW1 7145   0.012   5.744   3.768
 2082SOL    HW2 7146   0.152   5.696   3.837
 2083SOL     OW 7147   1.059   5.407   3.577
 2083SOL    HW1 7148   0.972   5.393   3.625
 2083SOL    HW2 7149   1.061   5.500   3.539
 2084SOL     OW 7150   6.388   2.411   1.201
 2084SOL    HW1 7151   6.299   2.376   1.173
 2084SOL    HW2 7152   6.445   2.336   1.232
 2085SOL     OW 7153   6.141   5.417   0.019
 2085SOL    HW1 7154   6.213   5.351   0.040
 2085SOL    HW2 7155   6.051   5.377   0.038
 2086SOL     OW 7156   6.153   0.196   6.098
 2086SOL    HW1 7157   6.249   0.204   6.124
 2086SOL    HW2 7158   6.145   0.150   6.010
 2087SOL     OW 7159   4.710   1.424   6.880
 2087SOL    HW1 7160   4.737   1.516   6.853
 2087SOL    HW2 7161   4.790   1.372   6.907
 2088SOL     OW 7162   0.593   3.548   5.936
 2088SOL    HW1 7163   0.675   3.546   5.994
 2088SOL    HW2 7164   0.605   3.484   5.860
 2089SOL     OW 7165   2.858   4.873   5.620
 2089SOL    HW1 7166   2.861   4.911   5.712
 2089SOL    HW2 7167   2.950   4.876   5.580
 2090SOL     OW 7168   5.198   2.523   6.397
 2090SOL    HW1 7169   5.148   2.531   6.484
 2090SOL    HW2 7170   5.289   2.561   6.408
 2091SOL     OW 7171   5.425   6.509   1.250
 2091SOL    HW1 7172   5.417   6.573   1.173
 2091SOL    HW2 7173   5.353   6.440   1.242
 2092SOL     OW 7174   3.430   3.122   2.135
 2092SOL    HW1 7175   3.367   3.147   2.061
 2092SOL    HW2 7176   3.386   3.056   2.195
 2093SOL     OW 7177   4.634   6.694   0.746
 2093SOL    HW1 7178   4.590   6.704   0.656
 2093SOL    HW2 7179   4.723   6.740   0.745
 2094SOL     OW 7180   4.852   2.683   0.641
 2094SOL    HW1 7181   4.839   2.594   0.596
 2094SOL    HW2 7182   4.763   2.718   0.669
 2095SOL     OW 7183   5.189   5.239   3.474
 2095SOL    HW1 7184   5.119   5.269   3.410
 2095SOL    HW2 7185   5.208   5.142   3.459
 2096SOL     OW 7186   4.099   6.501   2.979
 2096SOL    HW1 7187   4.031   6.546   2.920
 2096SOL    HW2 7188   4.075   6.405   2.990
 2097SOL     OW 7189   1.351   5.863   5.434
 2097SOL    HW1 7190   1.262   5.898   5.403
 2097SOL    HW2 7191   1.388   5.802   5.364
 2098SOL     OW 7192   1.635   6.924   3.795
 2098SOL    HW1 7193   1.605   6.852   3.733
 2098SOL    HW2 7194   1.730   6.908   3.822
 2099SOL     OW 7195   4.483   1.421   0.033
 2099SOL    HW1 7196   4.560   1.433   6.996
 2099SOL    HW2 7197   4.466   1.507   0.081
 2100SOL     OW 7198   4.948   0.577   0.039
 2100SOL    HW1 7199   4.890   0.656   0.020
 2100SOL    HW2 7200   4.977   0.536   6.978
 2101SOL     OW 7201   1.891   0.819   2.728
 2101SOL    HW1 7202   1.930   0.807   2.820
 2101SOL    HW2 7203   1.881   0.917   2.709
 2102SOL     OW 7204   3.570   2.856   1.915
 2102SOL    HW1 7205   3.569   2.954   1.895
 2102SOL    HW2 7206   3.478   2.818   1.905
 2103SOL     OW 7207   2.044   0.037   0.962
 2103SOL    HW1 7208   2.035   6.980   0.908
 2103SOL    HW2 7209   1.964   0.096   0.949
 2104SOL     OW 7210   1.374   4.165   2.513
 2104SOL    HW1 7211   1.393   4.170   2.611
 2104SOL    HW2 7212   1.291   4.110   2.498
 2105SOL     OW 7213   5.650   6.735   5.237
 2105SOL    HW1 7214   5.684   6.657   5.185
 2105SOL    HW2 7215   5.599   6.796   5.176
 2106SOL     OW 7216   3.299   2.142   1.119
 2106SOL    HW1 7217   3.345   2.094   1.194
 2106SOL    HW2 7218   3.342   2.115   1.032
 2107SOL     OW 7219   5.127   4.369   4.618
 2107SOL    HW1 7220   5.214   4.395   4.575
 2107SOL    HW2 7221   5.133   4.276   4.653
 2108SOL     OW 7222   4.488   6.633   5.032
 2108SOL    HW1 7223   4.412   6.671   4.980
 2108SOL    HW2 7224   4.550   6.585   4.970
 2109SOL     OW 7225   2.356   5.788   1.911
 2109SOL    HW1 7226   2.435   5.820   1.859
 2109SOL    HW2 7227   2.339   5.691   1.890
 2110SOL     OW 7228   3.731   6.144   7.004
 2110SOL    HW1 7229   3.826   6.176   7.001
 2110SOL    HW2 7230   3.683   6.190   0.053
 2111SOL     OW 7231   0.562   2.678   0.071
 2111SOL    HW1 7232   0.522   2.681   0.163
 2111SOL    HW2 7233   0.623   2.599   0.063
 2112SOL     OW 7234   0.659   0.396   6.675
 2112SOL    HW1 7235   0.674   0.322   6.740
 2112SOL    HW2 7236   0.740   0.406   6.617
 2113SOL     OW 7237   0.141   1.337   4.565
 2113SOL    HW1 7238   0.144   1.436   4.571
 2113SOL    HW2 7239   0.112   1.299   4.653
 2114SOL     OW 7240   2.743   1.259   5.331
 2114SOL    HW1 7241   2.733   1.168   5.292
 2114SOL    HW2 7242   2.729   1.328   5.260
 2115SOL     OW 7243   6.444   6.720   3.695
 2115SOL    HW1 7244   6.531   6.735   3.648
 2115SOL    HW2 7245   6.417   6.624   3.683
 2116SOL     OW 7246   2.207   1.036   6.479
 2116SOL    HW1 7247   2.301   1.068   6.481
 2116SOL    HW2 7248   2.205   0.939   6.452
 2117SOL     OW 7249   5.746   2.755   2.248
 2117SOL    HW1 7250   5.652   2.728   2.270
 2117SOL    HW2 7251   5.748   2.798   2.158
 2118SOL     OW 7252   0.328   3.078   2.685
 2118SOL    HW1 7253   0.377   3.164   2.667
 2118SOL    HW2 7254   0.388   3.015   2.734
 2119SOL     OW 7255   1.555   2.901   0.500
 2119SOL    HW1 7256   1.603   2.970   0.555
 2119SOL    HW2 7257   1.484   2.945   0.445
 2120SOL     OW 7258   5.402   1.886   0.595
 2120SOL    HW1 7259   5.455   1.931   0.523
 2120SOL    HW2 7260   5.455   1.887   0.680
 2121SOL     OW 7261   2.844   6.565   1.473
 2121SOL    HW1 7262   2.807   6.506   1.546
 2121SOL    HW2 7263   2.909   6.630   1.513
 2122SOL     OW 7264   0.284   0.630   4.767
 2122SOL    HW1 7265   0.203   0.688   4.754
 2122SOL    HW2 7266   0.308   0.629   4.864
 2123SOL     OW 7267   1.084   4.886   3.215
 2123SOL    HW1 7268   1.047   4.803   3.256
 2123SOL    HW2 7269   1.009   4.939   3.174
 2124SOL     OW 7270   4.822   3.132   5.983
 2124SOL    HW1 7271   4.804   3.061   5.915
 2124SOL    HW2 7272   4.867   3.210   5.940
 2125SOL     OW 7273   1.470   5.412   5.446
 2125SOL    HW1 7274   1.372   5.430   5.441
 2125SOL    HW2 7275   1.514   5.477   5.508
 2126SOL     OW 7276   2.837   5.045   1.757
 2126SOL    HW1 7277   2.769   4.986   1.712
 2126SOL    HW2 7278   2.790   5.116   1.810
 2127SOL     OW 7279   1.485   3.610   4.421
 2127SOL    HW1 7280   1.444   3.519   4.427
 2127SOL    HW2 7281   1.558   3.618   4.489
 2128SOL     OW 7282   5.409   2.919   1.227
 2128SOL    HW1 7283   5.373   2.998   1.176
 2128SOL    HW2 7284   5.361   2.836   1.198
 2129SOL     OW 7285   5.560   4.065   4.160
 2129SOL    HW1 7286   5.532   4.126   4.086
 2129SOL    HW2 7287   5.657   4.041   4.149
 2130SOL     OW 7288   2.172   0.575   2.665
 2130SOL    HW1 7289   2.194   0.629   2.584
 2130SOL    HW2 7290   2.074   0.552   2.664
 2131SOL     OW 7291   5.461   0.811   6.625
 2131SOL    HW1 7292   5.484   0.718   6.653
 2131SOL    HW2 7293   5.543   0.858   6.594
 2132SOL     OW 7294   2.701   2.340   0.105
 2132SOL    HW1 7295   2.642   2.381   0.035
 2132SOL    HW2 7296   2.686   2.387   0.192
 2133SOL     OW 7297   4.071   2.645   1.712
 2133SOL    HW1 7298   4.082   2.743   1.724
 2133SOL    HW2 7299   4.013   2.627   1.633
 2134SOL     OW 7300   2.445   0.228   5.307
 2134SOL    HW1 7301   2.434   0.255   5.403
 2134SOL    HW2 7302   2.406   0.137   5.293
 2135SOL     OW 7303   1.003   5.766   4.428
 2135SOL    HW1 7304   0.948   5.823   4.490
 2135SOL    HW2 7305   1.090   5.811   4.410
 2136SOL     OW 7306   1.157   5.035   3.894
 2136SOL    HW1 7307   1.252   5.031   3.865
 2136SOL    HW2 7308   1.152   5.055   3.992
 2137SOL     OW 7309   0.489   0.071   4.739
 2137SOL    HW1 7310   0.550   0.041   4.812
 2137SOL    HW2 7311   0.536   0.136   4.680
 2138SOL     OW 7312   1.256   2.127   6.757
 2138SOL    HW1 7313   1.176   2.140   6.698
 2138SOL    HW2 7314   1.304   2.044   6.730
 2139SOL     OW 7315   2.906   5.960   4.538
 2139SOL    HW1 7316   2.879   5.872   4.499
 2139SOL    HW2 7317   2.916   6.027   4.465
 2140SOL     OW 7318   1.510   5.591   3.911
 2140SOL    HW1 7319   1.431   5.592   3.849
 2140SOL    HW2 7320   1.594   5.602   3.858
 2141SOL     OW 7321   6.997   1.135   6.805
 2141SOL    HW1 7322   6.990   1.187   6.890
 2141SOL    HW2 7323   6.972   1.195   6.728
 2142SOL     OW 7324   4.085   0.918   3.193
 2142SOL    HW1 7325   4.178   0.954   3.196
 2142SOL    HW2 7326   4.079   0.845   3.125
 2143SOL     OW 7327   3.621   6.044   0.721
 2143SOL    HW1 7328   3.674   6.125   0.745
 2143SOL    HW2 7329   3.649   5.968   0.779
 2144SOL     OW 7330   1.074   1.096   1.799
 2144SOL    HW1 7331   1.080   1.132   1.892
 2144SOL    HW2 7332   0.979   1.073   1.777
 2145SOL     OW 7333   2.561   5.988   3.774
 2145SOL    HW1 7334   2.488   5.926   3.746
 2145SOL    HW2 7335   2.593   5.963   3.865
 2146SOL     OW 7336   2.915   2.393   1.033
 2146SOL    HW1 7337   2.842   2.331   1.007
 2146SOL    HW2 7338   2.982   2.399   0.958
 2147SOL     OW 7339   0.172   0.324   4.884
 2147SOL    HW1 7340   0.073   0.318   4.886
 2147SOL    HW2 7341   0.200   0.420   4.891
 2148SOL     OW 7342   6.460   3.761   4.381
 2148SOL    HW1 7343   6.445   3.829   4.452
 2148SOL    HW2 7344   6.526   3.693   4.413
 2149SOL     OW 7345   2.919   1.174   3.274
 2149SOL    HW1 7346   2.878   1.090   3.309
 2149SOL    HW2 7347   2.855   1.250   3.285
 2150SOL     OW 7348   5.226   0.110   2.878
 2150SOL    HW1 7349   5.179   0.058   2.807
 2150SOL    HW2 7350   5.313   0.144   2.842
 2151SOL     OW 7351   4.327   4.815   5.966
 2151SOL    HW1 7352   4.390   4.888   5.939
 2151SOL    HW2 7353   4.379   4.733   5.991
 2152SOL     OW 7354   0.256   6.600   2.492
 2152SOL    HW1 7355   0.297   6.509   2.501
 2152SOL    HW2 7356   0.239   6.637   2.583
 2153SOL     OW 7357   4.341   1.462   3.795
 2153SOL    HW1 7358   4.376   1.511   3.715
 2153SOL    HW2 7359   4.252   1.501   3.821
 2154SOL     OW 7360   3.628   6.461   4.629
 2154SOL    HW1 7361   3.664   6.429   4.542
 2154SOL    HW2 7362   3.600   6.382   4.684
 2155SOL     OW 7363   5.605   3.270   0.321
 2155SOL    HW1 7364   5.512   3.306   0.328
 2155SOL    HW2 7365   5.602   3.174   0.294
 2156SOL     OW 7366   6.326   6.406   2.861
 2156SOL    HW1 7367   6.344   6.307   2.860
 2156SOL    HW2 7368   6.412   6.454   2.880
 2157SOL     OW 7369   5.912   1.319   3.638
 2157SOL    HW1 7370   5.904   1.298   3.540
 2157SOL    HW2 7371   5.874   1.243   3.691
 2158SOL     OW 7372   4.241   0.009   3.435
 2158SOL    HW1 7373   4.187   6.962   3.392
 2158SOL    HW2 7374   4.241   0.089   3.375
 2159SOL     OW 7375   2.333   1.069   5.410
 2159SOL    HW1 7376   2.365   1.086   5.317
 2159SOL    HW2 7377   2.407   1.088   5.475
 2160SOL     OW 7378   2.349   3.897   0.489
 2160SOL    HW1 7379   2.398   3.850   0.416
 2160SOL    HW2 7380   2.398   3.980   0.515
 2161SOL     OW 7381   4.539   2.597   3.485
 2161SOL    HW1 7382   4.489   2.540   3.550
 2161SOL    HW2 7383   4.579   2.675   3.533
 2162SOL     OW 7384   2.637   1.534   2.206
 2162SOL    HW1 7385   2.564   1.509   2.270
 2162SOL    HW2 7386   2.706   1.588   2.253
 2163SOL     OW 7387   3.487   1.815   0.810
 2163SOL    HW1 7388   3.479   1.717   0.830
 2163SOL    HW2 7389   3.581   1.844   0.825
 2164SOL     OW 7390   6.891   0.762   1.455
 2164SOL    HW1 7391   6.987   0.784   1.472
 2164SOL    HW2 7392   6.861   0.692   1.520
 2165SOL     OW 7393   2.630   0.633   2.091
 2165SOL    HW1 7394   2.574   0.600   2.167
 2165SOL    HW2 7395   2.592   0.719   2.056
 2166SOL     OW 7396   5.473   2.807   5.529
 2166SOL    HW1 7397   5.465   2.839   5.435
 2166SOL    HW2 7398   5.492   2.885   5.590
 2167SOL     OW 7399   3.594   1.471   0.859
 2167SOL    HW1 7400   3.587   1.390   0.918
 2167SOL    HW2 7401   3.507   1.485   0.812
 2168SOL     OW 7402   5.541   6.091   4.465
 2168SOL    HW1 7403   5.616   6.036   4.502
 2168SOL    HW2 7404   5.578   6.174   4.424
 2169SOL     OW 7405   5.638   1.429   5.853
 2169SOL    HW1 7406   5.663   1.449   5.758
 2169SOL    HW2 7407   5.542   1.398   5.856
 2170SOL     OW 7408   5.003   4.949   4.089
 2170SOL    HW1 7409   4.942   5.006   4.142
 2170SOL    HW2 7410   5.096   4.956   4.125
 2171SOL     OW 7411   0.218   4.079   0.139
 2171SOL    HW1 7412   0.210   4.119   0.047
 2171SOL    HW2 7413   0.147   4.117   0.198
 2172SOL     OW 7414   2.632   0.486   2.437
 2172SOL    HW1 7415   2.613   0.412   2.501
 2172SOL    HW2 7416   2.692   0.452   2.364
 2173SOL     OW 7417   4.760   2.277   4.523
 2173SOL    HW1 7418   4.685   2.341   4.509
 2173SOL    HW2 7419   4.820   2.278   4.444
 2174SOL     OW 7420   0.991   5.536   5.100
 2174SOL    HW1 7421   1.085   5.504   5.112
 2174SOL    HW2 7422   0.971   5.608   5.167
 2175SOL     OW 7423   1.894   6.923   6.286
 2175SOL    HW1 7424   1.972   6.893   6.230
 2175SOL    HW2 7425   1.899   6.879   6.376
 2176SOL     OW 7426   1.659   2.960   2.786
 2176SOL    HW1 7427   1.689   2.942   2.880
 2176SOL    HW2 7428   1.618   2.878   2.748
 2177SOL     OW 7429   1.474   1.407   1.871
 2177SOL    HW1 7430   1.546   1.475   1.887
 2177SOL    HW2 7431   1.516   1.321   1.841
 2178SOL     OW 7432   6.348   6.264   0.309
 2178SOL    HW1 7433   6.403   6.181   0.313
 2178SOL    HW2 7434   6.406   6.343   0.328
 2179SOL     OW 7435   2.164   3.839   3.976
 2179SOL    HW1 7436   2.125   3.830   3.885
 2179SOL    HW2 7437   2.202   3.931   3.987
 2180SOL     OW 7438   3.044   2.898   1.834
 2180SOL    HW1 7439   2.977   2.972   1.823
 2180SOL    HW2 7440   3.001   2.810   1.815
 2181SOL     OW 7441   3.333   6.575   1.201
 2181SOL    HW1 7442   3.273   6.506   1.241
 2181SOL    HW2 7443   3.278   6.650   1.163
 2182SOL     OW 7444   4.368   3.294   0.797
 2182SOL    HW1 7445   4.457   3.257   0.821
 2182SOL    HW2 7446   4.313   3.224   0.752
 2183SOL     OW 7447   3.749   2.792   1.156
 2183SOL    HW1 7448   3.767   2.884   1.189
 2183SOL    HW2 7449   3.664   2.792   1.103
 2184SOL     OW 7450   5.503   3.072   6.236
 2184SOL    HW1 7451   5.480   3.169   6.246
 2184SOL    HW2 7452   5.430   3.016   6.275
 2185SOL     OW 7453   6.571   6.889   2.398
 2185SOL    HW1 7454   6.529   6.861   2.312
 2185SOL    HW2 7455   6.631   6.816   2.432
 2186SOL     OW 7456   0.238   4.104   3.419
 2186SOL    HW1 7457   0.216   4.106   3.517
 2186SOL    HW2 7458   0.167   4.150   3.368
 2187SOL     OW 7459   6.340   1.253   0.214
 2187SOL    HW1 7460   6.401   1.316   0.166
 2187SOL    HW2 7461   6.393   1.175   0.248
 2188SOL     OW 7462   4.783   1.849   3.864
 2188SOL    HW1 7463   4.741   1.926   3.912
 2188SOL    HW2 7464   4.733   1.765   3.885
 2189SOL     OW 7465   3.720   6.577   0.288
 2189SOL    HW1 7466   3.734   6.619   0.199
 2189SOL    HW2 7467   3.802   6.589   0.344
 2190SOL     OW 7468   5.249   2.943   7.005
 2190SOL    HW1 7469   5.298   2.855   7.010
 2190SOL    HW2 7470   5.162   2.930   6.959
 2191SOL     OW 7471   3.576   0.946   6.669
 2191SOL    HW1 7472   3.486   0.912   6.694
 2191SOL    HW2 7473   3.567   1.029   6.614
 2192SOL     OW 7474   3.694   5.970   2.264
 2192SOL    HW1 7475   3.635   5.988   2.185
 2192SOL    HW2 7476   3.669   6.030   2.339
 2193SOL     OW 7477   6.768   6.116   4.583
 2193SOL    HW1 7478   6.847   6.172   4.562
 2193SOL    HW2 7479   6.750   6.120   4.682
 2194SOL     OW 7480   2.595   0.240   1.891
 2194SOL    HW1 7481   2.532   0.163   1.877
 2194SOL    HW2 7482   2.625   0.274   1.802
 2195SOL     OW 7483   0.185   4.643   1.890
 2195SOL    HW1 7484   0.091   4.641   1.854
 2195SOL    HW2 7485   0.195   4.571   1.959
 2196SOL     OW 7486   4.513   3.790   0.192
 2196SOL    HW1 7487   4.535   3.816   0.098
 2196SOL    HW2 7488   4.500   3.873   0.247
 2197SOL     OW 7489   4.737   3.515   6.697
 2197SOL    HW1 7490   4.695   3.594   6.742
 2197SOL    HW2 7491   4.768   3.541   6.606
 2198SOL     OW 7492   6.919   4.371   6.887
 2198SOL    HW1 7493   6.890   4.306   6.817
 2198SOL    HW2 7494   6.989   4.432   6.849
 2199SOL     OW 7495   4.333   1.345   3.301
 2199SOL    HW1 7496   4.281   1.289   3.365
 2199SOL    HW2 7497   4.314   1.441   3.318
 2200SOL     OW 7498   3.738   6.978   4.285
 2200SOL    HW1 7499   3.834   6.973   4.311
 2200SOL    HW2 7500   3.715   0.045   4.258
 2201SOL     OW 7501   4.577   4.371   4.160
 2201SOL    HW1 7502   4.515   4.294   4.178
 2201SOL    HW2 7503   4.671   4.344   4.182
 2202SOL     OW 7504   4.496   5.871   3.501
 2202SOL    HW1 7505   4.428   5.912   3.440
 2202SOL    HW2 7506   4.488   5.771   3.498
 2203SOL     OW 7507   2.489   2.035   2.844
 2203SOL    HW1 7508   2.543   2.089   2.780
 2203SOL    HW2 7509   2.497   2.074   2.936
 2204SOL     OW 7510   3.099   2.099   0.723
 2204SOL    HW1 7511   3.011   2.075   0.680
 2204SOL    HW2 7512   3.160   2.137   0.653
 2205SOL     OW 7513   3.224   1.315   2.230
 2205SOL    HW1 7514   3.211   1.361   2.318
 2205SOL    HW2 7515   3.322   1.306   2.212
 2206SOL     OW 7516   1.584   4.033   0.371
 2206SOL    HW1 7517   1.544   4.092   0.300
 2206SOL    HW2 7518   1.617   3.948   0.329
 2207SOL     OW 7519   6.786   4.984   5.105
 2207SOL    HW1 7520   6.688   4.965   5.115
 2207SOL    HW2 7521   6.799   5.081   5.087
 2208SOL     OW 7522   6.594   5.256   1.520
 2208SOL    HW1 7523   6.519   5.193   1.541
 2208SOL    HW2 7524   6.566   5.320   1.449
 2209SOL     OW 7525   0.093   6.703   1.842
 2209SOL    HW1 7526   0.171   6.766   1.848
 2209SOL    HW2 7527   0.011   6.753   1.817
 2210SOL     OW 7528   2.301   4.983   3.713
 2210SOL    HW1 7529   2.361   4.985   3.794
 2210SOL    HW2 7530   2.259   5.073   3.702
 2211SOL     OW 7531   6.664   1.260   5.468
 2211SOL    HW1 7532   6.751   1.216   5.492
 2211SOL    HW2 7533   6.660   1.350   5.510
 2212SOL     OW 7534   3.525   0.069   5.788
 2212SOL    HW1 7535   3.461   7.018   5.788
 2212SOL    HW2 7536   3.527   0.111   5.879
 2213SOL     OW 7537   4.948   0.412   3.366
 2213SOL    HW1 7538   4.955   0.510   3.381
 2213SOL    HW2 7539   4.884   0.372   3.431
 2214SOL     OW 7540   3.352   6.595   4.954
 2214SOL    HW1 7541   3.404   6.511   4.937
 2214SOL    HW2 7542   3.363   6.657   4.877
 2215SOL     OW 7543   5.852   1.913   5.260
 2215SOL    HW1 7544   5.847   1.961   5.173
 2215SOL    HW2 7545   5.912   1.964   5.322
 2216SOL     OW 7546   3.149   1.861   2.693
 2216SOL    HW1 7547   3.204   1.864   2.777
 2216SOL    HW2 7548   3.052   1.858   2.718
 2217SOL     OW 7549   3.273   6.824   1.485
 2217SOL    HW1 7550   3.356   6.806   1.431
 2217SOL    HW2 7551   3.292   6.893   1.554
 2218SOL     OW 7552   0.177   0.702   2.263
 2218SOL    HW1 7553   0.211   0.705   2.357
 2218SOL    HW2 7554   0.092   0.651   2.259
 2219SOL     OW 7555   2.792   2.330   3.007
 2219SOL    HW1 7556   2.876   2.285   2.975
 2219SOL    HW2 7557   2.793   2.337   3.106
 2220SOL     OW 7558   1.662   0.243   2.468
 2220SOL    HW1 7559   1.580   0.227   2.413
 2220SOL    HW2 7560   1.692   0.337   2.457
 2221SOL     OW 7561   0.397   7.026   5.526
 2221SOL    HW1 7562   0.430   0.092   5.508
 2221SOL    HW2 7563   0.366   7.019   5.621
 2222SOL     OW 7564   5.951   4.883   3.875
 2222SOL    HW1 7565   5.947   4.833   3.788
 2222SOL    HW2 7566   5.932   4.980   3.859
 2223SOL     OW 7567   6.877   6.773   2.241
 2223SOL    HW1 7568   6.944   6.844   2.262
 2223SOL    HW2 7569   6.846   6.782   2.146
 2224SOL     OW 7570   0.765   6.026   0.472
 2224SOL    HW1 7571   0.809   6.018   0.383
 2224SOL    HW2 7572   0.665   6.026   0.460
 2225SOL     OW 7573   0.806   4.303   0.360
 2225SOL    HW1 7574   0.756   4.241   0.299
 2225SOL    HW2 7575   0.902   4.305   0.332
 2226SOL     OW 7576   3.953   3.475   2.239
 2226SOL    HW1 7577   4.005   3.391   2.255
 2226SOL    HW2 7578   3.857   3.452   2.222
 2227SOL     OW 7579   0.377   1.697   4.540
 2227SOL    HW1 7580   0.442   1.627   4.510
 2227SOL    HW2 7581   0.286   1.657   4.548
 2228SOL     OW 7582   2.360   4.331   4.133
 2228SOL    HW1 7583   2.278   4.373   4.093
 2228SOL    HW2 7584   2.350   4.327   4.232
 2229SOL     OW 7585   6.337   6.145   3.318
 2229SOL    HW1 7586   6.422   6.148   3.264
 2229SOL    HW2 7587   6.275   6.217   3.288
 2230SOL     OW 7588   1.800   5.304   2.716
 2230SOL    HW1 7589   1.813   5.221   2.771
 2230SOL    HW2 7590   1.827   5.286   2.622
 2231SOL     OW 7591   1.793   5.925   1.091
 2231SOL    HW1 7592   1.772   5.962   1.000
 2231SOL    HW2 7593   1.825   5.998   1.151
 2232SOL     OW 7594   5.933   2.111   4.248
 2232SOL    HW1 7595   5.935   2.018   4.213
 2232SOL    HW2 7596   5.849   2.125   4.301
 2233SOL     OW 7597   3.886   1.346   0.086
 2233SOL    HW1 7598   3.980   1.345   0.122
 2233SOL    HW2 7599   3.887   1.380   7.018
 2234SOL     OW 7600   4.097   2.674   1.240
 2234SOL    HW1 7601   4.003   2.650   1.265
 2234SOL    HW2 7602   4.097   2.757   1.185
 2235SOL     OW 7603   2.078   2.190   2.617
 2235SOL    HW1 7604   1.982   2.163   2.615
 2235SOL    HW2 7605   2.097   2.251   2.540
 2236SOL     OW 7606   0.955   4.321   5.373
 2236SOL    HW1 7607   1.029   4.387   5.374
 2236SOL    HW2 7608   0.867   4.368   5.382
 2237SOL     OW 7609   6.587   2.977   4.115
 2237SOL    HW1 7610   6.684   2.963   4.095
 2237SOL    HW2 7611   6.533   2.905   4.073
 2238SOL     OW 7612   5.370   6.054   0.048
 2238SOL    HW1 7613   5.331   6.042   0.139
 2238SOL    HW2 7614   5.468   6.073   0.056
 2239SOL     OW 7615   0.257   5.586   1.013
 2239SOL    HW1 7616   0.351   5.592   1.045
 2239SOL    HW2 7617   0.244   5.648   0.935
 2240SOL     OW 7618   6.145   4.012   1.441
 2240SOL    HW1 7619   6.163   4.040   1.535
 2240SOL    HW2 7620   6.047   4.000   1.428
 2241SOL     OW 7621   1.218   0.509   4.100
 2241SOL    HW1 7622   1.262   0.511   4.189
 2241SOL    HW2 7623   1.186   0.416   4.081
 2242SOL     OW 7624   3.016   1.525   3.180
 2242SOL    HW1 7625   2.940   1.492   3.236
 2242SOL    HW2 7626   3.008   1.488   3.088
 2243SOL     OW 7627   1.886   0.266   5.043
 2243SOL    HW1 7628   1.841   0.200   5.103
 2243SOL    HW2 7629   1.967   0.225   5.003
 2244SOL     OW 7630   3.914   0.484   4.902
 2244SOL    HW1 7631   4.002   0.438   4.911
 2244SOL    HW2 7632   3.881   0.512   4.992
 2245SOL     OW 7633   0.434   2.455   2.190
 2245SOL    HW1 7634   0.432   2.407   2.277
 2245SOL    HW2 7635   0.486   2.540   2.199
 2246SOL     OW 7636   0.881   4.073   5.229
 2246SOL    HW1 7637   0.893   4.165   5.266
 2246SOL    HW2 7638   0.788   4.064   5.193
 2247SOL     OW 7639   2.060   1.298   4.588
 2247SOL    HW1 7640   2.144   1.302   4.642
 2247SOL    HW2 7641   2.000   1.374   4.614
 2248SOL     OW 7642   5.617   4.091   5.988
 2248SOL    HW1 7643   5.645   4.038   6.068
 2248SOL    HW2 7644   5.696   4.103   5.927
 2249SOL     OW 7645   5.079   5.435   5.391
 2249SOL    HW1 7646   5.056   5.492   5.470
 2249SOL    HW2 7647   5.157   5.474   5.343
 2250SOL     OW 7648   4.655   5.130   1.573
 2250SOL    HW1 7649   4.596   5.206   1.600
 2250SOL    HW2 7650   4.640   5.052   1.633
 2251SOL     OW 7651   0.414   0.720   5.395
 2251SOL    HW1 7652   0.510   0.697   5.375
 2251SOL    HW2 7653   0.364   0.731   5.309
 2252SOL     OW 7654   3.507   1.175   6.445
 2252SOL    HW1 7655   3.568   1.248   6.476
 2252SOL    HW2 7656   3.524   1.156   6.348
 2253SOL     OW 7657   0.724   4.153   0.136
 2253SOL    HW1 7658   0.629   4.186   0.137
 2253SOL    HW2 7659   0.754   4.141   0.042
 2254SOL     OW 7660   1.623   4.499   6.491
 2254SOL    HW1 7661   1.607   4.597   6.495
 2254SOL    HW2 7662   1.556   4.452   6.548
 2255SOL     OW 7663   6.659   3.485   6.139
 2255SOL    HW1 7664   6.722   3.448   6.208
 2255SOL    HW2 7665   6.571   3.505   6.182
 2256SOL     OW 7666   2.529   4.856   2.041
 2256SOL    HW1 7667   2.591   4.849   1.963
 2256SOL    HW2 7668   2.487   4.947   2.042
 2257SOL     OW 7669   1.300   4.139   5.193
 2257SOL    HW1 7670   1.313   4.049   5.234
 2257SOL    HW2 7671   1.224   4.135   5.128
 2258SOL     OW 7672   1.835   5.435   5.506
 2258SOL    HW1 7673   1.832   5.378   5.423
 2258SOL    HW2 7674   1.917   5.413   5.559
 2259SOL     OW 7675   6.299   1.894   6.074
 2259SOL    HW1 7676   6.345   1.815   6.034
 2259SOL    HW2 7677   6.227   1.863   6.136
 2260SOL     OW 7678   3.844   2.992   0.324
 2260SOL    HW1 7679   3.865   3.040   0.409
 2260SOL    HW2 7680   3.827   2.895   0.343
 2261SOL     OW 7681   2.340   6.387   5.149
 2261SOL    HW1 7682   2.284   6.351   5.224
 2261SOL    HW2 7683   2.320   6.336   5.065
 2262SOL     OW 7684   3.297   1.850   2.943
 2262SOL    HW1 7685   3.321   1.944   2.966
 2262SOL    HW2 7686   3.216   1.822   2.995
 2263SOL     OW 7687   1.001   4.765   5.938
 2263SOL    HW1 7688   1.098   4.744   5.927
 2263SOL    HW2 7689   0.950   4.681   5.957
 2264SOL     OW 7690   3.656   3.656   3.311
 2264SOL    HW1 7691   3.664   3.561   3.341
 2264SOL    HW2 7692   3.745   3.690   3.282
 2265SOL     OW 7693   1.018   6.811   4.235
 2265SOL    HW1 7694   1.010   6.871   4.155
 2265SOL    HW2 7695   0.958   6.845   4.307
 2266SOL     OW 7696   6.636   0.594   5.554
 2266SOL    HW1 7697   6.722   0.543   5.560
 2266SOL    HW2 7698   6.576   0.566   5.630
 2267SOL     OW 7699   5.669   1.759   5.136
 2267SOL    HW1 7700   5.756   1.803   5.160
 2267SOL    HW2 7701   5.681   1.705   5.053
 2268SOL     OW 7702   0.106   6.139   0.249
 2268SOL    HW1 7703   0.187   6.127   0.307
 2268SOL    HW2 7704   0.050   6.057   0.252
 2269SOL     OW 7705   0.254   6.360   2.773
 2269SOL    HW1 7706   0.226   6.451   2.801
 2269SOL    HW2 7707   0.287   6.363   2.678
 2270SOL     OW 7708   3.564   3.099   3.232
 2270SOL    HW1 7709   3.529   3.065   3.319
 2270SOL    HW2 7710   3.525   3.045   3.157
 2271SOL     OW 7711   1.604   4.390   2.884
 2271SOL    HW1 7712   1.565   4.431   2.966
 2271SOL    HW2 7713   1.662   4.313   2.910
 2272SOL     OW 7714   5.019   0.555   5.490
 2272SOL    HW1 7715   5.014   0.639   5.543
 2272SOL    HW2 7716   5.058   0.482   5.546
 2273SOL     OW 7717   0.671   1.930   2.162
 2273SOL    HW1 7718   0.576   1.958   2.147
 2273SOL    HW2 7719   0.693   1.854   2.100
 2274SOL     OW 7720   0.824   4.156   3.418
 2274SOL    HW1 7721   0.882   4.197   3.488
 2274SOL    HW2 7722   0.732   4.194   3.425
 2275SOL     OW 7723   4.645   6.636   3.158
 2275SOL    HW1 7724   4.633   6.670   3.065
 2275SOL    HW2 7725   4.666   6.538   3.156
 2276SOL     OW 7726   3.616   5.561   2.334
 2276SOL    HW1 7727   3.602   5.625   2.409
 2276SOL    HW2 7728   3.533   5.556   2.278
 2277SOL     OW 7729   3.110   2.965   2.132
 2277SOL    HW1 7730   3.081   3.060   2.123
 2277SOL    HW2 7731   3.063   2.909   2.064
 2278SOL     OW 7732   3.776   5.475   1.114
 2278SOL    HW1 7733   3.808   5.443   1.203
 2278SOL    HW2 7734   3.739   5.567   1.122
 2279SOL     OW 7735   5.904   3.806   5.838
 2279SOL    HW1 7736   5.881   3.709   5.838
 2279SOL    HW2 7737   5.994   3.818   5.879
 2280SOL     OW 7738   5.743   0.407   6.041
 2280SOL    HW1 7739   5.692   0.423   5.957
 2280SOL    HW2 7740   5.694   0.448   6.118
 2281SOL     OW 7741   2.662   0.829   0.882
 2281SOL    HW1 7742   2.647   0.870   0.972
 2281SOL    HW2 7743   2.704   0.896   0.821
 2282SOL     OW 7744   4.092   6.249   2.665
 2282SOL    HW1 7745   4.080   6.347   2.646
 2282SOL    HW2 7746   4.183   6.221   2.636
 2283SOL     OW 7747   0.984   3.350   1.395
 2283SOL    HW1 7748   0.888   3.328   1.413
 2283SOL    HW2 7749   1.042   3.299   1.458
 2284SOL     OW 7750   2.126   2.653   1.301
 2284SOL    HW1 7751   2.209   2.606   1.269
 2284SOL    HW2 7752   2.083   2.598   1.374
 2285SOL     OW 7753   1.782   2.769   6.484
 2285SOL    HW1 7754   1.842   2.799   6.410
 2285SOL    HW2 7755   1.771   2.670   6.481
 2286SOL     OW 7756   6.628   6.573   3.942
 2286SOL    HW1 7757   6.575   6.649   3.978
 2286SOL    HW2 7758   6.678   6.602   3.861
 2287SOL     OW 7759   2.661   1.631   0.849
 2287SOL    HW1 7760   2.573   1.626   0.801
 2287SOL    HW2 7761   2.698   1.724   0.842
 2288SOL     OW 7762   2.534   6.311   4.695
 2288SOL    HW1 7763   2.565   6.360   4.777
 2288SOL    HW2 7764   2.554   6.213   4.705
 2289SOL     OW 7765   3.997   0.321   6.933
 2289SOL    HW1 7766   4.051   0.388   6.883
 2289SOL    HW2 7767   3.961   0.252   6.870
 2290SOL     OW 7768   2.919   3.316   4.794
 2290SOL    HW1 7769   2.946   3.410   4.814
 2290SOL    HW2 7770   2.838   3.292   4.848
 2291SOL     OW 7771   2.545   2.160   0.420
 2291SOL    HW1 7772   2.621   2.215   0.385
 2291SOL    HW2 7773   2.581   2.082   0.471
 2292SOL     OW 7774   5.442   2.705   3.343
 2292SOL    HW1 7775   5.476   2.706   3.437
 2292SOL    HW2 7776   5.427   2.610   3.314
 2293SOL     OW 7777   1.043   1.010   0.019
 2293SOL    HW1 7778   0.990   1.070   0.079
 2293SOL    HW2 7779   1.129   1.055   7.020
 2294SOL     OW 7780   6.523   2.067   5.283
 2294SOL    HW1 7781   6.520   2.099   5.188
 2294SOL    HW2 7782   6.433   2.031   5.309
 2295SOL     OW 7783   5.696   5.989   0.549
 2295SOL    HW1 7784   5.634   6.065   0.527
 2295SOL    HW2 7785   5.790   6.020   0.539
 2296SOL     OW 7786   3.748   5.629   4.840
 2296SOL    HW1 7787   3.835   5.638   4.888
 2296SOL    HW2 7788   3.756   5.669   4.749
 2297SOL     OW 7789   6.170   2.649   6.887
 2297SOL    HW1 7790   6.262   2.617   6.908
 2297SOL    HW2 7791   6.163   2.669   6.789
 2298SOL     OW 7792   2.686   3.995   5.306
 2298SOL    HW1 7793   2.593   3.976   5.275
 2298SOL    HW2 7794   2.693   4.091   5.333
 2299SOL     OW 7795   5.848   3.504   4.840
 2299SOL    HW1 7796   5.870   3.595   4.805
 2299SOL    HW2 7797   5.911   3.480   4.914
 2300SOL     OW 7798   5.151   6.797   2.828
 2300SOL    HW1 7799   5.214   6.829   2.899
 2300SOL    HW2 7800   5.059   6.788   2.867
 2301SOL     OW 7801   3.892   3.164   5.075
 2301SOL    HW1 7802   3.923   3.175   4.981
 2301SOL    HW2 7803   3.881   3.067   5.095
 2302SOL     OW 7804   6.994   3.736   5.550
 2302SOL    HW1 7805   6.921   3.739   5.618
 2302SOL    HW2 7806   7.016   3.640   5.529
 2303SOL     OW 7807   3.035   1.745   6.147
 2303SOL    HW1 7808   3.044   1.679   6.072
 2303SOL    HW2 7809   3.098   1.720   6.221
 2304SOL     OW 7810   5.152   6.955   2.604
 2304SOL    HW1 7811   5.126   6.896   2.680
 2304SOL    HW2 7812   5.251   6.969   2.604
 2305SOL     OW 7813   3.133   6.513   5.103
 2305SOL    HW1 7814   3.205   6.544   5.041
 2305SOL    HW2 7815   3.166   6.518   5.197
 2306SOL     OW 7816   0.947   4.439   4.848
 2306SOL    HW1 7817   0.946   4.392   4.936
 2306SOL    HW2 7818   0.981   4.532   4.860
 2307SOL     OW 7819   5.824   3.830   4.781
 2307SOL    HW1 7820   5.796   3.896   4.851
 2307SOL    HW2 7821   5.746   3.810   4.720
 2308SOL     OW 7822   1.105   6.002   1.874
 2308SOL    HW1 7823   1.126   6.071   1.804
 2308SOL    HW2 7824   1.188   5.976   1.922
 2309SOL     OW 7825   1.680   1.020   4.625
 2309SOL    HW1 7826   1.729   1.026   4.538
 2309SOL    HW2 7827   1.736   1.062   4.697
 2310SOL     OW 7828   5.090   6.370   0.146
 2310SOL    HW1 7829   5.179   6.325   0.138
 2310SOL    HW2 7830   5.101   6.459   0.189
 2311SOL     OW 7831   2.682   5.999   0.737
 2311SOL    HW1 7832   2.705   5.928   0.671
 2311SOL    HW2 7833   2.611   5.966   0.798
 2312SOL     OW 7834   2.900   4.732   2.770
 2312SOL    HW1 7835   2.807   4.706   2.746
 2312SOL    HW2 7836   2.942   4.779   2.693
 2313SOL     OW 7837   4.569   5.310   1.328
 2313SOL    HW1 7838   4.641   5.241   1.341
 2313SOL    HW2 7839   4.544   5.347   1.418
 2314SOL     OW 7840   2.312   4.255   2.912
 2314SOL    HW1 7841   2.306   4.345   2.870
 2314SOL    HW2 7842   2.272   4.257   3.004
 2315SOL     OW 7843   4.191   2.062   6.469
 2315SOL    HW1 7844   4.289   2.057   6.452
 2315SOL    HW2 7845   4.161   1.978   6.515
 2316SOL     OW 7846   4.992   3.351   1.591
 2316SOL    HW1 7847   5.090   3.331   1.593
 2316SOL    HW2 7848   4.942   3.271   1.558
 2317SOL     OW 7849   0.999   5.689   3.913
 2317SOL    HW1 7850   1.002   5.788   3.926
 2317SOL    HW2 7851   1.006   5.643   4.002
 2318SOL     OW 7852   6.760   1.919   3.840
 2318SOL    HW1 7853   6.761   1.819   3.849
 2318SOL    HW2 7854   6.731   1.960   3.926
 2319SOL     OW 7855   1.145   4.802   1.969
 2319SOL    HW1 7856   1.156   4.708   1.937
 2319SOL    HW2 7857   1.068   4.808   2.032
 2320SOL     OW 7858   6.376   4.606   4.168
 2320SOL    HW1 7859   6.390   4.517   4.211
 2320SOL    HW2 7860   6.322   4.595   4.084
 2321SOL     OW 7861   3.818   4.903   4.163
 2321SOL    HW1 7862   3.871   4.857   4.234
 2321SOL    HW2 7863   3.720   4.897   4.184
 2322SOL     OW 7864   2.715   0.752   4.579
 2322SOL    HW1 7865   2.713   0.766   4.480
 2322SOL    HW2 7866   2.627   0.778   4.618
 2323SOL     OW 7867   5.256   3.062   1.755
 2323SOL    HW1 7868   5.204   3.133   1.802
 2323SOL    HW2 7869   5.351   3.091   1.745
 2324SOL     OW 7870   0.171   5.217   4.072
 2324SOL    HW1 7871   0.199   5.187   3.981
 2324SOL    HW2 7872   0.115   5.146   4.115
 2325SOL     OW 7873   6.611   2.181   0.298
 2325SOL    HW1 7874   6.677   2.251   0.270
 2325SOL    HW2 7875   6.548   2.162   0.222
 2326SOL     OW 7876   0.412   5.051   0.500
 2326SOL    HW1 7877   0.509   5.061   0.519
 2326SOL    HW2 7878   0.396   4.965   0.453
 2327SOL     OW 7879   4.985   1.193   3.260
 2327SOL    HW1 7880   5.052   1.190   3.334
 2327SOL    HW2 7881   4.919   1.119   3.270
 2328SOL     OW 7882   6.146   5.090   3.780
 2328SOL    HW1 7883   6.202   5.150   3.837
 2328SOL    HW2 7884   6.160   4.995   3.807
 2329SOL     OW 7885   1.030   6.232   3.125
 2329SOL    HW1 7886   1.083   6.288   3.061
 2329SOL    HW2 7887   1.028   6.137   3.093
 2330SOL     OW 7888   1.355   4.696   0.588
 2330SOL    HW1 7889   1.447   4.656   0.582
 2330SOL    HW2 7890   1.287   4.623   0.583
 2331SOL     OW 7891   1.338   5.040   4.761
 2331SOL    HW1 7892   1.396   4.988   4.698
 2331SOL    HW2 7893   1.387   5.052   4.847
 2332SOL     OW 7894   6.089   3.245   5.674
 2332SOL    HW1 7895   5.995   3.252   5.707
 2332SOL    HW2 7896   6.111   3.325   5.619
 2333SOL     OW 7897   2.379   4.610   4.097
 2333SOL    HW1 7898   2.416   4.517   4.104
 2333SOL    HW2 7899   2.354   4.642   4.188
 2334SOL     OW 7900   2.588   0.264   5.950
 2334SOL    HW1 7901   2.546   0.354   5.967
 2334SOL    HW2 7902   2.604   0.218   6.037
 2335SOL     OW 7903   4.836   4.303   4.147
 2335SOL    HW1 7904   4.875   4.362   4.218
 2335SOL    HW2 7905   4.879   4.322   4.059
 2336SOL     OW 7906   4.203   1.772   6.067
 2336SOL    HW1 7907   4.154   1.853   6.099
 2336SOL    HW2 7908   4.231   1.786   5.972
 2337SOL     OW 7909   6.017   0.606   4.464
 2337SOL    HW1 7910   5.951   0.537   4.491
 2337SOL    HW2 7911   6.040   0.663   4.543
 2338SOL     OW 7912   1.397   0.105   6.922
 2338SOL    HW1 7913   1.338   0.150   6.856
 2338SOL    HW2 7914   1.382   0.007   6.920
 2339SOL     OW 7915   3.865   4.783   6.716
 2339SOL    HW1 7916   3.831   4.758   6.806
 2339SOL    HW2 7917   3.796   4.839   6.669
 2340SOL     OW 7918   3.785   5.233   4.617
 2340SOL    HW1 7919   3.795   5.138   4.645
 2340SOL    HW2 7920   3.784   5.239   4.517
 2341SOL     OW 7921   0.062   4.596   6.473
 2341SOL    HW1 7922   0.018   4.662   6.413
 2341SOL    HW2 7923   0.157   4.622   6.488
 2342SOL     OW 7924   6.602   1.128   5.832
 2342SOL    HW1 7925   6.675   1.059   5.828
 2342SOL    HW2 7926   6.541   1.116   5.753
 2343SOL     OW 7927   1.552   5.980   0.158
 2343SOL    HW1 7928   1.568   6.007   0.063
 2343SOL    HW2 7929   1.472   5.921   0.163
 2344SOL     OW 7930   2.575   1.109   3.090
 2344SOL    HW1 7931   2.631   1.180   3.046
 2344SOL    HW2 7932   2.507   1.076   3.024
 2345SOL     OW 7933   1.348   2.176   2.379
 2345SOL    HW1 7934   1.301   2.196   2.293
 2345SOL    HW2 7935   1.281   2.172   2.453
 2346SOL     OW 7936   4.815   3.260   5.218
 2346SOL    HW1 7937   4.800   3.177   5.272
 2346SOL    HW2 7938   4.736   3.321   5.229
 2347SOL     OW 7939   1.611   4.229   0.583
 2347SOL    HW1 7940   1.636   4.272   0.496
 2347SOL    HW2 7941   1.569   4.140   0.565
 2348SOL     OW 7942   2.498   0.101   1.112
 2348SOL    HW1 7943   2.513   0.055   1.024
 2348SOL    HW2 7944   2.558   0.180   1.119
 2349SOL     OW 7945   5.570   3.298   6.634
 2349SOL    HW1 7946   5.581   3.301   6.734
 2349SOL    HW2 7947   5.631   3.227   6.597
 2350SOL     OW 7948   1.945   6.385   5.206
 2350SOL    HW1 7949   1.852   6.389   5.243
 2350SOL    HW2 7950   1.983   6.294   5.222
 2351SOL     OW 7951   1.588   5.057   2.611
 2351SOL    HW1 7952   1.528   5.109   2.673
 2351SOL    HW2 7953   1.590   4.961   2.639
 2352SOL     OW 7954   5.433   5.509   6.752
 2352SOL    HW1 7955   5.497   5.442   6.714
 2352SOL    HW2 7956   5.442   5.596   6.703
 2353SOL     OW 7957   2.438   3.053   6.034
 2353SOL    HW1 7958   2.496   2.992   6.088
 2353SOL    HW2 7959   2.445   3.028   5.938
 2354SOL     OW 7960   4.346   1.541   2.500
 2354SOL    HW1 7961   4.382   1.519   2.410
 2354SOL    HW2 7962   4.420   1.538   2.567
 2355SOL     OW 7963   0.661   1.392   1.746
 2355SOL    HW1 7964   0.733   1.392   1.816
 2355SOL    HW2 7965   0.592   1.461   1.769
 2356SOL     OW 7966   3.041   5.047   4.166
 2356SOL    HW1 7967   3.033   5.083   4.073
 2356SOL    HW2 7968   2.955   5.005   4.194
 2357SOL     OW 7969   1.223   5.580   0.728
 2357SOL    HW1 7970   1.264   5.491   0.750
 2357SOL    HW2 7971   1.289   5.652   0.748
 2358SOL     OW 7972   2.690   0.894   5.360
 2358SOL    HW1 7973   2.638   0.965   5.312
 2358SOL    HW2 7974   2.694   0.916   5.457
 2359SOL     OW 7975   2.515   2.232   6.118
 2359SOL    HW1 7976   2.529   2.328   6.095
 2359SOL    HW2 7977   2.548   2.175   6.043
 2360SOL     OW 7978   3.090   5.162   0.624
 2360SOL    HW1 7979   3.174   5.210   0.648
 2360SOL    HW2 7980   3.025   5.168   0.700
 2361SOL     OW 7981   3.169   4.965   1.380
 2361SOL    HW1 7982   3.212   4.939   1.294
 2361SOL    HW2 7983   3.102   5.038   1.364
 2362SOL     OW 7984   2.692   5.156   4.593
 2362SOL    HW1 7985   2.647   5.240   4.565
 2362SOL    HW2 7986   2.716   5.102   4.512
 2363SOL     OW 7987   2.114   3.641   0.840
 2363SOL    HW1 7988   2.090   3.682   0.928
 2363SOL    HW2 7989   2.128   3.713   0.771
 2364SOL     OW 7990   4.856   0.683   2.300
 2364SOL    HW1 7991   4.830   0.599   2.252
 2364SOL    HW2 7992   4.793   0.757   2.275
 2365SOL     OW 7993   5.616   4.398   3.159
 2365SOL    HW1 7994   5.640   4.376   3.065
 2365SOL    HW2 7995   5.518   4.416   3.165
 2366SOL     OW 7996   3.534   4.831   5.197
 2366SOL    HW1 7997   3.485   4.911   5.232
 2366SOL    HW2 7998   3.531   4.758   5.265
 2367SOL     OW 7999   6.035   5.329   5.473
 2367SOL    HW1 8000   6.059   5.278   5.390
 2367SOL    HW2 8001   5.938   5.355   5.470
 2368SOL     OW 8002   5.633   0.308   4.940
 2368SOL    HW1 8003   5.672   0.265   5.022
 2368SOL    HW2 8004   5.604   0.401   4.961
 2369SOL     OW 8005   4.086   1.833   4.347
 2369SOL    HW1 8006   4.060   1.745   4.386
 2369SOL    HW2 8007   4.015   1.901   4.366
 2370SOL     OW 8008   4.643   1.651   1.437
 2370SOL    HW1 8009   4.738   1.647   1.467
 2370SOL    HW2 8010   4.588   1.697   1.506
 2371SOL     OW 8011   1.928   0.368   2.082
 2371SOL    HW1 8012   1.947   0.406   2.172
 2371SOL    HW2 8013   1.834   0.333   2.079
 2372SOL     OW 8014   6.706   7.020   5.163
 2372SOL    HW1 8015   6.678   0.090   5.157
 2372SOL    HW2 8016   6.802   7.016   5.189
 2373SOL     OW 8017   6.015   4.376   6.020
 2373SOL    HW1 8018   6.088   4.418   6.073
 2373SOL    HW2 8019   6.055   4.316   5.950
 2374SOL     OW 8020   0.024   6.341   2.251
 2374SOL    HW1 8021   0.060   6.258   2.208
 2374SOL    HW2 8022   0.048   6.420   2.196
 2375SOL     OW 8023   1.804   0.232   4.060
 2375SOL    HW1 8024   1.869   0.220   4.134
 2375SOL    HW2 8025   1.785   0.329   4.047
 2376SOL     OW 8026   4.945   3.458   3.749
 2376SOL    HW1 8027   4.867   3.520   3.742
 2376SOL    HW2 8028   5.020   3.492   3.693
 2377SOL     OW 8029   3.627   3.851   5.755
 2377SOL    HW1 8030   3.674   3.894   5.832
 2377SOL    HW2 8031   3.611   3.754   5.776
 2378SOL     OW 8032   0.812   0.745   0.725
 2378SOL    HW1 8033   0.753   0.754   0.805
 2378SOL    HW2 8034   0.771   0.679   0.661
 2379SOL     OW 8035   0.739   4.735   2.610
 2379SOL    HW1 8036   0.828   4.776   2.627
 2379SOL    HW2 8037   0.706   4.691   2.694
 2380SOL     OW 8038   4.143   5.392   6.618
 2380SOL    HW1 8039   4.107   5.304   6.585
 2380SOL    HW2 8040   4.156   5.454   6.541
 2381SOL     OW 8041   2.128   3.544   3.984
 2381SOL    HW1 8042   2.173   3.631   3.964
 2381SOL    HW2 8043   2.031   3.550   3.959
 2382SOL     OW 8044   6.889   5.550   2.989
 2382SOL    HW1 8045   6.794   5.580   2.985
 2382SOL    HW2 8046   6.946   5.612   2.934
 2383SOL     OW 8047   5.341   3.940   5.771
 2383SOL    HW1 8048   5.288   4.024   5.766
 2383SOL    HW2 8049   5.439   3.962   5.773
 2384SOL     OW 8050   0.229   2.662   3.240
 2384SOL    HW1 8051   0.226   2.576   3.190
 2384SOL    HW2 8052   0.261   2.735   3.180
 2385SOL     OW 8053   0.220   1.067   0.461
 2385SOL    HW1 8054   0.224   1.167   0.460
 2385SOL    HW2 8055   0.249   1.032   0.372
 2386SOL     OW 8056   6.704   5.237   5.071
 2386SOL    HW1 8057   6.739   5.316   5.021
 2386SOL    HW2 8058   6.703   5.257   5.169
 2387SOL     OW 8059   0.246   0.719   3.686
 2387SOL    HW1 8060   0.193   0.752   3.608
 2387SOL    HW2 8061   0.273   0.624   3.670
 2388SOL     OW 8062   1.425   3.575   4.763
 2388SOL    HW1 8063   1.397   3.641   4.833
 2388SOL    HW2 8064   1.518   3.542   4.784
 2389SOL     OW 8065   3.575   5.782   3.161
 2389SOL    HW1 8066   3.547   5.875   3.138
 2389SOL    HW2 8067   3.560   5.765   3.258
 2390SOL     OW 8068   5.250   2.436   5.719
 2390SOL    HW1 8069   5.208   2.388   5.796
 2390SOL    HW2 8070   5.213   2.528   5.713
 2391SOL     OW 8071   2.744   3.908   6.651
 2391SOL    HW1 8072   2.812   3.865   6.591
 2391SOL    HW2 8073   2.657   3.918   6.601
 2392SOL     OW 8074   4.250   5.176   5.916
 2392SOL    HW1 8075   4.212   5.217   5.832
 2392SOL    HW2 8076   4.175   5.139   5.971
 2393SOL     OW 8077   3.788   4.843   0.442
 2393SOL    HW1 8078   3.799   4.746   0.462
 2393SOL    HW2 8079   3.759   4.890   0.526
 2394SOL     OW 8080   6.530   2.245   3.423
 2394SOL    HW1 8081   6.438   2.228   3.461
 2394SOL    HW2 8082   6.532   2.219   3.327
 2395SOL     OW 8083   1.429   2.592   3.664
 2395SOL    HW1 8084   1.367   2.664   3.693
 2395SOL    HW2 8085   1.426   2.516   3.728
 2396SOL     OW 8086   6.942   0.115   6.351
 2396SOL    HW1 8087   6.953   0.214   6.356
 2396SOL    HW2 8088   6.854   0.088   6.389
 2397SOL     OW 8089   2.137   4.594   6.170
 2397SOL    HW1 8090   2.045   4.634   6.165
 2397SOL    HW2 8091   2.205   4.666   6.154
 2398SOL     OW 8092   4.010   5.692   4.955
 2398SOL    HW1 8093   4.063   5.775   4.937
 2398SOL    HW2 8094   3.968   5.698   5.045
 2399SOL     OW 8095   2.790   1.665   2.390
 2399SOL    HW1 8096   2.888   1.686   2.389
 2399SOL    HW2 8097   2.739   1.748   2.416
 2400SOL     OW 8098   0.948   2.928   0.485
 2400SOL    HW1 8099   1.021   2.861   0.497
 2400SOL    HW2 8100   0.862   2.888   0.515
 2401SOL     OW 8101   1.081   6.163   0.192
 2401SOL    HW1 8102   1.012   6.110   0.143
 2401SOL    HW2 8103   1.038   6.208   0.271
 2402SOL     OW 8104   0.718   3.616   2.144
 2402SOL    HW1 8105   0.667   3.661   2.070
 2402SOL    HW2 8106   0.677   3.526   2.161
 2403SOL     OW 8107   2.955   4.125   5.458
 2403SOL    HW1 8108   2.933   4.216   5.423
 2403SOL    HW2 8109   2.985   4.067   5.383
 2404SOL     OW 8110   6.289   1.315   2.010
 2404SOL    HW1 8111   6.296   1.280   2.103
 2404SOL    HW2 8112   6.265   1.412   2.013
 2405SOL     OW 8113   1.624   3.067   0.944
 2405SOL    HW1 8114   1.606   3.021   1.031
 2405SOL    HW2 8115   1.547   3.051   0.882
 2406SOL     OW 8116   4.157   5.626   4.656
 2406SOL    HW1 8117   4.127   5.577   4.738
 2406SOL    HW2 8118   4.256   5.621   4.648
 2407SOL     OW 8119   2.164   1.444   3.946
 2407SOL    HW1 8120   2.072   1.483   3.949
 2407SOL    HW2 8121   2.231   1.518   3.931
 2408SOL     OW 8122   3.790   0.064   6.059
 2408SOL    HW1 8123   3.723   0.129   6.093
 2408SOL    HW2 8124   3.880   0.108   6.054
 2409SOL     OW 8125   0.595   3.155   6.708
 2409SOL    HW1 8126   0.566   3.142   6.803
 2409SOL    HW2 8127   0.515   3.155   6.649
 2410SOL     OW 8128   6.997   3.434   4.682
 2410SOL    HW1 8129   0.040   3.449   4.753
 2410SOL    HW2 8130   0.001   3.362   4.620
 2411SOL     OW 8131   3.287   1.329   0.050
 2411SOL    HW1 8132   3.370   1.357   0.098
 2411SOL    HW2 8133   3.214   1.311   0.115
 2412SOL     OW 8134   3.015   1.553   6.735
 2412SOL    HW1 8135   2.987   1.628   6.796
 2412SOL    HW2 8136   3.108   1.526   6.757
 2413SOL     OW 8137   6.832   3.992   6.960
 2413SOL    HW1 8138   6.752   3.949   7.003
 2413SOL    HW2 8139   6.833   3.972   6.862
 2414SOL     OW 8140   6.928   1.611   4.838
 2414SOL    HW1 8141   6.970   1.556   4.910
 2414SOL    HW2 8142   6.991   1.683   4.810
 2415SOL     OW 8143   3.392   4.172   6.362
 2415SOL    HW1 8144   3.357   4.164   6.455
 2415SOL    HW2 8145   3.489   4.195   6.364
 2416SOL     OW 8146   0.277   3.621   3.924
 2416SOL    HW1 8147   0.242   3.684   3.854
 2416SOL    HW2 8148   0.353   3.664   3.972
 2417SOL     OW 8149   3.499   2.459   1.641
 2417SOL    HW1 8150   3.457   2.538   1.685
 2417SOL    HW2 8151   3.561   2.414   1.706
 2418SOL     OW 8152   5.796   3.997   6.180
 2418SOL    HW1 8153   5.878   4.048   6.205
 2418SOL    HW2 8154   5.733   3.993   6.257
 2419SOL     OW 8155   3.751   0.964   2.852
 2419SOL    HW1 8156   3.766   0.868   2.829
 2419SOL    HW2 8157   3.840   1.010   2.863
 2420SOL     OW 8158   1.222   3.796   2.209
 2420SOL    HW1 8159   1.172   3.716   2.242
 2420SOL    HW2 8160   1.279   3.769   2.131
 2421SOL     OW 8161   2.461   6.585   2.743
 2421SOL    HW1 8162   2.465   6.491   2.777
 2421SOL    HW2 8163   2.547   6.631   2.763
 2422SOL     OW 8164   4.165   6.499   0.285
 2422SOL    HW1 8165   4.105   6.537   0.355
 2422SOL    HW2 8166   4.130   6.410   0.255
 2423SOL     OW 8167   3.498   4.980   4.558
 2423SOL    HW1 8168   3.484   5.070   4.599
 2423SOL    HW2 8169   3.419   4.922   4.578
 2424SOL     OW 8170   5.144   6.728   6.223
 2424SOL    HW1 8171   5.198   6.658   6.270
 2424SOL    HW2 8172   5.173   6.734   6.128
 2425SOL     OW 8173   3.962   5.436   5.382
 2425SOL    HW1 8174   3.900   5.414   5.457
 2425SOL    HW2 8175   3.922   5.403   5.296
 2426SOL     OW 8176   3.060   2.360   5.411
 2426SOL    HW1 8177   2.961   2.374   5.413
 2426SOL    HW2 8178   3.091   2.348   5.317
 2427SOL     OW 8179   3.912   2.043   0.884
 2427SOL    HW1 8180   4.011   2.042   0.866
 2427SOL    HW2 8181   3.880   1.950   0.900
 2428SOL     OW 8182   1.755   1.821   2.902
 2428SOL    HW1 8183   1.696   1.896   2.934
 2428SOL    HW2 8184   1.817   1.855   2.832
 2429SOL     OW 8185   5.713   5.994   1.191
 2429SOL    HW1 8186   5.727   6.057   1.114
 2429SOL    HW2 8187   5.641   5.929   1.167
 2430SOL     OW 8188   6.790   0.114   6.989
 2430SOL    HW1 8189   6.790   0.015   7.003
 2430SOL    HW2 8190   6.876   0.141   6.944
 2431SOL     OW 8191   2.011   3.152   1.910
 2431SOL    HW1 8192   2.048   3.068   1.948
 2431SOL    HW2 8193   2.053   3.231   1.955
 2432SOL     OW 8194   2.693   5.973   2.053
 2432SOL    HW1 8195   2.615   6.004   2.108
 2432SOL    HW2 8196   2.660   5.936   1.966
 2433SOL     OW 8197   6.938   4.747   4.241
 2433SOL    HW1 8198   6.967   4.653   4.221
 2433SOL    HW2 8199   6.838   4.753   4.238
 2434SOL     OW 8200   4.492   1.552   2.758
 2434SOL    HW1 8201   4.401   1.563   2.799
 2434SOL    HW2 8202   4.545   1.636   2.772
 2435SOL     OW 8203   6.111   0.023   6.649
 2435SOL    HW1 8204   6.108   0.049   6.553
 2435SOL    HW2 8205   6.167   6.967   6.660
 2436SOL     OW 8206   6.785   2.629   0.932
 2436SOL    HW1 8207   6.872   2.580   0.931
 2436SOL    HW2 8208   6.794   2.713   0.879
 2437SOL     OW 8209   0.434   4.345   1.394
 2437SOL    HW1 8210   0.491   4.388   1.324
 2437SOL    HW2 8211   0.484   4.341   1.481
 2438SOL     OW 8212   4.115   1.446   4.956
 2438SOL    HW1 8213   4.204   1.431   4.913
 2438SOL    HW2 8214   4.065   1.516   4.906
 2439SOL     OW 8215   0.107   5.904   0.485
 2439SOL    HW1 8216   0.111   5.940   0.578
 2439SOL    HW2 8217   0.183   5.840   0.471
 2440SOL     OW 8218   5.842   1.713   5.468
 2440SOL    HW1 8219   5.850   1.769   5.385
 2440SOL    HW2 8220   5.777   1.639   5.452
 2441SOL     OW 8221   6.256   0.746   0.186
 2441SOL    HW1 8222   6.284   0.651   0.181
 2441SOL    HW2 8223   6.240   0.773   0.281
 2442SOL     OW 8224   5.044   2.744   2.391
 2442SOL    HW1 8225   5.064   2.697   2.305
 2442SOL    HW2 8226   4.990   2.827   2.371
 2443SOL     OW 8227   0.151   3.053   1.419
 2443SOL    HW1 8228   0.239   3.035   1.463
 2443SOL    HW2 8229   0.131   2.981   1.353
 2444SOL     OW 8230   3.575   4.971   3.234
 2444SOL    HW1 8231   3.480   4.947   3.217
 2444SOL    HW2 8232   3.581   5.026   3.317
 2445SOL     OW 8233   0.739   1.930   1.100
 2445SOL    HW1 8234   0.805   1.930   1.025
 2445SOL    HW2 8235   0.764   1.859   1.166
 2446SOL     OW 8236   6.792   5.602   1.769
 2446SOL    HW1 8237   6.797   5.504   1.788
 2446SOL    HW2 8238   6.767   5.616   1.673
 2447SOL     OW 8239   1.782   6.627   0.622
 2447SOL    HW1 8240   1.693   6.666   0.600
 2447SOL    HW2 8241   1.786   6.608   0.720
 2448SOL     OW 8242   5.578   1.295   3.881
 2448SOL    HW1 8243   5.592   1.388   3.847
 2448SOL    HW2 8244   5.654   1.237   3.852
 2449SOL     OW 8245   2.158   3.975   1.196
 2449SOL    HW1 8246   2.208   4.060   1.179
 2449SOL    HW2 8247   2.079   3.995   1.255
 2450SOL     OW 8248   0.922   6.929   5.442
 2450SOL    HW1 8249   0.884   6.979   5.365
 2450SOL    HW2 8250   1.016   6.903   5.422
 2451SOL     OW 8251   2.016   0.126   6.597
 2451SOL    HW1 8252   2.047   0.150   6.505
 2451SOL    HW2 8253   2.075   0.055   6.635
 2452SOL     OW 8254   2.523   1.819   4.252
 2452SOL    HW1 8255   2.434   1.793   4.291
 2452SOL    HW2 8256   2.541   1.915   4.272
 2453SOL     OW 8257   1.318   1.548   6.210
 2453SOL    HW1 8258   1.316   1.455   6.245
 2453SOL    HW2 8259   1.230   1.569   6.166
 2454SOL     OW 8260   3.067   6.398   0.603
 2454SOL    HW1 8261   3.032   6.350   0.523
 2454SOL    HW2 8262   2.993   6.451   0.645
 2455SOL     OW 8263   4.241   2.123   0.756
 2455SOL    HW1 8264   4.180   2.132   0.677
 2455SOL    HW2 8265   4.270   2.214   0.786
 2456SOL     OW 8266   0.862   3.635   6.036
 2456SOL    HW1 8267   0.933   3.573   6.070
 2456SOL    HW2 8268   0.875   3.648   5.938
 2457SOL     OW 8269   4.841   1.536   5.893
 2457SOL    HW1 8270   4.863   1.615   5.951
 2457SOL    HW2 8271   4.818   1.568   5.801
 2458SOL     OW 8272   1.014   0.375   2.420
 2458SOL    HW1 8273   1.103   0.380   2.465
 2458SOL    HW2 8274   0.946   0.423   2.475
 2459SOL     OW 8275   2.259   6.761   1.570
 2459SOL    HW1 8276   2.245   6.816   1.488
 2459SOL    HW2 8277   2.352   6.725   1.571
 2460SOL     OW 8278   0.422   0.461   4.071
 2460SOL    HW1 8279   0.501   0.421   4.024
 2460SOL    HW2 8280   0.361   0.388   4.103
 2461SOL     OW 8281   3.779   1.423   3.434
 2461SOL    HW1 8282   3.737   1.353   3.377
 2461SOL    HW2 8283   3.756   1.514   3.398
 2462SOL     OW 8284   0.545   6.265   0.900
 2462SOL    HW1 8285   0.459   6.315   0.906
 2462SOL    HW2 8286   0.538   6.193   0.831
 2463SOL     OW 8287   6.702   6.744   0.885
 2463SOL    HW1 8288   6.687   6.655   0.928
 2463SOL    HW2 8289   6.790   6.781   0.916
 2464SOL     OW 8290   0.419   3.005   4.078
 2464SOL    HW1 8291   0.468   3.031   4.161
 2464SOL    HW2 8292   0.402   3.087   4.023
 2465SOL     OW 8293   6.121   1.161   0.061
 2465SOL    HW1 8294   6.045   1.096   0.070
 2465SOL    HW2 8295   6.159   1.180   0.151
 2466SOL     OW 8296   0.744   2.613   1.572
 2466SOL    HW1 8297   0.702   2.600   1.662
 2466SOL    HW2 8298   0.672   2.612   1.502
 2467SOL     OW 8299   4.774   2.732   4.831
 2467SOL    HW1 8300   4.855   2.673   4.823
 2467SOL    HW2 8301   4.803   2.827   4.840
 2468SOL     OW 8302   3.846   0.017   5.069
 2468SOL    HW1 8303   3.764   0.051   5.023
 2468SOL    HW2 8304   3.914   7.016   5.000
 2469SOL     OW 8305   3.028   2.166   6.087
 2469SOL    HW1 8306   3.093   2.182   6.162
 2469SOL    HW2 8307   2.952   2.110   6.119
 2470SOL     OW 8308   2.077   6.003   6.621
 2470SOL    HW1 8309   2.037   6.094   6.615
 2470SOL    HW2 8310   2.041   5.946   6.547
 2471SOL     OW 8311   2.984   5.541   2.493
 2471SOL    HW1 8312   2.958   5.610   2.426
 2471SOL    HW2 8313   2.968   5.577   2.585
 2472SOL     OW 8314   4.487   1.226   2.421
 2472SOL    HW1 8315   4.416   1.170   2.378
 2472SOL    HW2 8316   4.488   1.317   2.378
 2473SOL     OW 8317   0.594   4.474   4.165
 2473SOL    HW1 8318   0.582   4.407   4.239
 2473SOL    HW2 8319   0.559   4.436   4.080
 2474SOL     OW 8320   1.523   6.418   1.129
 2474SOL    HW1 8321   1.604   6.404   1.186
 2474SOL    HW2 8322   1.441   6.418   1.186
 2475SOL     OW 8323   5.134   2.238   0.468
 2475SOL    HW1 8324   5.062   2.219   0.402
 2475SOL    HW2 8325   5.219   2.258   0.420
 2476SOL     OW 8326   4.862   6.857   0.642
 2476SOL    HW1 8327   4.949   6.849   0.691
 2476SOL    HW2 8328   4.830   6.952   0.644
 2477SOL     OW 8329   3.947   0.140   3.487
 2477SOL    HW1 8330   4.026   0.174   3.539
 2477SOL    HW2 8331   3.881   0.214   3.476
 2478SOL     OW 8332   3.378   0.059   4.450
 2478SOL    HW1 8333   3.329   0.138   4.488
 2478SOL    HW2 8334   3.338   0.035   4.361
 2479SOL     OW 8335   5.087   3.012   1.106
 2479SOL    HW1 8336   5.050   3.012   1.013
 2479SOL    HW2 8337   5.169   3.069   1.109
 2480SOL     OW 8338   3.414   2.202   1.535
 2480SOL    HW1 8339   3.429   2.154   1.621
 2480SOL    HW2 8340   3.423   2.300   1.550
 2481SOL     OW 8341   3.258   0.299   1.558
 2481SOL    HW1 8342   3.332   0.360   1.586
 2481SOL    HW2 8343   3.272   0.272   1.463
 2482SOL     OW 8344   6.554   3.178   0.387
 2482SOL    HW1 8345   6.542   3.262   0.439
 2482SOL    HW2 8346   6.560   3.199   0.289
 2483SOL     OW 8347   2.725   2.199   1.017
 2483SOL    HW1 8348   2.783   2.142   1.075
 2483SOL    HW2 8349   2.629   2.186   1.042
 2484SOL     OW 8350   4.465   0.559   6.655
 2484SOL    HW1 8351   4.510   0.516   6.733
 2484SOL    HW2 8352   4.406   0.633   6.688
 2485SOL     OW 8353   0.190   1.750   6.145
 2485SOL    HW1 8354   0.233   1.800   6.220
 2485SOL    HW2 8355   0.217   1.790   6.058
 2486SOL     OW 8356   0.423   5.329   3.483
 2486SOL    HW1 8357   0.372   5.407   3.519
 2486SOL    HW2 8358   0.396   5.246   3.531
 2487SOL     OW 8359   4.467   6.053   0.055
 2487SOL    HW1 8360   4.509   6.138   0.023
 2487SOL    HW2 8361   4.426   6.004   7.004
 2488SOL     OW 8362   6.967   3.626   0.710
 2488SOL    HW1 8363   0.041   3.632   0.719
 2488SOL    HW2 8364   6.924   3.657   0.794
 2489SOL     OW 8365   5.865   5.117   4.227
 2489SOL    HW1 8366   5.911   5.160   4.305
 2489SOL    HW2 8367   5.915   5.137   4.143
 2490SOL     OW 8368   2.148   5.908   2.637
 2490SOL    HW1 8369   2.116   5.979   2.700
 2490SOL    HW2 8370   2.180   5.951   2.553
 2491SOL     OW 8371   3.735   4.524   1.438
 2491SOL    HW1 8372   3.800   4.516   1.363
 2491SOL    HW2 8373   3.698   4.434   1.461
 2492SOL     OW 8374   6.799   5.584   1.062
 2492SOL    HW1 8375   6.835   5.543   0.978
 2492SOL    HW2 8376   6.740   5.518   1.109
 2493SOL     OW 8377   5.136   6.773   0.710
 2493SOL    HW1 8378   5.234   6.754   0.708
 2493SOL    HW2 8379   5.085   6.690   0.688
 2494SOL     OW 8380   6.913   3.713   0.961
 2494SOL    HW1 8381   7.012   3.728   0.967
 2494SOL    HW2 8382   6.871   3.727   1.050
 2495SOL     OW 8383   0.365   3.538   1.723
 2495SOL    HW1 8384   0.335   3.526   1.817
 2495SOL    HW2 8385   0.465   3.539   1.720
 2496SOL     OW 8386   5.820   4.529   6.653
 2496SOL    HW1 8387   5.830   4.460   6.725
 2496SOL    HW2 8388   5.731   4.519   6.609
 2497SOL     OW 8389   0.187   0.384   2.398
 2497SOL    HW1 8390   0.241   0.465   2.421
 2497SOL    HW2 8391   0.190   0.369   2.299
 2498SOL     OW 8392   2.048   3.252   4.927
 2498SOL    HW1 8393   2.082   3.189   4.997
 2498SOL    HW2 8394   1.988   3.320   4.970
 2499SOL     OW 8395   0.020   3.507   2.747
 2499SOL    HW1 8396   6.993   3.444   2.804
 2499SOL    HW2 8397   7.003   3.515   2.657
 2500SOL     OW 8398   3.572   3.454   2.027
 2500SOL    HW1 8399   3.488   3.464   2.079
 2500SOL    HW2 8400   3.600   3.543   1.991
 2501SOL     OW 8401   6.228   5.633   6.230
 2501SOL    HW1 8402   6.184   5.596   6.312
 2501SOL    HW2 8403   6.255   5.557   6.170
 2502SOL     OW 8404   2.176   6.513   4.152
 2502SOL    HW1 8405   2.190   6.596   4.098
 2502SOL    HW2 8406   2.248   6.507   4.222
 2503SOL     OW 8407   2.710   0.202   5.586
 2503SOL    HW1 8408   2.764   0.215   5.669
 2503SOL    HW2 8409   2.768   0.159   5.516
 2504SOL     OW 8410   3.544   0.089   3.360
 2504SOL    HW1 8411   3.600   0.010   3.384
 2504SOL    HW2 8412   3.595   0.173   3.379
 2505SOL     OW 8413   6.743   4.346   4.234
 2505SOL    HW1 8414   6.702   4.256   4.252
 2505SOL    HW2 8415   6.786   4.344   4.144
 2506SOL     OW 8416   5.870   5.346   6.388
 2506SOL    HW1 8417   5.913   5.261   6.418
 2506SOL    HW2 8418   5.932   5.423   6.406
 2507SOL     OW 8419   0.509   3.284   2.628
 2507SOL    HW1 8420   0.579   3.355   2.635
 2507SOL    HW2 8421   0.454   3.299   2.546
 2508SOL     OW 8422   6.105   1.019   3.991
 2508SOL    HW1 8423   6.184   1.030   4.051
 2508SOL    HW2 8424   6.024   1.061   4.033
 2509SOL     OW 8425   0.913   3.085   5.746
 2509SOL    HW1 8426   0.973   3.106   5.668
 2509SOL    HW2 8427   0.940   3.139   5.825
 2510SOL     OW 8428   3.116   3.829   2.280
 2510SOL    HW1 8429   3.067   3.807   2.364
 2510SOL    HW2 8430   3.086   3.767   2.207
 2511SOL     OW 8431   1.788   0.510   4.087
 2511SOL    HW1 8432   1.859   0.550   4.029
 2511SOL    HW2 8433   1.814   0.520   4.183
 2512SOL     OW 8434   4.204   4.779   3.763
 2512SOL    HW1 8435   4.249   4.830   3.837
 2512SOL    HW2 8436   4.126   4.831   3.729
 2513SOL     OW 8437   1.931   5.859   6.439
 2513SOL    HW1 8438   1.854   5.916   6.410
 2513SOL    HW2 8439   1.899   5.791   6.505
 2514SOL     OW 8440   1.359   2.040   3.311
 2514SOL    HW1 8441   1.438   2.100   3.301
 2514SOL    HW2 8442   1.381   1.950   3.273
 2515SOL     OW 8443   0.347   2.140   1.245
 2515SOL    HW1 8444   0.342   2.056   1.299
 2515SOL    HW2 8445   0.379   2.118   1.152
 2516SOL     OW 8446   5.860   2.398   4.966
 2516SOL    HW1 8447   5.909   2.342   4.900
 2516SOL    HW2 8448   5.858   2.493   4.935
 2517SOL     OW 8449   0.678   1.290   3.552
 2517SOL    HW1 8450   0.734   1.313   3.473
 2517SOL    HW2 8451   0.682   1.364   3.619
 2518SOL     OW 8452   2.521   4.337   0.922
 2518SOL    HW1 8453   2.484   4.428   0.939
 2518SOL    HW2 8454   2.463   4.268   0.966
 2519SOL     OW 8455   0.948   1.394   0.944
 2519SOL    HW1 8456   0.887   1.408   0.866
 2519SOL    HW2 8457   1.017   1.326   0.921
 2520SOL     OW 8458   2.473   2.283   1.419
 2520SOL    HW1 8459   2.557   2.228   1.414
 2520SOL    HW2 8460   2.395   2.222   1.434
 2521SOL     OW 8461   5.534   0.746   4.894
 2521SOL    HW1 8462   5.554   0.827   4.840
 2521SOL    HW2 8463   5.457   0.764   4.955
 2522SOL     OW 8464   1.032   1.678   6.812
 2522SOL    HW1 8465   1.039   1.713   6.906
 2522SOL    HW2 8466   1.073   1.743   6.749
 2523SOL     OW 8467   1.210   4.835   6.465
 2523SOL    HW1 8468   1.129   4.894   6.464
 2523SOL    HW2 8469   1.210   4.781   6.549
 2524SOL     OW 8470   0.966   1.030   4.460
 2524SOL    HW1 8471   0.951   1.116   4.509
 2524SOL    HW2 8472   0.878   0.997   4.424
 2525SOL     OW 8473   6.481   2.576   5.546
 2525SOL    HW1 8474   6.494   2.640   5.470
 2525SOL    HW2 8475   6.570   2.559   5.590
 2526SOL     OW 8476   1.740   0.044   0.551
 2526SOL    HW1 8477   1.728   7.026   0.640
 2526SOL    HW2 8478   1.712   0.140   0.557
 2527SOL     OW 8479   4.305   5.228   6.336
 2527SOL    HW1 8480   4.379   5.225   6.268
 2527SOL    HW2 8481   4.333   5.178   6.418
 2528SOL     OW 8482   4.658   5.765   6.311
 2528SOL    HW1 8483   4.634   5.784   6.216
 2528SOL    HW2 8484   4.748   5.805   6.331
 2529SOL     OW 8485   0.747   6.526   5.746
 2529SOL    HW1 8486   0.691   6.607   5.730
 2529SOL    HW2 8487   0.742   6.501   5.843
 2530SOL     OW 8488   2.612   6.317   6.537
 2530SOL    HW1 8489   2.631   6.354   6.628
 2530SOL    HW2 8490   2.542   6.245   6.544
 2531SOL     OW 8491   6.844   5.743   6.443
 2531SOL    HW1 8492   6.873   5.691   6.524
 2531SOL    HW2 8493   6.882   5.836   6.449
 2532SOL     OW 8494   5.729   6.039   1.778
 2532SOL    HW1 8495   5.749   6.055   1.682
 2532SOL    HW2 8496   5.636   6.003   1.787
 2533SOL     OW 8497   4.706   0.961   3.924
 2533SOL    HW1 8498   4.789   1.014   3.943
 2533SOL    HW2 8499   4.729   0.882   3.868
 2534SOL     OW 8500   3.983   1.082   2.508
 2534SOL    HW1 8501   3.895   1.128   2.516
 2534SOL    HW2 8502   4.051   1.144   2.468
 2535SOL     OW 8503   3.726   2.800   6.183
 2535SOL    HW1 8504   3.745   2.702   6.184
 2535SOL    HW2 8505   3.629   2.815   6.166
 2536SOL     OW 8506   1.515   0.616   1.603
 2536SOL    HW1 8507   1.503   0.609   1.504
 2536SOL    HW2 8508   1.428   0.595   1.649
 2537SOL     OW 8509   3.800   0.478   5.928
 2537SOL    HW1 8510   3.892   0.478   5.889
 2537SOL    HW2 8511   3.754   0.392   5.905
 2538SOL     OW 8512   5.992   3.725   3.587
 2538SOL    HW1 8513   5.909   3.671   3.573
 2538SOL    HW2 8514   6.071   3.664   3.592
 2539SOL     OW 8515   5.329   2.442   5.321
 2539SOL    HW1 8516   5.287   2.365   5.369
 2539SOL    HW2 8517   5.257   2.499   5.279
 2540SOL     OW 8518   2.530   1.694   1.477
 2540SOL    HW1 8519   2.590   1.742   1.414
 2540SOL    HW2 8520   2.470   1.632   1.426
 2541SOL     OW 8521   3.552   6.655   4.039
 2541SOL    HW1 8522   3.457   6.630   4.024
 2541SOL    HW2 8523   3.570   6.664   4.137
 2542SOL     OW 8524   1.966   5.492   6.138
 2542SOL    HW1 8525   2.021   5.562   6.092
 2542SOL    HW2 8526   2.004   5.401   6.117
 2543SOL     OW 8527   0.845   0.687   4.178
 2543SOL    HW1 8528   0.849   0.769   4.120
 2543SOL    HW2 8529   0.865   0.606   4.122
 2544SOL     OW 8530   0.366   5.342   6.753
 2544SOL    HW1 8531   0.426   5.264   6.738
 2544SOL    HW2 8532   0.350   5.354   6.852
 2545SOL     OW 8533   2.259   5.937   3.552
 2545SOL    HW1 8534   2.347   5.893   3.572
 2545SOL    HW2 8535   2.244   5.939   3.454
 2546SOL     OW 8536   6.801   1.183   1.518
 2546SOL    HW1 8537   6.893   1.213   1.493
 2546SOL    HW2 8538   6.783   1.093   1.477
 2547SOL     OW 8539   0.831   3.499   5.155
 2547SOL    HW1 8540   0.781   3.432   5.209
 2547SOL    HW2 8541   0.830   3.588   5.202
 2548SOL     OW 8542   1.310   0.520   5.499
 2548SOL    HW1 8543   1.259   0.529   5.413
 2548SOL    HW2 8544   1.403   0.553   5.486
 2549SOL     OW 8545   6.396   3.141   2.075
 2549SOL    HW1 8546   6.400   3.162   1.977
 2549SOL    HW2 8547   6.437   3.216   2.126
 2550SOL     OW 8548   5.954   5.303   0.187
 2550SOL    HW1 8549   5.953   5.209   0.221
 2550SOL    HW2 8550   5.875   5.352   0.221
 2551SOL     OW 8551   1.238   4.962   0.557
 2551SOL    HW1 8552   1.271   4.869   0.573
 2551SOL    HW2 8553   1.221   4.974   0.459
 2552SOL     OW 8554   1.754   5.592   3.752
 2552SOL    HW1 8555   1.808   5.576   3.835
 2552SOL    HW2 8556   1.812   5.631   3.681
 2553SOL     OW 8557   4.272   3.745   6.675
 2553SOL    HW1 8558   4.265   3.664   6.733
 2553SOL    HW2 8559   4.239   3.825   6.726
 2554SOL     OW 8560   1.104   1.597   0.607
 2554SOL    HW1 8561   1.053   1.682   0.596
 2554SOL    HW2 8562   1.082   1.534   0.532
 2555SOL     OW 8563   6.201   0.373   6.585
 2555SOL    HW1 8564   6.299   0.360   6.568
 2555SOL    HW2 8565   6.150   0.299   6.541
 2556SOL     OW 8566   4.013   5.094   1.133
 2556SOL    HW1 8567   3.917   5.120   1.144
 2556SOL    HW2 8568   4.052   5.141   1.054
 2557SOL     OW 8569   1.627   4.717   6.871
 2557SOL    HW1 8570   1.657   4.727   6.966
 2557SOL    HW2 8571   1.628   4.620   6.846
 2558SOL     OW 8572   4.138   0.494   5.541
 2558SOL    HW1 8573   4.206   0.424   5.516
 2558SOL    HW2 8574   4.185   0.578   5.567
 2559SOL     OW 8575   0.249   4.955   4.909
 2559SOL    HW1 8576   0.323   4.973   4.844
 2559SOL    HW2 8577   0.182   4.894   4.867
 2560SOL     OW 8578   6.013   1.489   0.255
 2560SOL    HW1 8579   6.048   1.401   0.287
 2560SOL    HW2 8580   5.923   1.506   0.296
 2561SOL     OW 8581   3.043   5.691   4.534
 2561SOL    HW1 8582   3.106   5.636   4.479
 2561SOL    HW2 8583   3.084   5.708   4.624
 2562SOL     OW 8584   2.483   3.650   6.955
 2562SOL    HW1 8585   2.565   3.707   6.952
 2562SOL    HW2 8586   2.419   3.688   7.021
 2563SOL     OW 8587   2.175   0.639   1.604
 2563SOL    HW1 8588   2.092   0.592   1.571
 2563SOL    HW2 8589   2.253   0.609   1.549
 2564SOL     OW 8590   1.674   6.307   2.145
 2564SOL    HW1 8591   1.683   6.339   2.051
 2564SOL    HW2 8592   1.630   6.379   2.200
 2565SOL     OW 8593   0.363   0.963   1.646
 2565SOL    HW1 8594   0.299   1.032   1.680
 2565SOL    HW2 8595   0.420   1.003   1.574
 2566SOL     OW 8596   2.444   0.053   5.836
 2566SOL    HW1 8597   2.484   0.142   5.862
 2566SOL    HW2 8598   2.350   0.047   5.870
 2567SOL     OW 8599   1.512   0.859   0.377
 2567SOL    HW1 8600   1.610   0.873   0.365
 2567SOL    HW2 8601   1.464   0.877   0.291
 2568SOL     OW 8602   5.255   4.290   0.351
 2568SOL    HW1 8603   5.221   4.214   0.296
 2568SOL    HW2 8604   5.352   4.278   0.369
 2569SOL     OW 8605   2.914   0.872   2.722
 2569SOL    HW1 8606   2.979   0.847   2.650
 2569SOL    HW2 8607   2.919   0.970   2.740
 2570SOL     OW 8608   5.909   2.520   6.125
 2570SOL    HW1 8609   5.839   2.582   6.159
 2570SOL    HW2 8610   5.882   2.425   6.144
 2571SOL     OW 8611   0.761   4.012   4.555
 2571SOL    HW1 8612   0.728   3.947   4.624
 2571SOL    HW2 8613   0.807   4.087   4.601
 2572SOL     OW 8614   1.557   4.974   3.812
 2572SOL    HW1 8615   1.615   4.898   3.783
 2572SOL    HW2 8616   1.611   5.058   3.819
 2573SOL     OW 8617   1.082   0.169   1.267
 2573SOL    HW1 8618   1.040   0.101   1.327
 2573SOL    HW2 8619   1.153   0.126   1.211
 2574SOL     OW 8620   6.237   3.492   0.689
 2574SOL    HW1 8621   6.226   3.393   0.687
 2574SOL    HW2 8622   6.197   3.528   0.774
 2575SOL     OW 8623   0.671   6.538   6.048
 2575SOL    HW1 8624   0.764   6.506   6.066
 2575SOL    HW2 8625   0.608   6.497   6.113
 2576SOL     OW 8626   4.178   6.169   4.703
 2576SOL    HW1 8627   4.179   6.071   4.683
 2576SOL    HW2 8628   4.176   6.183   4.802
 2577SOL     OW 8629   2.170   3.974   2.760
 2577SOL    HW1 8630   2.199   4.070   2.769
 2577SOL    HW2 8631   2.144   3.956   2.666
 2578SOL     OW 8632   4.150   2.033   2.577
 2578SOL    HW1 8633   4.066   2.015   2.526
 2578SOL    HW2 8634   4.168   2.131   2.576
 2579SOL     OW 8635   0.613   6.594   3.158
 2579SOL    HW1 8636   0.708   6.562   3.159
 2579SOL    HW2 8637   0.608   6.681   3.109
 2580SOL     OW 8638   2.353   2.452   5.814
 2580SOL    HW1 8639   2.314   2.363   5.838
 2580SOL    HW2 8640   2.396   2.446   5.724
 2581SOL     OW 8641   3.271   0.788   5.097
 2581SOL    HW1 8642   3.209   0.847   5.044
 2581SOL    HW2 8643   3.331   0.738   5.035
 2582SOL     OW 8644   6.909   3.344   1.358
 2582SOL    HW1 8645   6.985   3.380   1.412
 2582SOL    HW2 8646   6.910   3.384   1.267
 2583SOL     OW 8647   6.142   0.418   1.089
 2583SOL    HW1 8648   6.056   0.466   1.070
 2583SOL    HW2 8649   6.149   0.337   1.031
 2584SOL     OW 8650   3.756   4.380   6.244
 2584SOL    HW1 8651   3.846   4.360   6.205
 2584SOL    HW2 8652   3.761   4.461   6.302
 2585SOL     OW 8653   3.128   5.520   6.875
 2585SOL    HW1 8654   3.187   5.518   6.794
 2585SOL    HW2 8655   3.037   5.488   6.851
 2586SOL     OW 8656   2.578   0.961   3.519
 2586SOL    HW1 8657   2.550   0.866   3.536
 2586SOL    HW2 8658   2.668   0.963   3.476
 2587SOL     OW 8659   6.306   0.738   4.113
 2587SOL    HW1 8660   6.305   0.716   4.211
 2587SOL    HW2 8661   6.252   0.669   4.064
 2588SOL     OW 8662   4.574   0.457   6.888
 2588SOL    HW1 8663   4.609   0.535   6.939
 2588SOL    HW2 8664   4.512   0.405   6.946
 2589SOL     OW 8665   2.343   6.073   0.441
 2589SOL    HW1 8666   2.393   6.006   0.387
 2589SOL    HW2 8667   2.249   6.079   0.408
 2590SOL     OW 8668   3.185   5.912   0.415
 2590SOL    HW1 8669   3.116   5.933   0.345
 2590SOL    HW2 8670   3.249   5.845   0.378
 2591SOL     OW 8671   5.190   5.247   2.956
 2591SOL    HW1 8672   5.191   5.156   2.916
 2591SOL    HW2 8673   5.269   5.259   3.015
 2592SOL     OW 8674   2.925   4.027   0.618
 2592SOL    HW1 8675   2.896   4.051   0.710
 2592SOL    HW2 8676   2.967   3.936   0.619
 2593SOL     OW 8677   3.666   4.952   0.194
 2593SOL    HW1 8678   3.738   4.951   0.263
 2593SOL    HW2 8679   3.675   4.871   0.136
 2594SOL     OW 8680   1.865   2.846   3.838
 2594SOL    HW1 8681   1.964   2.850   3.823
 2594SOL    HW2 8682   1.843   2.882   3.929
 2595SOL     OW 8683   2.300   1.699   3.058
 2595SOL    HW1 8684   2.395   1.715   3.084
 2595SOL    HW2 8685   2.240   1.749   3.119
 2596SOL     OW 8686   0.565   1.987   0.644
 2596SOL    HW1 8687   0.662   2.007   0.652
 2596SOL    HW2 8688   0.531   1.952   0.732
 2597SOL     OW 8689   6.569   6.909   0.199
 2597SOL    HW1 8690   6.664   6.931   0.223
 2597SOL    HW2 8691   6.508   6.978   0.238
 2598SOL     OW 8692   5.104   2.575   2.825
 2598SOL    HW1 8693   5.105   2.662   2.873
 2598SOL    HW2 8694   5.020   2.524   2.848
 2599SOL     OW 8695   2.914   5.849   2.410
 2599SOL    HW1 8696   2.862   5.776   2.365
 2599SOL    HW2 8697   2.877   5.938   2.383
 2600SOL     OW 8698   5.838   3.827   4.434
 2600SOL    HW1 8699   5.935   3.807   4.433
 2600SOL    HW2 8700   5.823   3.917   4.475
 2601SOL     OW 8701   6.370   1.569   4.298
 2601SOL    HW1 8702   6.425   1.520   4.230
 2601SOL    HW2 8703   6.286   1.603   4.255
 2602SOL     OW 8704   0.817   4.231   2.588
 2602SOL    HW1 8705   0.873   4.231   2.504
 2602SOL    HW2 8706   0.868   4.277   2.661
 2603SOL     OW 8707   2.067   6.058   2.950
 2603SOL    HW1 8708   2.118   6.142   2.971
 2603SOL    HW2 8709   2.018   6.027   3.031
 2604SOL     OW 8710   4.670   2.730   3.699
 2604SOL    HW1 8711   4.620   2.741   3.785
 2604SOL    HW2 8712   4.749   2.791   3.699
 2605SOL     OW 8713   1.450   3.522   1.409
 2605SOL    HW1 8714   1.383   3.458   1.371
 2605SOL    HW2 8715   1.412   3.615   1.404
 2606SOL     OW 8716   5.129   3.457   0.959
 2606SOL    HW1 8717   5.164   3.550   0.961
 2606SOL    HW2 8718   5.159   3.408   1.041
 2607SOL     OW 8719   2.647   3.086   1.605
 2607SOL    HW1 8720   2.644   3.123   1.512
 2607SOL    HW2 8721   2.566   3.115   1.655
 2608SOL     OW 8722   2.932   5.483   5.487
 2608SOL    HW1 8723   2.868   5.428   5.433
 2608SOL    HW2 8724   3.016   5.431   5.503
 2609SOL     OW 8725   0.625   2.290   1.280
 2609SOL    HW1 8726   0.545   2.232   1.270
 2609SOL    HW2 8727   0.668   2.272   1.369
 2610SOL     OW 8728   1.479   4.037   4.925
 2610SOL    HW1 8729   1.481   4.089   4.840
 2610SOL    HW2 8730   1.459   4.098   5.001
 2611SOL     OW 8731   5.356   0.117   6.157
 2611SOL    HW1 8732   5.297   0.069   6.092
 2611SOL    HW2 8733   5.438   0.150   6.109
 2612SOL     OW 8734   6.782   6.641   6.992
 2612SOL    HW1 8735   6.685   6.637   6.966
 2612SOL    HW2 8736   6.836   6.591   6.924
 2613SOL     OW 8737   1.074   6.808   6.978
 2613SOL    HW1 8738   1.145   6.874   7.003
 2613SOL    HW2 8739   1.116   6.721   6.954
 2614SOL     OW 8740   6.140   2.158   0.358
 2614SOL    HW1 8741   6.221   2.114   0.399
 2614SOL    HW2 8742   6.103   2.099   0.286
 2615SOL     OW 8743   0.360   3.417   6.960
 2615SOL    HW1 8744   0.261   3.412   6.970
 2615SOL    HW2 8745   0.401   3.440   0.022
 2616SOL     OW 8746   1.441   1.116   4.725
 2616SOL    HW1 8747   1.446   1.085   4.820
 2616SOL    HW2 8748   1.522   1.084   4.675
 2617SOL     OW 8749   5.327   0.177   1.805
 2617SOL    HW1 8750   5.257   0.238   1.841
 2617SOL    HW2 8751   5.377   0.224   1.732
 2618SOL     OW 8752   1.516   0.106   6.530
 2618SOL    HW1 8753   1.571   0.084   6.610
 2618SOL    HW2 8754   1.539   0.043   6.455
 2619SOL     OW 8755   4.841   1.357   3.007
 2619SOL    HW1 8756   4.741   1.349   3.005
 2619SOL    HW2 8757   4.877   1.349   2.914
 2620SOL     OW 8758   6.150   1.997   1.714
 2620SOL    HW1 8759   6.059   1.998   1.673
 2620SOL    HW2 8760   6.142   1.999   1.814
 2621SOL     OW 8761   2.498   6.635   1.621
 2621SOL    HW1 8762   2.550   6.703   1.672
 2621SOL    HW2 8763   2.558   6.559   1.595
 2622SOL     OW 8764   2.714   3.800   6.940
 2622SOL    HW1 8765   2.708   3.886   6.990
 2622SOL    HW2 8766   2.749   3.728   7.000
 2623SOL     OW 8767   6.957   0.480   3.735
 2623SOL    HW1 8768   6.895   0.534   3.679
 2623SOL    HW2 8769   0.024   0.515   3.725
 2624SOL     OW 8770   1.197   1.905   5.589
 2624SOL    HW1 8771   1.271   1.855   5.545
 2624SOL    HW2 8772   1.214   2.003   5.582
 2625SOL     OW 8773   2.586   5.628   5.713
 2625SOL    HW1 8774   2.675   5.674   5.709
 2625SOL    HW2 8775   2.600   5.531   5.734
 2626SOL     OW 8776   6.937   6.946   6.792
 2626SOL    HW1 8777   6.962   0.003   6.742
 2626SOL    HW2 8778   6.837   6.941   6.800
 2627SOL     OW 8779   2.275   1.062   5.906
 2627SOL    HW1 8780   2.186   1.081   5.864
 2627SOL    HW2 8781   2.339   1.137   5.885
 2628SOL     OW 8782   6.937   4.954   1.226
 2628SOL    HW1 8783   6.986   5.040   1.212
 2628SOL    HW2 8784   6.867   4.967   1.296
 2629SOL     OW 8785   3.348   3.779   2.747
 2629SOL    HW1 8786   3.315   3.778   2.652
 2629SOL    HW2 8787   3.437   3.826   2.751
 2630SOL     OW 8788   3.550   0.818   4.094
 2630SOL    HW1 8789   3.495   0.828   4.012
 2630SOL    HW2 8790   3.647   0.818   4.069
 2631SOL     OW 8791   5.592   6.554   0.025
 2631SOL    HW1 8792   5.556   6.540   6.959
 2631SOL    HW2 8793   5.600   6.652   0.043
 2632SOL     OW 8794   5.932   4.886   1.591
 2632SOL    HW1 8795   6.031   4.882   1.580
 2632SOL    HW2 8796   5.889   4.816   1.534
 2633SOL     OW 8797   0.294   3.363   5.842
 2633SOL    HW1 8798   0.334   3.396   5.927
 2633SOL    HW2 8799   0.352   3.290   5.804
 2634SOL     OW 8800   1.008   1.911   5.811
 2634SOL    HW1 8801   0.910   1.901   5.792
 2634SOL    HW2 8802   1.059   1.905   5.725
 2635SOL     OW 8803   3.847   5.229   3.156
 2635SOL    HW1 8804   3.790   5.157   3.118
 2635SOL    HW2 8805   3.931   5.237   3.103
 2636SOL     OW 8806   3.345   6.499   6.185
 2636SOL    HW1 8807   3.327   6.442   6.265
 2636SOL    HW2 8808   3.274   6.483   6.116
 2637SOL     OW 8809   0.408   0.778   2.995
 2637SOL    HW1 8810   0.374   0.741   3.082
 2637SOL    HW2 8811   0.490   0.832   3.011
 2638SOL     OW 8812   0.694   6.755   4.658
 2638SOL    HW1 8813   0.663   6.773   4.751
 2638SOL    HW2 8814   0.617   6.765   4.595
 2639SOL     OW 8815   4.742   4.727   4.251
 2639SOL    HW1 8816   4.824   4.701   4.199
 2639SOL    HW2 8817   4.762   4.723   4.349
 2640SOL     OW 8818   2.512   1.366   3.509
 2640SOL    HW1 8819   2.422   1.380   3.551
 2640SOL    HW2 8820   2.504   1.301   3.433
 2641SOL     OW 8821   4.911   2.466   6.935
 2641SOL    HW1 8822   4.991   2.470   6.995
 2641SOL    HW2 8823   4.921   2.389   6.872
 2642SOL     OW 8824   0.380   6.970   2.431
 2642SOL    HW1 8825   0.369   6.998   2.336
 2642SOL    HW2 8826   0.317   6.895   2.451
 2643SOL     OW 8827   1.500   4.784   4.157
 2643SOL    HW1 8828   1.542   4.867   4.194
 2643SOL    HW2 8829   1.401   4.789   4.168
 2644SOL     OW 8830   5.895   5.778   4.225
 2644SOL    HW1 8831   5.825   5.711   4.199
 2644SOL    HW2 8832   5.878   5.864   4.177
 2645SOL     OW 8833   5.152   5.483   2.835
 2645SOL    HW1 8834   5.164   5.391   2.873
 2645SOL    HW2 8835   5.106   5.477   2.747
 2646SOL     OW 8836   0.753   2.244   6.282
 2646SOL    HW1 8837   0.664   2.234   6.237
 2646SOL    HW2 8838   0.808   2.311   6.233
 2647SOL     OW 8839   4.290   6.554   2.682
 2647SOL    HW1 8840   4.337   6.506   2.608
 2647SOL    HW2 8841   4.332   6.531   2.770
 2648SOL     OW 8842   1.588   0.421   5.689
 2648SOL    HW1 8843   1.520   0.350   5.706
 2648SOL    HW2 8844   1.615   0.419   5.593
 2649SOL     OW 8845   5.883   1.617   3.350
 2649SOL    HW1 8846   5.889   1.519   3.331
 2649SOL    HW2 8847   5.831   1.661   3.276
 2650SOL     OW 8848   2.319   0.277   4.309
 2650SOL    HW1 8849   2.271   0.286   4.222
 2650SOL    HW2 8850   2.263   0.225   4.373
 2651SOL     OW 8851   4.222   2.257   3.774
 2651SOL    HW1 8852   4.235   2.191   3.700
 2651SOL    HW2 8853   4.127   2.256   3.805
 2652SOL     OW 8854   5.141   3.966   5.522
 2652SOL    HW1 8855   5.146   4.038   5.591
 2652SOL    HW2 8856   5.109   4.006   5.435
 2653SOL     OW 8857   2.304   6.343   6.875
 2653SOL    HW1 8858   2.298   6.248   6.906
 2653SOL    HW2 8859   2.242   6.357   6.798
 2654SOL     OW 8860   0.223   0.785   0.837
 2654SOL    HW1 8861   0.149   0.721   0.820
 2654SOL    HW2 8862   0.258   0.773   0.929
 2655SOL     OW 8863   5.639   6.371   2.801
 2655SOL    HW1 8864   5.624   6.349   2.705
 2655SOL    HW2 8865   5.568   6.435   2.832
 2656SOL     OW 8866   4.833   6.098   4.134
 2656SOL    HW1 8867   4.816   6.001   4.151
 2656SOL    HW2 8868   4.770   6.153   4.189
 2657SOL     OW 8869   1.440   3.110   6.881
 2657SOL    HW1 8870   1.465   3.169   6.805
 2657SOL    HW2 8871   1.361   3.149   6.929
 2658SOL     OW 8872   3.345   4.547   0.164
 2658SOL    HW1 8873   3.352   4.632   0.111
 2658SOL    HW2 8874   3.260   4.547   0.215
 2659SOL     OW 8875   0.080   1.806   5.267
 2659SOL    HW1 8876   0.047   1.716   5.295
 2659SOL    HW2 8877   0.129   1.798   5.180
 2660SOL     OW 8878   0.697   1.151   1.228
 2660SOL    HW1 8879   0.757   1.226   1.257
 2660SOL    HW2 8880   0.696   1.147   1.128
 2661SOL     OW 8881   1.559   1.035   1.355
 2661SOL    HW1 8882   1.607   1.099   1.414
 2661SOL    HW2 8883   1.460   1.048   1.365
 2662SOL     OW 8884   2.578   1.655   1.759
 2662SOL    HW1 8885   2.567   1.660   1.659
 2662SOL    HW2 8886   2.660   1.704   1.786
 2663SOL     OW 8887   3.865   0.533   0.754
 2663SOL    HW1 8888   3.792   0.595   0.726
 2663SOL    HW2 8889   3.873   0.459   0.687
 2664SOL     OW 8890   5.077   3.171   5.371
 2664SOL    HW1 8891   5.095   3.268   5.382
 2664SOL    HW2 8892   5.103   3.143   5.278
 2665SOL     OW 8893   1.550   3.028   3.644
 2665SOL    HW1 8894   1.611   2.996   3.573
 2665SOL    HW2 8895   1.489   3.099   3.607
 2666SOL     OW 8896   1.749   4.226   2.042
 2666SOL    HW1 8897   1.799   4.202   1.959
 2666SOL    HW2 8898   1.688   4.303   2.024
 2667SOL     OW 8899   6.274   2.713   4.611
 2667SOL    HW1 8900   6.191   2.658   4.620
 2667SOL    HW2 8901   6.337   2.691   4.686
 2668SOL     OW 8902   5.622   0.917   3.898
 2668SOL    HW1 8903   5.671   1.003   3.895
 2668SOL    HW2 8904   5.685   0.842   3.876
 2669SOL     OW 8905   2.758   1.009   1.759
 2669SOL    HW1 8906   2.670   1.057   1.765
 2669SOL    HW2 8907   2.793   0.992   1.851
 2670SOL     OW 8908   0.485   0.574   0.323
 2670SOL    HW1 8909   0.524   0.647   0.379
 2670SOL    HW2 8910   0.541   0.560   0.242
 2671SOL     OW 8911   5.238   4.647   5.919
 2671SOL    HW1 8912   5.240   4.736   5.873
 2671SOL    HW2 8913   5.146   4.609   5.914
 2672SOL     OW 8914   2.526   1.346   2.603
 2672SOL    HW1 8915   2.467   1.286   2.657
 2672SOL    HW2 8916   2.582   1.291   2.541
 2673SOL     OW 8917   3.458   6.820   2.946
 2673SOL    HW1 8918   3.498   6.802   3.036
 2673SOL    HW2 8919   3.362   6.794   2.947
 2674SOL     OW 8920   6.770   5.837   3.104
 2674SOL    HW1 8921   6.705   5.836   3.180
 2674SOL    HW2 8922   6.738   5.774   3.033
 2675SOL     OW 8923   4.419   1.263   4.591
 2675SOL    HW1 8924   4.435   1.195   4.520
 2675SOL    HW2 8925   4.327   1.253   4.628
 2676SOL     OW 8926   4.113   3.356   4.250
 2676SOL    HW1 8927   4.188   3.421   4.261
 2676SOL    HW2 8928   4.077   3.363   4.157
 2677SOL     OW 8929   2.038   5.941   0.133
 2677SOL    HW1 8930   2.026   5.986   0.222
 2677SOL    HW2 8931   1.955   5.890   0.111
 2678SOL     OW 8932   3.589   1.953   2.346
 2678SOL    HW1 8933   3.642   1.873   2.320
 2678SOL    HW2 8934   3.517   1.969   2.279
 2679SOL     OW 8935   2.082   3.717   2.318
 2679SOL    HW1 8936   2.140   3.753   2.391
 2679SOL    HW2 8937   2.062   3.620   2.336
 2680SOL     OW 8938   5.549   2.284   6.869
 2680SOL    HW1 8939   5.486   2.354   6.833
 2680SOL    HW2 8940   5.566   2.301   6.966
 2681SOL     OW 8941   2.361   1.920   3.605
 2681SOL    HW1 8942   2.437   1.942   3.667
 2681SOL    HW2 8943   2.287   1.985   3.620
 2682SOL     OW 8944   3.880   4.049   1.881
 2682SOL    HW1 8945   3.843   4.127   1.931
 2682SOL    HW2 8946   3.946   4.000   1.939
 2683SOL     OW 8947   1.966   3.993   1.414
 2683SOL    HW1 8948   1.966   4.089   1.386
 2683SOL    HW2 8949   2.013   3.984   1.502
 2684SOL     OW 8950   5.996   0.628   3.650
 2684SOL    HW1 8951   5.988   0.676   3.562
 2684SOL    HW2 8952   6.081   0.656   3.695
 2685SOL     OW 8953   1.338   6.762   5.948
 2685SOL    HW1 8954   1.385   6.791   5.865
 2685SOL    HW2 8955   1.264   6.825   5.969
 2686SOL     OW 8956   1.481   1.208   5.712
 2686SOL    HW1 8957   1.521   1.299   5.705
 2686SOL    HW2 8958   1.444   1.180   5.623
 2687SOL     OW 8959   4.303   1.897   1.336
 2687SOL    HW1 8960   4.306   1.973   1.402
 2687SOL    HW2 8961   4.231   1.914   1.270
 2688SOL     OW 8962   3.609   2.697   6.666
 2688SOL    HW1 8963   3.529   2.755   6.683
 2688SOL    HW2 8964   3.660   2.685   6.751
 2689SOL     OW 8965   0.399   3.573   2.838
 2689SOL    HW1 8966   0.475   3.639   2.835
 2689SOL    HW2 8967   0.329   3.600   2.772
 2690SOL     OW 8968   5.173   1.191   4.882
 2690SOL    HW1 8969   5.232   1.249   4.939
 2690SOL    HW2 8970   5.142   1.112   4.936
 2691SOL     OW 8971   0.091   3.518   4.910
 2691SOL    HW1 8972   0.177   3.536   4.957
 2691SOL    HW2 8973   0.048   3.605   4.884
 2692SOL     OW 8974   2.427   5.478   1.558
 2692SOL    HW1 8975   2.396   5.498   1.651
 2692SOL    HW2 8976   2.495   5.546   1.531
 2693SOL     OW 8977   0.986   4.881   2.697
 2693SOL    HW1 8978   1.003   4.941   2.776
 2693SOL    HW2 8979   1.073   4.849   2.661
 2694SOL     OW 8980   2.420   0.536   2.264
 2694SOL    HW1 8981   2.333   0.571   2.302
 2694SOL    HW2 8982   2.485   0.521   2.339
 2695SOL     OW 8983   6.928   5.129   3.432
 2695SOL    HW1 8984   6.923   5.190   3.353
 2695SOL    HW2 8985   6.863   5.054   3.421
 2696SOL     OW 8986   4.129   4.884   6.443
 2696SOL    HW1 8987   4.066   4.828   6.388
 2696SOL    HW2 8988   4.210   4.830   6.466
 2697SOL     OW 8989   4.010   2.320   0.327
 2697SOL    HW1 8990   3.980   2.415   0.327
 2697SOL    HW2 8991   4.107   2.315   0.303
 2698SOL     OW 8992   1.283   5.816   6.277
 2698SOL    HW1 8993   1.270   5.834   6.375
 2698SOL    HW2 8994   1.223   5.741   6.249
 2699SOL     OW 8995   2.624   6.936   2.020
 2699SOL    HW1 8996   2.561   6.967   2.091
 2699SOL    HW2 8997   2.701   6.999   2.014
 2700SOL     OW 8998   4.533   1.825   1.617
 2700SOL    HW1 8999   4.512   1.921   1.599
 2700SOL    HW2 9000   4.479   1.793   1.695
 2701SOL     OW 9001   5.469   3.840   5.337
 2701SOL    HW1 9002   5.438   3.745   5.345
 2701SOL    HW2 9003   5.398   3.901   5.373
 2702SOL     OW 9004   2.356   1.234   5.034
 2702SOL    HW1 9005   2.453   1.229   5.010
 2702SOL    HW2 9006   2.320   1.141   5.047
 2703SOL     OW 9007   2.112   6.352   2.459
 2703SOL    HW1 9008   2.077   6.367   2.552
 2703SOL    HW2 9009   2.044   6.303   2.405
 2704SOL     OW 9010   4.466   0.671   3.561
 2704SOL    HW1 9011   4.525   0.738   3.606
 2704SOL    HW2 9012   4.375   0.672   3.603
 2705SOL     OW 9013   1.888   0.051   5.247
 2705SOL    HW1 9014   1.904   6.988   5.290
 2705SOL    HW2 9015   1.927   0.124   5.304
 2706SOL     OW 9016   6.918   4.647   3.772
 2706SOL    HW1 9017   6.826   4.649   3.810
 2706SOL    HW2 9018   6.922   4.705   3.690
 2707SOL     OW 9019   4.813   1.387   3.294
 2707SOL    HW1 9020   4.869   1.305   3.286
 2707SOL    HW2 9021   4.780   1.415   3.204
 2708SOL     OW 9022   4.930   3.309   5.802
 2708SOL    HW1 9023   5.018   3.344   5.768
 2708SOL    HW2 9024   4.857   3.372   5.777
 2709SOL     OW 9025   5.113   1.248   5.719
 2709SOL    HW1 9026   5.132   1.287   5.629
 2709SOL    HW2 9027   5.067   1.160   5.707
 2710SOL     OW 9028   1.315   3.154   4.280
 2710SOL    HW1 9029   1.262   3.163   4.364
 2710SOL    HW2 9030   1.328   3.243   4.238
 2711SOL     OW 9031   4.694   0.657   1.555
 2711SOL    HW1 9032   4.739   0.742   1.583
 2711SOL    HW2 9033   4.599   0.657   1.588
 2712SOL     OW 9034   5.908   6.035   1.559
 2712SOL    HW1 9035   5.866   5.951   1.525
 2712SOL    HW2 9036   5.896   6.107   1.491
 2713SOL     OW 9037   3.954   5.299   5.956
 2713SOL    HW1 9038   3.924   5.207   5.934
 2713SOL    HW2 9039   3.874   5.360   5.963
 2714SOL     OW 9040   3.236   4.414   5.928
 2714SOL    HW1 9041   3.153   4.445   5.881
 2714SOL    HW2 9042   3.266   4.328   5.888
 2715SOL     OW 9043   4.925   6.001   6.678
 2715SOL    HW1 9044   5.022   6.021   6.661
 2715SOL    HW2 9045   4.896   6.049   6.761
 2716SOL     OW 9046   4.333   0.625   2.551
 2716SOL    HW1 9047   4.304   0.688   2.479
 2716SOL    HW2 9048   4.370   0.676   2.628
 2717SOL     OW 9049   1.211   2.200   2.143
 2717SOL    HW1 9050   1.115   2.182   2.126
 2717SOL    HW2 9051   1.235   2.290   2.107
 2718SOL     OW 9052   6.300   1.333   6.083
 2718SOL    HW1 9053   6.273   1.390   6.006
 2718SOL    HW2 9054   6.228   1.266   6.102
 2719SOL     OW 9055   1.210   4.798   3.523
 2719SOL    HW1 9056   1.114   4.781   3.546
 2719SOL    HW2 9057   1.216   4.869   3.453
 2720SOL     OW 9058   2.037   5.555   6.988
 2720SOL    HW1 9059   1.962   5.568   6.924
 2720SOL    HW2 9060   2.121   5.535   6.938
 2721SOL     OW 9061   2.078   0.032   2.708
 2721SOL    HW1 9062   2.154   7.019   2.760
 2721SOL    HW2 9063   2.010   6.987   2.691
 2722SOL     OW 9064   3.532   4.823   6.343
 2722SOL    HW1 9065   3.481   4.743   6.372
 2722SOL    HW2 9066   3.482   4.869   6.269
 2723SOL     OW 9067   3.956   5.622   6.742
 2723SOL    HW1 9068   4.023   5.572   6.688
 2723SOL    HW2 9069   3.877   5.644   6.684
 2724SOL     OW 9070   6.655   5.796   1.569
 2724SOL    HW1 9071   6.561   5.819   1.547
 2724SOL    HW2 9072   6.697   5.871   1.619
 2725SOL     OW 9073   5.967   4.697   3.190
 2725SOL    HW1 9074   5.953   4.600   3.172
 2725SOL    HW2 9075   6.064   4.719   3.181
 2726SOL     OW 9076   6.642   2.007   3.027
 2726SOL    HW1 9077   6.623   2.096   3.069
 2726SOL    HW2 9078   6.556   1.964   3.000
 2727SOL     OW 9079   1.831   5.287   3.596
 2727SOL    HW1 9080   1.903   5.265   3.529
 2727SOL    HW2 9081   1.763   5.347   3.554
 2728SOL     OW 9082   4.968   5.519   5.633
 2728SOL    HW1 9083   4.945   5.613   5.656
 2728SOL    HW2 9084   4.901   5.457   5.676
 2729SOL     OW 9085   6.732   0.204   0.358
 2729SOL    HW1 9086   6.759   0.109   0.350
 2729SOL    HW2 9087   6.718   0.243   0.267
 2730SOL     OW 9088   1.227   5.666   2.502
 2730SOL    HW1 9089   1.173   5.746   2.526
 2730SOL    HW2 9090   1.166   5.592   2.472
 2731SOL     OW 9091   3.886   4.113   5.054
 2731SOL    HW1 9092   3.961   4.126   5.119
 2731SOL    HW2 9093   3.802   4.088   5.104
 2732SOL     OW 9094   4.764   0.507   1.856
 2732SOL    HW1 9095   4.668   0.534   1.869
 2732SOL    HW2 9096   4.771   0.450   1.774
 2733SOL     OW 9097   0.666   6.816   0.460
 2733SOL    HW1 9098   0.750   6.772   0.430
 2733SOL    HW2 9099   0.602   6.747   0.493
 2734SOL     OW 9100   3.444   6.866   2.491
 2734SOL    HW1 9101   3.521   6.909   2.443
 2734SOL    HW2 9102   3.422   6.779   2.448
 2735SOL     OW 9103   1.064   2.193   2.469
 2735SOL    HW1 9104   1.020   2.110   2.435
 2735SOL    HW2 9105   1.091   2.180   2.565
 2736SOL     OW 9106   5.749   4.053   2.605
 2736SOL    HW1 9107   5.833   4.048   2.660
 2736SOL    HW2 9108   5.669   4.041   2.663
 2737SOL     OW 9109   2.838   0.587   5.444
 2737SOL    HW1 9110   2.753   0.538   5.462
 2737SOL    HW2 9111   2.830   0.681   5.478
 2738SOL     OW 9112   5.127   6.014   1.042
 2738SOL    HW1 9113   5.141   5.934   1.100
 2738SOL    HW2 9114   5.061   6.075   1.086
 2739SOL     OW 9115   0.083   5.519   1.514
 2739SOL    HW1 9116   0.012   5.456   1.546
 2739SOL    HW2 9117   0.155   5.467   1.468
 2740SOL     OW 9118   6.681   4.813   3.960
 2740SOL    HW1 9119   6.755   4.874   3.986
 2740SOL    HW2 9120   6.596   4.844   4.001
 2741SOL     OW 9121   1.399   6.823   6.363
 2741SOL    HW1 9122   1.406   6.802   6.461
 2741SOL    HW2 9123   1.477   6.880   6.336
 2742SOL     OW 9124   2.860   5.149   3.120
 2742SOL    HW1 9125   2.912   5.065   3.102
 2742SOL    HW2 9126   2.767   5.125   3.148
 2743SOL     OW 9127   5.344   1.882   2.776
 2743SOL    HW1 9128   5.382   1.972   2.801
 2743SOL    HW2 9129   5.264   1.895   2.717
 2744SOL     OW 9130   3.545   4.040   2.139
 2744SOL    HW1 9131   3.446   4.033   2.129
 2744SOL    HW2 9132   3.570   4.031   2.235
 2745SOL     OW 9133   0.590   5.683   0.210
 2745SOL    HW1 9134   0.680   5.685   0.254
 2745SOL    HW2 9135   0.572   5.771   0.165
 2746SOL     OW 9136   1.606   1.170   4.054
 2746SOL    HW1 9137   1.520   1.120   4.041
 2746SOL    HW2 9138   1.653   1.135   4.135
 2747SOL     OW 9139   4.282   4.792   0.212
 2747SOL    HW1 9140   4.367   4.742   0.193
 2747SOL    HW2 9141   4.293   4.846   0.296
 2748SOL     OW 9142   4.212   0.651   1.099
 2748SOL    HW1 9143   4.124   0.661   1.052
 2748SOL    HW2 9144   4.276   0.600   1.042
 2749SOL     OW 9145   3.522   1.156   0.661
 2749SOL    HW1 9146   3.424   1.162   0.682
 2749SOL    HW2 9147   3.537   1.185   0.566
 2750SOL     OW 9148   2.788   5.749   3.202
 2750SOL    HW1 9149   2.874   5.742   3.152
 2750SOL    HW2 9150   2.734   5.666   3.187
 2751SOL     OW 9151   5.976   4.939   1.210
 2751SOL    HW1 9152   5.880   4.967   1.206
 2751SOL    HW2 9153   6.021   4.960   1.123
 2752SOL     OW 9154   4.047   5.575   6.997
 2752SOL    HW1 9155   4.022   5.577   6.901
 2752SOL    HW2 9156   4.115   5.646   7.016
 2753SOL     OW 9157   5.725   5.378   5.491
 2753SOL    HW1 9158   5.731   5.281   5.514
 2753SOL    HW2 9159   5.678   5.388   5.403
 2754SOL     OW 9160   1.558   0.617   5.448
 2754SOL    HW1 9161   1.576   0.688   5.516
 2754SOL    HW2 9162   1.634   0.553   5.445
 2755SOL     OW 9163   3.201   0.063   2.334
 2755SOL    HW1 9164   3.286   0.114   2.325
 2755SOL    HW2 9165   3.191   7.026   2.257
 2756SOL     OW 9166   4.539   5.970   6.776
 2756SOL    HW1 9167   4.632   5.943   6.802
 2756SOL    HW2 9168   4.512   5.920   6.694
 2757SOL     OW 9169   0.604   5.264   0.931
 2757SOL    HW1 9170   0.660   5.247   0.850
 2757SOL    HW2 9171   0.516   5.302   0.904
 2758SOL     OW 9172   5.398   0.490   4.847
 2758SOL    HW1 9173   5.451   0.573   4.859
 2758SOL    HW2 9174   5.330   0.483   4.919
 2759SOL     OW 9175   4.645   5.315   4.059
 2759SOL    HW1 9176   4.648   5.216   4.048
 2759SOL    HW2 9177   4.553   5.343   4.086
 2760SOL     OW 9178   0.872   6.409   3.582
 2760SOL    HW1 9179   0.866   6.376   3.487
 2760SOL    HW2 9180   0.962   6.450   3.598
 2761SOL     OW 9181   2.467   5.081   4.349
 2761SOL    HW1 9182   2.460   5.079   4.449
 2761SOL    HW2 9183   2.377   5.062   4.309
 2762SOL     OW 9184   2.236   1.315   5.664
 2762SOL    HW1 9185   2.244   1.413   5.643
 2762SOL    HW2 9186   2.317   1.286   5.715
 2763SOL     OW 9187   5.367   0.693   2.558
 2763SOL    HW1 9188   5.299   0.646   2.502
 2763SOL    HW2 9189   5.412   0.764   2.504
 2764SOL     OW 9190   6.014   0.464   1.455
 2764SOL    HW1 9191   5.961   0.544   1.485
 2764SOL    HW2 9192   6.095   0.494   1.406
 2765SOL     OW 9193   5.124   2.080   3.320
 2765SOL    HW1 9194   5.219   2.052   3.306
 2765SOL    HW2 9195   5.077   2.084   3.232
 2766SOL     OW 9196   5.406   7.018   2.589
 2766SOL    HW1 9197   5.456   0.058   2.645
 2766SOL    HW2 9198   5.461   6.936   2.577
 2767SOL     OW 9199   6.279   4.262   5.867
 2767SOL    HW1 9200   6.367   4.259   5.819
 2767SOL    HW2 9201   6.292   4.227   5.960
 2768SOL     OW 9202   6.107   1.285   6.751
 2768SOL    HW1 9203   6.016   1.281   6.793
 2768SOL    HW2 9204   6.165   1.214   6.790
 2769SOL     OW 9205   0.836   4.684   0.946
 2769SOL    HW1 9206   0.855   4.753   1.017
 2769SOL    HW2 9207   0.739   4.684   0.924
 2770SOL     OW 9208   5.878   5.853   2.190
 2770SOL    HW1 9209   5.866   5.951   2.204
 2770SOL    HW2 9210   5.919   5.837   2.100
 2771SOL     OW 9211   4.807   0.828   1.300
 2771SOL    HW1 9212   4.779   0.837   1.395
 2771SOL    HW2 9213   4.862   0.745   1.290
 2772SOL     OW 9214   3.830   1.891   6.870
 2772SOL    HW1 9215   3.802   1.837   6.949
 2772SOL    HW2 9216   3.766   1.875   6.795
 2773SOL     OW 9217   2.921   5.076   0.822
 2773SOL    HW1 9218   2.861   5.116   0.892
 2773SOL    HW2 9219   2.865   5.023   0.758
 2774SOL     OW 9220   5.487   3.032   2.100
 2774SOL    HW1 9221   5.492   3.098   2.025
 2774SOL    HW2 9222   5.557   3.053   2.168
 2775SOL     OW 9223   0.074   0.138   2.404
 2775SOL    HW1 9224   0.116   0.229   2.403
 2775SOL    HW2 9225   7.014   0.142   2.456
 2776SOL     OW 9226   2.804   6.475   6.775
 2776SOL    HW1 9227   2.724   6.433   6.817
 2776SOL    HW2 9228   2.847   6.538   6.839
 2777SOL     OW 9229   1.719   2.156   3.891
 2777SOL    HW1 9230   1.743   2.162   3.988
 2777SOL    HW2 9231   1.801   2.168   3.835
 2778SOL     OW 9232   2.634   2.385   5.020
 2778SOL    HW1 9233   2.731   2.377   4.999
 2778SOL    HW2 9234   2.596   2.293   5.034
 2779SOL     OW 9235   6.318   1.444   1.285
 2779SOL    HW1 9236   6.263   1.462   1.367
 2779SOL    HW2 9237   6.401   1.499   1.289
 2780SOL     OW 9238   3.579   6.143   0.474
 2780SOL    HW1 9239   3.567   6.114   0.570
 2780SOL    HW2 9240   3.489   6.159   0.433
 2781SOL     OW 9241   4.701   4.037   6.511
 2781SOL    HW1 9242   4.638   4.114   6.516
 2781SOL    HW2 9243   4.793   4.068   6.533
 2782SOL     OW 9244   3.531   1.467   5.751
 2782SOL    HW1 9245   3.556   1.546   5.807
 2782SOL    HW2 9246   3.531   1.384   5.807
 2783SOL     OW 9247   0.527   3.775   5.805
 2783SOL    HW1 9248   0.571   3.697   5.851
 2783SOL    HW2 9249   0.517   3.850   5.870
 2784SOL     OW 9250   2.563   2.543   1.852
 2784SOL    HW1 9251   2.508   2.505   1.778
 2784SOL    HW2 9252   2.510   2.613   1.900
 2785SOL     OW 9253   6.018   1.259   1.930
 2785SOL    HW1 9254   6.116   1.263   1.950
 2785SOL    HW2 9255   5.973   1.339   1.970
 2786SOL     OW 9256   3.369   0.709   0.285
 2786SOL    HW1 9257   3.435   0.736   0.355
 2786SOL    HW2 9258   3.415   0.657   0.214
 2787SOL     OW 9259   1.950   3.706   6.540
 2787SOL    HW1 9260   1.994   3.675   6.456
 2787SOL    HW2 9261   1.914   3.627   6.590
 2788SOL     OW 9262   0.059   3.850   6.912
 2788SOL    HW1 9263   7.019   3.917   6.948
 2788SOL    HW2 9264   0.123   3.825   6.985
 2789SOL     OW 9265   0.449   2.749   4.275
 2789SOL    HW1 9266   0.395   2.735   4.192
 2789SOL    HW2 9267   0.493   2.839   4.271
 2790SOL     OW 9268   3.302   6.107   4.356
 2790SOL    HW1 9269   3.230   6.100   4.287
 2790SOL    HW2 9270   3.362   6.184   4.334
 2791SOL     OW 9271   1.961   3.801   2.760
 2791SOL    HW1 9272   2.046   3.851   2.774
 2791SOL    HW2 9273   1.892   3.834   2.825
 2792SOL     OW 9274   1.058   2.544   5.207
 2792SOL    HW1 9275   1.071   2.472   5.139
 2792SOL    HW2 9276   1.145   2.563   5.252
 2793SOL     OW 9277   4.624   0.659   4.243
 2793SOL    HW1 9278   4.663   0.577   4.201
 2793SOL    HW2 9279   4.551   0.634   4.306
 2794SOL     OW 9280   1.034   1.428   1.643
 2794SOL    HW1 9281   1.071   1.518   1.618
 2794SOL    HW2 9282   1.066   1.404   1.735
 2795SOL     OW 9283   1.168   4.066   1.323
 2795SOL    HW1 9284   1.089   4.005   1.311
 2795SOL    HW2 9285   1.157   4.116   1.409
 2796SOL     OW 9286   5.122   4.070   2.442
 2796SOL    HW1 9287   5.217   4.040   2.433
 2796SOL    HW2 9288   5.064   3.992   2.464
 2797SOL     OW 9289   4.753   4.324   5.045
 2797SOL    HW1 9290   4.759   4.411   4.995
 2797SOL    HW2 9291   4.772   4.340   5.142
 2798SOL     OW 9292   1.842   3.769   3.385
 2798SOL    HW1 9293   1.772   3.736   3.321
 2798SOL    HW2 9294   1.819   3.740   3.478
 2799SOL     OW 9295   6.677   6.031   5.927
 2799SOL    HW1 9296   6.677   6.088   6.009
 2799SOL    HW2 9297   6.726   5.945   5.946
 2800SOL     OW 9298   2.840   1.708   6.553
 2800SOL    HW1 9299   2.794   1.765   6.621
 2800SOL    HW2 9300   2.927   1.675   6.591
 2801SOL     OW 9301   4.033   5.729   2.461
 2801SOL    HW1 9302   4.101   5.787   2.416
 2801SOL    HW2 9303   4.005   5.657   2.398
 2802SOL     OW 9304   6.109   0.568   6.281
 2802SOL    HW1 9305   6.069   0.481   6.252
 2802SOL    HW2 9306   6.108   0.632   6.204
 2803SOL     OW 9307   2.033   5.960   5.695
 2803SOL    HW1 9308   2.001   5.874   5.655
 2803SOL    HW2 9309   2.112   5.993   5.644
 2804SOL     OW 9310   0.115   4.741   2.261
 2804SOL    HW1 9311   0.044   4.708   2.199
 2804SOL    HW2 9312   0.203   4.739   2.215
 2805SOL     OW 9313   5.581   3.759   6.673
 2805SOL    HW1 9314   5.558   3.682   6.613
 2805SOL    HW2 9315   5.507   3.776   6.737
 2806SOL     OW 9316   6.625   5.372   2.677
 2806SOL    HW1 9317   6.557   5.435   2.640
 2806SOL    HW2 9318   6.672   5.326   2.602
 2807SOL     OW 9319   3.834   5.042   3.929
 2807SOL    HW1 9320   3.891   5.008   3.855
 2807SOL    HW2 9321   3.832   4.975   4.004
 2808SOL     OW 9322   4.342   6.015   4.318
 2808SOL    HW1 9323   4.329   6.106   4.280
 2808SOL    HW2 9324   4.419   6.016   4.383
 2809SOL     OW 9325   5.544   2.992   0.215
 2809SOL    HW1 9326   5.575   2.984   0.120
 2809SOL    HW2 9327   5.616   2.959   0.276
 2810SOL     OW 9328   1.694   0.978   6.274
 2810SOL    HW1 9329   1.605   1.017   6.250
 2810SOL    HW2 9330   1.690   0.937   6.365
 2811SOL     OW 9331   6.865   0.845   3.914
 2811SOL    HW1 9332   6.798   0.892   3.856
 2811SOL    HW2 9333   6.954   0.844   3.868
 2812SOL     OW 9334   4.622   4.359   2.712
 2812SOL    HW1 9335   4.678   4.327   2.636
 2812SOL    HW2 9336   4.542   4.407   2.676
 2813SOL     OW 9337   6.156   1.870   6.325
 2813SOL    HW1 9338   6.210   1.945   6.364
 2813SOL    HW2 9339   6.216   1.792   6.309
 2814SOL     OW 9340   5.431   4.408   4.775
 2814SOL    HW1 9341   5.524   4.413   4.812
 2814SOL    HW2 9342   5.421   4.478   4.703
 2815SOL     OW 9343   0.373   1.061   4.418
 2815SOL    HW1 9344   0.331   1.146   4.388
 2815SOL    HW2 9345   0.318   0.984   4.388
 2816SOL     OW 9346   5.283   6.181   2.831
 2816SOL    HW1 9347   5.376   6.195   2.863
 2816SOL    HW2 9348   5.276   6.092   2.786
 2817SOL     OW 9349   1.315   1.360   1.484
 2817SOL    HW1 9350   1.228   1.363   1.532
 2817SOL    HW2 9351   1.366   1.278   1.513
 2818SOL     OW 9352   0.951   3.133   6.774
 2818SOL    HW1 9353   0.888   3.210   6.761
 2818SOL    HW2 9354   0.904   3.047   6.753
 2819SOL     OW 9355   6.407   3.280   1.150
 2819SOL    HW1 9356   6.440   3.189   1.124
 2819SOL    HW2 9357   6.339   3.271   1.223
 2820SOL     OW 9358   5.360   2.469   4.003
 2820SOL    HW1 9359   5.325   2.475   4.097
 2820SOL    HW2 9360   5.458   2.450   4.005
 2821SOL     OW 9361   1.821   3.281   3.630
 2821SOL    HW1 9362   1.812   3.254   3.726
 2821SOL    HW2 9363   1.735   3.322   3.599
 2822SOL     OW 9364   3.048   1.748   0.704
 2822SOL    HW1 9365   3.129   1.800   0.678
 2822SOL    HW2 9366   3.040   1.667   0.647
 2823SOL     OW 9367   1.855   6.887   3.996
 2823SOL    HW1 9368   1.886   6.982   3.990
 2823SOL    HW2 9369   1.927   6.827   3.960
 2824SOL     OW 9370   3.211   2.221   5.621
 2824SOL    HW1 9371   3.210   2.122   5.613
 2824SOL    HW2 9372   3.138   2.260   5.564
 2825SOL     OW 9373   6.375   6.330   1.213
 2825SOL    HW1 9374   6.429   6.275   1.276
 2825SOL    HW2 9375   6.398   6.306   1.118
 2826SOL     OW 9376   4.849   3.190   4.554
 2826SOL    HW1 9377   4.834   3.180   4.456
 2826SOL    HW2 9378   4.901   3.273   4.572
 2827SOL     OW 9379   6.628   0.275   6.715
 2827SOL    HW1 9380   6.711   0.332   6.712
 2827SOL    HW2 9381   6.638   0.205   6.786
 2828SOL     OW 9382   4.002   2.125   6.873
 2828SOL    HW1 9383   3.958   2.199   6.823
 2828SOL    HW2 9384   3.948   2.042   6.865
 2829SOL     OW 9385   3.000   0.507   6.925
 2829SOL    HW1 9386   2.956   0.591   6.957
 2829SOL    HW2 9387   3.047   0.463   7.002
 2830SOL     OW 9388   3.290   3.683   6.758
 2830SOL    HW1 9389   3.200   3.641   6.765
 2830SOL    HW2 9390   3.283   3.771   6.711
 2831SOL     OW 9391   7.011   6.258   4.136
 2831SOL    HW1 9392   0.009   6.230   4.043
 2831SOL    HW2 9393   6.913   6.243   4.150
 2832SOL     OW 9394   0.488   1.372   1.997
 2832SOL    HW1 9395   0.451   1.454   1.953
 2832SOL    HW2 9396   0.412   1.317   2.032
 2833SOL     OW 9397   6.869   3.345   2.888
 2833SOL    HW1 9398   6.778   3.344   2.930
 2833SOL    HW2 9399   6.882   3.259   2.838
 2834SOL     OW 9400   4.459   0.731   5.586
 2834SOL    HW1 9401   4.459   0.653   5.522
 2834SOL    HW2 9402   4.366   0.750   5.616
 2835SOL     OW 9403   6.847   5.932   3.545
 2835SOL    HW1 9404   6.906   5.876   3.487
 2835SOL    HW2 9405   6.821   6.015   3.495
 2836SOL     OW 9406   6.306   0.352   0.545
 2836SOL    HW1 9407   6.219   0.368   0.499
 2836SOL    HW2 9408   6.304   0.394   0.636
 2837SOL     OW 9409   6.190   3.290   3.575
 2837SOL    HW1 9410   6.149   3.201   3.554
 2837SOL    HW2 9411   6.289   3.284   3.566
 2838SOL     OW 9412   2.116   4.454   4.274
 2838SOL    HW1 9413   2.120   4.548   4.241
 2838SOL    HW2 9414   2.053   4.447   4.351
 2839SOL     OW 9415   4.637   2.806   0.726
 2839SOL    HW1 9416   4.699   2.850   0.791
 2839SOL    HW2 9417   4.578   2.875   0.684
 2840SOL     OW 9418   6.340   2.772   5.037
 2840SOL    HW1 9419   6.298   2.808   5.120
 2840SOL    HW2 9420   6.371   2.847   4.979
 2841SOL     OW 9421   0.330   6.441   0.849
 2841SOL    HW1 9422   0.243   6.460   0.895
 2841SOL    HW2 9423   0.332   6.489   0.761
 2842SOL     OW 9424   5.859   3.257   2.951
 2842SOL    HW1 9425   5.821   3.332   2.897
 2842SOL    HW2 9426   5.854   3.280   3.048
 2843SOL     OW 9427   4.176   1.286   4.100
 2843SOL    HW1 9428   4.273   1.261   4.108
 2843SOL    HW2 9429   4.141   1.256   4.011
 2844SOL     OW 9430   0.909   3.752   5.721
 2844SOL    HW1 9431   0.910   3.723   5.625
 2844SOL    HW2 9432   0.868   3.842   5.729
 2845SOL     OW 9433   0.048   4.257   5.996
 2845SOL    HW1 9434   7.012   4.178   5.998
 2845SOL    HW2 9435   0.120   4.242   5.928
 2846SOL     OW 9436   5.315   1.144   6.041
 2846SOL    HW1 9437   5.237   1.083   6.055
 2846SOL    HW2 9438   5.321   1.209   6.118
 2847SOL     OW 9439   4.512   4.609   4.093
 2847SOL    HW1 9440   4.561   4.671   4.155
 2847SOL    HW2 9441   4.540   4.515   4.112
 2848SOL     OW 9442   2.226   6.563   5.675
 2848SOL    HW1 9443   2.272   6.578   5.762
 2848SOL    HW2 9444   2.188   6.470   5.673
 2849SOL     OW 9445   2.026   2.809   1.781
 2849SOL    HW1 9446   1.991   2.835   1.691
 2849SOL    HW2 9447   2.064   2.889   1.827
 2850SOL     OW 9448   3.765   1.467   0.659
 2850SOL    HW1 9449   3.802   1.560   0.663
 2850SOL    HW2 9450   3.721   1.445   0.746
 2851SOL     OW 9451   2.459   5.483   6.247
 2851SOL    HW1 9452   2.436   5.409   6.310
 2851SOL    HW2 9453   2.415   5.467   6.159
 2852SOL     OW 9454   0.172   2.810   6.537
 2852SOL    HW1 9455   0.215   2.827   6.449
 2852SOL    HW2 9456   0.242   2.782   6.603
 2853SOL     OW 9457   3.551   2.631   1.408
 2853SOL    HW1 9458   3.519   2.575   1.485
 2853SOL    HW2 9459   3.650   2.621   1.398
 2854SOL     OW 9460   0.810   1.060   3.565
 2854SOL    HW1 9461   0.739   1.130   3.566
 2854SOL    HW2 9462   0.843   1.047   3.471
 2855SOL     OW 9463   3.358   1.641   4.877
 2855SOL    HW1 9464   3.352   1.546   4.847
 2855SOL    HW2 9465   3.429   1.688   4.825
 2856SOL     OW 9466   2.171   1.992   5.515
 2856SOL    HW1 9467   2.167   1.905   5.564
 2856SOL    HW2 9468   2.244   2.049   5.554
 2857SOL     OW 9469   3.611   3.442   3.588
 2857SOL    HW1 9470   3.625   3.541   3.584
 2857SOL    HW2 9471   3.603   3.405   3.496
 2858SOL     OW 9472   5.660   2.391   3.175
 2858SOL    HW1 9473   5.588   2.415   3.241
 2858SOL    HW2 9474   5.621   2.390   3.083
 2859SOL     OW 9475   5.444   6.415   0.215
 2859SOL    HW1 9476   5.442   6.498   0.271
 2859SOL    HW2 9477   5.491   6.434   0.129
 2860SOL     OW 9478   4.283   2.489   1.105
 2860SOL    HW1 9479   4.276   2.400   1.149
 2860SOL    HW2 9480   4.200   2.541   1.122
 2861SOL     OW 9481   4.162   5.431   6.087
 2861SOL    HW1 9482   4.090   5.374   6.047
 2861SOL    HW2 9483   4.235   5.373   6.122
 2862SOL     OW 9484   6.399   6.790   3.963
 2862SOL    HW1 9485   6.304   6.764   3.981
 2862SOL    HW2 9486   6.427   6.755   3.874
 2863SOL     OW 9487   7.004   1.056   0.227
 2863SOL    HW1 9488   6.926   1.035   0.286
 2863SOL    HW2 9489   6.972   1.093   0.140
 2864SOL     OW 9490   3.382   1.764   0.308
 2864SOL    HW1 9491   3.306   1.704   0.332
 2864SOL    HW2 9492   3.467   1.712   0.307
 2865SOL     OW 9493   4.806   5.109   5.245
 2865SOL    HW1 9494   4.824   5.202   5.215
 2865SOL    HW2 9495   4.751   5.061   5.176
 2866SOL     OW 9496   0.007   6.921   6.480
 2866SOL    HW1 9497   0.091   6.946   6.529
 2866SOL    HW2 9498   7.003   6.999   6.425
 2867SOL     OW 9499   6.707   4.679   3.284
 2867SOL    HW1 9500   6.683   4.596   3.334
 2867SOL    HW2 9501   6.691   4.666   3.186
 2868SOL     OW 9502   1.565   5.212   4.723
 2868SOL    HW1 9503   1.568   5.115   4.746
 2868SOL    HW2 9504   1.641   5.260   4.767
 2869SOL     OW 9505   6.098   0.993   2.323
 2869SOL    HW1 9506   6.080   1.090   2.339
 2869SOL    HW2 9507   6.177   0.964   2.377
 2870SOL     OW 9508   4.537   2.156   2.455
 2870SOL    HW1 9509   4.519   2.061   2.427
 2870SOL    HW2 9510   4.468   2.216   2.415
 2871SOL     OW 9511   1.388   1.598   5.701
 2871SOL    HW1 9512   1.316   1.581   5.768
 2871SOL    HW2 9513   1.431   1.686   5.718
 2872SOL     OW 9514   1.727   6.548   3.900
 2872SOL    HW1 9515   1.641   6.592   3.876
 2872SOL    HW2 9516   1.708   6.464   3.952
 2873SOL     OW 9517   6.955   5.792   2.058
 2873SOL    HW1 9518   7.014   5.843   2.120
 2873SOL    HW2 9519   6.992   5.700   2.045
 2874SOL     OW 9520   5.492   1.652   2.403
 2874SOL    HW1 9521   5.479   1.552   2.401
 2874SOL    HW2 9522   5.406   1.696   2.427
 2875SOL     OW 9523   2.657   5.008   1.491
 2875SOL    HW1 9524   2.599   5.087   1.514
 2875SOL    HW2 9525   2.600   4.926   1.484
 2876SOL     OW 9526   6.886   2.184   1.788
 2876SOL    HW1 9527   6.835   2.195   1.702
 2876SOL    HW2 9528   6.922   2.273   1.816
 2877SOL     OW 9529   2.116   4.016   5.894
 2877SOL    HW1 9530   2.168   3.997   5.811
 2877SOL    HW2 9531   2.068   4.103   5.884
 2878SOL     OW 9532   3.482   5.099   0.310
 2878SOL    HW1 9533   3.489   5.091   0.410
 2878SOL    HW2 9534   3.549   5.039   0.267
 2879SOL     OW 9535   4.484   4.216   7.023
 2879SOL    HW1 9536   4.396   4.171   0.011
 2879SOL    HW2 9537   4.543   4.200   0.077
 2880SOL     OW 9538   1.575   6.938   2.209
 2880SOL    HW1 9539   1.595   0.010   2.218
 2880SOL    HW2 9540   1.645   6.896   2.151
 2881SOL     OW 9541   0.209   0.275   6.528
 2881SOL    HW1 9542   0.125   0.328   6.543
 2881SOL    HW2 9543   0.289   0.330   6.551
 2882SOL     OW 9544   6.989   3.214   3.523
 2882SOL    HW1 9545   6.895   3.226   3.492
 2882SOL    HW2 9546   7.007   3.116   3.537
 2883SOL     OW 9547   4.459   6.156   2.242
 2883SOL    HW1 9548   4.492   6.099   2.167
 2883SOL    HW2 9549   4.390   6.220   2.206
 2884SOL     OW 9550   1.666   5.769   2.704
 2884SOL    HW1 9551   1.618   5.682   2.715
 2884SOL    HW2 9552   1.667   5.794   2.607
 2885SOL     OW 9553   1.005   2.350   4.166
 2885SOL    HW1 9554   1.048   2.420   4.222
 2885SOL    HW2 9555   0.906   2.351   4.182
 2886SOL     OW 9556   2.841   2.817   6.272
 2886SOL    HW1 9557   2.927   2.841   6.318
 2886SOL    HW2 9558   2.790   2.751   6.328
 2887SOL     OW 9559   2.896   1.638   5.020
 2887SOL    HW1 9560   2.856   1.666   4.932
 2887SOL    HW2 9561   2.995   1.652   5.017
 2888SOL     OW 9562   6.921   5.346   0.218
 2888SOL    HW1 9563   6.948   5.253   0.194
 2888SOL    HW2 9564   6.856   5.380   0.150
 2889SOL     OW 9565   0.601   6.892   1.219
 2889SOL    HW1 9566   0.553   6.807   1.240
 2889SOL    HW2 9567   0.670   6.876   1.149
 2890SOL     OW 9568   2.896   0.657   0.630
 2890SOL    HW1 9569   2.959   0.580   0.621
 2890SOL    HW2 9570   2.804   0.627   0.603
 2891SOL     OW 9571   3.177   5.058   4.651
 2891SOL    HW1 9572   3.112   5.006   4.595
 2891SOL    HW2 9573   3.243   5.104   4.591
 2892SOL     OW 9574   4.446   4.321   5.328
 2892SOL    HW1 9575   4.379   4.369   5.271
 2892SOL    HW2 9576   4.401   4.247   5.377
 2893SOL     OW 9577   3.511   1.233   5.908
 2893SOL    HW1 9578   3.522   1.134   5.893
 2893SOL    HW2 9579   3.414   1.256   5.904
 2894SOL     OW 9580   3.394   2.699   1.206
 2894SOL    HW1 9581   3.337   2.617   1.200
 2894SOL    HW2 9582   3.460   2.688   1.281
 2895SOL     OW 9583   3.114   3.071   0.198
 2895SOL    HW1 9584   3.044   3.116   0.144
 2895SOL    HW2 9585   3.163   3.005   0.142
 2896SOL     OW 9586   2.069   4.770   0.969
 2896SOL    HW1 9587   2.043   4.865   0.989
 2896SOL    HW2 9588   2.073   4.718   1.054
 2897SOL     OW 9589   1.308   6.939   3.561
 2897SOL    HW1 9590   1.339   6.879   3.487
 2897SOL    HW2 9591   1.312   6.891   3.648
 2898SOL     OW 9592   2.570   4.539   2.819
 2898SOL    HW1 9593   2.628   4.545   2.738
 2898SOL    HW2 9594   2.482   4.498   2.794
 2899SOL     OW 9595   6.076   1.364   0.617
 2899SOL    HW1 9596   6.099   1.426   0.692
 2899SOL    HW2 9597   5.979   1.340   0.623
 2900SOL     OW 9598   3.411   5.750   6.619
 2900SOL    HW1 9599   3.358   5.696   6.554
 2900SOL    HW2 9600   3.445   5.833   6.575
 2901SOL     OW 9601   2.728   6.910   0.992
 2901SOL    HW1 9602   2.655   6.890   1.058
 2901SOL    HW2 9603   2.810   6.941   1.040
 2902SOL     OW 9604   5.240   5.363   0.923
 2902SOL    HW1 9605   5.318   5.327   0.872
 2902SOL    HW2 9606   5.199   5.439   0.872
 2903SOL     OW 9607   2.725   2.357   1.734
 2903SOL    HW1 9608   2.696   2.447   1.765
 2903SOL    HW2 9609   2.820   2.341   1.762
 2904SOL     OW 9610   2.435   2.579   4.255
 2904SOL    HW1 9611   2.426   2.581   4.354
 2904SOL    HW2 9612   2.385   2.656   4.216
 2905SOL     OW 9613   1.562   2.126   1.968
 2905SOL    HW1 9614   1.488   2.182   1.929
 2905SOL    HW2 9615   1.523   2.057   2.028
 2906SOL     OW 9616   5.239   5.618   2.323
 2906SOL    HW1 9617   5.160   5.591   2.269
 2906SOL    HW2 9618   5.283   5.697   2.280
 2907SOL     OW 9619   6.278   0.676   4.380
 2907SOL    HW1 9620   6.314   0.612   4.448
 2907SOL    HW2 9621   6.178   0.674   4.381
 2908SOL     OW 9622   3.713   6.233   5.369
 2908SOL    HW1 9623   3.721   6.195   5.277
 2908SOL    HW2 9624   3.761   6.174   5.434
 2909SOL     OW 9625   1.818   5.926   5.361
 2909SOL    HW1 9626   1.836   5.903   5.456
 2909SOL    HW2 9627   1.724   5.961   5.353
 2910SOL     OW 9628   4.864   6.463   5.224
 2910SOL    HW1 9629   4.909   6.483   5.136
 2910SOL    HW2 9630   4.828   6.547   5.263
 2911SOL     OW 9631   2.470   4.410   3.601
 2911SOL    HW1 9632   2.518   4.488   3.562
 2911SOL    HW2 9633   2.446   4.346   3.528
 2912SOL     OW 9634   2.666   5.409   0.654
 2912SOL    HW1 9635   2.580   5.436   0.612
 2912SOL    HW2 9636   2.720   5.491   0.676
 2913SOL     OW 9637   1.007   3.637   2.286
 2913SOL    HW1 9638   0.992   3.723   2.335
 2913SOL    HW2 9639   0.921   3.607   2.244
 2914SOL     OW 9640   5.226   4.849   5.748
 2914SOL    HW1 9641   5.185   4.844   5.657
 2914SOL    HW2 9642   5.230   4.944   5.778
 2915SOL     OW 9643   4.236   1.551   4.166
 2915SOL    HW1 9644   4.186   1.465   4.168
 2915SOL    HW2 9645   4.238   1.587   4.073
 2916SOL     OW 9646   4.561   6.413   4.474
 2916SOL    HW1 9647   4.585   6.441   4.567
 2916SOL    HW2 9648   4.462   6.396   4.468
 2917SOL     OW 9649   4.384   0.634   1.901
 2917SOL    HW1 9650   4.381   0.555   1.963
 2917SOL    HW2 9651   4.312   0.699   1.926
 2918SOL     OW 9652   0.704   3.493   4.072
 2918SOL    HW1 9653   0.702   3.401   4.032
 2918SOL    HW2 9654   0.646   3.494   4.153
 2919SOL     OW 9655   6.150   6.240   0.645
 2919SOL    HW1 9656   6.108   6.311   0.590
 2919SOL    HW2 9657   6.223   6.280   0.701
 2920SOL     OW 9658   4.505   2.130   2.722
 2920SOL    HW1 9659   4.562   2.187   2.781
 2920SOL    HW2 9660   4.528   2.147   2.626
 2921SOL     OW 9661   7.000   0.474   1.406
 2921SOL    HW1 9662   7.012   0.531   1.324
 2921SOL    HW2 9663   0.014   0.520   1.485
 2922SOL     OW 9664   4.330   6.161   5.137
 2922SOL    HW1 9665   4.391   6.231   5.174
 2922SOL    HW2 9666   4.384   6.081   5.110
 2923SOL     OW 9667   0.119   4.206   6.911
 2923SOL    HW1 9668   0.023   4.234   6.915
 2923SOL    HW2 9669   0.153   4.219   6.818
 2924SOL     OW 9670   6.420   0.170   6.019
 2924SOL    HW1 9671   6.507   0.219   6.010
 2924SOL    HW2 9672   6.380   0.157   5.928
 2925SOL     OW 9673   5.582   3.399   1.334
 2925SOL    HW1 9674   5.655   3.343   1.296
 2925SOL    HW2 9675   5.533   3.445   1.259
 2926SOL     OW 9676   0.145   1.446   3.702
 2926SOL    HW1 9677   0.114   1.540   3.719
 2926SOL    HW2 9678   0.091   1.406   3.628
 2927SOL     OW 9679   0.873   3.214   2.484
 2927SOL    HW1 9680   0.790   3.165   2.508
 2927SOL    HW2 9681   0.866   3.249   2.391
 2928SOL     OW 9682   5.449   6.147   1.032
 2928SOL    HW1 9683   5.484   6.060   1.063
 2928SOL    HW2 9684   5.514   6.220   1.053
 2929SOL     OW 9685   0.740   0.177   6.051
 2929SOL    HW1 9686   0.693   0.178   5.963
 2929SOL    HW2 9687   0.673   0.166   6.124
 2930SOL     OW 9688   3.132   6.542   4.390
 2930SOL    HW1 9689   3.060   6.482   4.355
 2930SOL    HW2 9690   3.203   6.553   4.321
 2931SOL     OW 9691   3.657   4.947   6.562
 2931SOL    HW1 9692   3.697   5.038   6.551
 2931SOL    HW2 9693   3.606   4.923   6.478
 2932SOL     OW 9694   1.270   4.824   2.224
 2932SOL    HW1 9695   1.225   4.901   2.270
 2932SOL    HW2 9696   1.252   4.830   2.126
 2933SOL     OW 9697   4.888   2.515   3.652
 2933SOL    HW1 9698   4.801   2.558   3.626
 2933SOL    HW2 9699   4.961   2.549   3.593
 2934SOL     OW 9700   2.100   0.947   0.777
 2934SOL    HW1 9701   2.185   0.894   0.765
 2934SOL    HW2 9702   2.022   0.886   0.766
 2935SOL     OW 9703   6.571   1.688   1.407
 2935SOL    HW1 9704   6.579   1.605   1.463
 2935SOL    HW2 9705   6.625   1.761   1.449
 2936SOL     OW 9706   3.335   5.675   0.571
 2936SOL    HW1 9707   3.353   5.686   0.473
 2936SOL    HW2 9708   3.238   5.657   0.585
 2937SOL     OW 9709   2.694   4.655   0.266
 2937SOL    HW1 9710   2.677   4.657   0.365
 2937SOL    HW2 9711   2.708   4.749   0.233
 2938SOL     OW 9712   5.393   4.718   5.392
 2938SOL    HW1 9713   5.472   4.731   5.451
 2938SOL    HW2 9714   5.343   4.804   5.383
 2939SOL     OW 9715   0.351   6.581   6.324
 2939SOL    HW1 9716   0.367   6.678   6.341
 2939SOL    HW2 9717   0.433   6.539   6.285
 2940SOL     OW 9718   3.962   6.931   5.308
 2940SOL    HW1 9719   4.052   6.891   5.292
 2940SOL    HW2 9720   3.915   6.942   5.220
 2941SOL     OW 9721   3.455   1.626   5.348
 2941SOL    HW1 9722   3.528   1.565   5.379
 2941SOL    HW2 9723   3.415   1.590   5.264
 2942SOL     OW 9724   3.989   6.399   4.134
 2942SOL    HW1 9725   3.961   6.323   4.075
 2942SOL    HW2 9726   3.973   6.485   4.086
 2943SOL     OW 9727   5.397   4.512   2.490
 2943SOL    HW1 9728   5.462   4.473   2.425
 2943SOL    HW2 9729   5.325   4.446   2.509
 2944SOL     OW 9730   4.548   6.271   6.959
 2944SOL    HW1 9731   4.591   6.356   6.988
 2944SOL    HW2 9732   4.457   6.289   6.922
 2945SOL     OW 9733   3.238   4.064   3.424
 2945SOL    HW1 9734   3.334   4.094   3.427
 2945SOL    HW2 9735   3.206   4.046   3.517
 2946SOL     OW 9736   0.272   6.105   6.312
 2946SOL    HW1 9737   0.365   6.068   6.310
 2946SOL    HW2 9738   0.273   6.200   6.280
 2947SOL     OW 9739   0.234   5.383   0.271
 2947SOL    HW1 9740   0.205   5.306   0.328
 2947SOL    HW2 9741   0.162   5.452   0.271
 2948SOL     OW 9742   5.876   4.255   5.413
 2948SOL    HW1 9743   5.885   4.268   5.512
 2948SOL    HW2 9744   5.865   4.157   5.394
 2949SOL     OW 9745   0.997   6.274   0.876
 2949SOL    HW1 9746   0.913   6.306   0.831
 2949SOL    HW2 9747   1.070   6.341   0.862
 2950SOL     OW 9748   4.936   3.666   4.772
 2950SOL    HW1 9749   5.032   3.679   4.798
 2950SOL    HW2 9750   4.878   3.682   4.852
 2951SOL     OW 9751   5.910   0.566   1.082
 2951SOL    HW1 9752   5.923   0.623   1.001
 2951SOL    HW2 9753   5.868   0.621   1.155
 2952SOL     OW 9754   1.081   3.703   1.795
 2952SOL    HW1 9755   1.004   3.697   1.858
 2952SOL    HW2 9756   1.114   3.797   1.791
 2953SOL     OW 9757   5.536   1.354   2.417
 2953SOL    HW1 9758   5.582   1.312   2.338
 2953SOL    HW2 9759   5.602   1.366   2.491
 2954SOL     OW 9760   6.090   6.513   1.325
 2954SOL    HW1 9761   6.019   6.583   1.327
 2954SOL    HW2 9762   6.178   6.557   1.304
 2955SOL     OW 9763   6.592   2.498   0.487
 2955SOL    HW1 9764   6.563   2.542   0.572
 2955SOL    HW2 9765   6.646   2.417   0.508
 2956SOL     OW 9766   6.651   5.321   3.196
 2956SOL    HW1 9767   6.594   5.343   3.275
 2956SOL    HW2 9768   6.596   5.322   3.113
 2957SOL     OW 9769   1.042   5.195   1.677
 2957SOL    HW1 9770   1.026   5.272   1.616
 2957SOL    HW2 9771   1.043   5.226   1.772
 2958SOL     OW 9772   3.452   5.193   6.648
 2958SOL    HW1 9773   3.507   5.248   6.585
 2958SOL    HW2 9774   3.511   5.155   6.719
 2959SOL     OW 9775   4.057   5.455   0.393
 2959SOL    HW1 9776   4.069   5.551   0.366
 2959SOL    HW2 9777   4.111   5.397   0.332
 2960SOL     OW 9778   2.857   1.507   0.107
 2960SOL    HW1 9779   2.766   1.473   0.134
 2960SOL    HW2 9780   2.903   1.437   0.052
 2961SOL     OW 9781   6.081   1.881   4.472
 2961SOL    HW1 9782   6.097   1.978   4.455
 2961SOL    HW2 9783   6.127   1.826   4.403
 2962SOL     OW 9784   4.054   0.644   2.390
 2962SOL    HW1 9785   3.982   0.709   2.413
 2962SOL    HW2 9786   4.039   0.558   2.440
 2963SOL     OW 9787   2.014   3.695   4.989
 2963SOL    HW1 9788   2.065   3.740   5.062
 2963SOL    HW2 9789   2.077   3.668   4.916
 2964SOL     OW 9790   2.999   6.006   0.216
 2964SOL    HW1 9791   2.919   6.066   0.206
 2964SOL    HW2 9792   3.046   6.000   0.128
 2965SOL     OW 9793   0.284   2.458   5.847
 2965SOL    HW1 9794   0.203   2.483   5.793
 2965SOL    HW2 9795   0.365   2.461   5.789
 2966SOL     OW 9796   4.802   4.831   3.327
 2966SOL    HW1 9797   4.745   4.897   3.278
 2966SOL    HW2 9798   4.775   4.829   3.423
 2967SOL     OW 9799   5.769   2.351   3.576
 2967SOL    HW1 9800   5.704   2.293   3.623
 2967SOL    HW2 9801   5.738   2.446   3.580
 2968SOL     OW 9802   6.384   3.696   3.667
 2968SOL    HW1 9803   6.336   3.773   3.709
 2968SOL    HW2 9804   6.424   3.725   3.580
 2969SOL     OW 9805   4.085   1.091   4.409
 2969SOL    HW1 9806   4.118   0.998   4.424
 2969SOL    HW2 9807   4.108   1.148   4.488
 2970SOL     OW 9808   1.146   4.516   6.180
 2970SOL    HW1 9809   1.179   4.550   6.092
 2970SOL    HW2 9810   1.075   4.577   6.215
 2971SOL     OW 9811   5.492   3.607   2.653
 2971SOL    HW1 9812   5.397   3.584   2.675
 2971SOL    HW2 9813   5.497   3.701   2.620
 2972SOL     OW 9814   1.198   4.391   5.770
 2972SOL    HW1 9815   1.233   4.384   5.677
 2972SOL    HW2 9816   1.153   4.306   5.795
 2973SOL     OW 9817   5.712   6.964   4.380
 2973SOL    HW1 9818   5.798   6.980   4.331
 2973SOL    HW2 9819   5.688   6.867   4.374
 2974SOL     OW 9820   6.816   4.114   1.973
 2974SOL    HW1 9821   6.841   4.210   1.962
 2974SOL    HW2 9822   6.748   4.089   1.905
 2975SOL     OW 9823   0.304   1.561   4.162
 2975SOL    HW1 9824   0.382   1.619   4.139
 2975SOL    HW2 9825   0.233   1.617   4.204
 2976SOL     OW 9826   2.288   6.499   1.747
 2976SOL    HW1 9827   2.276   6.564   1.822
 2976SOL    HW2 9828   2.372   6.520   1.697
 2977SOL     OW 9829   3.265   6.378   4.115
 2977SOL    HW1 9830   3.347   6.333   4.149
 2977SOL    HW2 9831   3.289   6.462   4.067
 2978SOL     OW 9832   3.861   0.185   6.512
 2978SOL    HW1 9833   3.806   0.268   6.512
 2978SOL    HW2 9834   3.805   0.107   6.541
 2979SOL     OW 9835   3.709   1.221   3.252
 2979SOL    HW1 9836   3.790   1.165   3.233
 2979SOL    HW2 9837   3.673   1.257   3.166
 2980SOL     OW 9838   6.940   5.979   4.169
 2980SOL    HW1 9839   6.955   6.067   4.123
 2980SOL    HW2 9840   7.000   5.910   4.128
 2981SOL     OW 9841   1.898   1.484   5.563
 2981SOL    HW1 9842   1.868   1.489   5.658
 2981SOL    HW2 9843   1.824   1.444   5.508
 2982SOL     OW 9844   5.089   6.255   2.280
 2982SOL    HW1 9845   5.139   6.241   2.366
 2982SOL    HW2 9846   5.060   6.167   2.244
 2983SOL     OW 9847   6.499   7.012   2.937
 2983SOL    HW1 9848   6.585   0.017   2.897
 2983SOL    HW2 9849   6.426   7.021   2.868
 2984SOL     OW 9850   5.722   4.523   1.638
 2984SOL    HW1 9851   5.718   4.532   1.738
 2984SOL    HW2 9852   5.701   4.429   1.612
 2985SOL     OW 9853   6.972   2.064   3.047
 2985SOL    HW1 9854   6.957   2.147   3.100
 2985SOL    HW2 9855   6.885   2.029   3.013
 2986SOL     OW 9856   2.161   3.821   5.164
 2986SOL    HW1 9857   2.256   3.815   5.135
 2986SOL    HW2 9858   2.137   3.917   5.180
 2987SOL     OW 9859   4.600   1.688   4.911
 2987SOL    HW1 9860   4.664   1.611   4.918
 2987SOL    HW2 9861   4.634   1.764   4.967
 2988SOL     OW 9862   0.725   6.458   2.046
 2988SOL    HW1 9863   0.674   6.488   1.965
 2988SOL    HW2 9864   0.804   6.404   2.017
 2989SOL     OW 9865   6.358   6.009   0.530
 2989SOL    HW1 9866   6.446   6.054   0.514
 2989SOL    HW2 9867   6.296   6.072   0.578
 2990SOL     OW 9868   3.143   1.233   1.342
 2990SOL    HW1 9869   3.102   1.294   1.410
 2990SOL    HW2 9870   3.181   1.288   1.267
 2991SOL     OW 9871   6.050   4.556   0.279
 2991SOL    HW1 9872   6.005   4.559   0.190
 2991SOL    HW2 9873   6.113   4.478   0.281
 2992SOL     OW 9874   4.409   4.533   6.974
 2992SOL    HW1 9875   4.419   4.439   7.008
 2992SOL    HW2 9876   4.317   4.545   6.937
 2993SOL     OW 9877   1.560   4.875   0.378
 2993SOL    HW1 9878   1.473   4.841   0.412
 2993SOL    HW2 9879   1.620   4.897   0.456
 2994SOL     OW 9880   4.003   6.276   7.005
 2994SOL    HW1 9881   4.015   6.290   0.077
 2994SOL    HW2 9882   4.030   6.358   6.955
 2995SOL     OW 9883   2.565   1.191   5.570
 2995SOL    HW1 9884   2.621   1.127   5.623
 2995SOL    HW2 9885   2.624   1.240   5.505
 2996SOL     OW 9886   4.426   5.806   5.750
 2996SOL    HW1 9887   4.343   5.772   5.795
 2996SOL    HW2 9888   4.407   5.820   5.653
 2997SOL     OW 9889   4.504   6.158   0.645
 2997SOL    HW1 9890   4.592   6.110   0.652
 2997SOL    HW2 9891   4.520   6.256   0.638
 2998SOL     OW 9892   6.100   5.205   5.213
 2998SOL    HW1 9893   6.103   5.106   5.199
 2998SOL    HW2 9894   6.183   5.247   5.176
 2999SOL     OW 9895   2.681   0.300   2.169
 2999SOL    HW1 9896   2.710   0.216   2.124
 2999SOL    HW2 9897   2.624   0.354   2.107
 3000SOL     OW 9898   1.074   2.028   4.609
 3000SOL    HW1 9899   1.149   2.027   4.675
 3000SOL    HW2 9900   1.111   2.039   4.517
 3001SOL     OW 9901   4.832   6.495   5.527
 3001SOL    HW1 9902   4.798   6.583   5.493
 3001SOL    HW2 9903   4.920   6.474   5.483
 3002SOL     OW 9904   3.092   0.702   5.785
 3002SOL    HW1 9905   3.017   0.733   5.842
 3002SOL    HW2 9906   3.179   0.735   5.822
 3003SOL     OW 9907   2.248   0.026   6.033
 3003SOL    HW1 9908   2.330   0.042   6.088
 3003SOL    HW2 9909   2.184   6.995   6.086
 3004SOL     OW 9910   6.644   3.009   5.287
 3004SOL    HW1 9911   6.651   3.065   5.370
 3004SOL    HW2 9912   6.576   3.049   5.225
 3005SOL     OW 9913   4.502   2.644   1.057
 3005SOL    HW1 9914   4.585   2.589   1.041
 3005SOL    HW2 9915   4.425   2.582   1.077
 3006SOL     OW 9916   4.597   0.364   0.878
 3006SOL    HW1 9917   4.606   0.450   0.828
 3006SOL    HW2 9918   4.670   0.357   0.946
 3007SOL     OW 9919   6.359   5.305   1.756
 3007SOL    HW1 9920   6.356   5.370   1.680
 3007SOL    HW2 9921   6.369   5.356   1.842
 3008SOL     OW 9922   5.016   6.073   5.341
 3008SOL    HW1 9923   5.022   6.012   5.262
 3008SOL    HW2 9924   5.082   6.044   5.411
 3009SOL     OW 9925   1.516   0.744   2.568
 3009SOL    HW1 9926   1.568   0.705   2.644
 3009SOL    HW2 9927   1.473   0.671   2.516
 3010SOL     OW 9928   2.929   6.440   2.636
 3010SOL    HW1 9929   2.898   6.354   2.595
 3010SOL    HW2 9930   2.898   6.517   2.580
 3011SOL     OW 9931   5.692   0.502   0.059
 3011SOL    HW1 9932   5.720   0.558   0.137
 3011SOL    HW2 9933   5.759   0.430   0.044
 3012SOL     OW 9934   6.717   4.690   1.619
 3012SOL    HW1 9935   6.693   4.595   1.599
 3012SOL    HW2 9936   6.813   4.706   1.597
 3013SOL     OW 9937   6.286   3.825   2.112
 3013SOL    HW1 9938   6.378   3.852   2.084
 3013SOL    HW2 9939   6.227   3.820   2.031
 3014SOL     OW 9940   5.072   0.293   5.232
 3014SOL    HW1 9941   5.019   0.311   5.149
 3014SOL    HW2 9942   5.014   0.311   5.312
 3015SOL     OW 9943   2.982   1.319   7.005
 3015SOL    HW1 9944   3.031   1.232   7.005
 3015SOL    HW2 9945   2.916   1.320   6.930
 3016SOL     OW 9946   3.951   6.021   3.364
 3016SOL    HW1 9947   3.916   5.952   3.427
 3016SOL    HW2 9948   4.035   5.988   3.321
 3017SOL     OW 9949   7.003   5.747   1.335
 3017SOL    HW1 9950   6.921   5.799   1.311
 3017SOL    HW2 9951   6.982   5.649   1.330
 3018SOL     OW 9952   4.051   0.173   6.053
 3018SOL    HW1 9953   4.096   0.257   6.022
 3018SOL    HW2 9954   4.066   0.162   6.151
 3019SOL     OW 9955   5.276   6.534   1.928
 3019SOL    HW1 9956   5.263   6.614   1.869
 3019SOL    HW2 9957   5.359   6.485   1.900
 3020SOL     OW 9958   2.281   0.961   1.684
 3020SOL    HW1 9959   2.182   0.945   1.687
 3020SOL    HW2 9960   2.329   0.873   1.674
 3021SOL     OW 9961   4.375   0.700   5.957
 3021SOL    HW1 9962   4.292   0.732   6.003
 3021SOL    HW2 9963   4.433   0.778   5.933
 3022SOL     OW 9964   6.533   0.096   2.512
 3022SOL    HW1 9965   6.532   0.001   2.482
 3022SOL    HW2 9966   6.623   0.136   2.494
 3023SOL     OW 9967   5.848   6.899   1.599
 3023SOL    HW1 9968   5.794   6.928   1.678
 3023SOL    HW2 9969   5.921   6.964   1.583
 3024SOL     OW 9970   3.361   0.229   6.303
 3024SOL    HW1 9971   3.318   0.177   6.229
 3024SOL    HW2 9972   3.300   0.232   6.382
 3025SOL     OW 9973   2.187   2.482   1.956
 3025SOL    HW1 9974   2.095   2.468   1.919
 3025SOL    HW2 9975   2.228   2.562   1.912
 3026SOL     OW 9976   2.446   5.583   0.266
 3026SOL    HW1 9977   2.410   5.490   0.263
 3026SOL    HW2 9978   2.524   5.591   0.203
 3027SOL     OW 9979   1.606   1.149   3.736
 3027SOL    HW1 9980   1.646   1.237   3.762
 3027SOL    HW2 9981   1.612   1.086   3.814
 3028SOL     OW 9982   1.170   0.861   4.467
 3028SOL    HW1 9983   1.120   0.777   4.443
 3028SOL    HW2 9984   1.115   0.941   4.443
 3029SOL     OW 9985   5.492   5.323   6.085
 3029SOL    HW1 9986   5.578   5.302   6.132
 3029SOL    HW2 9987   5.510   5.335   5.987
 3030SOL     OW 9988   1.029   1.589   5.645
 3030SOL    HW1 9989   1.031   1.579   5.745
 3030SOL    HW2 9990   1.109   1.542   5.606
 3031SOL     OW 9991   0.509   5.200   6.466
 3031SOL    HW1 9992   0.477   5.292   6.442
 3031SOL    HW2 9993   0.478   5.135   6.397
 3032SOL     OW 9994   3.690   6.916   5.647
 3032SOL    HW1 9995   3.642   6.975   5.712
 3032SOL    HW2 9996   3.623   6.867   5.591
 3033SOL     OW 9997   5.533   4.887   5.759
 3033SOL    HW1 9998   5.440   4.851   5.764
 3033SOL    HW2 9999   5.591   4.823   5.709
 3034SOL     OW10000   2.813   6.671   4.369
 3034SOL    HW110001   2.757   6.641   4.445
 3034SOL    HW210002   2.856   6.759   4.391
 3035SOL     OW10003   6.653   6.908   6.796
 3035SOL    HW110004   6.610   6.857   6.721
 3035SOL    HW210005   6.587   6.974   6.832
 3036SOL     OW10006   0.827   5.076   5.662
 3036SOL    HW110007   0.884   5.117   5.733
 3036SOL    HW210008   0.768   5.146   5.622
 3037SOL     OW10009   6.219   0.046   5.848
 3037SOL    HW110010   6.243   0.067   5.753
 3037SOL    HW210011   6.192   6.976   5.855
 3038SOL     OW10012   5.912   6.530   5.827
 3038SOL    HW110013   6.008   6.528   5.797
 3038SOL    HW210014   5.873   6.439   5.818
 3039SOL     OW10015   6.959   4.912   0.273
 3039SOL    HW110016   6.928   4.824   0.237
 3039SOL    HW210017   7.015   4.959   0.205
 3040SOL     OW10018   2.535   1.642   6.932
 3040SOL    HW110019   2.563   1.585   6.855
 3040SOL    HW210020   2.442   1.616   6.961
 3041SOL     OW10021   1.443   2.441   6.082
 3041SOL    HW110022   1.428   2.455   6.180
 3041SOL    HW210023   1.541   2.437   6.064
 3042SOL     OW10024   5.554   6.832   2.022
 3042SOL    HW110025   5.556   6.912   1.963
 3042SOL    HW210026   5.603   6.757   1.978
 3043SOL     OW10027   6.576   5.017   6.788
 3043SOL    HW110028   6.483   5.050   6.806
 3043SOL    HW210029   6.616   4.982   6.873
 3044SOL     OW10030   2.464   3.315   5.834
 3044SOL    HW110031   2.530   3.380   5.873
 3044SOL    HW210032   2.381   3.363   5.808
 3045SOL     OW10033   5.083   1.913   4.249
 3045SOL    HW110034   5.131   1.949   4.329
 3045SOL    HW210035   4.990   1.885   4.275
 3046SOL     OW10036   1.914   2.132   6.279
 3046SOL    HW110037   1.836   2.136   6.341
 3046SOL    HW210038   1.991   2.183   6.319
 3047SOL     OW10039   6.976   4.759   1.545
 3047SOL    HW110040   6.997   4.855   1.526
 3047SOL    HW210041   7.019   4.701   1.476
 3048SOL     OW10042   2.989   2.639   1.744
 3048SOL    HW110043   2.977   2.563   1.807
 3048SOL    HW210044   2.899   2.674   1.717
 3049SOL     OW10045   1.046   0.314   1.668
 3049SOL    HW110046   0.961   0.286   1.623
 3049SOL    HW210047   1.085   0.392   1.620
 3050SOL     OW10048   2.132   7.018   3.994
 3050SOL    HW110049   2.172   0.084   3.993
 3050SOL    HW210050   2.170   6.965   3.919
 3051SOL     OW10051   2.702   4.366   5.653
 3051SOL    HW110052   2.745   4.456   5.660
 3051SOL    HW210053   2.660   4.341   5.740
 3052SOL     OW10054   4.868   6.804   2.886
 3052SOL    HW110055   4.895   6.804   2.790
 3052SOL    HW210056   4.770   6.821   2.893
 3053SOL     OW10057   4.914   6.965   1.734
 3053SOL    HW110058   4.883   0.034   1.734
 3053SOL    HW210059   4.983   6.953   1.806
 3054SOL     OW10060   1.967   4.324   5.453
 3054SOL    HW110061   2.063   4.306   5.475
 3054SOL    HW210062   1.941   4.274   5.371
 3055SOL     OW10063   5.864   6.541   2.860
 3055SOL    HW110064   5.798   6.468   2.842
 3055SOL    HW210065   5.951   6.518   2.817
 3056SOL     OW10066   6.252   0.718   1.631
 3056SOL    HW110067   6.300   0.674   1.707
 3056SOL    HW210068   6.166   0.756   1.663
 3057SOL     OW10069   6.555   6.192   2.669
 3057SOL    HW110070   6.503   6.185   2.754
 3057SOL    HW210071   6.614   6.273   2.672
 3058SOL     OW10072   6.412   5.367   1.320
 3058SOL    HW110073   6.327   5.385   1.368
 3058SOL    HW210074   6.410   5.275   1.281
 3059SOL     OW10075   1.933   2.837   5.393
 3059SOL    HW110076   1.866   2.764   5.381
 3059SOL    HW210077   1.907   2.916   5.336
 3060SOL     OW10078   0.375   6.436   0.359
 3060SOL    HW110079   0.307   6.509   0.367
 3060SOL    HW210080   0.448   6.465   0.297
 3061SOL     OW10081   0.547   0.499   5.723
 3061SOL    HW110082   0.571   0.596   5.724
 3061SOL    HW210083   0.503   0.475   5.809
 3062SOL     OW10084   3.223   5.474   5.837
 3062SOL    HW110085   3.299   5.539   5.835
 3062SOL    HW210086   3.229   5.418   5.920
 3063SOL     OW10087   2.452   5.586   0.658
 3063SOL    HW110088   2.530   5.644   0.637
 3063SOL    HW210089   2.378   5.641   0.697
 3064SOL     OW10090   6.907   4.784   3.524
 3064SOL    HW110091   6.839   4.729   3.474
 3064SOL    HW210092   6.998   4.764   3.489
 3065SOL     OW10093   2.852   1.023   1.267
 3065SOL    HW110094   2.898   0.972   1.195
 3065SOL    HW210095   2.793   1.093   1.227
 3066SOL     OW10096   5.385   5.849   0.543
 3066SOL    HW110097   5.435   5.918   0.491
 3066SOL    HW210098   5.289   5.850   0.516
 3067SOL     OW10099   4.217   6.692   3.147
 3067SOL    HW110100   4.269   6.771   3.115
 3067SOL    HW210101   4.178   6.643   3.069
 3068SOL     OW10102   5.735   4.608   0.543
 3068SOL    HW110103   5.645   4.564   0.538
 3068SOL    HW210104   5.802   4.551   0.496
 3069SOL     OW10105   0.821   5.238   3.867
 3069SOL    HW110106   0.734   5.200   3.896
 3069SOL    HW210107   0.859   5.183   3.793
 3070SOL     OW10108   3.813   1.629   4.547
 3070SOL    HW110109   3.730   1.573   4.539
 3070SOL    HW210110   3.886   1.588   4.493
 3071SOL     OW10111   5.355   6.951   4.071
 3071SOL    HW110112   5.368   0.015   4.112
 3071SOL    HW210113   5.264   6.916   4.094
 3072SOL     OW10114   0.698   0.530   1.719
 3072SOL    HW110115   0.725   0.469   1.795
 3072SOL    HW210116   0.600   0.525   1.705
 3073SOL     OW10117   1.603   2.276   4.428
 3073SOL    HW110118   1.660   2.204   4.388
 3073SOL    HW210119   1.570   2.246   4.518
 3074SOL     OW10120   4.767   3.703   5.978
 3074SOL    HW110121   4.844   3.645   6.006
 3074SOL    HW210122   4.739   3.760   6.055
 3075SOL     OW10123   6.887   6.087   0.694
 3075SOL    HW110124   6.888   6.076   0.595
 3075SOL    HW210125   6.979   6.071   0.730
 3076SOL     OW10126   0.753   0.682   5.108
 3076SOL    HW110127   0.795   0.772   5.122
 3076SOL    HW210128   0.747   0.664   5.010
 3077SOL     OW10129   5.220   4.263   3.968
 3077SOL    HW110130   5.215   4.259   4.068
 3077SOL    HW210131   5.128   4.258   3.930
 3078SOL     OW10132   2.188   2.913   0.153
 3078SOL    HW110133   2.110   2.959   0.113
 3078SOL    HW210134   2.264   2.913   0.089
 3079SOL     OW10135   5.744   2.423   6.493
 3079SOL    HW110136   5.663   2.470   6.526
 3079SOL    HW210137   5.724   2.379   6.405
 3080SOL     OW10138   6.372   6.625   1.524
 3080SOL    HW110139   6.469   6.650   1.534
 3080SOL    HW210140   6.347   6.628   1.427
 3081SOL     OW10141   0.282   4.609   6.117
 3081SOL    HW110142   0.340   4.655   6.184
 3081SOL    HW210143   0.190   4.601   6.153
 3082SOL     OW10144   2.100   6.841   2.316
 3082SOL    HW110145   2.013   6.797   2.299
 3082SOL    HW210146   2.093   6.938   2.293
 3083SOL     OW10147   3.238   0.410   2.068
 3083SOL    HW110148   3.214   0.411   1.971
 3083SOL    HW210149   3.277   0.321   2.092
 3084SOL     OW10150   4.431   6.681   3.739
 3084SOL    HW110151   4.434   6.657   3.642
 3084SOL    HW210152   4.382   6.767   3.750
 3085SOL     OW10153   1.055   5.578   1.921
 3085SOL    HW110154   1.147   5.586   1.882
 3085SOL    HW210155   0.994   5.642   1.876
 3086SOL     OW10156   5.911   1.885   4.115
 3086SOL    HW110157   5.919   1.836   4.028
 3086SOL    HW210158   5.815   1.893   4.140
 3087SOL     OW10159   5.759   3.572   1.983
 3087SOL    HW110160   5.791   3.481   2.010
 3087SOL    HW210161   5.677   3.595   2.034
 3088SOL     OW10162   2.913   3.749   6.506
 3088SOL    HW110163   2.969   3.679   6.463
 3088SOL    HW210164   2.845   3.706   6.566
 3089SOL     OW10165   3.049   2.056   0.970
 3089SOL    HW110166   3.115   2.123   1.004
 3089SOL    HW210167   3.033   2.070   0.873
 3090SOL     OW10168   6.888   2.011   0.729
 3090SOL    HW110169   6.844   2.009   0.639
 3090SOL    HW210170   6.986   2.000   0.718
 3091SOL     OW10171   2.527   6.771   0.415
 3091SOL    HW110172   2.624   6.744   0.412
 3091SOL    HW210173   2.489   6.749   0.505
 3092SOL     OW10174   4.064   5.966   0.487
 3092SOL    HW110175   4.104   6.050   0.521
 3092SOL    HW210176   3.973   5.985   0.449
 3093SOL     OW10177   4.774   6.237   3.690
 3093SOL    HW110178   4.768   6.138   3.673
 3093SOL    HW210179   4.847   6.255   3.757
 3094SOL     OW10180   3.181   5.390   5.574
 3094SOL    HW110181   3.216   5.475   5.537
 3094SOL    HW210182   3.182   5.393   5.674
 3095SOL     OW10183   1.778   5.145   5.045
 3095SOL    HW110184   1.836   5.107   4.972
 3095SOL    HW210185   1.689   5.168   5.007
 3096SOL     OW10186   0.286   0.540   5.560
 3096SOL    HW110187   0.345   0.513   5.636
 3096SOL    HW210188   0.327   0.617   5.512
 3097SOL     OW10189   1.614   2.256   0.219
 3097SOL    HW110190   1.647   2.259   0.314
 3097SOL    HW210191   1.692   2.261   0.157
 3098SOL     OW10192   4.017   2.176   0.573
 3098SOL    HW110193   4.050   2.230   0.495
 3098SOL    HW210194   3.969   2.236   0.637
 3099SOL     OW10195   1.120   5.966   5.283
 3099SOL    HW110196   1.180   5.956   5.203
 3099SOL    HW210197   1.126   6.060   5.318
 3100SOL     OW10198   5.820   6.361   6.620
 3100SOL    HW110199   5.848   6.356   6.716
 3100SOL    HW210200   5.895   6.334   6.561
 3101SOL     OW10201   4.133   0.292   1.039
 3101SOL    HW110202   4.180   0.204   1.031
 3101SOL    HW210203   4.037   0.278   1.059
 3102SOL     OW10204   1.017   5.911   0.389
 3102SOL    HW110205   1.072   5.945   0.465
 3102SOL    HW210206   1.043   5.960   0.305
 3103SOL     OW10207   4.185   3.930   1.870
 3103SOL    HW110208   4.244   4.010   1.867
 3103SOL    HW210209   4.143   3.922   1.960
 3104SOL     OW10210   6.076   5.818   3.934
 3104SOL    HW110211   6.149   5.759   3.967
 3104SOL    HW210212   6.000   5.762   3.902
 3105SOL     OW10213   5.838   5.491   3.507
 3105SOL    HW110214   5.932   5.494   3.540
 3105SOL    HW210215   5.806   5.585   3.490
 3106SOL     OW10216   6.986   3.153   4.843
 3106SOL    HW110217   6.972   3.137   4.745
 3106SOL    HW210218   0.047   3.112   4.872
 3107SOL     OW10219   2.853   6.500   3.938
 3107SOL    HW110220   2.809   6.555   4.009
 3107SOL    HW210221   2.927   6.553   3.896
 3108SOL     OW10222   3.185   0.880   3.093
 3108SOL    HW110223   3.162   0.821   3.015
 3108SOL    HW210224   3.261   0.939   3.068
 3109SOL     OW10225   4.735   5.678   2.908
 3109SOL    HW110226   4.796   5.753   2.935
 3109SOL    HW210227   4.722   5.617   2.986
 3110SOL     OW10228   1.257   2.943   1.751
 3110SOL    HW110229   1.342   2.899   1.780
 3110SOL    HW210230   1.258   2.954   1.652
 3111SOL     OW10231   6.825   4.946   2.551
 3111SOL    HW110232   6.918   4.921   2.576
 3111SOL    HW210233   6.785   5.003   2.622
 3112SOL     OW10234   2.520   3.938   6.499
 3112SOL    HW110235   2.513   3.873   6.423
 3112SOL    HW210236   2.432   3.943   6.547
 3113SOL     OW10237   4.067   6.464   4.423
 3113SOL    HW110238   4.040   6.477   4.328
 3113SOL    HW210239   3.985   6.455   4.480
 3114SOL     OW10240   5.539   5.840   0.892
 3114SOL    HW110241   5.520   5.761   0.833
 3114SOL    HW210242   5.623   5.885   0.861
 3115SOL     OW10243   2.563   3.451   1.696
 3115SOL    HW110244   2.621   3.378   1.732
 3115SOL    HW210245   2.483   3.463   1.755
 3116SOL     OW10246   0.306   1.631   0.101
 3116SOL    HW110247   0.310   1.704   0.032
 3116SOL    HW210248   0.325   1.543   0.058
 3117SOL     OW10249   3.794   3.740   5.467
 3117SOL    HW110250   3.710   3.728   5.415
 3117SOL    HW210251   3.873   3.725   5.408
 3118SOL     OW10252   5.755   5.577   6.618
 3118SOL    HW110253   5.673   5.585   6.561
 3118SOL    HW210254   5.781   5.668   6.652
 3119SOL     OW10255   2.352   4.714   6.581
 3119SOL    HW110256   2.400   4.629   6.559
 3119SOL    HW210257   2.371   4.739   6.676
 3120SOL     OW10258   2.428   5.745   6.233
 3120SOL    HW110259   2.440   5.646   6.234
 3120SOL    HW210260   2.332   5.768   6.249
 3121SOL     OW10261   0.396   6.217   3.193
 3121SOL    HW110262   0.412   6.276   3.272
 3121SOL    HW210263   0.432   6.126   3.212
 3122SOL     OW10264   2.920   5.754   0.772
 3122SOL    HW110265   2.969   5.827   0.724
 3122SOL    HW210266   2.939   5.760   0.870
 3123SOL     OW10267   3.736   6.402   4.343
 3123SOL    HW110268   3.743   6.492   4.300
 3123SOL    HW210269   3.810   6.343   4.310
 3124SOL     OW10270   3.849   0.549   6.202
 3124SOL    HW110271   3.946   0.575   6.207
 3124SOL    HW210272   3.831   0.510   6.111
 3125SOL     OW10273   7.018   1.854   5.813
 3125SOL    HW110274   0.064   1.913   5.778
 3125SOL    HW210275   7.005   1.872   5.911
 3126SOL     OW10276   3.601   6.302   0.199
 3126SOL    HW110277   3.583   6.252   0.284
 3126SOL    HW210278   3.624   6.397   0.221
 3127SOL     OW10279   1.341   1.153   3.725
 3127SOL    HW110280   1.439   1.173   3.730
 3127SOL    HW210281   1.308   1.177   3.634
 3128SOL     OW10282   1.712   0.916   0.921
 3128SOL    HW110283   1.761   0.872   0.996
 3128SOL    HW210284   1.763   0.901   0.836
 3129SOL     OW10285   1.868   3.015   3.561
 3129SOL    HW110286   1.880   3.110   3.588
 3129SOL    HW210287   1.821   2.964   3.634
 3130SOL     OW10288   1.981   5.672   3.555
 3130SOL    HW110289   1.929   5.736   3.498
 3130SOL    HW210290   2.032   5.723   3.624
 3131SOL     OW10291   0.491   3.725   4.400
 3131SOL    HW110292   0.467   3.662   4.326
 3131SOL    HW210293   0.416   3.790   4.413
 3132SOL     OW10294   5.442   5.317   4.943
 3132SOL    HW110295   5.419   5.256   5.019
 3132SOL    HW210296   5.541   5.332   4.942
 3133SOL     OW10297   2.434   1.917   3.213
 3133SOL    HW110298   2.491   1.932   3.294
 3133SOL    HW210299   2.365   1.990   3.208
 3134SOL     OW10300   5.515   2.822   1.628
 3134SOL    HW110301   5.437   2.776   1.668
 3134SOL    HW210302   5.527   2.912   1.671
 3135SOL     OW10303   2.586   1.931   3.438
 3135SOL    HW110304   2.647   1.853   3.430
 3135SOL    HW210305   2.514   1.911   3.504
 3136SOL     OW10306   6.836   0.089   4.897
 3136SOL    HW110307   6.842   0.188   4.884
 3136SOL    HW210308   6.769   0.069   4.969
 3137SOL     OW10309   0.105   1.275   4.848
 3137SOL    HW110310   0.199   1.252   4.872
 3137SOL    HW210311   0.064   1.332   4.920
 3138SOL     OW10312   5.468   1.555   4.828
 3138SOL    HW110313   5.544   1.525   4.770
 3138SOL    HW210314   5.382   1.529   4.785
 3139SOL     OW10315   4.989   5.858   5.166
 3139SOL    HW110316   5.080   5.837   5.130
 3139SOL    HW210317   4.941   5.773   5.187
 3140SOL     OW10318   5.908   5.875   6.404
 3140SOL    HW110319   5.889   5.970   6.382
 3140SOL    HW210320   5.868   5.816   6.334
 3141SOL     OW10321   0.816   5.774   1.102
 3141SOL    HW110322   0.820   5.712   1.180
 3141SOL    HW210323   0.861   5.731   1.023
 3142SOL     OW10324   3.688   6.698   0.036
 3142SOL    HW110325   3.593   6.712   0.008
 3142SOL    HW210326   3.724   6.782   0.077
 3143SOL     OW10327   0.324   1.430   0.941
 3143SOL    HW110328   0.345   1.365   1.014
 3143SOL    HW210329   0.250   1.490   0.971
 3144SOL     OW10330   1.755   2.948   6.869
 3144SOL    HW110331   1.763   2.850   6.850
 3144SOL    HW210332   1.671   2.965   6.921
 3145SOL     OW10333   3.041   5.216   3.933
 3145SOL    HW110334   3.001   5.307   3.919
 3145SOL    HW210335   3.082   5.184   3.847
 3146SOL     OW10336   2.323   6.919   3.798
 3146SOL    HW110337   2.390   6.846   3.812
 3146SOL    HW210338   2.306   6.929   3.700
 3147SOL     OW10339   4.107   4.528   0.692
 3147SOL    HW110340   4.134   4.613   0.646
 3147SOL    HW210341   4.025   4.492   0.650
 3148SOL     OW10342   3.563   5.454   5.405
 3148SOL    HW110343   3.514   5.493   5.327
 3148SOL    HW210344   3.620   5.378   5.373
 3149SOL     OW10345   2.797   6.441   6.048
 3149SOL    HW110346   2.767   6.410   6.138
 3149SOL    HW210347   2.732   6.410   5.979
 3150SOL     OW10348   0.257   0.234   4.137
 3150SOL    HW110349   0.282   0.159   4.076
 3150SOL    HW210350   0.161   0.225   4.163
 3151SOL     OW10351   4.197   6.819   0.803
 3151SOL    HW110352   4.099   6.816   0.786
 3151SOL    HW210353   4.240   6.882   0.739
 3152SOL     OW10354   1.537   4.753   6.395
 3152SOL    HW110355   1.479   4.823   6.438
 3152SOL    HW210356   1.479   4.687   6.347
 3153SOL     OW10357   6.985   4.460   3.121
 3153SOL    HW110358   6.949   4.450   3.028
 3153SOL    HW210359   6.939   4.395   3.182
 3154SOL     OW10360   5.674   2.272   6.272
 3154SOL    HW110361   5.761   2.251   6.228
 3154SOL    HW210362   5.632   2.187   6.304
 3155SOL     OW10363   4.269   6.148   0.283
 3155SOL    HW110364   4.304   6.097   0.361
 3155SOL    HW210365   4.334   6.140   0.207
 3156SOL     OW10366   3.351   3.177   2.940
 3156SOL    HW110367   3.265   3.144   2.978
 3156SOL    HW210368   3.336   3.265   2.896
 3157SOL     OW10369   1.902   2.930   4.995
 3157SOL    HW110370   1.911   2.973   4.905
 3157SOL    HW210371   1.979   2.956   5.052
 3158SOL     OW10372   4.675   6.385   1.307
 3158SOL    HW110373   4.640   6.358   1.396
 3158SOL    HW210374   4.671   6.308   1.244
 3159SOL     OW10375   5.318   4.457   0.581
 3159SOL    HW110376   5.299   4.426   0.488
 3159SOL    HW210377   5.337   4.555   0.582
 3160SOL     OW10378   5.833   4.858   0.566
 3160SOL    HW110379   5.768   4.788   0.595
 3160SOL    HW210380   5.908   4.815   0.515
 3161SOL     OW10381   0.940   1.546   2.979
 3161SOL    HW110382   1.014   1.591   3.028
 3161SOL    HW210383   0.857   1.601   2.987
 3162SOL     OW10384   6.809   0.094   5.993
 3162SOL    HW110385   6.745   0.107   5.917
 3162SOL    HW210386   6.835   0.183   6.031
 3163SOL     OW10387   2.341   4.601   5.775
 3163SOL    HW110388   2.364   4.580   5.680
 3163SOL    HW210389   2.251   4.643   5.780
 3164SOL     OW10390   6.295   5.445   6.043
 3164SOL    HW110391   6.306   5.463   5.945
 3164SOL    HW210392   6.246   5.359   6.056
 3165SOL     OW10393   0.205   2.272   1.743
 3165SOL    HW110394   0.258   2.190   1.719
 3165SOL    HW210395   0.107   2.252   1.735
 3166SOL     OW10396   4.548   2.705   6.226
 3166SOL    HW110397   4.632   2.661   6.260
 3166SOL    HW210398   4.498   2.744   6.303
 3167SOL     OW10399   0.269   4.353   1.732
 3167SOL    HW110400   0.190   4.390   1.683
 3167SOL    HW210401   0.349   4.409   1.715
 3168SOL     OW10402   5.811   2.927   1.058
 3168SOL    HW110403   5.910   2.916   1.049
 3168SOL    HW210404   5.777   2.862   1.126
 3169SOL     OW10405   2.146   2.356   4.974
 3169SOL    HW110406   2.188   2.435   5.018
 3169SOL    HW210407   2.047   2.363   4.981
 3170SOL     OW10408   3.892   0.281   5.468
 3170SOL    HW110409   3.860   0.298   5.375
 3170SOL    HW210410   3.813   0.282   5.530
 3171SOL     OW10411   6.535   6.541   3.369
 3171SOL    HW110412   6.439   6.520   3.385
 3171SOL    HW210413   6.543   6.601   3.289
 3172SOL     OW10414   5.939   0.178   5.450
 3172SOL    HW110415   5.931   0.118   5.530
 3172SOL    HW210416   5.934   0.123   5.367
 3173SOL     OW10417   2.502   1.116   1.752
 3173SOL    HW110418   2.418   1.067   1.731
 3173SOL    HW210419   2.484   1.186   1.821
 3174SOL     OW10420   2.066   3.284   6.865
 3174SOL    HW110421   1.982   3.288   6.919
 3174SOL    HW210422   2.137   3.340   6.909
 3175SOL     OW10423   6.896   6.025   0.162
 3175SOL    HW110424   6.827   6.078   0.110
 3175SOL    HW210425   6.935   5.955   0.102
 3176SOL     OW10426   1.183   5.587   6.904
 3176SOL    HW110427   1.154   5.576   6.809
 3176SOL    HW210428   1.138   5.518   6.960
 3177SOL     OW10429   1.183   0.006   4.079
 3177SOL    HW110430   1.165   0.013   4.177
 3177SOL    HW210431   1.268   6.980   4.064
 3178SOL     OW10432   2.777   3.375   6.836
 3178SOL    HW110433   2.687   3.375   6.880
 3178SOL    HW210434   2.792   3.463   6.790
 3179SOL     OW10435   1.213   2.492   3.967
 3179SOL    HW110436   1.155   2.471   4.046
 3179SOL    HW210437   1.157   2.497   3.885
 3180SOL     OW10438   5.963   1.184   6.363
 3180SOL    HW110439   5.982   1.255   6.431
 3180SOL    HW210440   5.954   1.096   6.409
 3181SOL     OW10441   0.785   1.707   2.370
 3181SOL    HW110442   0.800   1.752   2.283
 3181SOL    HW210443   0.731   1.624   2.357
 3182SOL     OW10444   1.647   4.420   5.298
 3182SOL    HW110445   1.653   4.432   5.397
 3182SOL    HW210446   1.559   4.455   5.265
 3183SOL     OW10447   4.457   2.889   1.267
 3183SOL    HW110448   4.507   2.812   1.307
 3183SOL    HW210449   4.455   2.879   1.168
 3184SOL     OW10450   0.868   2.190   3.373
 3184SOL    HW110451   0.854   2.210   3.470
 3184SOL    HW210452   0.885   2.276   3.323
 3185SOL     OW10453   0.522   6.523   0.156
 3185SOL    HW110454   0.508   6.496   0.061
 3185SOL    HW210455   0.610   6.489   0.188
 3186SOL     OW10456   3.374   0.787   1.645
 3186SOL    HW110457   3.444   0.829   1.588
 3186SOL    HW210458   3.284   0.819   1.616
 3187SOL     OW10459   2.736   4.187   0.074
 3187SOL    HW110460   2.691   4.100   0.091
 3187SOL    HW210461   2.713   4.252   0.146
 3188SOL     OW10462   4.104   6.991   3.017
 3188SOL    HW110463   4.094   0.017   3.102
 3188SOL    HW210464   4.196   6.953   3.011
 3189SOL     OW10465   6.533   6.618   2.582
 3189SOL    HW110466   6.466   6.584   2.516
 3189SOL    HW210467   6.615   6.648   2.534
 3190SOL     OW10468   0.722   6.959   1.452
 3190SOL    HW110469   0.684   6.951   1.360
 3190SOL    HW210470   0.652   6.931   1.518
 3191SOL     OW10471   3.491   1.054   0.179
 3191SOL    HW110472   3.391   1.053   0.179
 3191SOL    HW210473   3.525   0.966   0.145
 3192SOL     OW10474   5.527   2.212   3.720
 3192SOL    HW110475   5.500   2.116   3.720
 3192SOL    HW210476   5.454   2.267   3.678
 3193SOL     OW10477   5.094   4.602   1.281
 3193SOL    HW110478   5.064   4.694   1.306
 3193SOL    HW210479   5.061   4.537   1.349
 3194SOL     OW10480   2.117   5.309   5.368
 3194SOL    HW110481   2.167   5.395   5.368
 3194SOL    HW210482   2.085   5.288   5.461
 3195SOL     OW10483   0.361   4.413   3.498
 3195SOL    HW110484   0.280   4.390   3.445
 3195SOL    HW210485   0.345   4.392   3.595
 3196SOL     OW10486   0.268   6.889   5.807
 3196SOL    HW110487   0.284   6.802   5.854
 3196SOL    HW210488   0.270   6.963   5.874
 3197SOL     OW10489   0.529   4.593   4.629
 3197SOL    HW110490   0.434   4.623   4.622
 3197SOL    HW210491   0.539   4.502   4.590
 3198SOL     OW10492   5.716   6.807   0.361
 3198SOL    HW110493   5.774   6.726   0.370
 3198SOL    HW210494   5.624   6.779   0.334
 3199SOL     OW10495   3.712   1.652   3.330
 3199SOL    HW110496   3.736   1.729   3.272
 3199SOL    HW210497   3.613   1.650   3.344
 3200SOL     OW10498   6.767   2.016   0.493
 3200SOL    HW110499   6.732   2.057   0.409
 3200SOL    HW210500   6.776   1.917   0.480
 3201SOL     OW10501   4.597   5.005   3.237
 3201SOL    HW110502   4.595   4.959   3.148
 3201SOL    HW210503   4.503   5.015   3.271
 3202SOL     OW10504   1.081   5.629   1.603
 3202SOL    HW110505   0.987   5.663   1.612
 3202SOL    HW210506   1.089   5.578   1.518
 3203SOL     OW10507   4.778   0.055   0.924
 3203SOL    HW110508   4.841   7.014   0.965
 3203SOL    HW210509   4.696   0.063   0.982
 3204SOL     OW10510   6.334   6.124   2.263
 3204SOL    HW110511   6.278   6.149   2.184
 3204SOL    HW210512   6.294   6.043   2.308
 3205SOL     OW10513   0.942   3.984   4.089
 3205SOL    HW110514   0.867   4.037   4.129
 3205SOL    HW210515   0.922   3.886   4.097
 3206SOL     OW10516   1.494   6.951   0.397
 3206SOL    HW110517   1.558   7.006   0.451
 3206SOL    HW210518   1.491   6.858   0.434
 3207SOL     OW10519   1.299   1.945   2.816
 3207SOL    HW110520   1.381   1.990   2.850
 3207SOL    HW210521   1.234   1.931   2.892
 3208SOL     OW10522   6.349   0.468   4.515
 3208SOL    HW110523   6.438   0.514   4.510
 3208SOL    HW210524   6.362   0.374   4.545
 3209SOL     OW10525   1.944   0.482   3.075
 3209SOL    HW110526   1.868   0.441   3.125
 3209SOL    HW210527   2.003   0.532   3.138
 3210SOL     OW10528   0.414   5.031   2.097
 3210SOL    HW110529   0.360   5.115   2.091
 3210SOL    HW210530   0.509   5.054   2.119
 3211SOL     OW10531   0.216   4.202   3.001
 3211SOL    HW110532   0.209   4.261   3.081
 3211SOL    HW210533   0.313   4.194   2.975
 3212SOL     OW10534   5.041   2.969   5.621
 3212SOL    HW110535   5.075   2.996   5.531
 3212SOL    HW210536   4.943   2.947   5.615
 3213SOL     OW10537   5.388   7.020   1.550
 3213SOL    HW110538   5.397   0.092   1.565
 3213SOL    HW210539   5.398   6.972   1.638
 3214SOL     OW10540   4.210   4.275   6.559
 3214SOL    HW110541   4.120   4.295   6.596
 3214SOL    HW210542   4.208   4.284   6.459
 3215SOL     OW10543   6.110   1.243   0.367
 3215SOL    HW110544   6.201   1.247   0.326
 3215SOL    HW210545   6.113   1.286   0.457
 3216SOL     OW10546   5.479   6.470   4.726
 3216SOL    HW110547   5.471   6.377   4.691
 3216SOL    HW210548   5.389   6.504   4.753
 3217SOL     OW10549   6.532   4.319   0.027
 3217SOL    HW110550   6.454   4.258   0.009
 3217SOL    HW210551   6.521   4.403   6.999
 3218SOL     OW10552   3.877   1.730   1.692
 3218SOL    HW110553   3.831   1.738   1.604
 3218SOL    HW210554   3.917   1.818   1.717
 3219SOL     OW10555   0.220   0.164   3.720
 3219SOL    HW110556   0.224   0.262   3.735
 3219SOL    HW210557   0.234   0.144   3.623
 3220SOL     OW10558   6.383   3.401   6.251
 3220SOL    HW110559   6.315   3.447   6.308
 3220SOL    HW210560   6.446   3.350   6.309
 3221SOL     OW10561   3.735   0.836   1.772
 3221SOL    HW110562   3.708   0.763   1.834
 3221SOL    HW210563   3.655   0.892   1.750
 3222SOL     OW10564   6.231   4.061   1.702
 3222SOL    HW110565   6.201   3.984   1.759
 3222SOL    HW210566   6.258   4.137   1.761
 3223SOL     OW10567   2.376   4.281   3.825
 3223SOL    HW110568   2.423   4.328   3.750
 3223SOL    HW210569   2.412   4.313   3.912
 3224SOL     OW10570   3.133   6.296   1.164
 3224SOL    HW110571   3.139   6.314   1.262
 3224SOL    HW210572   3.200   6.226   1.139
 3225SOL     OW10573   1.973   2.798   1.104
 3225SOL    HW110574   2.013   2.742   1.032
 3225SOL    HW210575   2.036   2.800   1.182
 3226SOL     OW10576   6.782   0.640   3.617
 3226SOL    HW110577   6.807   0.683   3.530
 3226SOL    HW210578   6.711   0.695   3.661
 3227SOL     OW10579   1.814   2.195   5.740
 3227SOL    HW110580   1.822   2.284   5.694
 3227SOL    HW210581   1.822   2.208   5.839
 3228SOL     OW10582   5.010   3.486   5.131
 3228SOL    HW110583   4.951   3.555   5.089
 3228SOL    HW210584   4.955   3.406   5.155
 3229SOL     OW10585   4.589   1.647   5.232
 3229SOL    HW110586   4.612   1.710   5.158
 3229SOL    HW210587   4.624   1.683   5.318
 3230SOL     OW10588   1.569   0.100   3.985
 3230SOL    HW110589   1.656   0.128   4.026
 3230SOL    HW210590   1.586   0.056   3.897
 3231SOL     OW10591   4.772   4.696   0.743
 3231SOL    HW110592   4.749   4.710   0.840
 3231SOL    HW210593   4.841   4.763   0.715
 3232SOL     OW10594   1.221   4.075   2.898
 3232SOL    HW110595   1.173   4.159   2.922
 3232SOL    HW210596   1.316   4.097   2.874
 3233SOL     OW10597   2.117   4.202   0.928
 3233SOL    HW110598   2.168   4.191   1.013
 3233SOL    HW210599   2.124   4.297   0.898
 3234SOL     OW10600   6.777   1.828   4.996
 3234SOL    HW110601   6.785   1.786   4.906
 3234SOL    HW210602   6.755   1.925   4.987
 3235SOL     OW10603   5.667   0.658   2.230
 3235SOL    HW110604   5.734   0.695   2.295
 3235SOL    HW210605   5.583   0.635   2.279
 3236SOL     OW10606   7.019   2.410   1.366
 3236SOL    HW110607   6.983   2.397   1.273
 3236SOL    HW210608   0.093   2.420   1.361
 3237SOL     OW10609   2.872   6.095   4.997
 3237SOL    HW110610   2.802   6.053   4.938
 3237SOL    HW210611   2.868   6.053   5.088
 3238SOL     OW10612   6.582   6.269   6.398
 3238SOL    HW110613   6.681   6.260   6.410
 3238SOL    HW210614   6.562   6.282   6.301
 3239SOL     OW10615   1.177   6.220   5.383
 3239SOL    HW110616   1.163   6.314   5.353
 3239SOL    HW210617   1.215   6.221   5.476
 3240SOL     OW10618   0.446   2.390   4.641
 3240SOL    HW110619   0.448   2.292   4.619
 3240SOL    HW210620   0.518   2.411   4.707
 3241SOL     OW10621   4.164   6.746   4.961
 3241SOL    HW110622   4.092   6.805   4.923
 3241SOL    HW210623   4.136   6.651   4.955
 3242SOL     OW10624   3.398   0.488   0.610
 3242SOL    HW110625   3.372   0.551   0.683
 3242SOL    HW210626   3.335   0.499   0.533
 3243SOL     OW10627   3.722   5.103   1.525
 3243SOL    HW110628   3.811   5.116   1.570
 3243SOL    HW210629   3.654   5.077   1.594
 3244SOL     OW10630   0.942   6.783   5.780
 3244SOL    HW110631   0.910   6.872   5.746
 3244SOL    HW210632   0.866   6.718   5.778
 3245SOL     OW10633   3.428   2.188   5.770
 3245SOL    HW110634   3.475   2.261   5.819
 3245SOL    HW210635   3.356   2.226   5.713
 3246SOL     OW10636   5.229   6.026   3.456
 3246SOL    HW110637   5.323   6.040   3.487
 3246SOL    HW210638   5.227   5.956   3.384
 3247SOL     OW10639   6.351   3.126   5.702
 3247SOL    HW110640   6.386   3.076   5.782
 3247SOL    HW210641   6.259   3.159   5.721
 3248SOL     OW10642   4.811   4.044   2.769
 3248SOL    HW110643   4.730   4.098   2.790
 3248SOL    HW210644   4.846   4.003   2.854
 3249SOL     OW10645   3.389   4.824   5.578
 3249SOL    HW110646   3.465   4.774   5.537
 3249SOL    HW210647   3.365   4.781   5.666
 3250SOL     OW10648   4.787   5.142   1.234
 3250SOL    HW110649   4.751   5.068   1.176
 3250SOL    HW210650   4.860   5.189   1.184
 3251SOL     OW10651   3.263   0.818   3.673
 3251SOL    HW110652   3.354   0.789   3.702
 3251SOL    HW210653   3.265   0.914   3.648
 3252SOL     OW10654   4.027   2.188   3.425
 3252SOL    HW110655   3.943   2.198   3.478
 3252SOL    HW210656   4.008   2.134   3.342
 3253SOL     OW10657   5.066   4.420   1.473
 3253SOL    HW110658   5.063   4.450   1.568
 3253SOL    HW210659   4.974   4.397   1.442
 3254SOL     OW10660   6.557   4.371   2.762
 3254SOL    HW110661   6.497   4.362   2.682
 3254SOL    HW210662   6.600   4.283   2.782
 3255SOL     OW10663   3.868   4.907   0.945
 3255SOL    HW110664   3.923   4.927   1.026
 3255SOL    HW210665   3.863   4.807   0.932
 3256SOL     OW10666   6.773   6.856   5.397
 3256SOL    HW110667   6.779   6.842   5.298
 3256SOL    HW210668   6.821   6.940   5.423
 3257SOL     OW10669   2.666   1.178   1.141
 3257SOL    HW110670   2.647   1.247   1.071
 3257SOL    HW210671   2.585   1.121   1.154
 3258SOL     OW10672   5.108   6.530   0.975
 3258SOL    HW110673   5.123   6.479   0.891
 3258SOL    HW210674   5.191   6.581   0.999
 3259SOL     OW10675   5.376   5.661   3.509
 3259SOL    HW110676   5.326   5.690   3.427
 3259SOL    HW210677   5.381   5.562   3.513
 3260SOL     OW10678   2.248   1.732   1.364
 3260SOL    HW110679   2.247   1.802   1.292
 3260SOL    HW210680   2.305   1.655   1.335
 3261SOL     OW10681   4.740   6.524   4.051
 3261SOL    HW110682   4.689   6.439   4.043
 3261SOL    HW210683   4.741   6.570   3.962
 3262SOL     OW10684   4.164   1.817   3.826
 3262SOL    HW110685   4.127   1.724   3.832
 3262SOL    HW210686   4.261   1.816   3.850
 3263SOL     OW10687   3.083   4.853   3.337
 3263SOL    HW110688   2.990   4.818   3.337
 3263SOL    HW210689   3.119   4.854   3.430
 3264SOL     OW10690   5.777   5.147   6.083
 3264SOL    HW110691   5.713   5.072   6.065
 3264SOL    HW210692   5.870   5.117   6.064
 3265SOL     OW10693   5.626   0.196   5.702
 3265SOL    HW110694   5.575   0.231   5.623
 3265SOL    HW210695   5.643   0.271   5.767
 3266SOL     OW10696   1.210   2.889   6.449
 3266SOL    HW110697   1.245   2.895   6.542
 3266SOL    HW210698   1.281   2.853   6.388
 3267SOL     OW10699   5.362   3.405   2.114
 3267SOL    HW110700   5.325   3.353   2.037
 3267SOL    HW210701   5.288   3.426   2.179
 3268SOL     OW10702   1.788   5.654   6.884
 3268SOL    HW110703   1.780   5.740   6.936
 3268SOL    HW210704   1.697   5.615   6.871
 3269SOL     OW10705   4.217   3.698   0.922
 3269SOL    HW110706   4.145   3.756   0.961
 3269SOL    HW210707   4.246   3.631   0.990
 3270SOL     OW10708   6.846   5.098   3.920
 3270SOL    HW110709   6.823   5.050   3.835
 3270SOL    HW210710   6.843   5.196   3.905
 3271SOL     OW10711   4.908   6.877   1.325
 3271SOL    HW110712   4.969   6.903   1.400
 3271SOL    HW210713   4.876   6.783   1.340
 3272SOL     OW10714   4.756   5.703   6.642
 3272SOL    HW110715   4.669   5.723   6.596
 3272SOL    HW210716   4.827   5.762   6.604
 3273SOL     OW10717   0.826   0.527   2.953
 3273SOL    HW110718   0.888   0.464   2.907
 3273SOL    HW210719   0.750   0.550   2.891
 3274SOL     OW10720   2.559   1.212   0.209
 3274SOL    HW110721   2.628   1.152   0.168
 3274SOL    HW210722   2.582   1.307   0.190
 3275SOL     OW10723   4.632   0.591   0.109
 3275SOL    HW110724   4.657   0.507   0.158
 3275SOL    HW210725   4.557   0.636   0.157
 3276SOL     OW10726   1.586   6.290   0.248
 3276SOL    HW110727   1.546   6.375   0.283
 3276SOL    HW210728   1.680   6.282   0.281
 3277SOL     OW10729   0.378   5.947   6.926
 3277SOL    HW110730   0.325   6.018   6.972
 3277SOL    HW210731   0.419   5.985   6.843
 3278SOL     OW10732   1.185   0.606   6.994
 3278SOL    HW110733   1.245   0.684   6.975
 3278SOL    HW210734   1.161   0.606   0.065
 3279SOL     OW10735   2.250   6.909   1.330
 3279SOL    HW110736   2.191   6.831   1.309
 3279SOL    HW210737   2.224   6.986   1.272
 3280SOL     OW10738   3.116   6.027   3.741
 3280SOL    HW110739   3.040   6.072   3.693
 3280SOL    HW210740   3.093   5.930   3.756
 3281SOL     OW10741   1.774   6.406   0.428
 3281SOL    HW110742   1.797   6.504   0.428
 3281SOL    HW210743   1.852   6.354   0.461
 3282SOL     OW10744   2.343   5.032   2.835
 3282SOL    HW110745   2.413   4.962   2.823
 3282SOL    HW210746   2.315   5.067   2.746
 3283SOL     OW10747   2.173   0.303   3.374
 3283SOL    HW110748   2.236   0.226   3.363
 3283SOL    HW210749   2.079   0.269   3.371
 3284SOL     OW10750   1.574   5.284   5.219
 3284SOL    HW110751   1.665   5.251   5.243
 3284SOL    HW210752   1.535   5.335   5.295
 3285SOL     OW10753   0.261   2.774   4.054
 3285SOL    HW110754   0.290   2.868   4.038
 3285SOL    HW210755   0.190   2.773   4.124
 3286SOL     OW10756   4.672   4.702   6.182
 3286SOL    HW110757   4.655   4.726   6.277
 3286SOL    HW210758   4.586   4.684   6.135
 3287SOL     OW10759   0.027   3.103   1.650
 3287SOL    HW110760   0.061   3.091   1.556
 3287SOL    HW210761   6.963   3.146   1.648
 3288SOL     OW10762   1.092   7.002   0.268
 3288SOL    HW110763   1.152   0.043   0.313
 3288SOL    HW210764   1.017   6.978   0.330
 3289SOL     OW10765   1.356   6.818   3.797
 3289SOL    HW110766   1.365   6.732   3.847
 3289SOL    HW210767   1.434   6.877   3.818
 3290SOL     OW10768   0.366   5.067   3.613
 3290SOL    HW110769   0.273   5.099   3.595
 3290SOL    HW210770   0.376   5.048   3.711
 3291SOL     OW10771   1.713   1.435   2.014
 3291SOL    HW110772   1.739   1.339   2.008
 3291SOL    HW210773   1.771   1.489   1.952
 3292SOL     OW10774   0.438   6.072   4.775
 3292SOL    HW110775   0.442   5.973   4.785
 3292SOL    HW210776   0.531   6.109   4.772
 3293SOL     OW10777   5.829   0.412   3.173
 3293SOL    HW110778   5.791   0.473   3.242
 3293SOL    HW210779   5.901   0.460   3.122
 3294SOL     OW10780   0.057   6.747   0.613
 3294SOL    HW110781   0.011   6.746   0.701
 3294SOL    HW210782   7.024   6.705   0.544
 3295SOL     OW10783   2.217   2.950   5.789
 3295SOL    HW110784   2.287   2.923   5.723
 3295SOL    HW210785   2.198   3.048   5.779
 3296SOL     OW10786   1.534   6.585   2.228
 3296SOL    HW110787   1.523   6.671   2.278
 3296SOL    HW210788   1.509   6.598   2.132
 3297SOL     OW10789   3.556   1.092   5.411
 3297SOL    HW110790   3.520   1.176   5.453
 3297SOL    HW210791   3.512   1.078   5.322
 3298SOL     OW10792   0.669   4.538   2.793
 3298SOL    HW110793   0.664   4.521   2.892
 3298SOL    HW210794   0.613   4.470   2.745
 3299SOL     OW10795   0.991   1.295   4.292
 3299SOL    HW110796   0.998   1.271   4.389
 3299SOL    HW210797   1.083   1.301   4.253
 3300SOL     OW10798   0.349   6.879   4.649
 3300SOL    HW110799   0.430   6.906   4.701
 3300SOL    HW210800   0.349   6.925   4.560
 3301SOL     OW10801   6.783   3.884   2.776
 3301SOL    HW110802   6.798   3.887   2.677
 3301SOL    HW210803   6.744   3.796   2.801
 3302SOL     OW10804   0.798   6.097   5.281
 3302SOL    HW110805   0.873   6.156   5.254
 3302SOL    HW210806   0.756   6.056   5.200
 3303SOL     OW10807   2.988   3.882   4.595
 3303SOL    HW110808   3.052   3.959   4.588
 3303SOL    HW210809   2.970   3.847   4.503
 3304SOL     OW10810   1.577   0.883   3.456
 3304SOL    HW110811   1.577   0.840   3.366
 3304SOL    HW210812   1.619   0.974   3.450
 3305SOL     OW10813   1.203   2.791   0.551
 3305SOL    HW110814   1.223   2.801   0.648
 3305SOL    HW210815   1.262   2.853   0.499
 3306SOL     OW10816   1.328   2.542   1.842
 3306SOL    HW110817   1.408   2.589   1.879
 3306SOL    HW210818   1.355   2.451   1.810
 3307SOL     OW10819   1.206   0.184   6.759
 3307SOL    HW110820   1.222   0.182   6.660
 3307SOL    HW210821   1.112   0.154   6.778
 3308SOL     OW10822   4.739   6.078   1.203
 3308SOL    HW110823   4.665   6.110   1.144
 3308SOL    HW210824   4.707   6.003   1.260
 3309SOL     OW10825   1.483   4.814   1.946
 3309SOL    HW110826   1.582   4.816   1.929
 3309SOL    HW210827   1.447   4.907   1.947
 3310SOL     OW10828   1.757   6.527   2.474
 3310SOL    HW110829   1.662   6.554   2.484
 3310SOL    HW210830   1.763   6.428   2.459
 3311SOL     OW10831   3.883   5.676   0.747
 3311SOL    HW110832   3.952   5.675   0.819
 3311SOL    HW210833   3.880   5.587   0.702
 3312SOL     OW10834   1.268   2.534   5.907
 3312SOL    HW110835   1.320   2.489   5.980
 3312SOL    HW210836   1.321   2.609   5.869
 3313SOL     OW10837   5.690   6.502   4.563
 3313SOL    HW110838   5.681   6.578   4.499
 3313SOL    HW210839   5.611   6.500   4.624
 3314SOL     OW10840   0.291   4.429   6.429
 3314SOL    HW110841   0.375   4.379   6.408
 3314SOL    HW210842   0.314   4.524   6.454
 3315SOL     OW10843   6.222   2.869   3.224
 3315SOL    HW110844   6.244   2.796   3.289
 3315SOL    HW210845   6.122   2.876   3.215
 3316SOL     OW10846   4.227   0.743   6.696
 3316SOL    HW110847   4.242   0.791   6.610
 3316SOL    HW210848   4.153   0.787   6.747
 3317SOL     OW10849   4.327   2.547   1.407
 3317SOL    HW110850   4.412   2.595   1.388
 3317SOL    HW210851   4.254   2.582   1.348
 3318SOL     OW10852   2.668   5.318   6.150
 3318SOL    HW110853   2.728   5.395   6.169
 3318SOL    HW210854   2.575   5.340   6.182
 3319SOL     OW10855   0.364   5.970   6.574
 3319SOL    HW110856   0.342   6.053   6.523
 3319SOL    HW210857   0.318   5.892   6.531
 3320SOL     OW10858   1.068   0.480   0.841
 3320SOL    HW110859   1.086   0.389   0.803
 3320SOL    HW210860   1.073   0.548   0.767
 3321SOL     OW10861   3.620   3.701   4.330
 3321SOL    HW110862   3.644   3.626   4.269
 3321SOL    HW210863   3.670   3.691   4.416
 3322SOL     OW10864   4.546   2.567   2.560
 3322SOL    HW110865   4.524   2.478   2.520
 3322SOL    HW210866   4.497   2.639   2.511
 3323SOL     OW10867   2.004   4.652   0.724
 3323SOL    HW110868   1.905   4.654   0.713
 3323SOL    HW210869   2.029   4.691   0.813
 3324SOL     OW10870   6.271   3.195   1.374
 3324SOL    HW110871   6.232   3.249   1.448
 3324SOL    HW210872   6.246   3.099   1.386
 3325SOL     OW10873   1.414   4.734   5.385
 3325SOL    HW110874   1.500   4.706   5.342
 3325SOL    HW210875   1.383   4.820   5.345
 3326SOL     OW10876   5.363   0.231   2.430
 3326SOL    HW110877   5.277   0.277   2.453
 3326SOL    HW210878   5.370   0.146   2.481
 3327SOL     OW10879   4.757   5.888   1.842
 3327SOL    HW110880   4.758   5.955   1.767
 3327SOL    HW210881   4.849   5.854   1.859
 3328SOL     OW10882   6.548   6.446   4.253
 3328SOL    HW110883   6.458   6.470   4.288
 3328SOL    HW210884   6.618   6.472   4.319
 3329SOL     OW10885   5.392   0.649   5.940
 3329SOL    HW110886   5.424   0.724   5.883
 3329SOL    HW210887   5.348   0.687   6.022
 3330SOL     OW10888   6.418   0.101   3.192
 3330SOL    HW110889   6.468   0.085   3.106
 3330SOL    HW210890   6.331   0.053   3.188
 3331SOL     OW10891   1.451   3.763   2.031
 3331SOL    HW110892   1.514   3.702   2.079
 3331SOL    HW210893   1.479   3.858   2.046
 3332SOL     OW10894   4.247   5.053   0.567
 3332SOL    HW110895   4.268   5.145   0.599
 3332SOL    HW210896   4.154   5.051   0.530
 3333SOL     OW10897   2.155   3.810   0.638
 3333SOL    HW110898   2.240   3.828   0.589
 3333SOL    HW210899   2.111   3.896   0.662
 3334SOL     OW10900   1.763   2.371   2.654
 3334SOL    HW110901   1.767   2.302   2.582
 3334SOL    HW210902   1.686   2.432   2.637
 3335SOL     OW10903   4.067   4.248   5.885
 3335SOL    HW110904   4.107   4.159   5.908
 3335SOL    HW210905   4.139   4.318   5.887
 3336SOL     OW10906   3.946   5.844   6.281
 3336SOL    HW110907   4.035   5.887   6.267
 3336SOL    HW210908   3.954   5.771   6.348
 3337SOL     OW10909   3.014   3.479   4.148
 3337SOL    HW110910   2.962   3.528   4.217
 3337SOL    HW210911   3.034   3.386   4.180
 3338SOL     OW10912   2.717   3.198   1.362
 3338SOL    HW110913   2.776   3.270   1.398
 3338SOL    HW210914   2.630   3.238   1.334
 3339SOL     OW10915   0.825   6.473   6.328
 3339SOL    HW110916   0.882   6.411   6.274
 3339SOL    HW210917   0.840   6.567   6.297
 3340SOL     OW10918   4.853   1.109   6.242
 3340SOL    HW110919   4.892   1.082   6.331
 3340SOL    HW210920   4.758   1.136   6.254
 3341SOL     OW10921   1.513   4.346   1.355
 3341SOL    HW110922   1.465   4.415   1.299
 3341SOL    HW210923   1.530   4.265   1.299
 3342SOL     OW10924   5.952   0.082   2.047
 3342SOL    HW110925   5.897   0.024   2.107
 3342SOL    HW210926   5.897   0.158   2.014
 3343SOL     OW10927   3.241   5.349   0.789
 3343SOL    HW110928   3.237   5.325   0.886
 3343SOL    HW210929   3.160   5.401   0.764
 3344SOL     OW10930   1.219   3.374   1.270
 3344SOL    HW110931   1.205   3.382   1.171
 3344SOL    HW210932   1.132   3.390   1.317
 3345SOL     OW10933   5.034   5.241   1.075
 3345SOL    HW110934   5.119   5.289   1.052
 3345SOL    HW210935   5.045   5.194   1.163
 3346SOL     OW10936   1.291   0.839   6.868
 3346SOL    HW110937   1.351   0.808   6.794
 3346SOL    HW210938   1.201   0.863   6.831
 3347SOL     OW10939   1.003   4.164   5.792
 3347SOL    HW110940   1.075   4.111   5.746
 3347SOL    HW210941   0.977   4.242   5.735
 3348SOL     OW10942   3.441   4.231   5.869
 3348SOL    HW110943   3.459   4.299   5.940
 3348SOL    HW210944   3.514   4.234   5.800
 3349SOL     OW10945   1.649   5.609   1.969
 3349SOL    HW110946   1.671   5.511   1.976
 3349SOL    HW210947   1.636   5.647   2.060
 3350SOL     OW10948   2.796   5.436   5.149
 3350SOL    HW110949   2.784   5.402   5.243
 3350SOL    HW210950   2.893   5.443   5.129
 3351SOL     OW10951   5.394   6.931   1.276
 3351SOL    HW110952   5.389   6.953   1.374
 3351SOL    HW210953   5.418   7.013   1.224
 3352SOL     OW10954   5.636   1.183   0.124
 3352SOL    HW110955   5.545   1.192   0.166
 3352SOL    HW210956   5.659   1.267   0.077
 3353SOL     OW10957   4.083   0.663   6.244
 3353SOL    HW110958   4.148   0.737   6.224
 3353SOL    HW210959   4.021   0.692   6.316
 3354SOL     OW10960   2.173   2.418   0.325
 3354SOL    HW110961   2.219   2.334   0.297
 3354SOL    HW210962   2.235   2.475   0.378
 3355SOL     OW10963   1.545   1.397   4.933
 3355SOL    HW110964   1.576   1.391   4.838
 3355SOL    HW210965   1.513   1.308   4.963
 3356SOL     OW10966   3.416   0.962   5.603
 3356SOL    HW110967   3.324   0.995   5.580
 3356SOL    HW210968   3.483   1.003   5.541
 3357SOL     OW10969   3.098   4.006   3.661
 3357SOL    HW110970   3.087   3.990   3.759
 3357SOL    HW210971   3.039   4.082   3.633
 3358SOL     OW10972   0.250   1.923   1.383
 3358SOL    HW110973   0.153   1.938   1.400
 3358SOL    HW210974   0.262   1.879   1.294
 3359SOL     OW10975   1.315   0.223   3.954
 3359SOL    HW110976   1.269   0.143   3.994
 3359SOL    HW210977   1.414   0.209   3.956
 3360SOL     OW10978   1.285   5.491   5.173
 3360SOL    HW110979   1.349   5.567   5.161
 3360SOL    HW210980   1.247   5.493   5.266
 3361SOL     OW10981   0.500   6.733   4.435
 3361SOL    HW110982   0.407   6.766   4.418
 3361SOL    HW210983   0.505   6.635   4.417
 3362SOL     OW10984   3.563   0.815   4.465
 3362SOL    HW110985   3.512   0.807   4.551
 3362SOL    HW210986   3.502   0.851   4.394
 3363SOL     OW10987   4.628   3.207   0.845
 3363SOL    HW110988   4.703   3.162   0.797
 3363SOL    HW210989   4.628   3.179   0.941
 3364SOL     OW10990   1.680   3.267   1.560
 3364SOL    HW110991   1.702   3.360   1.530
 3364SOL    HW210992   1.699   3.258   1.657
 3365SOL     OW10993   1.071   2.865   2.913
 3365SOL    HW110994   1.126   2.801   2.966
 3365SOL    HW210995   0.989   2.889   2.964
 3366SOL     OW10996   6.006   3.498   4.162
 3366SOL    HW110997   6.015   3.400   4.178
 3366SOL    HW210998   6.095   3.542   4.174
 3367SOL     OW10999   2.941   3.327   3.929
 3367SOL    HW111000   2.965   3.376   3.845
 3367SOL    HW211001   2.973   3.380   4.008
 3368SOL     OW11002   2.116   0.672   3.640
 3368SOL    HW111003   2.140   0.734   3.565
 3368SOL    HW211004   2.200   0.639   3.684
 3369SOL     OW11005   5.046   2.390   1.206
 3369SOL    HW111006   5.131   2.369   1.158
 3369SOL    HW211007   5.022   2.486   1.192
 3370SOL     OW11008   0.482   5.688   3.005
 3370SOL    HW111009   0.406   5.743   3.038
 3370SOL    HW211010   0.529   5.646   3.082
 3371SOL     OW11011   2.510   2.826   1.307
 3371SOL    HW111012   2.459   2.908   1.281
 3371SOL    HW211013   2.576   2.804   1.235
 3372SOL     OW11014   5.618   2.653   3.078
 3372SOL    HW111015   5.641   2.573   3.134
 3372SOL    HW211016   5.566   2.718   3.133
 3373SOL     OW11017   0.404   4.456   0.554
 3373SOL    HW111018   0.411   4.555   0.568
 3373SOL    HW211019   0.442   4.432   0.465
 3374SOL     OW11020   1.254   5.569   4.278
 3374SOL    HW111021   1.169   5.584   4.328
 3374SOL    HW211022   1.321   5.638   4.306
 3375SOL     OW11023   0.052   6.270   5.478
 3375SOL    HW111024   0.088   6.337   5.544
 3375SOL    HW211025   0.013   6.192   5.528
 3376SOL     OW11026   3.374   3.852   5.001
 3376SOL    HW111027   3.425   3.935   5.021
 3376SOL    HW211028   3.301   3.841   5.069
 3377SOL     OW11029   0.259   5.502   4.134
 3377SOL    HW111030   0.214   5.420   4.169
 3377SOL    HW211031   0.358   5.490   4.139
 3378SOL     OW11032   1.233   5.522   0.253
 3378SOL    HW111033   1.273   5.444   0.301
 3378SOL    HW211034   1.157   5.559   0.306
 3379SOL     OW11035   5.578   4.510   4.018
 3379SOL    HW111036   5.624   4.594   4.046
 3379SOL    HW211037   5.488   4.532   3.980
 3380SOL     OW11038   1.978   5.349   1.959
 3380SOL    HW111039   1.990   5.438   1.915
 3380SOL    HW211040   1.892   5.349   2.011
 3381SOL     OW11041   3.034   3.959   6.383
 3381SOL    HW111042   2.976   3.880   6.402
 3381SOL    HW211043   2.977   4.039   6.366
 3382SOL     OW11044   0.399   4.026   6.569
 3382SOL    HW111045   0.499   4.029   6.559
 3382SOL    HW211046   0.376   3.989   6.659
 3383SOL     OW11047   3.064   5.951   0.676
 3383SOL    HW111048   3.141   5.931   0.616
 3383SOL    HW211049   3.097   5.992   0.761
 3384SOL     OW11050   3.100   2.891   6.757
 3384SOL    HW111051   3.115   2.806   6.706
 3384SOL    HW211052   3.124   2.969   6.699
 3385SOL     OW11053   5.739   3.152   4.927
 3385SOL    HW111054   5.707   3.178   4.836
 3385SOL    HW211055   5.670   3.093   4.970
 3386SOL     OW11056   0.072   5.119   5.390
 3386SOL    HW111057   0.137   5.077   5.325
 3386SOL    HW211058   0.006   5.050   5.419
 3387SOL     OW11059   5.914   0.178   2.879
 3387SOL    HW111060   6.005   0.164   2.839
 3387SOL    HW211061   5.917   0.157   2.976
 3388SOL     OW11062   0.899   3.972   0.271
 3388SOL    HW111063   0.886   4.059   0.225
 3388SOL    HW211064   0.871   3.897   0.210
 3389SOL     OW11065   6.310   5.083   6.006
 3389SOL    HW111066   6.257   5.068   5.923
 3389SOL    HW211067   6.248   5.088   6.085
 3390SOL     OW11068   2.943   5.455   1.002
 3390SOL    HW111069   2.932   5.477   0.905
 3390SOL    HW211070   2.883   5.378   1.026
 3391SOL     OW11071   5.540   4.194   5.677
 3391SOL    HW111072   5.515   4.226   5.768
 3391SOL    HW211073   5.494   4.251   5.608
 3392SOL     OW11074   5.166   6.094   5.942
 3392SOL    HW111075   5.143   6.007   5.898
 3392SOL    HW211076   5.242   6.136   5.893
 3393SOL     OW11077   3.438   0.407   0.926
 3393SOL    HW111078   3.468   0.359   1.009
 3393SOL    HW211079   3.486   0.370   0.847
 3394SOL     OW11080   2.633   6.398   1.606
 3394SOL    HW111081   2.594   6.369   1.694
 3394SOL    HW211082   2.657   6.318   1.552
 3395SOL     OW11083   1.991   6.255   3.335
 3395SOL    HW111084   2.065   6.234   3.398
 3395SOL    HW211085   1.903   6.245   3.382
 3396SOL     OW11086   4.460   1.076   4.398
 3396SOL    HW111087   4.377   1.030   4.430
 3396SOL    HW211088   4.527   1.008   4.371
 3397SOL     OW11089   2.182   6.246   1.324
 3397SOL    HW111090   2.243   6.214   1.251
 3397SOL    HW211091   2.200   6.342   1.342
 3398SOL     OW11092   6.724   0.921   0.000
 3398SOL    HW111093   6.630   0.891   0.017
 3398SOL    HW211094   6.745   1.000   0.059
 3399SOL     OW11095   0.060   5.879   2.308
 3399SOL    HW111096   7.024   5.952   2.340
 3399SOL    HW211097   0.019   5.790   2.330
 3400SOL     OW11098   3.462   3.303   5.798
 3400SOL    HW111099   3.476   3.207   5.774
 3400SOL    HW211100   3.491   3.319   5.892
 3401SOL     OW11101   6.483   3.157   4.285
 3401SOL    HW111102   6.563   3.173   4.343
 3401SOL    HW211103   6.511   3.105   4.204
 3402SOL     OW11104   5.188   3.304   6.889
 3402SOL    HW111105   5.196   3.298   6.790
 3402SOL    HW211106   5.251   3.239   6.932
 3403SOL     OW11107   5.437   6.728   4.269
 3403SOL    HW111108   5.439   6.795   4.194
 3403SOL    HW211109   5.442   6.636   4.231
 3404SOL     OW11110   5.385   4.608   3.275
 3404SOL    HW111111   5.411   4.686   3.219
 3404SOL    HW211112   5.365   4.639   3.368
 3405SOL     OW11113   4.250   6.329   1.518
 3405SOL    HW111114   4.229   6.376   1.604
 3405SOL    HW211115   4.174   6.269   1.493
 3406SOL     OW11116   4.349   4.939   1.065
 3406SOL    HW111117   4.259   4.899   1.083
 3406SOL    HW211118   4.365   5.015   1.129
 3407SOL     OW11119   1.299   2.316   0.354
 3407SOL    HW111120   1.233   2.316   0.279
 3407SOL    HW211121   1.313   2.223   0.386
 3408SOL     OW11122   3.611   6.843   3.851
 3408SOL    HW111123   3.648   6.809   3.764
 3408SOL    HW211124   3.609   6.768   3.918
 3409SOL     OW11125   4.508   1.766   6.633
 3409SOL    HW111126   4.591   1.714   6.650
 3409SOL    HW211127   4.514   1.855   6.679
 3410SOL     OW11128   6.777   0.468   2.418
 3410SOL    HW111129   6.721   0.550   2.403
 3410SOL    HW211130   6.802   0.463   2.515
 3411SOL     OW11131   5.870   3.395   6.402
 3411SOL    HW111132   5.911   3.332   6.336
 3411SOL    HW211133   5.909   3.379   6.492
 3412SOL     OW11134   5.259   3.192   3.409
 3412SOL    HW111135   5.206   3.254   3.466
 3412SOL    HW211136   5.283   3.238   3.323
 3413SOL     OW11137   0.834   2.374   1.107
 3413SOL    HW111138   0.794   2.387   1.016
 3413SOL    HW211139   0.776   2.313   1.160
 3414SOL     OW11140   3.939   3.127   2.099
 3414SOL    HW111141   3.951   3.205   2.038
 3414SOL    HW211142   3.960   3.042   2.050
 3415SOL     OW11143   2.449   0.788   6.661
 3415SOL    HW111144   2.359   0.819   6.693
 3415SOL    HW211145   2.439   0.742   6.572
 3416SOL     OW11146   5.093   6.836   5.639
 3416SOL    HW111147   5.177   6.836   5.585
 3416SOL    HW211148   5.087   6.752   5.692
 3417SOL     OW11149   5.894   0.757   2.366
 3417SOL    HW111150   5.858   0.789   2.453
 3417SOL    HW211151   5.946   0.830   2.322
 3418SOL     OW11152   4.069   5.699   0.976
 3418SOL    HW111153   4.017   5.766   1.028
 3418SOL    HW211154   4.159   5.736   0.954
 3419SOL     OW11155   3.104   4.672   5.319
 3419SOL    HW111156   3.038   4.634   5.255
 3419SOL    HW211157   3.183   4.611   5.325
 3420SOL     OW11158   3.901   1.130   1.540
 3420SOL    HW111159   3.994   1.124   1.502
 3420SOL    HW211160   3.899   1.201   1.610
 3421SOL     OW11161   0.610   1.057   4.218
 3421SOL    HW111162   0.549   1.103   4.282
 3421SOL    HW211163   0.564   1.045   4.130
 3422SOL     OW11164   3.150   5.426   1.539
 3422SOL    HW111165   3.168   5.411   1.442
 3422SOL    HW211166   3.131   5.338   1.583
 3423SOL     OW11167   1.885   4.954   6.278
 3423SOL    HW111168   1.790   4.984   6.273
 3423SOL    HW211169   1.898   4.899   6.360
 3424SOL     OW11170   5.629   6.616   2.423
 3424SOL    HW111171   5.721   6.582   2.404
 3424SOL    HW211172   5.563   6.563   2.370
 3425SOL     OW11173   5.631   2.799   6.442
 3425SOL    HW111174   5.649   2.759   6.352
 3425SOL    HW211175   5.533   2.820   6.449
 3426SOL     OW11176   6.746   5.661   6.734
 3426SOL    HW111177   6.732   5.759   6.718
 3426SOL    HW211178   6.658   5.617   6.753
 3427SOL     OW11179   1.908   1.367   6.650
 3427SOL    HW111180   1.904   1.464   6.626
 3427SOL    HW211181   1.917   1.313   6.567
 3428SOL     OW11182   4.513   0.384   4.055
 3428SOL    HW111183   4.460   0.468   4.053
 3428SOL    HW211184   4.466   0.316   4.111
 3429SOL     OW11185   4.375   6.121   0.882
 3429SOL    HW111186   4.414   6.159   0.798
 3429SOL    HW211187   4.284   6.159   0.896
 3430SOL     OW11188   2.168   4.599   6.899
 3430SOL    HW111189   2.199   4.527   6.837
 3430SOL    HW211190   2.234   4.673   6.901
 3431SOL     OW11191   1.143   4.237   2.669
 3431SOL    HW111192   1.174   4.304   2.737
 3431SOL    HW211193   1.173   4.146   2.696
 3432SOL     OW11194   0.184   5.302   6.561
 3432SOL    HW111195   0.096   5.274   6.601
 3432SOL    HW211196   0.253   5.308   6.634
 3433SOL     OW11197   0.799   0.998   0.408
 3433SOL    HW111198   0.771   1.009   0.313
 3433SOL    HW211199   0.774   1.080   0.460
 3434SOL     OW11200   4.322   2.304   2.390
 3434SOL    HW111201   4.263   2.305   2.309
 3434SOL    HW211202   4.268   2.326   2.471
 3435SOL     OW11203   2.717   2.843   1.001
 3435SOL    HW111204   2.768   2.858   0.916
 3435SOL    HW211205   2.741   2.913   1.067
 3436SOL     OW11206   4.383   5.611   5.541
 3436SOL    HW111207   4.438   5.565   5.470
 3436SOL    HW211208   4.370   5.707   5.517
 3437SOL     OW11209   1.417   6.560   0.314
 3437SOL    HW111210   1.488   6.586   0.249
 3437SOL    HW211211   1.339   6.522   0.264
 3438SOL     OW11212   2.348   4.320   0.139
 3438SOL    HW111213   2.254   4.324   0.105
 3438SOL    HW211214   2.366   4.228   0.172
 3439SOL     OW11215   2.849   6.251   1.207
 3439SOL    HW111216   2.927   6.291   1.158
 3439SOL    HW211217   2.817   6.171   1.158
 3440SOL     OW11218   4.131   3.941   5.803
 3440SOL    HW111219   4.149   3.855   5.756
 3440SOL    HW211220   4.058   3.990   5.756
 3441SOL     OW11221   0.028   5.213   4.969
 3441SOL    HW111222   0.020   5.137   5.034
 3441SOL    HW211223   0.024   5.300   5.019
 3442SOL     OW11224   0.919   2.003   0.284
 3442SOL    HW111225   0.844   2.049   0.331
 3442SOL    HW211226   0.932   2.045   0.194
 3443SOL     OW11227   7.004   5.632   2.399
 3443SOL    HW111228   6.960   5.576   2.329
 3443SOL    HW211229   6.993   5.588   2.489
 3444SOL     OW11230   0.969   3.986   6.505
 3444SOL    HW111231   0.945   3.962   6.599
 3444SOL    HW211232   1.068   3.979   6.493
 3445SOL     OW11233   6.164   5.360   4.271
 3445SOL    HW111234   6.182   5.269   4.235
 3445SOL    HW211235   6.091   5.355   4.339
 3446SOL     OW11236   4.813   1.625   0.204
 3446SOL    HW111237   4.866   1.566   0.142
 3446SOL    HW211238   4.874   1.693   0.245
 3447SOL     OW11239   5.652   1.518   5.575
 3447SOL    HW111240   5.603   1.447   5.525
 3447SOL    HW211241   5.601   1.604   5.568
 3448SOL     OW11242   0.798   5.309   5.138
 3448SOL    HW111243   0.870   5.372   5.107
 3448SOL    HW211244   0.840   5.230   5.181
 3449SOL     OW11245   1.741   3.750   4.881
 3449SOL    HW111246   1.828   3.730   4.926
 3449SOL    HW211247   1.711   3.670   4.829
 3450SOL     OW11248   2.373   7.011   2.539
 3450SOL    HW111249   2.342   0.041   2.462
 3450SOL    HW211250   2.299   7.001   2.605
 3451SOL     OW11251   2.067   1.910   0.751
 3451SOL    HW111252   2.060   1.996   0.801
 3451SOL    HW211253   2.139   1.917   0.682
 3452SOL     OW11254   4.681   1.388   5.606
 3452SOL    HW111255   4.624   1.394   5.688
 3452SOL    HW211256   4.707   1.293   5.590
 3453SOL     OW11257   4.414   5.890   5.475
 3453SOL    HW111258   4.498   5.909   5.423
 3453SOL    HW211259   4.375   5.976   5.509
 3454SOL     OW11260   0.932   2.945   3.661
 3454SOL    HW111261   0.926   3.000   3.745
 3454SOL    HW211262   0.841   2.916   3.633
 3455SOL     OW11263   1.509   4.128   6.639
 3455SOL    HW111264   1.592   4.118   6.694
 3455SOL    HW211265   1.485   4.225   6.633
 3456SOL     OW11266   4.158   5.374   2.658
 3456SOL    HW111267   4.218   5.372   2.738
 3456SOL    HW211268   4.209   5.405   2.578
 3457SOL     OW11269   4.144   3.938   6.817
 3457SOL    HW111270   4.124   4.036   6.817
 3457SOL    HW211271   4.081   3.891   6.879
 3458SOL     OW11272   4.535   1.960   0.977
 3458SOL    HW111273   4.618   1.955   0.921
 3458SOL    HW211274   4.548   1.905   1.060
 3459SOL     OW11275   6.730   6.826   2.780
 3459SOL    HW111276   6.779   6.744   2.805
 3459SOL    HW211277   6.644   6.831   2.831
 3460SOL     OW11278   4.521   1.392   5.121
 3460SOL    HW111279   4.532   1.299   5.157
 3460SOL    HW211280   4.567   1.456   5.182
 3461SOL     OW11281   4.467   4.486   3.687
 3461SOL    HW111282   4.516   4.425   3.749
 3461SOL    HW211283   4.473   4.580   3.720
 3462SOL     OW11284   1.418   4.419   6.632
 3462SOL    HW111285   1.351   4.401   6.560
 3462SOL    HW211286   1.371   4.456   6.712
 3463SOL     OW11287   5.586   4.253   6.960
 3463SOL    HW111288   5.578   4.346   6.997
 3463SOL    HW211289   5.606   4.189   0.009
 3464SOL     OW11290   6.829   4.999   3.654
 3464SOL    HW111291   6.876   4.921   3.614
 3464SOL    HW211292   6.855   5.083   3.606
 3465SOL     OW11293   0.891   2.856   1.494
 3465SOL    HW111294   0.987   2.834   1.476
 3465SOL    HW211295   0.843   2.775   1.527
 3466SOL     OW11296   5.956   3.682   3.170
 3466SOL    HW111297   5.997   3.617   3.234
 3466SOL    HW211298   6.021   3.700   3.096
 3467SOL     OW11299   1.678   2.051   5.524
 3467SOL    HW111300   1.720   2.107   5.595
 3467SOL    HW211301   1.685   1.954   5.549
 3468SOL     OW11302   4.850   5.411   1.893
 3468SOL    HW111303   4.783   5.358   1.945
 3468SOL    HW211304   4.942   5.383   1.919
 3469SOL     OW11305   4.989   3.879   0.103
 3469SOL    HW111306   5.080   3.885   0.061
 3469SOL    HW211307   4.964   3.783   0.115
 3470SOL     OW11308   6.323   5.710   0.058
 3470SOL    HW111309   6.339   5.665   0.146
 3470SOL    HW211310   6.225   5.714   0.039
 3471SOL     OW11311   4.558   6.670   4.665
 3471SOL    HW111312   4.542   6.764   4.694
 3471SOL    HW211313   4.474   6.616   4.676
 3472SOL     OW11314   3.915   0.263   4.647
 3472SOL    HW111315   3.976   0.202   4.597
 3472SOL    HW211316   3.964   0.301   4.726
 3473SOL     OW11317   4.578   6.304   4.057
 3473SOL    HW111318   4.480   6.325   4.062
 3473SOL    HW211319   4.596   6.251   3.974
 3474SOL     OW11320   4.542   4.656   0.130
 3474SOL    HW111321   4.492   4.610   0.057
 3474SOL    HW211322   4.622   4.702   0.091
 3475SOL     OW11323   0.971   5.365   5.547
 3475SOL    HW111324   1.000   5.455   5.581
 3475SOL    HW211325   0.871   5.362   5.543
 3476SOL     OW11326   3.944   1.793   3.367
 3476SOL    HW111327   3.860   1.817   3.414
 3476SOL    HW211328   3.959   1.856   3.290
 3477SOL     OW11329   4.455   5.769   2.244
 3477SOL    HW111330   4.460   5.690   2.182
 3477SOL    HW211331   4.543   5.781   2.290
 3478SOL     OW11332   3.810   4.580   0.526
 3478SOL    HW111333   3.721   4.548   0.560
 3478SOL    HW211334   3.875   4.504   0.527
 3479SOL     OW11335   1.905   0.758   0.733
 3479SOL    HW111336   1.844   0.773   0.655
 3479SOL    HW211337   1.893   0.665   0.767
 3480SOL     OW11338   1.177   6.524   4.477
 3480SOL    HW111339   1.259   6.468   4.493
 3480SOL    HW211340   1.120   6.524   4.560
 3481SOL     OW11341   2.275   5.394   0.501
 3481SOL    HW111342   2.350   5.441   0.547
 3481SOL    HW211343   2.286   5.403   0.402
 3482SOL     OW11344   0.357   2.037   1.628
 3482SOL    HW111345   0.411   1.974   1.682
 3482SOL    HW211346   0.310   1.987   1.555
 3483SOL     OW11347   3.906   1.276   1.211
 3483SOL    HW111348   3.977   1.208   1.224
 3483SOL    HW211349   3.895   1.296   1.114
 3484SOL     OW11350   3.754   4.135   3.217
 3484SOL    HW111351   3.756   4.233   3.234
 3484SOL    HW211352   3.743   4.086   3.303
 3485SOL     OW11353   5.855   2.233   4.558
 3485SOL    HW111354   5.950   2.257   4.541
 3485SOL    HW211355   5.807   2.313   4.594
 3486SOL     OW11356   6.357   1.455   3.107
 3486SOL    HW111357   6.303   1.423   3.185
 3486SOL    HW211358   6.311   1.431   3.022
 3487SOL     OW11359   1.516   0.467   0.765
 3487SOL    HW111360   1.496   0.467   0.863
 3487SOL    HW211361   1.524   0.561   0.733
 3488SOL     OW11362   6.483   3.718   5.260
 3488SOL    HW111363   6.581   3.726   5.242
 3488SOL    HW211364   6.445   3.643   5.207
 3489SOL     OW11365   3.265   5.351   0.024
 3489SOL    HW111366   3.327   5.293   6.997
 3489SOL    HW211367   3.232   5.426   6.993
 3490SOL     OW11368   4.692   3.585   0.224
 3490SOL    HW111369   4.616   3.649   0.220
 3490SOL    HW211370   4.687   3.523   0.145
 3491SOL     OW11371   5.506   2.723   5.037
 3491SOL    HW111372   5.417   2.753   5.000
 3491SOL    HW211373   5.537   2.789   5.105
 3492SOL     OW11374   6.561   4.368   6.533
 3492SOL    HW111375   6.539   4.412   6.446
 3492SOL    HW211376   6.623   4.428   6.585
 3493SOL     OW11377   6.222   4.694   0.993
 3493SOL    HW111378   6.207   4.769   0.928
 3493SOL    HW211379   6.203   4.607   0.948
 3494SOL     OW11380   3.494   6.752   1.335
 3494SOL    HW111381   3.544   6.809   1.270
 3494SOL    HW211382   3.441   6.684   1.285
 3495SOL     OW11383   6.127   4.844   6.427
 3495SOL    HW111384   6.034   4.807   6.431
 3495SOL    HW211385   6.188   4.776   6.386
 3496SOL     OW11386   0.265   6.082   0.938
 3496SOL    HW111387   0.281   6.180   0.931
 3496SOL    HW211388   0.303   6.048   1.025
 3497SOL     OW11389   2.819   0.182   5.048
 3497SOL    HW111390   2.876   0.173   5.130
 3497SOL    HW211391   2.836   0.104   4.988
 3498SOL     OW11392   0.846   1.733   0.361
 3498SOL    HW111393   0.882   1.822   0.334
 3498SOL    HW211394   0.915   1.663   0.343
 3499SOL     OW11395   6.356   4.133   3.875
 3499SOL    HW111396   6.331   4.227   3.852
 3499SOL    HW211397   6.283   4.090   3.927
 3500SOL     OW11398   6.081   2.918   1.053
 3500SOL    HW111399   6.089   2.901   1.152
 3500SOL    HW211400   6.140   2.853   1.004
 3501SOL     OW11401   0.357   4.794   3.389
 3501SOL    HW111402   0.372   4.844   3.474
 3501SOL    HW211403   0.350   4.859   3.313
 3502SOL     OW11404   1.099   6.166   1.116
 3502SOL    HW111405   1.060   6.217   1.039
 3502SOL    HW211406   1.029   6.152   1.186
 3503SOL     OW11407   3.394   0.071   3.711
 3503SOL    HW111408   3.396   7.003   3.677
 3503SOL    HW211409   3.454   0.129   3.656
 3504SOL     OW11410   2.233   3.071   2.919
 3504SOL    HW111411   2.160   3.138   2.909
 3504SOL    HW211412   2.320   3.110   2.890
 3505SOL     OW11413   4.307   6.343   4.453
 3505SOL    HW111414   4.222   6.391   4.431
 3505SOL    HW211415   4.288   6.245   4.459
 3506SOL     OW11416   6.899   4.290   2.576
 3506SOL    HW111417   6.991   4.267   2.607
 3506SOL    HW211418   6.898   4.381   2.537
 3507SOL     OW11419   6.827   0.374   6.046
 3507SOL    HW111420   6.807   0.467   6.015
 3507SOL    HW211421   6.765   0.350   6.121
 3508SOL     OW11422   6.731   4.561   6.926
 3508SOL    HW111423   6.775   4.471   6.932
 3508SOL    HW211424   6.748   4.601   6.835
 3509SOL     OW11425   5.053   6.867   6.842
 3509SOL    HW111426   5.047   6.909   6.751
 3509SOL    HW211427   5.062   6.938   6.911
 3510SOL     OW11428   2.091   1.206   2.532
 3510SOL    HW111429   2.141   1.211   2.445
 3510SOL    HW211430   2.123   1.278   2.593
 3511SOL     OW11431   0.899   0.891   4.010
 3511SOL    HW111432   0.928   0.894   3.914
 3511SOL    HW211433   0.890   0.985   4.045
 3512SOL     OW11434   3.778   3.564   1.646
 3512SOL    HW111435   3.847   3.636   1.640
 3512SOL    HW211436   3.791   3.512   1.730
 3513SOL     OW11437   6.634   4.426   0.925
 3513SOL    HW111438   6.722   4.473   0.918
 3513SOL    HW211439   6.631   4.372   1.009
 3514SOL     OW11440   3.098   5.893   2.824
 3514SOL    HW111441   3.129   5.867   2.733
 3514SOL    HW211442   3.024   5.961   2.816
 3515SOL     OW11443   3.604   5.477   3.550
 3515SOL    HW111444   3.572   5.572   3.550
 3515SOL    HW211445   3.614   5.446   3.456
 3516SOL     OW11446   1.343   1.280   0.598
 3516SOL    HW111447   1.248   1.268   0.626
 3516SOL    HW211448   1.349   1.279   0.498
 3517SOL     OW11449   0.369   0.602   7.020
 3517SOL    HW111450   0.444   0.665   7.006
 3517SOL    HW211451   0.404   0.508   7.023
 3518SOL     OW11452   4.130   3.699   6.207
 3518SOL    HW111453   4.201   3.630   6.191
 3518SOL    HW211454   4.060   3.692   6.136
 3519SOL     OW11455   3.663   0.417   0.186
 3519SOL    HW111456   3.712   0.500   0.159
 3519SOL    HW211457   3.565   0.433   0.181
 3520SOL     OW11458   3.967   4.871   1.560
 3520SOL    HW111459   3.959   4.813   1.641
 3520SOL    HW211460   3.981   4.966   1.588
 3521SOL     OW11461   6.683   2.114   5.784
 3521SOL    HW111462   6.683   2.048   5.709
 3521SOL    HW211463   6.619   2.085   5.855
 3522SOL     OW11464   2.138   0.727   1.017
 3522SOL    HW111465   2.100   0.665   0.949
 3522SOL    HW211466   2.216   0.775   0.978
 3523SOL     OW11467   2.493   4.622   5.148
 3523SOL    HW111468   2.429   4.678   5.201
 3523SOL    HW211469   2.482   4.642   5.051
 3524SOL     OW11470   3.036   1.715   3.425
 3524SOL    HW111471   3.099   1.720   3.348
 3524SOL    HW211472   3.043   1.626   3.469
 3525SOL     OW11473   1.380   3.401   3.280
 3525SOL    HW111474   1.429   3.315   3.288
 3525SOL    HW211475   1.405   3.446   3.194
 3526SOL     OW11476   3.288   6.097   3.312
 3526SOL    HW111477   3.315   6.132   3.222
 3526SOL    HW211478   3.276   5.998   3.307
 3527SOL     OW11479   6.265   3.947   6.852
 3527SOL    HW111480   6.214   3.869   6.888
 3527SOL    HW211481   6.349   3.914   6.808
 3528SOL     OW11482   1.137   0.188   4.559
 3528SOL    HW111483   1.197   0.262   4.590
 3528SOL    HW211484   1.042   0.209   4.582
 3529SOL     OW11485   3.584   5.540   0.494
 3529SOL    HW111486   3.505   5.592   0.526
 3529SOL    HW211487   3.586   5.451   0.540
 3530SOL     OW11488   1.963   5.687   3.116
 3530SOL    HW111489   2.042   5.630   3.093
 3530SOL    HW211490   1.880   5.630   3.116
 3531SOL     OW11491   4.968   4.667   0.036
 3531SOL    HW111492   5.025   4.587   0.055
 3531SOL    HW211493   5.026   4.746   0.020
 3532SOL     OW11494   2.457   6.308   0.458
 3532SOL    HW111495   2.461   6.343   0.551
 3532SOL    HW211496   2.404   6.223   0.456
 3533SOL     OW11497   1.590   0.797   3.166
 3533SOL    HW111498   1.553   0.878   3.120
 3533SOL    HW211499   1.565   0.715   3.115
 3534SOL     OW11500   5.162   6.926   4.328
 3534SOL    HW111501   5.221   6.863   4.379
 3534SOL    HW211502   5.080   6.878   4.299
 3535SOL     OW11503   4.782   5.640   0.208
 3535SOL    HW111504   4.732   5.723   0.185
 3535SOL    HW211505   4.732   5.560   0.172
 3536SOL     OW11506   1.950   3.477   2.408
 3536SOL    HW111507   1.893   3.401   2.376
 3536SOL    HW211508   1.891   3.547   2.449
 3537SOL     OW11509   3.179   4.898   2.094
 3537SOL    HW111510   3.121   4.877   2.015
 3537SOL    HW211511   3.130   4.877   2.178
 3538SOL     OW11512   3.676   0.384   3.297
 3538SOL    HW111513   3.711   0.402   3.389
 3538SOL    HW211514   3.727   0.308   3.256
 3539SOL     OW11515   4.798   5.225   4.933
 3539SOL    HW111516   4.712   5.213   4.983
 3539SOL    HW211517   4.779   5.265   4.844
 3540SOL     OW11518   4.561   4.265   6.577
 3540SOL    HW111519   4.495   4.224   6.639
 3540SOL    HW211520   4.545   4.364   6.572
 3541SOL     OW11521   0.291   2.691   2.476
 3541SOL    HW111522   0.315   2.606   2.429
 3541SOL    HW211523   0.348   2.766   2.442
 3542SOL     OW11524   5.664   1.435   0.004
 3542SOL    HW111525   5.565   1.452   0.004
 3542SOL    HW211526   5.712   1.519   7.003
 3543SOL     OW11527   6.865   3.414   4.179
 3543SOL    HW111528   6.784   3.445   4.228
 3543SOL    HW211529   6.869   3.461   4.090
 3544SOL     OW11530   2.941   4.476   6.246
 3544SOL    HW111531   2.893   4.395   6.211
 3544SOL    HW211532   2.972   4.532   6.169
 3545SOL     OW11533   2.701   6.639   0.942
 3545SOL    HW111534   2.688   6.738   0.939
 3545SOL    HW211535   2.786   6.617   0.990
 3546SOL     OW11536   6.693   4.793   0.866
 3546SOL    HW111537   6.752   4.787   0.946
 3546SOL    HW211538   6.722   4.725   0.799
 3547SOL     OW11539   1.166   3.657   4.672
 3547SOL    HW111540   1.248   3.601   4.659
 3547SOL    HW211541   1.190   3.753   4.657
 3548SOL     OW11542   6.498   0.449   5.796
 3548SOL    HW111543   6.526   0.363   5.754
 3548SOL    HW211544   6.570   0.482   5.857
 3549SOL     OW11545   2.318   6.802   6.623
 3549SOL    HW111546   2.404   6.812   6.574
 3549SOL    HW211547   2.330   6.738   6.699
 3550SOL     OW11548   6.018   2.063   5.423
 3550SOL    HW111549   6.016   2.161   5.407
 3550SOL    HW211550   5.973   2.041   5.509
 3551SOL     OW11551   6.349   1.229   4.831
 3551SOL    HW111552   6.410   1.257   4.905
 3551SOL    HW211553   6.401   1.181   4.761
 3552SOL     OW11554   6.807   0.768   3.180
 3552SOL    HW111555   6.872   0.739   3.251
 3552SOL    HW211556   6.724   0.801   3.223
 3553SOL     OW11557   5.518   6.245   6.054
 3553SOL    HW111558   5.597   6.304   6.068
 3553SOL    HW211559   5.453   6.257   6.128
 3554SOL     OW11560   5.402   4.235   6.083
 3554SOL    HW111561   5.416   4.331   6.060
 3554SOL    HW211562   5.477   4.180   6.046
 3555SOL     OW11563   2.962   1.351   5.520
 3555SOL    HW111564   3.049   1.389   5.488
 3555SOL    HW211565   2.917   1.302   5.446
 3556SOL     OW11566   5.849   1.740   0.531
 3556SOL    HW111567   5.776   1.695   0.480
 3556SOL    HW211568   5.815   1.828   0.566
 3557SOL     OW11569   4.939   6.579   1.371
 3557SOL    HW111570   5.035   6.605   1.356
 3557SOL    HW211571   4.895   6.562   1.283
 3558SOL     OW11572   3.957   5.546   2.705
 3558SOL    HW111573   4.032   5.483   2.687
 3558SOL    HW211574   3.940   5.602   2.624
 3559SOL     OW11575   4.328   6.311   6.104
 3559SOL    HW111576   4.423   6.281   6.118
 3559SOL    HW211577   4.274   6.235   6.068
 3560SOL     OW11578   2.067   5.945   4.570
 3560SOL    HW111579   2.116   5.910   4.651
 3560SOL    HW211580   2.125   5.932   4.489
 3561SOL     OW11581   3.705   3.030   5.977
 3561SOL    HW111582   3.728   2.933   5.990
 3561SOL    HW211583   3.690   3.047   5.879
 3562SOL     OW11584   3.150   1.202   0.231
 3562SOL    HW111585   3.145   1.137   0.307
 3562SOL    HW211586   3.121   1.157   0.146
 3563SOL     OW11587   0.006   2.149   6.950
 3563SOL    HW111588   6.986   2.234   6.925
 3563SOL    HW211589   7.017   2.130   0.021
 3564SOL     OW11590   6.120   3.717   2.965
 3564SOL    HW111591   6.092   3.670   2.881
 3564SOL    HW211592   6.193   3.781   2.944
 3565SOL     OW11593   5.181   0.015   4.647
 3565SOL    HW111594   5.241   6.982   4.593
 3565SOL    HW211595   5.231   0.096   4.677
 3566SOL     OW11596   0.644   1.114   5.264
 3566SOL    HW111597   0.569   1.138   5.327
 3566SOL    HW211598   0.715   1.183   5.270
 3567SOL     OW11599   0.314   4.685   6.551
 3567SOL    HW111600   0.239   4.742   6.582
 3567SOL    HW211601   0.384   4.680   6.622
 3568SOL     OW11602   3.502   3.950   5.551
 3568SOL    HW111603   3.423   4.000   5.588
 3568SOL    HW211604   3.550   3.904   5.626
 3569SOL     OW11605   1.526   0.587   3.020
 3569SOL    HW111606   1.552   0.618   2.929
 3569SOL    HW211607   1.508   0.488   3.017
 3570SOL     OW11608   6.806   1.996   4.675
 3570SOL    HW111609   6.833   2.070   4.613
 3570SOL    HW211610   6.800   2.032   4.768
 3571SOL     OW11611   6.608   5.405   4.554
 3571SOL    HW111612   6.539   5.441   4.618
 3571SOL    HW211613   6.606   5.305   4.556
 3572SOL     OW11614   5.968   0.013   5.244
 3572SOL    HW111615   6.050   6.996   5.282
 3572SOL    HW211616   5.887   6.991   5.279
 3573SOL     OW11617   0.535   2.241   1.778
 3573SOL    HW111618   0.581   2.238   1.867
 3573SOL    HW211619   0.510   2.149   1.750
 3574SOL     OW11620   6.706   3.667   0.121
 3574SOL    HW111621   6.679   3.726   0.044
 3574SOL    HW211622   6.737   3.724   0.197
 3575SOL     OW11623   5.998   0.365   2.568
 3575SOL    HW111624   6.085   0.400   2.532
 3575SOL    HW211625   5.947   0.322   2.493
 3576SOL     OW11626   0.975   0.970   0.761
 3576SOL    HW111627   0.906   1.028   0.805
 3576SOL    HW211628   0.932   0.886   0.729
 3577SOL     OW11629   2.604   4.932   0.118
 3577SOL    HW111630   2.563   4.931   0.026
 3577SOL    HW211631   2.531   4.927   0.186
 3578SOL     OW11632   3.407   4.601   1.614
 3578SOL    HW111633   3.474   4.604   1.688
 3578SOL    HW211634   3.344   4.678   1.623
 3579SOL     OW11635   1.875   3.020   5.837
 3579SOL    HW111636   1.867   3.022   5.737
 3579SOL    HW211637   1.962   3.060   5.864
 3580SOL     OW11638   5.891   2.094   1.519
 3580SOL    HW111639   5.896   2.017   1.455
 3580SOL    HW211640   5.944   2.170   1.484
 3581SOL     OW11641   0.154   1.054   2.938
 3581SOL    HW111642   0.210   0.971   2.936
 3581SOL    HW211643   0.061   1.031   2.966
 3582SOL     OW11644   0.498   0.086   5.859
 3582SOL    HW111645   0.403   0.105   5.884
 3582SOL    HW211646   0.524   7.023   5.896
 3583SOL     OW11647   1.377   6.282   1.513
 3583SOL    HW111648   1.331   6.370   1.506
 3583SOL    HW211649   1.350   6.224   1.436
 3584SOL     OW11650   5.293   0.227   4.800
 3584SOL    HW111651   5.347   0.311   4.800
 3584SOL    HW211652   5.196   0.250   4.806
 3585SOL     OW11653   2.636   4.608   3.500
 3585SOL    HW111654   2.666   4.674   3.569
 3585SOL    HW211655   2.708   4.595   3.432
 3586SOL     OW11656   1.125   1.083   6.500
 3586SOL    HW111657   1.214   1.049   6.469
 3586SOL    HW211658   1.103   1.042   6.588
 3587SOL     OW11659   3.957   6.867   6.258
 3587SOL    HW111660   3.997   6.959   6.260
 3587SOL    HW211661   3.871   6.869   6.208
 3588SOL     OW11662   2.573   2.370   5.393
 3588SOL    HW111663   2.489   2.330   5.357
 3588SOL    HW211664   2.616   2.305   5.456
 3589SOL     OW11665   3.115   6.099   4.849
 3589SOL    HW111666   3.026   6.107   4.896
 3589SOL    HW211667   3.106   6.037   4.772
 3590SOL     OW11668   1.213   5.172   0.099
 3590SOL    HW111669   1.238   5.105   0.029
 3590SOL    HW211670   1.258   5.260   0.078
 3591SOL     OW11671   5.218   1.003   5.386
 3591SOL    HW111672   5.318   1.009   5.376
 3591SOL    HW211673   5.176   1.088   5.354
 3592SOL     OW11674   5.925   1.816   1.834
 3592SOL    HW111675   5.985   1.871   1.892
 3592SOL    HW211676   5.894   1.736   1.885
 3593SOL     OW11677   1.063   5.514   4.456
 3593SOL    HW111678   1.027   5.605   4.477
 3593SOL    HW211679   1.076   5.463   4.540
 3594SOL     OW11680   3.943   1.355   4.243
 3594SOL    HW111681   3.884   1.345   4.163
 3594SOL    HW211682   4.030   1.308   4.225
 3595SOL     OW11683   2.479   6.501   6.360
 3595SOL    HW111684   2.380   6.491   6.357
 3595SOL    HW211685   2.519   6.426   6.413
 3596SOL     OW11686   0.052   3.825   3.270
 3596SOL    HW111687   0.108   3.745   3.251
 3596SOL    HW211688   0.056   3.847   3.367
 3597SOL     OW11689   4.172   6.931   4.220
 3597SOL    HW111690   4.186   6.856   4.155
 3597SOL    HW211691   4.243   6.928   4.290
 3598SOL     OW11692   1.959   0.259   0.143
 3598SOL    HW111693   2.045   0.236   0.097
 3598SOL    HW211694   1.978   0.284   0.238
 3599SOL     OW11695   0.142   1.611   4.640
 3599SOL    HW111696   0.174   1.588   4.732
 3599SOL    HW211697   0.088   1.695   4.644
 3600SOL     OW11698   6.596   6.699   1.231
 3600SOL    HW111699   6.529   6.771   1.217
 3600SOL    HW211700   6.685   6.739   1.254
 3601SOL     OW11701   6.832   3.314   5.965
 3601SOL    HW111702   6.924   3.326   6.003
 3601SOL    HW211703   6.765   3.352   6.029
 3602SOL     OW11704   3.262   2.391   1.253
 3602SOL    HW111705   3.224   2.359   1.340
 3602SOL    HW211706   3.277   2.313   1.193
 3603SOL     OW11707   3.997   4.946   4.794
 3603SOL    HW111708   3.911   4.957   4.745
 3603SOL    HW211709   4.073   4.959   4.730
 3604SOL     OW11710   6.240   3.934   3.233
 3604SOL    HW111711   6.176   3.928   3.156
 3604SOL    HW211712   6.304   4.008   3.217
 3605SOL     OW11713   6.274   1.720   6.612
 3605SOL    HW111714   6.335   1.800   6.607
 3605SOL    HW211715   6.284   1.665   6.529
 3606SOL     OW11716   2.030   4.243   2.773
 3606SOL    HW111717   2.088   4.293   2.837
 3606SOL    HW211718   2.008   4.302   2.695
 3607SOL     OW11719   4.647   0.181   5.667
 3607SOL    HW111720   4.554   0.165   5.702
 3607SOL    HW211721   4.696   0.094   5.664
 3608SOL     OW11722   0.596   2.833   3.258
 3608SOL    HW111723   0.629   2.919   3.297
 3608SOL    HW211724   0.504   2.813   3.291
 3609SOL     OW11725   6.979   0.707   3.378
 3609SOL    HW111726   0.012   0.755   3.444
 3609SOL    HW211727   6.977   0.610   3.399
 3610SOL     OW11728   1.463   5.188   5.632
 3610SOL    HW111729   1.403   5.195   5.711
 3610SOL    HW211730   1.465   5.276   5.584
 3611SOL     OW11731   5.035   5.270   5.052
 3611SOL    HW111732   5.061   5.366   5.063
 3611SOL    HW211733   4.943   5.265   5.011
 3612SOL     OW11734   2.056   6.148   0.794
 3612SOL    HW111735   2.152   6.120   0.786
 3612SOL    HW211736   2.044   6.201   0.878
 3613SOL     OW11737   5.304   5.305   6.322
 3613SOL    HW111738   5.302   5.207   6.342
 3613SOL    HW211739   5.396   5.332   6.297
 3614SOL     OW11740   3.370   2.935   4.444
 3614SOL    HW111741   3.306   2.927   4.368
 3614SOL    HW211742   3.409   3.027   4.446
 3615SOL     OW11743   5.058   0.101   5.547
 3615SOL    HW111744   5.123   0.067   5.615
 3615SOL    HW211745   5.040   0.030   5.480
 3616SOL     OW11746   6.166   1.443   4.510
 3616SOL    HW111747   6.220   1.455   4.427
 3616SOL    HW211748   6.202   1.504   4.582
 3617SOL     OW11749   0.409   0.930   0.608
 3617SOL    HW111750   0.366   0.995   0.546
 3617SOL    HW211751   0.342   0.899   0.675
 3618SOL     OW11752   3.273   6.172   5.926
 3618SOL    HW111753   3.364   6.156   5.965
 3618SOL    HW211754   3.264   6.268   5.903
 3619SOL     OW11755   5.138   3.730   3.685
 3619SOL    HW111756   5.157   3.695   3.593
 3619SOL    HW211757   5.224   3.734   3.737
 3620SOL     OW11758   6.046   1.494   4.992
 3620SOL    HW111759   6.063   1.424   4.922
 3620SOL    HW211760   6.118   1.491   5.060
 3621SOL     OW11761   1.285   2.551   5.363
 3621SOL    HW111762   1.338   2.621   5.412
 3621SOL    HW211763   1.337   2.519   5.283
 3622SOL     OW11764   0.751   4.010   0.803
 3622SOL    HW111765   0.848   3.988   0.790
 3622SOL    HW211766   0.699   3.925   0.814
 3623SOL     OW11767   6.497   4.847   4.665
 3623SOL    HW111768   6.473   4.941   4.637
 3623SOL    HW211769   6.503   4.789   4.583
 3624SOL     OW11770   2.373   0.592   1.405
 3624SOL    HW111771   2.304   0.660   1.379
 3624SOL    HW211772   2.450   0.595   1.342
 3625SOL     OW11773   0.991   2.758   4.383
 3625SOL    HW111774   1.008   2.659   4.387
 3625SOL    HW211775   1.076   2.806   4.364
 3626SOL     OW11776   2.302   3.933   5.717
 3626SOL    HW111777   2.369   3.894   5.781
 3626SOL    HW211778   2.349   3.990   5.650
 3627SOL     OW11779   3.644   3.406   4.220
 3627SOL    HW111780   3.720   3.357   4.263
 3627SOL    HW211781   3.665   3.424   4.124
 3628SOL     OW11782   2.308   5.916   4.376
 3628SOL    HW111783   2.295   5.894   4.279
 3628SOL    HW211784   2.344   5.837   4.424
 3629SOL     OW11785   5.855   3.472   5.131
 3629SOL    HW111786   5.757   3.453   5.125
 3629SOL    HW211787   5.873   3.530   5.210
 3630SOL     OW11788   5.640   1.278   4.964
 3630SOL    HW111789   5.568   1.217   4.999
 3630SOL    HW211790   5.682   1.237   4.883
 3631SOL     OW11791   2.209   0.774   4.016
 3631SOL    HW111792   2.176   0.781   4.110
 3631SOL    HW211793   2.234   0.865   3.983
 3632SOL     OW11794   4.918   6.757   5.929
 3632SOL    HW111795   4.971   6.692   5.874
 3632SOL    HW211796   4.940   6.850   5.901
 3633SOL     OW11797   1.076   2.517   5.532
 3633SOL    HW111798   0.993   2.527   5.477
 3633SOL    HW211799   1.156   2.533   5.475
 3634SOL     OW11800   3.044   5.146   6.104
 3634SOL    HW111801   2.947   5.136   6.084
 3634SOL    HW211802   3.095   5.069   6.065
 3635SOL     OW11803   2.446   1.647   4.866
 3635SOL    HW111804   2.450   1.714   4.940
 3635SOL    HW211805   2.350   1.622   4.850
 3636SOL     OW11806   1.421   5.997   0.910
 3636SOL    HW111807   1.422   6.002   1.010
 3636SOL    HW211808   1.377   6.079   0.873
 3637SOL     OW11809   5.006   0.901   1.884
 3637SOL    HW111810   4.949   0.869   1.960
 3637SOL    HW211811   5.101   0.876   1.901
 3638SOL     OW11812   6.464   4.613   3.544
 3638SOL    HW111813   6.380   4.625   3.491
 3638SOL    HW211814   6.508   4.527   3.517
 3639SOL     OW11815   2.889   6.629   7.004
 3639SOL    HW111816   2.960   6.698   6.989
 3639SOL    HW211817   2.931   6.543   0.005
 3640SOL     OW11818   2.388   0.068   1.736
 3640SOL    HW111819   2.464   0.056   1.672
 3640SOL    HW211820   2.346   7.006   1.755
 3641SOL     OW11821   1.813   0.733   4.565
 3641SOL    HW111822   1.875   0.697   4.635
 3641SOL    HW211823   1.780   0.823   4.593
 3642SOL     OW11824   6.146   6.780   2.364
 3642SOL    HW111825   6.058   6.735   2.350
 3642SOL    HW211826   6.144   6.871   2.323
 3643SOL     OW11827   3.891   5.899   4.682
 3643SOL    HW111828   3.822   5.853   4.625
 3643SOL    HW211829   3.981   5.891   4.639
 3644SOL     OW11830   6.475   6.964   1.625
 3644SOL    HW111831   6.440   6.899   1.692
 3644SOL    HW211832   6.418   0.020   1.625
 3645SOL     OW11833   4.304   6.007   3.383
 3645SOL    HW111834   4.327   6.097   3.421
 3645SOL    HW211835   4.337   6.001   3.289
 3646SOL     OW11836   0.342   5.549   5.046
 3646SOL    HW111837   0.356   5.644   5.072
 3646SOL    HW211838   0.427   5.513   5.006
 3647SOL     OW11839   3.129   3.115   0.899
 3647SOL    HW111840   3.066   3.122   0.977
 3647SOL    HW211841   3.086   3.151   0.817
 3648SOL     OW11842   2.903   6.887   3.215
 3648SOL    HW111843   2.872   6.982   3.220
 3648SOL    HW211844   2.830   6.827   3.248
 3649SOL     OW11845   3.355   3.210   1.884
 3649SOL    HW111846   3.434   3.269   1.869
 3649SOL    HW211847   3.277   3.244   1.831
 3650SOL     OW11848   5.642   6.747   0.962
 3650SOL    HW111849   5.633   6.703   0.873
 3650SOL    HW211850   5.582   6.827   0.966
 3651SOL     OW11851   1.526   6.208   2.364
 3651SOL    HW111852   1.497   6.161   2.281
 3651SOL    HW211853   1.446   6.234   2.418
 3652SOL     OW11854   4.689   5.858   2.341
 3652SOL    HW111855   4.781   5.853   2.381
 3652SOL    HW211856   4.688   5.926   2.267
 3653SOL     OW11857   6.365   2.758   4.343
 3653SOL    HW111858   6.331   2.743   4.436
 3653SOL    HW211859   6.315   2.699   4.279
 3654SOL     OW11860   2.074   0.097   1.999
 3654SOL    HW111861   1.993   0.156   1.987
 3654SOL    HW211862   2.136   0.111   1.923
 3655SOL     OW11863   6.815   1.633   3.824
 3655SOL    HW111864   6.721   1.608   3.847
 3655SOL    HW211865   6.836   1.602   3.731
 3656SOL     OW11866   2.570   1.775   2.818
 3656SOL    HW111867   2.531   1.867   2.823
 3656SOL    HW211868   2.598   1.746   2.909
 3657SOL     OW11869   4.723   5.204   2.084
 3657SOL    HW111870   4.694   5.150   2.162
 3657SOL    HW211871   4.642   5.240   2.037
 3658SOL     OW11872   2.343   5.052   5.968
 3658SOL    HW111873   2.443   5.051   5.972
 3658SOL    HW211874   2.311   5.007   5.885
 3659SOL     OW11875   1.016   4.269   0.061
 3659SOL    HW111876   1.093   4.205   0.057
 3659SOL    HW211877   0.935   4.226   0.020
 3660SOL     OW11878   4.353   4.308   0.977
 3660SOL    HW111879   4.449   4.295   0.954
 3660SOL    HW211880   4.298   4.238   0.932
 3661SOL     OW11881   5.667   1.575   1.336
 3661SOL    HW111882   5.715   1.511   1.276
 3661SOL    HW211883   5.587   1.530   1.376
 3662SOL     OW11884   1.672   6.095   4.928
 3662SOL    HW111885   1.646   6.088   4.832
 3662SOL    HW211886   1.649   6.186   4.963
 3663SOL     OW11887   1.636   3.217   5.762
 3663SOL    HW111888   1.645   3.296   5.823
 3663SOL    HW211889   1.689   3.140   5.800
 3664SOL     OW11890   3.605   6.980   2.318
 3664SOL    HW111891   3.685   7.001   2.261
 3664SOL    HW211892   3.545   0.034   2.322
 3665SOL     OW11893   2.115   1.297   5.386
 3665SOL    HW111894   2.153   1.383   5.354
 3665SOL    HW211895   2.187   1.242   5.429
 3666SOL     OW11896   1.392   4.658   3.913
 3666SOL    HW111897   1.475   4.701   3.948
 3666SOL    HW211898   1.312   4.705   3.950
 3667SOL     OW11899   0.736   1.481   0.071
 3667SOL    HW111900   0.701   1.544   0.001
 3667SOL    HW211901   0.702   1.508   0.161
 3668SOL     OW11902   1.889   6.675   2.277
 3668SOL    HW111903   1.835   6.643   2.355
 3668SOL    HW211904   1.924   6.597   2.226
 3669SOL     OW11905   5.411   1.568   3.846
 3669SOL    HW111906   5.342   1.640   3.838
 3669SOL    HW211907   5.368   1.484   3.879
 3670SOL     OW11908   2.677   5.881   6.250
 3670SOL    HW111909   2.726   5.896   6.164
 3670SOL    HW211910   2.596   5.826   6.233
 3671SOL     OW11911   2.375   0.506   3.436
 3671SOL    HW111912   2.299   0.441   3.430
 3671SOL    HW211913   2.387   0.536   3.531
 3672SOL     OW11914   6.225   6.768   0.727
 3672SOL    HW111915   6.191   6.859   0.705
 3672SOL    HW211916   6.283   6.736   0.653
 3673SOL     OW11917   4.539   6.773   6.386
 3673SOL    HW111918   4.471   6.787   6.458
 3673SOL    HW211919   4.527   6.842   6.314
 3674SOL     OW11920   0.966   6.301   0.387
 3674SOL    HW111921   1.039   6.359   0.421
 3674SOL    HW211922   0.926   6.250   0.464
 3675SOL     OW11923   2.202   2.167   4.339
 3675SOL    HW111924   2.284   2.202   4.294
 3675SOL    HW211925   2.227   2.121   4.424
 3676SOL     OW11926   1.404   4.447   2.550
 3676SOL    HW111927   1.341   4.499   2.492
 3676SOL    HW211928   1.367   4.355   2.566
 3677SOL     OW11929   5.901   0.347   3.938
 3677SOL    HW111930   5.875   0.439   3.968
 3677SOL    HW211931   5.847   0.279   3.987
 3678SOL     OW11932   1.088   2.101   4.051
 3678SOL    HW111933   1.099   2.178   4.114
 3678SOL    HW211934   1.149   2.114   3.973
 3679SOL     OW11935   6.830   0.562   2.067
 3679SOL    HW111936   6.885   0.494   2.115
 3679SOL    HW211937   6.737   0.561   2.103
 3680SOL     OW11938   5.887   4.186   4.808
 3680SOL    HW111939   5.945   4.131   4.868
 3680SOL    HW211940   5.932   4.196   4.719
 3681SOL     OW11941   5.230   6.484   4.459
 3681SOL    HW111942   5.177   6.551   4.407
 3681SOL    HW211943   5.256   6.409   4.399
 3682SOL     OW11944   0.678   2.446   6.817
 3682SOL    HW111945   0.589   2.402   6.812
 3682SOL    HW211946   0.677   2.532   6.765
 3683SOL     OW11947   5.270   5.935   3.090
 3683SOL    HW111948   5.216   6.009   3.051
 3683SOL    HW211949   5.345   5.912   3.029
 3684SOL     OW11950   2.032   3.163   0.854
 3684SOL    HW111951   2.017   3.128   0.947
 3684SOL    HW211952   2.107   3.112   0.812
 3685SOL     OW11953   5.707   6.752   6.270
 3685SOL    HW111954   5.752   6.707   6.193
 3685SOL    HW211955   5.775   6.804   6.322
 3686SOL     OW11956   0.001   4.175   0.824
 3686SOL    HW111957   0.057   4.105   0.868
 3686SOL    HW211958   0.037   4.266   0.847
 3687SOL     OW11959   3.801   1.464   0.379
 3687SOL    HW111960   3.898   1.461   0.358
 3687SOL    HW211961   3.787   1.471   0.478
 3688SOL     OW11962   6.889   3.360   0.355
 3688SOL    HW111963   6.946   3.282   0.381
 3688SOL    HW211964   6.803   3.328   0.316
 3689SOL     OW11965   2.074   6.800   3.266
 3689SOL    HW111966   2.087   6.714   3.314
 3689SOL    HW211967   1.981   6.803   3.229
 3690SOL     OW11968   4.714   5.579   4.935
 3690SOL    HW111969   4.807   5.578   4.898
 3690SOL    HW211970   4.652   5.533   4.871
 3691SOL     OW11971   3.007   3.342   6.001
 3691SOL    HW111972   3.103   3.319   6.018
 3691SOL    HW211973   2.984   3.427   6.047
 3692SOL     OW11974   0.241   0.143   5.957
 3692SOL    HW111975   0.187   0.117   6.037
 3692SOL    HW211976   0.189   0.209   5.902
 3693SOL     OW11977   1.952   1.115   3.472
 3693SOL    HW111978   1.969   1.087   3.378
 3693SOL    HW211979   1.856   1.142   3.482
 3694SOL     OW11980   2.051   5.398   3.053
 3694SOL    HW111981   1.964   5.447   3.066
 3694SOL    HW211982   2.032   5.300   3.041
 3695SOL     OW11983   1.851   2.377   0.853
 3695SOL    HW111984   1.817   2.471   0.844
 3695SOL    HW211985   1.788   2.325   0.911
 3696SOL     OW11986   2.948   6.558   5.685
 3696SOL    HW111987   2.977   6.557   5.780
 3696SOL    HW211988   2.932   6.652   5.655
 3697SOL     OW11989   4.953   0.819   4.021
 3697SOL    HW111990   4.949   0.752   4.095
 3697SOL    HW211991   4.965   0.910   4.060
 3698SOL     OW11992   3.384   0.058   6.545
 3698SOL    HW111993   3.380   6.985   6.558
 3698SOL    HW211994   3.427   0.079   6.457
 3699SOL     OW11995   0.588   5.248   1.924
 3699SOL    HW111996   0.656   5.314   1.892
 3699SOL    HW211997   0.513   5.297   1.969
 3700SOL     OW11998   6.570   0.797   3.678
 3700SOL    HW111999   6.553   0.814   3.581
 3700SOL    HW212000   6.618   0.875   3.718
 3701SOL     OW12001   5.430   0.526   3.970
 3701SOL    HW112002   5.415   0.517   4.069
 3701SOL    HW212003   5.448   0.436   3.930
 3702SOL     OW12004   5.248   0.905   6.352
 3702SOL    HW112005   5.237   0.945   6.443
 3702SOL    HW212006   5.260   0.806   6.360
 3703SOL     OW12007   3.639   5.039   1.018
 3703SOL    HW112008   3.720   4.992   0.983
 3703SOL    HW212009   3.558   4.982   1.004
 3704SOL     OW12010   3.113   6.413   1.672
 3704SOL    HW112011   3.099   6.508   1.645
 3704SOL    HW212012   3.026   6.374   1.705
 3705SOL     OW12013   6.534   1.303   4.121
 3705SOL    HW112014   6.566   1.250   4.042
 3705SOL    HW212015   6.472   1.247   4.175
 3706SOL     OW12016   3.238   2.168   3.382
 3706SOL    HW112017   3.330   2.206   3.391
 3706SOL    HW212018   3.236   2.102   3.307
 3707SOL     OW12019   4.308   2.456   5.521
 3707SOL    HW112020   4.387   2.514   5.503
 3707SOL    HW212021   4.235   2.511   5.562
 3708SOL     OW12022   6.542   0.598   7.005
 3708SOL    HW112023   6.527   0.678   6.947
 3708SOL    HW212024   6.640   0.586   7.022
 3709SOL     OW12025   6.174   0.226   6.818
 3709SOL    HW112026   6.149   0.138   6.778
 3709SOL    HW212027   6.171   0.297   6.747
 3710SOL     OW12028   0.504   4.660   6.748
 3710SOL    HW112029   0.436   4.620   6.809
 3710SOL    HW212030   0.543   4.742   6.791
 3711SOL     OW12031   6.809   5.271   2.499
 3711SOL    HW112032   6.782   5.225   2.415
 3711SOL    HW212033   6.888   5.225   2.538
 3712SOL     OW12034   1.707   0.515   6.633
 3712SOL    HW112035   1.672   0.512   6.726
 3712SOL    HW212036   1.708   0.610   6.601
 3713SOL     OW12037   3.741   5.134   6.169
 3713SOL    HW112038   3.755   5.105   6.074
 3713SOL    HW212039   3.785   5.222   6.184
 3714SOL     OW12040   4.673   1.856   5.093
 3714SOL    HW112041   4.759   1.891   5.130
 3714SOL    HW212042   4.610   1.932   5.079
 3715SOL     OW12043   5.295   3.975   3.491
 3715SOL    HW112044   5.329   3.952   3.582
 3715SOL    HW212045   5.251   4.065   3.493
 3716SOL     OW12046   0.734   1.419   4.245
 3716SOL    HW112047   0.710   1.395   4.151
 3716SOL    HW212048   0.820   1.374   4.270
 3717SOL     OW12049   5.873   0.743   6.812
 3717SOL    HW112050   5.816   0.821   6.789
 3717SOL    HW212051   5.842   0.704   6.899
 3718SOL     OW12052   0.688   5.706   6.851
 3718SOL    HW112053   0.608   5.708   6.910
 3718SOL    HW212054   0.672   5.765   6.771
 3719SOL     OW12055   3.286   4.923   0.613
 3719SOL    HW112056   3.203   4.942   0.560
 3719SOL    HW212057   3.349   5.000   0.605
 3720SOL     OW12058   0.150   1.103   5.922
 3720SOL    HW112059   0.149   1.144   6.013
 3720SOL    HW212060   0.240   1.064   5.904
 3721SOL     OW12061   5.002   3.319   0.190
 3721SOL    HW112062   5.005   3.295   0.092
 3721SOL    HW212063   5.094   3.315   0.227
 3722SOL     OW12064   5.754   5.846   1.443
 3722SOL    HW112065   5.723   5.872   1.352
 3722SOL    HW212066   5.727   5.752   1.461
 3723SOL     OW12067   4.869   1.071   0.309
 3723SOL    HW112068   4.898   1.097   0.217
 3723SOL    HW212069   4.769   1.066   0.312
 3724SOL     OW12070   0.578   4.234   5.883
 3724SOL    HW112071   0.615   4.247   5.791
 3724SOL    HW212072   0.529   4.317   5.912
 3725SOL     OW12073   5.746   6.171   0.962
 3725SOL    HW112074   5.657   6.189   0.919
 3725SOL    HW212075   5.815   6.231   0.922
 3726SOL     OW12076   6.067   2.862   1.327
 3726SOL    HW112077   6.161   2.871   1.360
 3726SOL    HW212078   6.018   2.797   1.385
 3727SOL     OW12079   2.501   2.805   5.338
 3727SOL    HW112080   2.499   2.882   5.275
 3727SOL    HW212081   2.483   2.720   5.288
 3728SOL     OW12082   0.452   3.721   6.902
 3728SOL    HW112083   0.392   3.642   6.907
 3728SOL    HW212084   0.503   3.719   6.816
 3729SOL     OW12085   0.665   3.233   3.975
 3729SOL    HW112086   0.709   3.146   3.957
 3729SOL    HW212087   0.575   3.234   3.931
 3730SOL     OW12088   2.169   0.507   1.174
 3730SOL    HW112089   2.168   0.594   1.124
 3730SOL    HW212090   2.255   0.459   1.155
 3731SOL     OW12091   2.867   5.480   6.776
 3731SOL    HW112092   2.837   5.530   6.857
 3731SOL    HW212093   2.797   5.488   6.705
 3732SOL     OW12094   2.134   3.557   4.264
 3732SOL    HW112095   2.124   3.518   4.172
 3732SOL    HW212096   2.122   3.656   4.259
 3733SOL     OW12097   3.520   3.625   0.901
 3733SOL    HW112098   3.528   3.683   0.982
 3733SOL    HW212099   3.433   3.577   0.903
 3734SOL     OW12100   4.488   0.309   3.396
 3734SOL    HW112101   4.477   0.405   3.369
 3734SOL    HW212102   4.559   0.302   3.466
 3735SOL     OW12103   3.497   2.049   2.106
 3735SOL    HW112104   3.430   2.121   2.128
 3735SOL    HW212105   3.574   2.089   2.056
 3736SOL     OW12106   4.807   1.076   5.927
 3736SOL    HW112107   4.761   0.998   5.967
 3736SOL    HW212108   4.835   1.140   5.998
 3737SOL     OW12109   3.826   6.588   3.799
 3737SOL    HW112110   3.847   6.499   3.760
 3737SOL    HW212111   3.756   6.634   3.743
 3738SOL     OW12112   0.023   0.148   4.285
 3738SOL    HW112113   0.019   0.093   4.369
 3738SOL    HW212114   6.957   0.176   4.259
 3739SOL     OW12115   0.550   3.219   1.142
 3739SOL    HW112116   0.557   3.208   1.241
 3739SOL    HW212117   0.559   3.316   1.118
 3740SOL     OW12118   5.343   0.272   6.760
 3740SOL    HW112119   5.437   0.294   6.787
 3740SOL    HW212120   5.336   0.174   6.739
 3741SOL     OW12121   3.417   2.190   6.769
 3741SOL    HW112122   3.508   2.169   6.735
 3741SOL    HW212123   3.391   2.124   6.840
 3742SOL     OW12124   3.536   3.357   6.051
 3742SOL    HW112125   3.616   3.416   6.045
 3742SOL    HW212126   3.564   3.266   6.082
 3743SOL     OW12127   0.809   5.839   6.436
 3743SOL    HW112128   0.871   5.762   6.424
 3743SOL    HW212129   0.854   5.923   6.406
 3744SOL     OW12130   6.360   5.449   3.251
 3744SOL    HW112131   6.397   5.401   3.330
 3744SOL    HW212132   6.298   5.388   3.201
 3745SOL     OW12133   5.098   5.004   1.966
 3745SOL    HW112134   5.006   4.998   1.928
 3745SOL    HW212135   5.164   4.964   1.902
 3746SOL     OW12136   4.327   1.608   1.507
 3746SOL    HW112137   4.416   1.651   1.517
 3746SOL    HW212138   4.308   1.550   1.586
 3747SOL     OW12139   3.092   0.449   0.643
 3747SOL    HW112140   3.151   0.465   0.723
 3747SOL    HW212141   3.110   0.358   0.606
 3748SOL     OW12142   5.451   0.264   1.562
 3748SOL    HW112143   5.399   0.334   1.514
 3748SOL    HW212144   5.537   0.247   1.513
 3749SOL     OW12145   1.411   0.779   3.987
 3749SOL    HW112146   1.316   0.750   3.974
 3749SOL    HW212147   1.471   0.720   3.933
 3750SOL     OW12148   0.205   3.985   6.395
 3750SOL    HW112149   0.284   4.005   6.453
 3750SOL    HW212150   0.185   4.065   6.338
 3751SOL     OW12151   1.811   4.960   1.549
 3751SOL    HW112152   1.853   5.035   1.498
 3751SOL    HW212153   1.795   4.990   1.643
 3752SOL     OW12154   5.197   6.069   6.629
 3752SOL    HW112155   5.256   6.072   6.548
 3752SOL    HW212156   5.252   6.044   6.709
 3753SOL     OW12157   0.610   0.365   3.236
 3753SOL    HW112158   0.518   0.387   3.270
 3753SOL    HW212159   0.675   0.431   3.273
 3754SOL     OW12160   3.212   1.434   1.180
 3754SOL    HW112161   3.131   1.491   1.167
 3754SOL    HW212162   3.294   1.491   1.171
 3755SOL     OW12163   2.397   5.712   4.147
 3755SOL    HW112164   2.355   5.680   4.232
 3755SOL    HW212165   2.443   5.636   4.102
 3756SOL     OW12166   1.531   6.702   0.547
 3756SOL    HW112167   1.501   6.639   0.476
 3756SOL    HW212168   1.462   6.706   0.619
 3757SOL     OW12169   0.315   4.627   0.305
 3757SOL    HW112170   0.227   4.578   0.306
 3757SOL    HW212171   0.386   4.567   0.269
 3758SOL     OW12172   1.411   6.608   3.973
 3758SOL    HW112173   1.405   6.620   4.072
 3758SOL    HW212174   1.384   6.515   3.948
 3759SOL     OW12175   4.594   0.393   3.640
 3759SOL    HW112176   4.555   0.350   3.721
 3759SOL    HW212177   4.543   0.476   3.619
 3760SOL     OW12178   0.886   0.877   2.887
 3760SOL    HW112179   0.846   0.843   2.802
 3760SOL    HW212180   0.967   0.823   2.910
 3761SOL     OW12181   4.921   1.534   5.547
 3761SOL    HW112182   4.833   1.488   5.552
 3761SOL    HW212183   4.913   1.626   5.586
 3762SOL     OW12184   0.702   2.329   4.198
 3762SOL    HW112185   0.666   2.237   4.206
 3762SOL    HW212186   0.669   2.385   4.274
 3763SOL     OW12187   0.617   5.870   6.656
 3763SOL    HW112188   0.529   5.897   6.618
 3763SOL    HW212189   0.684   5.859   6.582
 3764SOL     OW12190   3.061   1.119   2.969
 3764SOL    HW112191   3.019   1.076   3.049
 3764SOL    HW212192   3.161   1.116   2.979
 3765SOL     OW12193   5.412   3.113   2.758
 3765SOL    HW112194   5.360   3.124   2.673
 3765SOL    HW212195   5.444   3.019   2.766
 3766SOL     OW12196   1.818   2.819   2.220
 3766SOL    HW112197   1.793   2.747   2.286
 3766SOL    HW212198   1.824   2.779   2.129
 3767SOL     OW12199   1.857   6.154   6.100
 3767SOL    HW112200   1.845   6.250   6.124
 3767SOL    HW212201   1.855   6.144   6.000
 3768SOL     OW12202   1.573   6.824   2.873
 3768SOL    HW112203   1.673   6.830   2.876
 3768SOL    HW212204   1.535   6.915   2.858
 3769SOL     OW12205   4.979   5.212   4.626
 3769SOL    HW112206   5.050   5.227   4.695
 3769SOL    HW212207   4.959   5.298   4.579
 3770SOL     OW12208   3.060   6.934   1.364
 3770SOL    HW112209   2.994   6.865   1.336
 3770SOL    HW212210   3.138   6.890   1.408
 3771SOL     OW12211   6.682   6.193   5.695
 3771SOL    HW112212   6.655   6.133   5.770
 3771SOL    HW212213   6.698   6.285   5.731
 3772SOL     OW12214   2.380   6.260   2.088
 3772SOL    HW112215   2.422   6.179   2.130
 3772SOL    HW212216   2.369   6.331   2.157
 3773SOL     OW12217   4.571   4.714   6.830
 3773SOL    HW112218   4.474   4.716   6.857
 3773SOL    HW212219   4.587   4.635   6.770
 3774SOL     OW12220   6.669   4.620   1.250
 3774SOL    HW112221   6.725   4.663   1.179
 3774SOL    HW212222   6.575   4.652   1.243
 3775SOL     OW12223   5.339   5.551   4.436
 3775SOL    HW112224   5.434   5.523   4.450
 3775SOL    HW212225   5.305   5.598   4.517
 3776SOL     OW12226   4.015   2.689   6.063
 3776SOL    HW112227   4.101   2.667   6.110
 3776SOL    HW212228   4.010   2.788   6.048
 3777SOL     OW12229   2.797   5.019   3.975
 3777SOL    HW112230   2.703   5.050   3.982
 3777SOL    HW212231   2.853   5.092   3.935
 3778SOL     OW12232   3.076   4.971   6.902
 3778SOL    HW112233   3.083   4.871   6.898
 3778SOL    HW212234   3.139   5.011   6.835
 3779SOL     OW12235   6.972   4.835   6.332
 3779SOL    HW112236   7.024   4.919   6.348
 3779SOL    HW212237   6.989   4.803   6.239
 3780SOL     OW12238   6.192   2.927   2.012
 3780SOL    HW112239   6.104   2.969   2.034
 3780SOL    HW212240   6.266   2.986   2.045
 3781SOL     OW12241   1.808   6.792   5.975
 3781SOL    HW112242   1.901   6.790   5.938
 3781SOL    HW212243   1.755   6.717   5.936
 3782SOL     OW12244   3.814   5.365   0.399
 3782SOL    HW112245   3.767   5.446   0.433
 3782SOL    HW212246   3.911   5.386   0.384
 3783SOL     OW12247   4.445   4.851   5.272
 3783SOL    HW112248   4.517   4.868   5.340
 3783SOL    HW212249   4.387   4.932   5.264
 3784SOL     OW12250   6.200   3.117   5.076
 3784SOL    HW112251   6.112   3.082   5.044
 3784SOL    HW212252   6.274   3.067   5.030
 3785SOL     OW12253   0.981   2.858   2.645
 3785SOL    HW112254   0.896   2.896   2.681
 3785SOL    HW212255   1.039   2.830   2.721
 3786SOL     OW12256   1.927   2.757   5.678
 3786SOL    HW112257   1.975   2.751   5.590
 3786SOL    HW212258   1.973   2.824   5.737
 3787SOL     OW12259   4.993   5.761   4.363
 3787SOL    HW112260   5.040   5.689   4.313
 3787SOL    HW212261   4.954   5.827   4.298
 3788SOL     OW12262   5.770   3.289   5.976
 3788SOL    HW112263   5.732   3.196   5.973
 3788SOL    HW212264   5.861   3.287   6.017
 3789SOL     OW12265   2.038   3.306   1.313
 3789SOL    HW112266   2.008   3.378   1.250
 3789SOL    HW212267   1.974   3.230   1.310
 3790SOL     OW12268   1.445   6.811   1.294
 3790SOL    HW112269   1.361   6.866   1.291
 3790SOL    HW212270   1.472   6.796   1.389
 3791SOL     OW12271   4.829   0.476   4.510
 3791SOL    HW112272   4.858   0.567   4.539
 3791SOL    HW212273   4.731   0.477   4.488
 3792SOL     OW12274   5.964   6.728   3.711
 3792SOL    HW112275   5.979   6.716   3.809
 3792SOL    HW212276   5.879   6.778   3.696
 3793SOL     OW12277   4.473   4.023   0.302
 3793SOL    HW112278   4.537   4.088   0.261
 3793SOL    HW212279   4.483   4.026   0.402
 3794SOL     OW12280   1.249   4.998   6.896
 3794SOL    HW112281   1.172   4.953   6.849
 3794SOL    HW212282   1.331   4.989   6.840
 3795SOL     OW12283   3.400   6.287   0.870
 3795SOL    HW112284   3.413   6.190   0.850
 3795SOL    HW212285   3.440   6.342   0.796
 3796SOL     OW12286   5.546   0.645   6.877
 3796SOL    HW112287   5.550   0.745   6.887
 3796SOL    HW212288   5.595   0.602   6.953
 3797SOL     OW12289   0.390   2.969   1.130
 3797SOL    HW112290   0.463   2.902   1.138
 3797SOL    HW212291   0.427   3.061   1.146
 3798SOL     OW12292   1.002   5.062   3.667
 3798SOL    HW112293   1.070   5.088   3.735
 3798SOL    HW212294   0.962   4.974   3.691
 3799SOL     OW12295   6.586   1.539   2.830
 3799SOL    HW112296   6.672   1.576   2.793
 3799SOL    HW212297   6.567   1.582   2.918
 3800SOL     OW12298   5.554   2.823   2.691
 3800SOL    HW112299   5.602   2.744   2.729
 3800SOL    HW212300   5.503   2.795   2.610
 3801SOL     OW12301   6.294   1.343   1.000
 3801SOL    HW112302   6.312   1.416   1.066
 3801SOL    HW212303   6.353   1.265   1.019
 3802SOL     OW12304   6.673   3.556   2.529
 3802SOL    HW112305   6.607   3.553   2.454
 3802SOL    HW212306   6.628   3.524   2.613
 3803SOL     OW12307   4.467   3.856   5.730
 3803SOL    HW112308   4.389   3.915   5.712
 3803SOL    HW212309   4.492   3.860   5.827
 3804SOL     OW12310   3.650   6.156   3.593
 3804SOL    HW112311   3.713   6.099   3.647
 3804SOL    HW212312   3.665   6.138   3.496
 3805SOL     OW12313   2.375   2.102   6.797
 3805SOL    HW112314   2.331   2.014   6.777
 3805SOL    HW212315   2.466   2.086   6.833
 3806SOL     OW12316   1.941   4.597   2.022
 3806SOL    HW112317   1.845   4.573   2.009
 3806SOL    HW212318   1.999   4.528   1.978
 3807SOL     OW12319   0.544   4.429   3.886
 3807SOL    HW112320   0.464   4.388   3.842
 3807SOL    HW212321   0.625   4.414   3.829
 3808SOL     OW12322   2.611   6.898   5.973
 3808SOL    HW112323   2.555   6.836   6.028
 3808SOL    HW212324   2.552   6.955   5.917
 3809SOL     OW12325   5.259   1.463   2.218
 3809SOL    HW112326   5.216   1.496   2.134
 3809SOL    HW212327   5.343   1.413   2.194
 3810SOL     OW12328   5.196   2.399   3.150
 3810SOL    HW112329   5.169   2.306   3.123
 3810SOL    HW212330   5.218   2.451   3.068
 3811SOL     OW12331   0.034   6.067   5.677
 3811SOL    HW112332   0.071   6.135   5.740
 3811SOL    HW212333   0.098   5.991   5.668
 3812SOL     OW12334   3.801   5.750   0.477
 3812SOL    HW112335   3.827   5.759   0.574
 3812SOL    HW212336   3.730   5.680   0.469
 3813SOL     OW12337   5.952   3.497   0.243
 3813SOL    HW112338   5.876   3.493   0.178
 3813SOL    HW212339   5.939   3.427   0.314
 3814SOL     OW12340   0.361   0.249   5.089
 3814SOL    HW112341   0.334   0.298   5.171
 3814SOL    HW212342   0.313   0.287   5.010
 3815SOL     OW12343   5.151   2.317   5.946
 3815SOL    HW112344   5.189   2.314   6.038
 3815SOL    HW212345   5.052   2.322   5.950
 3816SOL     OW12346   6.636   6.515   1.032
 3816SOL    HW112347   6.679   6.436   1.076
 3816SOL    HW212348   6.591   6.572   1.101
 3817SOL     OW12349   3.441   3.768   1.830
 3817SOL    HW112350   3.448   3.832   1.754
 3817SOL    HW212351   3.528   3.766   1.880
 3818SOL     OW12352   4.670   6.025   2.105
 3818SOL    HW112353   4.682   6.120   2.136
 3818SOL    HW212354   4.680   6.021   2.006
 3819SOL     OW12355   6.400   3.550   2.970
 3819SOL    HW112356   6.313   3.576   2.929
 3819SOL    HW212357   6.418   3.608   3.050
 3820SOL     OW12358   3.268   6.422   5.865
 3820SOL    HW112359   3.189   6.479   5.886
 3820SOL    HW212360   3.318   6.461   5.787
 3821SOL     OW12361   1.973   6.663   0.440
 3821SOL    HW112362   1.974   6.757   0.406
 3821SOL    HW212363   1.905   6.653   0.512
 3822SOL     OW12364   5.314   6.801   2.193
 3822SOL    HW112365   5.382   6.793   2.120
 3822SOL    HW212366   5.269   6.713   2.206
 3823SOL     OW12367   5.193   5.823   4.909
 3823SOL    HW112368   5.272   5.792   4.962
 3823SOL    HW212369   5.199   5.788   4.816
 3824SOL     OW12370   2.051   2.582   0.944
 3824SOL    HW112371   2.034   2.506   1.007
 3824SOL    HW212372   1.977   2.588   0.877
 3825SOL     OW12373   0.532   5.051   5.573
 3825SOL    HW112374   0.543   5.014   5.481
 3825SOL    HW212375   0.566   5.145   5.576
 3826SOL     OW12376   5.015   3.863   3.444
 3826SOL    HW112377   5.112   3.873   3.465
 3826SOL    HW212378   4.989   3.766   3.452
 3827SOL     OW12379   0.576   1.551   6.698
 3827SOL    HW112380   0.669   1.559   6.661
 3827SOL    HW212381   0.570   1.470   6.755
 3828SOL     OW12382   3.301   3.240   4.809
 3828SOL    HW112383   3.284   3.198   4.898
 3828SOL    HW212384   3.242   3.198   4.740
 3829SOL     OW12385   0.526   3.170   1.429
 3829SOL    HW112386   0.619   3.199   1.452
 3829SOL    HW212387   0.460   3.231   1.475
 3830SOL     OW12388   5.399   7.008   3.753
 3830SOL    HW112389   5.309   0.003   3.714
 3830SOL    HW212390   5.387   6.973   3.846
 3831SOL     OW12391   5.080   2.627   3.480
 3831SOL    HW112392   5.177   2.643   3.503
 3831SOL    HW212393   5.069   2.534   3.446
 3832SOL     OW12394   6.183   1.317   3.748
 3832SOL    HW112395   6.203   1.344   3.842
 3832SOL    HW212396   6.088   1.341   3.726
 3833SOL     OW12397   1.616   3.001   5.361
 3833SOL    HW112398   1.571   3.053   5.433
 3833SOL    HW212399   1.700   3.048   5.334
 3834SOL     OW12400   5.376   4.605   1.167
 3834SOL    HW112401   5.288   4.567   1.194
 3834SOL    HW212402   5.374   4.705   1.177
 3835SOL     OW12403   4.461   5.447   5.319
 3835SOL    HW112404   4.366   5.420   5.336
 3835SOL    HW212405   4.463   5.535   5.272
 3836SOL     OW12406   6.825   6.995   4.546
 3836SOL    HW112407   6.837   6.923   4.479
 3836SOL    HW212408   6.903   6.995   4.609
 3837SOL     OW12409   4.521   4.599   5.927
 3837SOL    HW112410   4.461   4.520   5.922
 3837SOL    HW212411   4.595   4.589   5.861
 3838SOL     OW12412   6.825   0.504   4.253
 3838SOL    HW112413   6.765   0.541   4.324
 3838SOL    HW212414   6.816   0.559   4.170
 3839SOL     OW12415   4.701   0.759   3.728
 3839SOL    HW112416   4.756   0.682   3.758
 3839SOL    HW212417   4.612   0.756   3.773
 3840SOL     OW12418   3.950   1.562   6.585
 3840SOL    HW112419   3.868   1.611   6.556
 3840SOL    HW212420   3.999   1.527   6.505
 3841SOL     OW12421   5.779   3.898   3.269
 3841SOL    HW112422   5.794   3.923   3.365
 3841SOL    HW212423   5.809   3.804   3.255
 3842SOL     OW12424   1.855   4.351   5.699
 3842SOL    HW112425   1.901   4.335   5.611
 3842SOL    HW212426   1.921   4.344   5.773
 3843SOL     OW12427   5.919   2.638   6.491
 3843SOL    HW112428   5.874   2.549   6.506
 3843SOL    HW212429   5.851   2.711   6.500
 3844SOL     OW12430   6.691   0.152   0.997
 3844SOL    HW112431   6.614   0.096   0.966
 3844SOL    HW212432   6.736   0.107   1.073
 3845SOL     OW12433   2.062   5.627   0.346
 3845SOL    HW112434   2.132   5.557   0.330
 3845SOL    HW212435   1.987   5.614   0.281
 3846SOL     OW12436   0.251   3.121   2.990
 3846SOL    HW112437   0.240   3.149   2.895
 3846SOL    HW212438   0.271   3.201   3.047
 3847SOL     OW12439   0.648   1.697   6.913
 3847SOL    HW112440   0.598   1.658   6.835
 3847SOL    HW212441   0.668   1.794   6.895
 3848SOL     OW12442   6.540   4.611   2.070
 3848SOL    HW112443   6.492   4.617   1.983
 3848SOL    HW212444   6.474   4.620   2.145
 3849SOL     OW12445   0.778   4.065   5.961
 3849SOL    HW112446   0.702   4.115   5.919
 3849SOL    HW212447   0.860   4.076   5.904
 3850SOL     OW12448   3.069   2.588   1.159
 3850SOL    HW112449   3.121   2.520   1.210
 3850SOL    HW212450   2.983   2.547   1.128
 3851SOL     OW12451   0.659   5.878   2.915
 3851SOL    HW112452   0.615   5.792   2.939
 3851SOL    HW212453   0.675   5.932   2.998
 3852SOL     OW12454   1.952   0.661   4.795
 3852SOL    HW112455   1.893   0.642   4.873
 3852SOL    HW212456   1.999   0.577   4.767
 3853SOL     OW12457   2.787   0.916   3.231
 3853SOL    HW112458   2.815   0.821   3.215
 3853SOL    HW212459   2.713   0.940   3.168
 3854SOL     OW12460   0.397   1.803   2.045
 3854SOL    HW112461   0.364   1.720   2.090
 3854SOL    HW212462   0.361   1.883   2.093
 3855SOL     OW12463   3.356   6.808   6.512
 3855SOL    HW112464   3.343   6.784   6.416
 3855SOL    HW212465   3.317   6.737   6.570
 3856SOL     OW12466   7.009   2.344   6.326
 3856SOL    HW112467   0.007   2.369   6.420
 3856SOL    HW212468   6.914   2.313   6.324
 3857SOL     OW12469   2.427   0.827   6.129
 3857SOL    HW112470   2.466   0.914   6.098
 3857SOL    HW212471   2.336   0.815   6.088
 3858SOL     OW12472   4.078   0.954   4.150
 3858SOL    HW112473   4.072   1.025   4.220
 3858SOL    HW212474   4.173   0.947   4.117
 3859SOL     OW12475   6.355   0.067   2.073
 3859SOL    HW112476   6.450   0.035   2.068
 3859SOL    HW212477   6.317   0.047   2.163
 3860SOL     OW12478   1.548   6.990   4.350
 3860SOL    HW112479   1.641   0.002   4.361
 3860SOL    HW212480   1.542   6.943   4.262
 3861SOL     OW12481   2.805   5.609   1.723
 3861SOL    HW112482   2.822   5.514   1.746
 3861SOL    HW212483   2.725   5.615   1.662
 3862SOL     OW12484   1.593   0.772   4.246
 3862SOL    HW112485   1.568   0.743   4.154
 3862SOL    HW212486   1.688   0.803   4.247
 3863SOL     OW12487   3.526   0.871   0.566
 3863SOL    HW112488   3.427   0.865   0.576
 3863SOL    HW212489   3.558   0.957   0.606
 3864SOL     OW12490   1.275   0.442   4.572
 3864SOL    HW112491   1.279   0.507   4.497
 3864SOL    HW212492   1.362   0.441   4.621
 3865SOL     OW12493   5.321   1.520   0.812
 3865SOL    HW112494   5.255   1.444   0.807
 3865SOL    HW212495   5.279   1.596   0.862
 3866SOL     OW12496   3.244   1.096   6.604
 3866SOL    HW112497   3.265   1.119   6.699
 3866SOL    HW212498   3.311   1.140   6.544
 3867SOL     OW12499   7.012   3.183   2.509
 3867SOL    HW112500   6.999   3.149   2.602
 3867SOL    HW212501   6.926   3.221   2.475
 3868SOL     OW12502   4.023   0.454   0.143
 3868SOL    HW112503   4.043   0.552   0.141
 3868SOL    HW212504   4.030   0.416   0.051
 3869SOL     OW12505   4.670   1.339   4.211
 3869SOL    HW112506   4.679   1.266   4.280
 3869SOL    HW212507   4.760   1.370   4.182
 3870SOL     OW12508   0.120   0.865   5.737
 3870SOL    HW112509   0.129   0.928   5.814
 3870SOL    HW212510   0.210   0.829   5.713
 3871SOL     OW12511   2.801   5.856   4.242
 3871SOL    HW112512   2.873   5.798   4.203
 3871SOL    HW212513   2.843   5.939   4.280
 3872SOL     OW12514   2.961   3.370   5.176
 3872SOL    HW112515   3.005   3.384   5.087
 3872SOL    HW212516   2.908   3.451   5.200
 3873SOL     OW12517   4.451   1.988   0.062
 3873SOL    HW112518   4.491   2.078   0.077
 3873SOL    HW212519   4.357   1.997   0.030
 3874SOL     OW12520   2.303   1.351   1.077
 3874SOL    HW112521   2.400   1.350   1.053
 3874SOL    HW212522   2.251   1.308   1.003
 3875SOL     OW12523   1.040   2.105   6.596
 3875SOL    HW112524   1.007   2.080   6.504
 3875SOL    HW212525   1.009   2.198   6.617
 3876SOL     OW12526   3.159   5.501   2.185
 3876SOL    HW112527   3.188   5.507   2.281
 3876SOL    HW212528   3.089   5.430   2.177
 3877SOL     OW12529   0.244   1.498   6.069
 3877SOL    HW112530   0.231   1.588   6.111
 3877SOL    HW212531   0.227   1.505   5.970
 3878SOL     OW12532   4.750   1.482   4.947
 3878SOL    HW112533   4.744   1.422   5.026
 3878SOL    HW212534   4.767   1.428   4.865
 3879SOL     OW12535   5.063   5.780   0.347
 3879SOL    HW112536   5.137   5.715   0.360
 3879SOL    HW212537   5.000   5.776   0.424
 3880SOL     OW12538   4.950   4.704   4.053
 3880SOL    HW112539   5.025   4.658   4.101
 3880SOL    HW212540   4.963   4.803   4.061
 3881SOL     OW12541   0.821   3.365   0.318
 3881SOL    HW112542   0.818   3.316   0.405
 3881SOL    HW212543   0.835   3.462   0.336
 3882SOL     OW12544   0.436   2.014   5.503
 3882SOL    HW112545   0.445   2.101   5.455
 3882SOL    HW212546   0.346   2.009   5.546
 3883SOL     OW12547   4.323   6.063   3.797
 3883SOL    HW112548   4.418   6.030   3.804
 3883SOL    HW212549   4.320   6.146   3.743
 3884SOL     OW12550   0.439   3.371   2.086
 3884SOL    HW112551   0.349   3.399   2.053
 3884SOL    HW212552   0.431   3.333   2.178
 3885SOL     OW12553   4.240   5.886   2.363
 3885SOL    HW112554   4.297   5.828   2.304
 3885SOL    HW212555   4.299   5.951   2.411
 3886SOL     OW12556   2.759   5.806   6.006
 3886SOL    HW112557   2.848   5.823   6.048
 3886SOL    HW212558   2.754   5.711   5.976
 3887SOL     OW12559   1.549   5.794   1.802
 3887SOL    HW112560   1.563   5.803   1.703
 3887SOL    HW212561   1.586   5.707   1.833
 3888SOL     OW12562   5.558   5.020   4.030
 3888SOL    HW112563   5.498   5.096   4.006
 3888SOL    HW212564   5.609   5.044   4.113
 3889SOL     OW12565   5.456   4.228   0.514
 3889SOL    HW112566   5.421   4.305   0.567
 3889SOL    HW212567   5.520   4.262   0.444
 3890SOL     OW12568   5.436   3.316   3.985
 3890SOL    HW112569   5.517   3.358   4.027
 3890SOL    HW212570   5.370   3.291   4.057
 3891SOL     OW12571   4.880   5.545   3.560
 3891SOL    HW112572   4.931   5.471   3.514
 3891SOL    HW212573   4.938   5.587   3.630
 3892SOL     OW12574   6.677   1.925   1.490
 3892SOL    HW112575   6.604   1.992   1.505
 3892SOL    HW212576   6.740   1.927   1.567
 3893SOL     OW12577   4.140   3.632   2.896
 3893SOL    HW112578   4.106   3.617   2.803
 3893SOL    HW212579   4.233   3.669   2.892
 3894SOL     OW12580   4.442   0.476   5.792
 3894SOL    HW112581   4.537   0.481   5.760
 3894SOL    HW212582   4.418   0.561   5.839
 3895SOL     OW12583   0.609   0.285   3.976
 3895SOL    HW112584   0.569   0.193   3.969
 3895SOL    HW212585   0.692   0.281   4.032
 3896SOL     OW12586   1.942   1.560   6.121
 3896SOL    HW112587   2.025   1.606   6.154
 3896SOL    HW212588   1.862   1.617   6.140
 3897SOL     OW12589   3.894   5.827   1.366
 3897SOL    HW112590   3.943   5.848   1.450
 3897SOL    HW212591   3.875   5.729   1.362
 3898SOL     OW12592   3.745   3.364   1.451
 3898SOL    HW112593   3.738   3.419   1.534
 3898SOL    HW212594   3.665   3.304   1.445
 3899SOL     OW12595   3.638   0.099   5.310
 3899SOL    HW112596   3.561   0.159   5.286
 3899SOL    HW212597   3.614   0.004   5.289
 3900SOL     OW12598   4.593   4.389   2.978
 3900SOL    HW112599   4.573   4.361   2.884
 3900SOL    HW212600   4.684   4.429   2.983
 3901SOL     OW12601   2.791   1.080   6.789
 3901SOL    HW112602   2.887   1.052   6.791
 3901SOL    HW212603   2.786   1.179   6.777
 3902SOL     OW12604   5.179   2.899   2.572
 3902SOL    HW112605   5.117   2.833   2.529
 3902SOL    HW212606   5.262   2.908   2.517
 3903SOL     OW12607   2.864   4.288   6.081
 3903SOL    HW112608   2.790   4.323   6.023
 3903SOL    HW212609   2.904   4.206   6.039
 3904SOL     OW12610   1.923   0.479   1.084
 3904SOL    HW112611   2.004   0.507   1.135
 3904SOL    HW212612   1.913   0.380   1.089
 3905SOL     OW12613   6.873   6.176   4.856
 3905SOL    HW112614   6.867   6.168   4.956
 3905SOL    HW212615   6.843   6.268   4.829
 3906SOL     OW12616   6.840   6.428   4.785
 3906SOL    HW112617   6.861   6.402   4.691
 3906SOL    HW212618   6.890   6.512   4.809
 3907SOL     OW12619   6.034   2.380   3.441
 3907SOL    HW112620   6.102   2.338   3.502
 3907SOL    HW212621   5.943   2.365   3.479
 3908SOL     OW12622   2.850   4.151   6.337
 3908SOL    HW112623   2.877   4.214   6.265
 3908SOL    HW212624   2.751   4.135   6.332
 3909SOL     OW12625   5.913   5.764   3.657
 3909SOL    HW112626   5.871   5.850   3.629
 3909SOL    HW212627   6.008   5.761   3.626
 3910SOL     OW12628   3.694   3.243   2.951
 3910SOL    HW112629   3.647   3.329   2.970
 3910SOL    HW212630   3.793   3.256   2.965
 3911SOL     OW12631   6.320   2.303   5.388
 3911SOL    HW112632   6.225   2.336   5.394
 3911SOL    HW212633   6.371   2.360   5.324
 3912SOL     OW12634   5.112   2.999   6.085
 3912SOL    HW112635   5.094   3.085   6.132
 3912SOL    HW212636   5.026   2.961   6.052
 3913SOL     OW12637   1.355   6.529   1.326
 3913SOL    HW112638   1.260   6.539   1.357
 3913SOL    HW212639   1.393   6.619   1.305
 3914SOL     OW12640   3.121   5.730   5.573
 3914SOL    HW112641   3.103   5.697   5.666
 3914SOL    HW212642   3.196   5.677   5.533
 3915SOL     OW12643   6.765   6.160   1.431
 3915SOL    HW112644   6.779   6.247   1.479
 3915SOL    HW212645   6.667   6.146   1.415
 3916SOL     OW12646   0.989   0.149   2.989
 3916SOL    HW112647   1.044   0.232   2.982
 3916SOL    HW212648   0.893   0.171   2.971
 3917SOL     OW12649   2.297   0.556   0.030
 3917SOL    HW112650   2.241   0.496   7.000
 3917SOL    HW212651   2.301   0.647   7.014
 3918SOL     OW12652   5.592   3.276   6.905
 3918SOL    HW112653   5.668   3.330   6.943
 3918SOL    HW212654   5.510   3.290   6.960
 3919SOL     OW12655   3.159   6.848   0.637
 3919SOL    HW112656   3.167   6.883   0.544
 3919SOL    HW212657   3.239   6.874   0.690
 3920SOL     OW12658   2.123   1.206   6.757
 3920SOL    HW112659   2.110   1.144   6.834
 3920SOL    HW212660   2.046   1.269   6.751
 3921SOL     OW12661   0.880   3.747   1.560
 3921SOL    HW112662   0.889   3.813   1.634
 3921SOL    HW212663   0.887   3.654   1.598
 3922SOL     OW12664   1.427   5.365   1.364
 3922SOL    HW112665   1.518   5.406   1.369
 3922SOL    HW212666   1.358   5.436   1.379
 3923SOL     OW12667   6.446   0.503   0.792
 3923SOL    HW112668   6.502   0.444   0.734
 3923SOL    HW212669   6.479   0.496   0.887
 3924SOL     OW12670   6.320   5.222   4.577
 3924SOL    HW112671   6.322   5.319   4.602
 3924SOL    HW212672   6.413   5.184   4.582
 3925SOL     OW12673   1.503   5.091   1.887
 3925SOL    HW112674   1.443   5.090   1.807
 3925SOL    HW212675   1.585   5.145   1.867
 3926SOL     OW12676   3.536   5.376   2.829
 3926SOL    HW112677   3.546   5.468   2.866
 3926SOL    HW212678   3.626   5.331   2.829
 3927SOL     OW12679   0.809   3.336   6.687
 3927SOL    HW112680   0.790   3.405   6.617
 3927SOL    HW212681   0.727   3.281   6.703
 3928SOL     OW12682   6.159   5.830   6.469
 3928SOL    HW112683   6.060   5.836   6.468
 3928SOL    HW212684   6.197   5.888   6.397
 3929SOL     OW12685   0.560   1.519   4.448
 3929SOL    HW112686   0.510   1.441   4.486
 3929SOL    HW212687   0.578   1.503   4.351
 3930SOL     OW12688   3.118   1.735   3.783
 3930SOL    HW112689   3.200   1.734   3.840
 3930SOL    HW212690   3.138   1.781   3.697
 3931SOL     OW12691   4.973   0.174   2.633
 3931SOL    HW112692   5.042   0.120   2.585
 3931SOL    HW212693   5.003   0.270   2.637
 3932SOL     OW12694   1.674   1.695   4.384
 3932SOL    HW112695   1.639   1.628   4.318
 3932SOL    HW212696   1.624   1.781   4.372
 3933SOL     OW12697   1.486   0.125   6.093
 3933SOL    HW112698   1.387   0.139   6.087
 3933SOL    HW212699   1.527   0.195   6.150
 3934SOL     OW12700   5.698   6.263   6.900
 3934SOL    HW112701   5.641   6.240   6.821
 3934SOL    HW212702   5.733   6.356   6.890
 3935SOL     OW12703   5.193   6.665   1.353
 3935SOL    HW112704   5.281   6.619   1.370
 3935SOL    HW212705   5.207   6.743   1.292
 3936SOL     OW12706   0.609   4.572   2.316
 3936SOL    HW112707   0.602   4.474   2.339
 3936SOL    HW212708   0.566   4.589   2.228
 3937SOL     OW12709   0.356   1.789   2.513
 3937SOL    HW112710   0.267   1.797   2.556
 3937SOL    HW212711   0.352   1.827   2.420
 3938SOL     OW12712   0.258   2.378   3.159
 3938SOL    HW112713   0.357   2.368   3.171
 3938SOL    HW212714   0.238   2.398   3.063
 3939SOL     OW12715   2.349   2.200   1.835
 3939SOL    HW112716   2.389   2.136   1.900
 3939SOL    HW212717   2.285   2.152   1.776
 3940SOL     OW12718   4.311   3.704   1.320
 3940SOL    HW112719   4.221   3.749   1.319
 3940SOL    HW212720   4.374   3.755   1.261
 3941SOL     OW12721   4.746   3.189   6.566
 3941SOL    HW112722   4.670   3.174   6.628
 3941SOL    HW212723   4.738   3.279   6.524
 3942SOL     OW12724   0.038   0.377   0.314
 3942SOL    HW112725   0.115   0.431   0.280
 3942SOL    HW212726   7.017   0.335   0.236
 3943SOL     OW12727   6.904   3.039   5.114
 3943SOL    HW112728   6.935   3.079   5.028
 3943SOL    HW212729   6.892   3.112   5.182
 3944SOL     OW12730   5.398   1.379   5.087
 3944SOL    HW112731   5.356   1.462   5.126
 3944SOL    HW212732   5.475   1.405   5.030
 3945SOL     OW12733   6.782   0.758   0.635
 3945SOL    HW112734   6.715   0.809   0.689
 3945SOL    HW212735   6.875   0.787   0.661
 3946SOL     OW12736   3.922   4.968   3.281
 3946SOL    HW112737   3.871   4.903   3.224
 3946SOL    HW212738   3.893   5.061   3.259
 3947SOL     OW12739   6.663   4.166   6.037
 3947SOL    HW112740   6.631   4.148   6.130
 3947SOL    HW212741   6.750   4.118   6.022
 3948SOL     OW12742   6.092   3.665   0.879
 3948SOL    HW112743   6.131   3.605   0.949
 3948SOL    HW212744   6.068   3.753   0.920
 3949SOL     OW12745   5.513   6.082   3.444
 3949SOL    HW112746   5.508   6.092   3.344
 3949SOL    HW212747   5.574   6.005   3.466
 3950SOL     OW12748   1.945   6.267   0.557
 3950SOL    HW112749   1.974   6.236   0.647
 3950SOL    HW212750   2.019   6.252   0.491
 3951SOL     OW12751   6.013   6.590   1.728
 3951SOL    HW112752   6.007   6.599   1.629
 3951SOL    HW212753   5.981   6.674   1.772
 3952SOL     OW12754   5.765   2.051   0.039
 3952SOL    HW112755   5.669   2.023   0.034
 3952SOL    HW212756   5.776   2.118   0.112
 3953SOL     OW12757   3.811   4.034   2.956
 3953SOL    HW112758   3.854   3.944   2.963
 3953SOL    HW212759   3.807   4.076   3.047
 3954SOL     OW12760   4.162   5.000   6.144
 3954SOL    HW112761   4.229   4.952   6.086
 3954SOL    HW212762   4.211   5.054   6.213
 3955SOL     OW12763   4.156   1.222   4.639
 3955SOL    HW112764   4.083   1.288   4.653
 3955SOL    HW212765   4.152   1.152   4.711
 3956SOL     OW12766   2.497   1.343   1.891
 3956SOL    HW112767   2.489   1.439   1.863
 3956SOL    HW212768   2.557   1.336   1.971
 3957SOL     OW12769   3.721   1.020   4.573
 3957SOL    HW112770   3.782   0.942   4.585
 3957SOL    HW212771   3.766   1.089   4.516
 3958SOL     OW12772   5.739   6.959   5.377
 3958SOL    HW112773   5.667   6.975   5.446
 3958SOL    HW212774   5.714   6.880   5.321
 3959SOL     OW12775   4.957   5.264   0.235
 3959SOL    HW112776   5.019   5.317   0.178
 3959SOL    HW212777   4.980   5.167   0.228
 3960SOL     OW12778   6.090   1.779   4.911
 3960SOL    HW112779   6.122   1.685   4.922
 3960SOL    HW212780   6.109   1.831   4.995
 3961SOL     OW12781   5.478   6.109   4.153
 3961SOL    HW112782   5.509   6.102   4.058
 3961SOL    HW212783   5.505   6.026   4.202
 3962SOL     OW12784   6.982   5.682   5.251
 3962SOL    HW112785   6.972   5.733   5.336
 3962SOL    HW212786   0.025   5.726   5.193
 3963SOL     OW12787   4.397   6.871   1.756
 3963SOL    HW112788   4.318   6.893   1.699
 3963SOL    HW212789   4.445   6.792   1.717
 3964SOL     OW12790   5.508   3.106   3.420
 3964SOL    HW112791   5.425   3.161   3.419
 3964SOL    HW212792   5.552   3.110   3.330
 3965SOL     OW12793   4.903   4.056   4.229
 3965SOL    HW112794   4.872   4.054   4.325
 3965SOL    HW212795   4.872   4.141   4.187
 3966SOL     OW12796   2.521   6.918   6.479
 3966SOL    HW112797   2.610   6.878   6.499
 3966SOL    HW212798   2.508   7.000   6.534
 3967SOL     OW12799   2.172   4.414   3.698
 3967SOL    HW112800   2.104   4.430   3.769
 3967SOL    HW212801   2.249   4.364   3.737
 3968SOL     OW12802   3.468   0.018   0.556
 3968SOL    HW112803   3.449   7.020   0.651
 3968SOL    HW212804   3.562   7.019   0.533
 3969SOL     OW12805   0.877   4.962   3.077
 3969SOL    HW112806   0.836   5.026   3.142
 3969SOL    HW212807   0.809   4.894   3.048
 3970SOL     OW12808   5.077   6.357   1.846
 3970SOL    HW112809   5.050   6.376   1.752
 3970SOL    HW212810   5.149   6.421   1.874
 3971SOL     OW12811   1.884   6.259   3.760
 3971SOL    HW112812   1.944   6.217   3.691
 3971SOL    HW212813   1.938   6.323   3.816
 3972SOL     OW12814   1.108   3.476   6.805
 3972SOL    HW112815   1.172   3.432   6.868
 3972SOL    HW212816   1.099   3.421   6.722
 3973SOL     OW12817   1.926   4.888   1.240
 3973SOL    HW112818   1.889   4.963   1.185
 3973SOL    HW212819   1.870   4.876   1.322
 3974SOL     OW12820   2.364   1.735   5.476
 3974SOL    HW112821   2.269   1.709   5.460
 3974SOL    HW212822   2.375   1.767   5.570
 3975SOL     OW12823   6.337   3.120   6.551
 3975SOL    HW112824   6.252   3.154   6.510
 3975SOL    HW212825   6.415   3.157   6.500
 3976SOL     OW12826   1.813   4.464   2.700
 3976SOL    HW112827   1.745   4.438   2.769
 3976SOL    HW212828   1.883   4.522   2.741
 3977SOL     OW12829   0.675   3.129   0.038
 3977SOL    HW112830   0.640   3.141   0.131
 3977SOL    HW212831   0.699   3.033   0.023
 3978SOL     OW12832   6.029   4.340   3.643
 3978SOL    HW112833   5.984   4.289   3.570
 3978SOL    HW212834   6.094   4.279   3.690
 3979SOL     OW12835   4.262   6.587   6.134
 3979SOL    HW112836   4.174   6.621   6.100
 3979SOL    HW212837   4.270   6.489   6.112
 3980SOL     OW12838   5.251   5.355   5.674
 3980SOL    HW112839   5.338   5.403   5.661
 3980SOL    HW212840   5.177   5.421   5.682
 3981SOL     OW12841   4.639   5.870   0.175
 3981SOL    HW112842   4.560   5.912   0.129
 3981SOL    HW212843   4.723   5.911   0.140
 3982SOL     OW12844   2.788   5.890   3.672
 3982SOL    HW112845   2.690   5.905   3.664
 3982SOL    HW212846   2.837   5.976   3.655
 3983SOL     OW12847   3.373   5.531   4.548
 3983SOL    HW112848   3.289   5.542   4.495
 3983SOL    HW212849   3.442   5.594   4.513
 3984SOL     OW12850   6.483   2.527   3.482
 3984SOL    HW112851   6.521   2.599   3.539
 3984SOL    HW212852   6.498   2.438   3.525
 3985SOL     OW12853   4.045   5.171   6.469
 3985SOL    HW112854   4.118   5.220   6.421
 3985SOL    HW212855   4.039   5.078   6.435
 3986SOL     OW12856   5.435   0.695   2.948
 3986SOL    HW112857   5.408   0.627   3.016
 3986SOL    HW212858   5.370   0.771   2.949
 3987SOL     OW12859   3.622   5.704   5.077
 3987SOL    HW112860   3.575   5.793   5.082
 3987SOL    HW212861   3.665   5.695   4.987
 3988SOL     OW12862   3.695   5.751   1.116
 3988SOL    HW112863   3.739   5.827   1.164
 3988SOL    HW212864   3.633   5.704   1.178
 3989SOL     OW12865   5.502   2.380   0.699
 3989SOL    HW112866   5.404   2.399   0.708
 3989SOL    HW212867   5.545   2.387   0.789
 3990SOL     OW12868   6.536   1.669   2.404
 3990SOL    HW112869   6.622   1.654   2.355
 3990SOL    HW212870   6.507   1.764   2.391
 3991SOL     OW12871   6.025   0.532   2.983
 3991SOL    HW112872   5.973   0.545   2.898
 3991SOL    HW212873   6.082   0.450   2.975
 3992SOL     OW12874   3.379   2.039   0.877
 3992SOL    HW112875   3.396   1.941   0.888
 3992SOL    HW212876   3.312   2.053   0.803
 3993SOL     OW12877   0.834   2.736   1.972
 3993SOL    HW112878   0.882   2.772   2.051
 3993SOL    HW212879   0.891   2.746   1.890
 3994SOL     OW12880   2.397   6.204   4.374
 3994SOL    HW112881   2.379   6.106   4.384
 3994SOL    HW212882   2.356   6.254   4.450
 3995SOL     OW12883   1.719   1.624   4.663
 3995SOL    HW112884   1.670   1.688   4.723
 3995SOL    HW212885   1.718   1.660   4.570
 3996SOL     OW12886   6.968   6.322   4.566
 3996SOL    HW112887   0.035   6.285   4.556
 3996SOL    HW212888   6.944   6.373   4.484
 3997SOL     OW12889   4.291   0.875   4.457
 3997SOL    HW112890   4.365   0.835   4.512
 3997SOL    HW212891   4.252   0.804   4.398
 3998SOL     OW12892   4.725   2.039   3.183
 3998SOL    HW112893   4.723   2.093   3.267
 3998SOL    HW212894   4.631   2.021   3.154
 3999SOL     OW12895   4.986   2.021   4.617
 3999SOL    HW112896   4.972   2.107   4.567
 3999SOL    HW212897   5.017   2.042   4.710
 4000SOL     OW12898   4.185   6.700   3.983
 4000SOL    HW112899   4.086   6.700   3.992
 4000SOL    HW212900   4.211   6.652   3.898
 4001SOL     OW12901   1.256   1.728   4.311
 4001SOL    HW112902   1.305   1.689   4.232
 4001SOL    HW212903   1.263   1.665   4.389
 4002SOL     OW12904   2.373   4.437   1.785
 4002SOL    HW112905   2.367   4.362   1.851
 4002SOL    HW212906   2.380   4.524   1.834
 4003SOL     OW12907   3.821   2.154   5.080
 4003SOL    HW112908   3.766   2.086   5.128
 4003SOL    HW212909   3.823   2.239   5.133
 4004SOL     OW12910   6.113   1.941   5.702
 4004SOL    HW112911   6.023   1.943   5.658
 4004SOL    HW212912   6.136   1.847   5.727
 4005SOL     OW12913   5.806   4.758   5.411
 4005SOL    HW112914   5.783   4.682   5.350
 4005SOL    HW212915   5.831   4.838   5.356
 4006SOL     OW12916   3.808   5.829   2.596
 4006SOL    HW112917   3.876   5.820   2.523
 4006SOL    HW212918   3.854   5.822   2.685
 4007SOL     OW12919   0.172   1.260   6.171
 4007SOL    HW112920   0.205   1.354   6.159
 4007SOL    HW212921   0.232   1.212   6.235
 4008SOL     OW12922   2.870   2.021   5.326
 4008SOL    HW112923   2.965   2.035   5.356
 4008SOL    HW212924   2.852   2.078   5.246
 4009SOL     OW12925   3.317   3.524   2.830
 4009SOL    HW112926   3.224   3.497   2.805
 4009SOL    HW212927   3.339   3.611   2.786
 4010SOL     OW12928   1.313   2.903   6.727
 4010SOL    HW112929   1.394   2.880   6.672
 4010SOL    HW212930   1.340   2.965   6.801
 4011SOL     OW12931   0.913   2.822   0.777
 4011SOL    HW112932   0.961   2.764   0.711
 4011SOL    HW212933   0.893   2.769   0.859
 4012SOL     OW12934   5.531   3.077   3.690
 4012SOL    HW112935   5.539   3.091   3.591
 4012SOL    HW212936   5.441   3.107   3.721
 4013SOL     OW12937   5.002   2.406   3.364
 4013SOL    HW112938   5.077   2.398   3.298
 4013SOL    HW212939   5.006   2.329   3.428
 4014SOL     OW12940   5.831   6.124   2.151
 4014SOL    HW112941   5.882   6.171   2.223
 4014SOL    HW212942   5.843   6.172   2.065
 4015SOL     OW12943   4.551   3.503   7.021
 4015SOL    HW112944   4.456   3.494   0.024
 4015SOL    HW212945   4.557   3.573   6.950
 4016SOL     OW12946   3.392   5.881   5.363
 4016SOL    HW112947   3.449   5.897   5.283
 4016SOL    HW212948   3.333   5.961   5.379
 4017SOL     OW12949   6.258   6.740   6.969
 4017SOL    HW112950   6.222   6.784   0.025
 4017SOL    HW212951   6.358   6.740   6.972
 4018SOL     OW12952   1.421   6.851   6.953
 4018SOL    HW112953   1.419   6.752   6.942
 4018SOL    HW212954   1.472   6.876   0.009
 4019SOL     OW12955   4.673   5.498   3.137
 4019SOL    HW112956   4.577   5.477   3.153
 4019SOL    HW212957   4.702   5.569   3.201
 4020SOL     OW12958   5.333   1.790   5.105
 4020SOL    HW112959   5.402   1.764   5.173
 4020SOL    HW212960   5.375   1.851   5.037
 4021SOL     OW12961   4.579   3.934   6.971
 4021SOL    HW112962   4.537   4.013   6.926
 4021SOL    HW212963   4.654   3.964   0.003
 4022SOL     OW12964   4.950   0.543   0.806
 4022SOL    HW112965   4.953   0.546   0.706
 4022SOL    HW212966   5.010   0.614   0.843
 4023SOL     OW12967   6.415   0.269   5.432
 4023SOL    HW112968   6.428   0.364   5.402
 4023SOL    HW212969   6.373   0.267   5.522
 4024SOL     OW12970   4.367   4.659   4.755
 4024SOL    HW112971   4.416   4.578   4.724
 4024SOL    HW212972   4.343   4.649   4.851
 4025SOL     OW12973   0.939   4.048   3.794
 4025SOL    HW112974   0.937   3.965   3.737
 4025SOL    HW212975   0.958   4.022   3.889
 4026SOL     OW12976   5.031   0.001   4.972
 4026SOL    HW112977   5.005   0.033   4.881
 4026SOL    HW212978   4.952   0.003   5.033
 4027SOL     OW12979   3.197   5.182   2.423
 4027SOL    HW112980   3.250   5.252   2.472
 4027SOL    HW212981   3.243   5.093   2.433
 4028SOL     OW12982   2.499   6.222   3.606
 4028SOL    HW112983   2.470   6.302   3.657
 4028SOL    HW212984   2.517   6.146   3.669
 4029SOL     OW12985   1.943   4.093   3.711
 4029SOL    HW112986   1.884   4.025   3.667
 4029SOL    HW212987   2.039   4.071   3.694
 4030SOL     OW12988   1.483   1.740   6.091
 4030SOL    HW112989   1.428   1.783   6.020
 4030SOL    HW212990   1.429   1.671   6.138
 4031SOL     OW12991   6.269   5.664   4.480
 4031SOL    HW112992   6.223   5.747   4.513
 4031SOL    HW212993   6.253   5.654   4.382
 4032SOL     OW12994   3.647   0.075   4.874
 4032SOL    HW112995   3.684   0.167   4.859
 4032SOL    HW212996   3.616   0.036   4.788
 4033SOL     OW12997   3.608   3.902   6.134
 4033SOL    HW112998   3.514   3.869   6.139
 4033SOL    HW212999   3.643   3.918   6.226
 4034SOL     OW13000   5.809   3.123   5.271
 4034SOL    HW113001   5.841   3.128   5.366
 4034SOL    HW213002   5.766   3.210   5.246
 4035SOL     OW13003   0.572   5.753   1.725
 4035SOL    HW113004   0.490   5.696   1.714
 4035SOL    HW213005   0.546   5.849   1.721
 4036SOL     OW13006   6.791   6.028   2.647
 4036SOL    HW113007   6.696   6.058   2.646
 4036SOL    HW213008   6.843   6.085   2.710
 4037SOL     OW13009   0.287   3.870   5.337
 4037SOL    HW113010   0.230   3.934   5.286
 4037SOL    HW213011   0.255   3.867   5.432
 4038SOL     OW13012   5.882   5.164   3.048
 4038SOL    HW113013   5.945   5.185   3.123
 4038SOL    HW213014   5.863   5.066   3.048
 4039SOL     OW13015   2.783   6.018   1.048
 4039SOL    HW113016   2.705   5.984   0.995
 4039SOL    HW213017   2.853   5.947   1.053
 4040SOL     OW13018   3.191   6.786   0.132
 4040SOL    HW113019   3.109   6.821   0.086
 4040SOL    HW213020   3.168   6.701   0.179
 4041SOL     OW13021   0.733   6.016   3.164
 4041SOL    HW113022   0.757   6.104   3.123
 4041SOL    HW213023   0.728   6.026   3.263
 4042SOL     OW13024   6.123   5.924   2.585
 4042SOL    HW113025   6.041   5.960   2.541
 4042SOL    HW213026   6.147   5.835   2.545
 4043SOL     OW13027   6.338   3.853   1.325
 4043SOL    HW113028   6.297   3.763   1.311
 4043SOL    HW213029   6.280   3.907   1.386
 4044SOL     OW13030   5.914   5.273   2.458
 4044SOL    HW113031   5.866   5.269   2.546
 4044SOL    HW213032   5.879   5.201   2.398
 4045SOL     OW13033   2.500   4.774   5.943
 4045SOL    HW113034   2.455   4.716   5.874
 4045SOL    HW213035   2.531   4.859   5.900
 4046SOL     OW13036   6.956   3.350   0.690
 4046SOL    HW113037   7.001   3.318   0.773
 4046SOL    HW213038   6.955   3.450   0.688
 4047SOL     OW13039   2.989   3.714   2.505
 4047SOL    HW113040   2.942   3.641   2.556
 4047SOL    HW213041   2.983   3.800   2.556
 4048SOL     OW13042   4.537   2.539   0.756
 4048SOL    HW113043   4.550   2.634   0.784
 4048SOL    HW213044   4.597   2.479   0.810
 4049SOL     OW13045   6.710   0.780   6.786
 4049SOL    HW113046   6.736   0.846   6.715
 4049SOL    HW213047   6.704   0.827   6.874
 4050SOL     OW13048   3.276   0.605   2.455
 4050SOL    HW113049   3.374   0.620   2.464
 4050SOL    HW213050   3.227   0.691   2.472
 4051SOL     OW13051   1.655   4.087   1.049
 4051SOL    HW113052   1.572   4.088   1.106
 4051SOL    HW213053   1.706   4.172   1.063
 4052SOL     OW13054   1.638   0.214   1.188
 4052SOL    HW113055   1.670   0.300   1.228
 4052SOL    HW213056   1.542   0.224   1.162
 4053SOL     OW13057   2.618   5.072   3.202
 4053SOL    HW113058   2.585   5.003   3.266
 4053SOL    HW213059   2.541   5.126   3.168
 4054SOL     OW13060   5.397   1.471   6.966
 4054SOL    HW113061   5.328   1.516   7.023
 4054SOL    HW213062   5.353   1.398   6.913
 4055SOL     OW13063   4.676   3.230   6.939
 4055SOL    HW113064   4.764   3.253   6.898
 4055SOL    HW213065   4.642   3.309   6.990
 4056SOL     OW13066   4.403   3.043   0.319
 4056SOL    HW113067   4.429   3.065   0.224
 4056SOL    HW213068   4.308   3.068   0.334
 4057SOL     OW13069   6.121   2.846   0.598
 4057SOL    HW113070   6.175   2.878   0.677
 4057SOL    HW213071   6.160   2.884   0.514
 4058SOL     OW13072   0.859   1.686   3.612
 4058SOL    HW113073   0.766   1.648   3.616
 4058SOL    HW213074   0.871   1.753   3.684
 4059SOL     OW13075   6.992   2.016   5.443
 4059SOL    HW113076   0.022   2.097   5.460
 4059SOL    HW213077   0.020   1.948   5.395
 4060SOL     OW13078   3.447   6.072   5.727
 4060SOL    HW113079   3.370   6.117   5.771
 4060SOL    HW213080   3.527   6.132   5.729
 4061SOL     OW13081   2.337   3.078   1.484
 4061SOL    HW113082   2.388   3.106   1.403
 4061SOL    HW213083   2.251   3.037   1.457
 4062SOL     OW13084   2.833   6.490   2.912
 4062SOL    HW113085   2.921   6.500   2.865
 4062SOL    HW213086   2.849   6.471   3.009
 4063SOL     OW13087   2.724   5.591   6.348
 4063SOL    HW113088   2.629   5.611   6.324
 4063SOL    HW213089   2.772   5.552   6.268
 4064SOL     OW13090   6.623   0.109   4.068
 4064SOL    HW113091   6.700   0.158   4.108
 4064SOL    HW213092   6.542   0.167   4.070
 4065SOL     OW13093   0.813   4.550   6.001
 4065SOL    HW113094   0.715   4.537   5.988
 4065SOL    HW213095   0.858   4.461   6.005
 4066SOL     OW13096   4.887   5.492   1.333
 4066SOL    HW113097   4.835   5.574   1.357
 4066SOL    HW213098   4.824   5.422   1.299
 4067SOL     OW13099   5.619   0.631   1.215
 4067SOL    HW113100   5.611   0.725   1.182
 4067SOL    HW213101   5.585   0.568   1.145
 4068SOL     OW13102   5.293   0.898   4.638
 4068SOL    HW113103   5.260   0.819   4.688
 4068SOL    HW213104   5.393   0.895   4.632
 4069SOL     OW13105   6.504   6.153   0.976
 4069SOL    HW113106   6.461   6.086   1.038
 4069SOL    HW213107   6.604   6.146   0.983
 4070SOL     OW13108   6.616   3.675   3.139
 4070SOL    HW113109   6.706   3.664   3.182
 4070SOL    HW213110   6.545   3.674   3.209
 4071SOL     OW13111   2.749   0.391   4.221
 4071SOL    HW113112   2.815   0.322   4.191
 4071SOL    HW213113   2.798   0.469   4.259
 4072SOL     OW13114   0.748   0.242   4.241
 4072SOL    HW113115   0.748   0.153   4.288
 4072SOL    HW213116   0.674   0.299   4.278
 4073SOL     OW13117   2.395   5.088   2.370
 4073SOL    HW113118   2.317   5.057   2.315
 4073SOL    HW213119   2.469   5.022   2.364
 4074SOL     OW13120   0.150   3.345   0.511
 4074SOL    HW113121   0.059   3.333   0.550
 4074SOL    HW213122   0.154   3.431   0.460
 4075SOL     OW13123   5.619   6.982   3.969
 4075SOL    HW113124   5.636   6.951   3.876
 4075SOL    HW213125   5.523   6.968   3.992
 4076SOL     OW13126   1.804   2.930   3.016
 4076SOL    HW113127   1.864   3.004   2.983
 4076SOL    HW213128   1.805   2.927   3.115
 4077SOL     OW13129   3.776   0.943   0.936
 4077SOL    HW113130   3.849   0.941   1.004
 4077SOL    HW213131   3.739   1.035   0.928
 4078SOL     OW13132   4.649   4.809   3.016
 4078SOL    HW113133   4.582   4.745   3.053
 4078SOL    HW213134   4.658   4.796   2.917
 4079SOL     OW13135   4.992   0.616   4.188
 4079SOL    HW113136   4.999   0.519   4.213
 4079SOL    HW213137   5.050   0.670   4.250
 4080SOL     OW13138   3.087   3.953   3.919
 4080SOL    HW113139   3.121   3.978   4.009
 4080SOL    HW213140   3.070   3.854   3.915
 4081SOL     OW13141   2.273   1.593   6.995
 4081SOL    HW113142   2.236   1.507   0.002
 4081SOL    HW213143   2.205   1.665   7.007
 4082SOL     OW13144   1.072   1.560   6.104
 4082SOL    HW113145   1.016   1.527   6.180
 4082SOL    HW213146   1.065   1.659   6.098
 4083SOL     OW13147   6.199   5.132   2.303
 4083SOL    HW113148   6.241   5.050   2.342
 4083SOL    HW213149   6.130   5.168   2.365
 4084SOL     OW13150   4.599   6.656   1.904
 4084SOL    HW113151   4.595   6.755   1.888
 4084SOL    HW213152   4.577   6.608   1.819
 4085SOL     OW13153   2.416   4.520   2.519
 4085SOL    HW113154   2.376   4.560   2.436
 4085SOL    HW213155   2.384   4.426   2.530
 4086SOL     OW13156   5.724   5.328   4.892
 4086SOL    HW113157   5.727   5.233   4.861
 4086SOL    HW213158   5.783   5.339   4.972
 4087SOL     OW13159   2.068   0.931   2.431
 4087SOL    HW113160   1.982   0.888   2.404
 4087SOL    HW213161   2.059   0.969   2.523
 4088SOL     OW13162   0.211   1.581   5.760
 4088SOL    HW113163   0.269   1.635   5.821
 4088SOL    HW213164   0.240   1.596   5.666
 4089SOL     OW13165   1.328   0.573   2.694
 4089SOL    HW113166   1.307   0.652   2.751
 4089SOL    HW213167   1.405   0.523   2.734
 4090SOL     OW13168   3.156   2.604   5.563
 4090SOL    HW113169   3.209   2.579   5.482
 4090SOL    HW213170   3.063   2.567   5.554
 4091SOL     OW13171   3.566   5.895   1.988
 4091SOL    HW113172   3.578   5.799   1.967
 4091SOL    HW213173   3.554   5.947   1.903
 4092SOL     OW13174   5.336   1.711   6.333
 4092SOL    HW113175   5.367   1.682   6.423
 4092SOL    HW213176   5.411   1.756   6.285
 4093SOL     OW13177   5.684   3.972   2.360
 4093SOL    HW113178   5.714   3.978   2.455
 4093SOL    HW213179   5.728   4.044   2.306
 4094SOL     OW13180   6.949   6.865   0.035
 4094SOL    HW113181   6.893   6.782   0.044
 4094SOL    HW213182   6.986   6.870   6.968
 4095SOL     OW13183   1.914   5.065   1.013
 4095SOL    HW113184   1.871   5.065   0.923
 4095SOL    HW213185   2.012   5.080   1.003
 4096SOL     OW13186   0.557   0.189   6.251
 4096SOL    HW113187   0.607   0.117   6.299
 4096SOL    HW213188   0.459   0.171   6.257
 4097SOL     OW13189   1.274   3.834   5.535
 4097SOL    HW113190   1.354   3.821   5.593
 4097SOL    HW213191   1.195   3.789   5.576
 4098SOL     OW13192   1.377   5.929   1.960
 4098SOL    HW113193   1.406   6.025   1.956
 4098SOL    HW213194   1.447   5.871   1.920
 4099SOL     OW13195   0.114   3.265   5.556
 4099SOL    HW113196   0.086   3.190   5.497
 4099SOL    HW213197   0.072   3.254   5.646
 4100SOL     OW13198   2.511   0.406   3.203
 4100SOL    HW113199   2.457   0.443   3.278
 4100SOL    HW213200   2.478   0.314   3.181
 4101SOL     OW13201   6.274   6.308   6.025
 4101SOL    HW113202   6.285   6.236   6.093
 4101SOL    HW213203   6.177   6.319   6.003
 4102SOL     OW13204   1.827   5.383   0.473
 4102SOL    HW113205   1.873   5.447   0.534
 4102SOL    HW213206   1.887   5.360   0.396
 4103SOL     OW13207   2.136   4.924   2.981
 4103SOL    HW113208   2.206   4.973   2.929
 4103SOL    HW213209   2.137   4.827   2.955
 4104SOL     OW13210   1.535   6.079   5.359
 4104SOL    HW113211   1.466   6.118   5.298
 4104SOL    HW213212   1.495   6.002   5.410
 4105SOL     OW13213   3.590   6.690   1.981
 4105SOL    HW113214   3.585   6.763   1.913
 4105SOL    HW213215   3.655   6.716   2.052
 4106SOL     OW13216   1.338   7.017   2.887
 4106SOL    HW113217   1.294   7.018   2.977
 4106SOL    HW213218   1.406   0.063   2.883
 4107SOL     OW13219   1.940   1.885   1.004
 4107SOL    HW113220   1.953   1.892   0.905
 4107SOL    HW213221   1.859   1.830   1.023
 4108SOL     OW13222   0.148   6.648   4.969
 4108SOL    HW113223   0.094   6.680   4.891
 4108SOL    HW213224   0.132   6.551   4.985
 4109SOL     OW13225   4.955   6.803   4.817
 4109SOL    HW113226   4.942   6.858   4.735
 4109SOL    HW213227   4.996   6.859   4.889
 4110SOL     OW13228   4.026   2.979   0.762
 4110SOL    HW113229   3.992   2.959   0.853
 4110SOL    HW213230   4.126   2.970   0.761
 4111SOL     OW13231   5.645   4.659   3.695
 4111SOL    HW113232   5.600   4.712   3.767
 4111SOL    HW213233   5.739   4.691   3.684
 4112SOL     OW13234   4.258   5.849   5.214
 4112SOL    HW113235   4.199   5.781   5.256
 4112SOL    HW213236   4.319   5.888   5.283
 4113SOL     OW13237   4.801   5.375   5.308
 4113SOL    HW113238   4.891   5.379   5.351
 4113SOL    HW213239   4.731   5.392   5.377
 4114SOL     OW13240   6.852   0.996   2.796
 4114SOL    HW113241   6.831   1.089   2.765
 4114SOL    HW213242   6.864   0.995   2.895
 4115SOL     OW13243   3.957   6.143   4.350
 4115SOL    HW113244   3.942   6.208   4.424
 4115SOL    HW213245   4.030   6.175   4.290
 4116SOL     OW13246   6.290   3.345   4.162
 4116SOL    HW113247   6.206   3.316   4.207
 4116SOL    HW213248   6.369   3.303   4.207
 4117SOL     OW13249   0.184   1.742   2.778
 4117SOL    HW113250   0.272   1.728   2.824
 4117SOL    HW213251   0.118   1.674   2.811
 4118SOL     OW13252   1.300   0.302   1.753
 4118SOL    HW113253   1.297   0.313   1.853
 4118SOL    HW213254   1.209   0.279   1.719
 4119SOL     OW13255   0.010   0.712   5.360
 4119SOL    HW113256   0.090   0.697   5.301
 4119SOL    HW213257   6.961   0.652   5.330
 4120SOL     OW13258   1.713   0.723   5.947
 4120SOL    HW113259   1.658   0.791   5.899
 4120SOL    HW213260   1.809   0.749   5.945
 4121SOL     OW13261   6.679   0.938   1.399
 4121SOL    HW113262   6.593   0.892   1.420
 4121SOL    HW213263   6.756   0.880   1.427
 4122SOL     OW13264   0.773   4.881   3.656
 4122SOL    HW113265   0.700   4.847   3.716
 4122SOL    HW213266   0.741   4.964   3.609
 4123SOL     OW13267   5.825   4.693   1.426
 4123SOL    HW113268   5.782   4.644   1.502
 4123SOL    HW213269   5.904   4.642   1.394
 4124SOL     OW13270   6.390   0.073   0.274
 4124SOL    HW113271   6.367   0.124   0.191
 4124SOL    HW213272   6.318   0.088   0.343
 4125SOL     OW13273   6.951   2.459   6.615
 4125SOL    HW113274   6.924   2.449   6.711
 4125SOL    HW213275   6.899   2.534   6.574
 4126SOL     OW13276   1.440   4.128   4.084
 4126SOL    HW113277   1.539   4.113   4.079
 4126SOL    HW213278   1.392   4.047   4.051
 4127SOL     OW13279   4.970   2.482   3.897
 4127SOL    HW113280   4.960   2.383   3.912
 4127SOL    HW213281   4.935   2.505   3.806
 4128SOL     OW13282   6.693   2.131   6.136
 4128SOL    HW113283   6.704   2.043   6.182
 4128SOL    HW213284   6.690   2.204   6.205
 4129SOL     OW13285   3.424   0.504   1.657
 4129SOL    HW113286   3.410   0.596   1.622
 4129SOL    HW213287   3.522   0.488   1.671
 4130SOL     OW13288   5.379   2.506   6.824
 4130SOL    HW113289   5.296   2.462   6.857
 4130SOL    HW213290   5.410   2.573   6.892
 4131SOL     OW13291   4.975   6.218   3.866
 4131SOL    HW113292   5.073   6.237   3.871
 4131SOL    HW213293   4.938   6.212   3.959
 4132SOL     OW13294   6.604   4.041   3.359
 4132SOL    HW113295   6.650   3.966   3.311
 4132SOL    HW213296   6.558   4.099   3.292
 4133SOL     OW13297   5.375   6.440   3.683
 4133SOL    HW113298   5.390   6.538   3.696
 4133SOL    HW213299   5.349   6.422   3.588
 4134SOL     OW13300   1.218   3.416   1.013
 4134SOL    HW113301   1.313   3.419   0.984
 4134SOL    HW213302   1.159   3.441   0.936
 4135SOL     OW13303   5.884   1.592   1.071
 4135SOL    HW113304   5.826   1.514   1.094
 4135SOL    HW213305   5.950   1.607   1.145
 4136SOL     OW13306   0.691   5.078   0.468
 4136SOL    HW113307   0.658   5.133   0.391
 4136SOL    HW213308   0.790   5.072   0.465
 4137SOL     OW13309   0.144   2.711   5.819
 4137SOL    HW113310   0.056   2.698   5.774
 4137SOL    HW213311   0.135   2.687   5.916
 4138SOL     OW13312   5.457   6.829   6.302
 4138SOL    HW113313   5.549   6.790   6.296
 4138SOL    HW213314   5.423   6.847   6.209
 4139SOL     OW13315   1.690   4.486   2.457
 4139SOL    HW113316   1.751   4.460   2.531
 4139SOL    HW213317   1.595   4.476   2.486
 4140SOL     OW13318   2.373   0.017   6.994
 4140SOL    HW113319   2.425   0.020   0.054
 4140SOL    HW213320   2.297   6.979   7.004
 4141SOL     OW13321   5.255   0.353   5.915
 4141SOL    HW113322   5.289   0.430   5.969
 4141SOL    HW213323   5.313   0.341   5.835
 4142SOL     OW13324   6.876   6.554   1.464
 4142SOL    HW113325   6.953   6.579   1.523
 4142SOL    HW213326   6.814   6.493   1.514
 4143SOL     OW13327   6.490   3.866   6.740
 4143SOL    HW113328   6.534   3.794   6.687
 4143SOL    HW213329   6.510   3.955   6.699
 4144SOL     OW13330   4.278   0.427   1.715
 4144SOL    HW113331   4.305   0.500   1.651
 4144SOL    HW213332   4.217   0.465   1.784
 4145SOL     OW13333   5.385   0.808   1.072
 4145SOL    HW113334   5.465   0.866   1.088
 4145SOL    HW213335   5.394   0.763   0.983
 4146SOL     OW13336   4.214   0.042   2.652
 4146SOL    HW113337   4.158   0.103   2.708
 4146SOL    HW213338   4.180   6.974   2.661
 4147SOL     OW13339   4.717   4.323   6.920
 4147SOL    HW113340   4.737   4.353   7.013
 4147SOL    HW213341   4.620   4.299   6.912
 4148SOL     OW13342   3.076   1.538   5.961
 4148SOL    HW113343   3.138   1.557   5.884
 4148SOL    HW213344   3.098   1.448   5.998
 4149SOL     OW13345   1.730   3.235   6.763
 4149SOL    HW113346   1.740   3.147   6.716
 4149SOL    HW213347   1.764   3.227   6.857
 4150SOL     OW13348   6.100   1.514   0.867
 4150SOL    HW113349   6.029   1.547   0.929
 4150SOL    HW213350   6.150   1.439   0.910
 4151SOL     OW13351   2.832   5.793   5.002
 4151SOL    HW113352   2.804   5.705   5.040
 4151SOL    HW213353   2.911   5.828   5.053
 4152SOL     OW13354   2.969   4.395   1.202
 4152SOL    HW113355   2.976   4.369   1.298
 4152SOL    HW213356   2.874   4.387   1.172
 4153SOL     OW13357   6.839   5.954   1.257
 4153SOL    HW113358   6.802   6.025   1.317
 4153SOL    HW213359   6.914   5.992   1.202
 4154SOL     OW13360   0.474   6.512   4.642
 4154SOL    HW113361   0.513   6.499   4.551
 4154SOL    HW213362   0.399   6.578   4.637
 4155SOL     OW13363   5.774   1.356   1.522
 4155SOL    HW113364   5.680   1.379   1.497
 4155SOL    HW213365   5.824   1.440   1.542
 4156SOL     OW13366   0.673   4.674   5.661
 4156SOL    HW113367   0.671   4.768   5.696
 4156SOL    HW213368   0.591   4.625   5.691
 4157SOL     OW13369   5.380   6.130   0.766
 4157SOL    HW113370   5.296   6.083   0.742
 4157SOL    HW213371   5.394   6.126   0.865
 4158SOL     OW13372   6.732   2.303   0.582
 4158SOL    HW113373   6.670   2.296   0.660
 4158SOL    HW213374   6.731   2.216   0.532
 4159SOL     OW13375   3.270   0.284   4.530
 4159SOL    HW113376   3.193   0.293   4.466
 4159SOL    HW213377   3.340   0.352   4.508
 4160SOL     OW13378   1.797   0.100   5.587
 4160SOL    HW113379   1.795   0.156   5.504
 4160SOL    HW213380   1.704   0.088   5.622
 4161SOL     OW13381   3.229   2.973   3.708
 4161SOL    HW113382   3.186   3.021   3.784
 4161SOL    HW213383   3.325   2.958   3.728
 4162SOL     OW13384   5.600   6.121   1.467
 4162SOL    HW113385   5.678   6.091   1.412
 4162SOL    HW213386   5.598   6.220   1.471
 4163SOL     OW13387   3.537   5.583   1.262
 4163SOL    HW113388   3.478   5.534   1.198
 4163SOL    HW213389   3.521   5.549   1.355
 4164SOL     OW13390   5.573   1.688   6.856
 4164SOL    HW113391   5.530   1.778   6.865
 4164SOL    HW213392   5.513   1.619   6.896
 4165SOL     OW13393   3.340   1.900   4.025
 4165SOL    HW113394   3.366   1.827   3.963
 4165SOL    HW213395   3.416   1.919   4.088
 4166SOL     OW13396   6.156   2.103   2.294
 4166SOL    HW113397   6.143   2.068   2.387
 4166SOL    HW213398   6.145   2.202   2.293
 4167SOL     OW13399   3.916   5.564   4.498
 4167SOL    HW113400   3.995   5.594   4.551
 4167SOL    HW213401   3.833   5.603   4.538
 4168SOL     OW13402   5.107   4.057   6.458
 4168SOL    HW113403   5.046   4.119   6.507
 4168SOL    HW213404   5.068   4.038   6.367
 4169SOL     OW13405   5.021   3.839   6.607
 4169SOL    HW113406   5.050   3.756   6.559
 4169SOL    HW213407   5.053   3.919   6.557
 4170SOL     OW13408   1.213   3.431   5.009
 4170SOL    HW113409   1.234   3.333   5.010
 4170SOL    HW213410   1.193   3.460   4.915
 4171SOL     OW13411   0.462   1.062   6.185
 4171SOL    HW113412   0.546   1.107   6.153
 4171SOL    HW213413   0.423   1.008   6.110
 4172SOL     OW13414   2.672   2.623   6.416
 4172SOL    HW113415   2.596   2.665   6.366
 4172SOL    HW213416   2.650   2.527   6.436
 4173SOL     OW13417   5.129   1.220   5.263
 4173SOL    HW113418   5.100   1.315   5.265
 4173SOL    HW213419   5.073   1.169   5.198
 4174SOL     OW13420   3.509   0.040   3.955
 4174SOL    HW113421   3.543   6.973   3.940
 4174SOL    HW213422   3.451   0.067   3.878
 4175SOL     OW13423   0.935   4.616   6.688
 4175SOL    HW113424   0.839   4.598   6.669
 4175SOL    HW213425   0.972   4.543   6.745
 4176SOL     OW13426   4.488   0.150   5.335
 4176SOL    HW113427   4.401   0.104   5.318
 4176SOL    HW213428   4.478   0.210   5.414
 4177SOL     OW13429   4.009   5.489   3.432
 4177SOL    HW113430   4.024   5.390   3.426
 4177SOL    HW213431   4.096   5.535   3.452
 4178SOL     OW13432   3.895   6.364   1.199
 4178SOL    HW113433   3.810   6.364   1.252
 4178SOL    HW213434   3.873   6.369   1.101
 4179SOL     OW13435   4.598   2.266   6.604
 4179SOL    HW113436   4.508   2.254   6.645
 4179SOL    HW213437   4.617   2.364   6.592
 4180SOL     OW13438   3.689   4.252   6.810
 4180SOL    HW113439   3.605   4.293   6.847
 4180SOL    HW213440   3.721   4.182   6.873
 4181SOL     OW13441   5.497   6.477   5.842
 4181SOL    HW113442   5.454   6.414   5.907
 4181SOL    HW213443   5.433   6.495   5.767
 4182SOL     OW13444   0.181   5.922   5.435
 4182SOL    HW113445   0.094   5.873   5.440
 4182SOL    HW213446   0.174   5.997   5.370
 4183SOL     OW13447   4.928   2.282   0.313
 4183SOL    HW113448   4.850   2.221   0.332
 4183SOL    HW213449   4.915   2.368   0.362
 4184SOL     OW13450   2.977   5.311   3.303
 4184SOL    HW113451   2.929   5.247   3.244
 4184SOL    HW213452   3.039   5.367   3.249
 4185SOL     OW13453   4.684   4.197   3.138
 4185SOL    HW113454   4.639   4.110   3.122
 4185SOL    HW213455   4.640   4.269   3.084
 4186SOL     OW13456   2.130   5.017   6.789
 4186SOL    HW113457   2.210   5.047   6.738
 4186SOL    HW213458   2.059   4.988   6.725
 4187SOL     OW13459   2.568   4.195   6.327
 4187SOL    HW113460   2.485   4.155   6.290
 4187SOL    HW213461   2.545   4.254   6.405
 4188SOL     OW13462   5.263   0.590   6.752
 4188SOL    HW113463   5.325   0.534   6.808
 4188SOL    HW213464   5.278   0.686   6.772
 4189SOL     OW13465   4.980   5.090   3.052
 4189SOL    HW113466   5.057   5.153   3.038
 4189SOL    HW213467   4.895   5.143   3.054
 4190SOL     OW13468   6.424   6.712   2.119
 4190SOL    HW113469   6.426   6.628   2.065
 4190SOL    HW213470   6.474   6.784   2.071
 4191SOL     OW13471   4.235   2.632   6.519
 4191SOL    HW113472   4.287   2.711   6.486
 4191SOL    HW213473   4.184   2.657   6.601
 4192SOL     OW13474   1.742   3.697   6.286
 4192SOL    HW113475   1.795   3.612   6.282
 4192SOL    HW213476   1.680   3.694   6.365
 4193SOL     OW13477   6.789   0.151   0.735
 4193SOL    HW113478   6.711   0.187   0.684
 4193SOL    HW213479   6.770   0.157   0.833
 4194SOL     OW13480   5.717   0.592   6.393
 4194SOL    HW113481   5.692   0.505   6.350
 4194SOL    HW213482   5.759   0.652   6.325
 4195SOL     OW13483   2.490   6.234   0.848
 4195SOL    HW113484   2.582   6.216   0.812
 4195SOL    HW213485   2.493   6.315   0.907
 4196SOL     OW13486   0.165   2.772   3.696
 4196SOL    HW113487   0.180   2.716   3.614
 4196SOL    HW213488   0.156   2.713   3.776
 4197SOL     OW13489   3.754   0.727   0.221
 4197SOL    HW113490   3.695   0.773   0.154
 4197SOL    HW213491   3.847   0.720   0.184
 4198SOL     OW13492   7.005   2.417   1.872
 4198SOL    HW113493   0.056   2.472   1.840
 4198SOL    HW213494   6.988   2.435   1.969
 4199SOL     OW13495   0.629   3.719   6.686
 4199SOL    HW113496   0.604   3.752   6.595
 4199SOL    HW213497   0.728   3.708   6.690
 4200SOL     OW13498   5.121   2.023   3.621
 4200SOL    HW113499   5.125   2.039   3.522
 4200SOL    HW213500   5.132   2.110   3.669
 4201SOL     OW13501   5.580   0.045   4.593
 4201SOL    HW113502   5.633   7.020   4.525
 4201SOL    HW213503   5.592   0.002   4.683
 4202SOL     OW13504   4.486   3.978   1.657
 4202SOL    HW113505   4.434   4.031   1.724
 4202SOL    HW213506   4.431   3.900   1.627
 4203SOL     OW13507   6.228   4.098   5.266
 4203SOL    HW113508   6.208   4.182   5.217
 4203SOL    HW213509   6.274   4.033   5.205
 4204SOL     OW13510   1.744   4.102   6.309
 4204SOL    HW113511   1.792   4.067   6.228
 4204SOL    HW213512   1.793   4.074   6.391
 4205SOL     OW13513   5.392   6.194   5.804
 4205SOL    HW113514   5.444   6.215   5.886
 4205SOL    HW213515   5.448   6.141   5.740
 4206SOL     OW13516   2.535   2.137   4.549
 4206SOL    HW113517   2.585   2.218   4.580
 4206SOL    HW213518   2.584   2.095   4.473
 4207SOL     OW13519   1.690   2.625   1.692
 4207SOL    HW113520   1.754   2.590   1.760
 4207SOL    HW213521   1.663   2.551   1.630
 4208SOL     OW13522   2.768   2.344   3.609
 4208SOL    HW113523   2.846   2.398   3.578
 4208SOL    HW213524   2.748   2.365   3.704
 4209SOL     OW13525   6.462   5.515   2.528
 4209SOL    HW113526   6.505   5.594   2.485
 4209SOL    HW213527   6.374   5.542   2.567
 4210SOL     OW13528   2.961   4.382   5.363
 4210SOL    HW113529   2.931   4.435   5.284
 4210SOL    HW213530   2.957   4.440   5.445
 4211SOL     OW13531   4.225   2.973   5.547
 4211SOL    HW113532   4.150   3.038   5.539
 4211SOL    HW213533   4.219   2.905   5.474
 4212SOL     OW13534   1.108   2.280   3.017
 4212SOL    HW113535   1.121   2.197   3.071
 4212SOL    HW213536   1.042   2.339   3.063
 4213SOL     OW13537   3.925   0.572   3.643
 4213SOL    HW113538   3.869   0.640   3.595
 4213SOL    HW213539   3.897   0.567   3.738
 4214SOL     OW13540   6.773   5.993   3.799
 4214SOL    HW113541   6.728   5.904   3.812
 4214SOL    HW213542   6.832   5.988   3.718
 4215SOL     OW13543   6.307   0.273   5.177
 4215SOL    HW113544   6.213   0.245   5.157
 4215SOL    HW213545   6.334   0.236   5.267
 4216SOL     OW13546   2.571   5.474   2.195
 4216SOL    HW113547   2.490   5.530   2.177
 4216SOL    HW213548   2.561   5.428   2.283
 4217SOL     OW13549   1.177   0.652   3.102
 4217SOL    HW113550   1.185   0.709   3.021
 4217SOL    HW213551   1.228   0.694   3.178
 4218SOL     OW13552   3.480   0.870   1.962
 4218SOL    HW113553   3.387   0.887   1.997
 4218SOL    HW213554   3.516   0.953   1.920
 4219SOL     OW13555   3.387   5.131   3.409
 4219SOL    HW113556   3.331   5.178   3.342
 4219SOL    HW213557   3.345   5.043   3.432
 4220SOL     OW13558   6.087   2.291   1.410
 4220SOL    HW113559   6.157   2.219   1.409
 4220SOL    HW213560   6.122   2.371   1.460
 4221SOL     OW13561   0.553   6.293   0.567
 4221SOL    HW113562   0.540   6.198   0.594
 4221SOL    HW213563   0.494   6.314   0.488
 4222SOL     OW13564   4.999   3.286   4.809
 4222SOL    HW113565   5.064   3.344   4.857
 4222SOL    HW213566   4.934   3.343   4.759
 4223SOL     OW13567   3.347   4.111   2.478
 4223SOL    HW113568   3.337   4.131   2.575
 4223SOL    HW213569   3.260   4.126   2.432
 4224SOL     OW13570   4.869   4.478   4.662
 4224SOL    HW113571   4.965   4.452   4.650
 4224SOL    HW213572   4.860   4.540   4.739
 4225SOL     OW13573   0.578   1.821   6.068
 4225SOL    HW113574   0.593   1.788   6.161
 4225SOL    HW213575   0.513   1.897   6.070
 4226SOL     OW13576   6.106   4.739   4.503
 4226SOL    HW113577   6.198   4.717   4.471
 4226SOL    HW213578   6.101   4.836   4.524
 4227SOL     OW13579   5.329   5.281   1.259
 4227SOL    HW113580   5.262   5.217   1.297
 4227SOL    HW213581   5.299   5.374   1.277
 4228SOL     OW13582   1.617   4.408   3.469
 4228SOL    HW113583   1.623   4.380   3.373
 4228SOL    HW213584   1.547   4.353   3.515
 4229SOL     OW13585   6.284   6.239   5.390
 4229SOL    HW113586   6.353   6.267   5.457
 4229SOL    HW213587   6.310   6.151   5.351
 4230SOL     OW13588   0.206   1.155   1.732
 4230SOL    HW113589   0.137   1.185   1.799
 4230SOL    HW213590   0.232   1.232   1.675
 4231SOL     OW13591   0.546   0.422   6.390
 4231SOL    HW113592   0.551   0.331   6.349
 4231SOL    HW213593   0.606   0.426   6.470
 4232SOL     OW13594   1.713   4.702   3.854
 4232SOL    HW113595   1.804   4.705   3.812
 4232SOL    HW213596   1.719   4.662   3.945
 4233SOL     OW13597   4.430   5.221   2.165
 4233SOL    HW113598   4.377   5.229   2.081
 4233SOL    HW213599   4.391   5.149   2.222
 4234SOL     OW13600   3.729   5.497   5.999
 4234SOL    HW113601   3.661   5.462   5.935
 4234SOL    HW213602   3.736   5.596   5.991
 4235SOL     OW13603   6.846   6.238   6.445
 4235SOL    HW113604   6.887   6.224   6.536
 4235SOL    HW213605   6.889   6.175   6.380
 4236SOL     OW13606   0.747   5.296   2.904
 4236SOL    HW113607   0.752   5.251   2.993
 4236SOL    HW213608   0.823   5.266   2.847
 4237SOL     OW13609   6.494   4.657   3.812
 4237SOL    HW113610   6.489   4.654   3.712
 4237SOL    HW213611   6.575   4.710   3.839
 4238SOL     OW13612   2.968   5.644   2.742
 4238SOL    HW113613   2.992   5.578   2.813
 4238SOL    HW213614   3.002   5.734   2.768
 4239SOL     OW13615   3.987   1.140   3.475
 4239SOL    HW113616   3.969   1.144   3.376
 4239SOL    HW213617   3.913   1.186   3.524
 4240SOL     OW13618   5.907   6.621   2.384
 4240SOL    HW113619   5.874   6.697   2.441
 4240SOL    HW213620   5.949   6.552   2.442
 4241SOL     OW13621   6.667   4.702   0.368
 4241SOL    HW113622   6.614   4.785   0.387
 4241SOL    HW213623   6.606   4.630   0.337
 4242SOL     OW13624   3.730   2.141   3.554
 4242SOL    HW113625   3.706   2.045   3.570
 4242SOL    HW213626   3.706   2.196   3.634
 4243SOL     OW13627   3.862   1.973   2.844
 4243SOL    HW113628   3.953   1.933   2.834
 4243SOL    HW213629   3.841   2.029   2.764
 4244SOL     OW13630   3.239   2.957   4.865
 4244SOL    HW113631   3.239   3.033   4.930
 4244SOL    HW213632   3.195   2.986   4.780
 4245SOL     OW13633   6.466   0.377   6.525
 4245SOL    HW113634   6.518   0.349   6.606
 4245SOL    HW213635   6.473   0.476   6.514
 4246SOL     OW13636   0.031   4.773   6.067
 4246SOL    HW113637   0.011   4.676   6.079
 4246SOL    HW213638   6.996   4.811   5.997
 4247SOL     OW13639   6.952   5.839   4.885
 4247SOL    HW113640   7.010   5.760   4.868
 4247SOL    HW213641   6.997   5.922   4.852
 4248SOL     OW13642   2.559   3.511   6.503
 4248SOL    HW113643   2.505   3.588   6.538
 4248SOL    HW213644   2.540   3.430   6.559
 4249SOL     OW13645   5.594   3.515   6.367
 4249SOL    HW113646   5.540   3.460   6.304
 4249SOL    HW213647   5.684   3.473   6.381
 4250SOL     OW13648   0.079   3.974   3.954
 4250SOL    HW113649   0.046   3.894   4.004
 4250SOL    HW213650   0.172   3.956   3.922
 4251SOL     OW13651   5.576   4.778   6.741
 4251SOL    HW113652   5.506   4.754   6.808
 4251SOL    HW213653   5.616   4.867   6.764
 4252SOL     OW13654   6.456   5.085   5.075
 4252SOL    HW113655   6.530   5.148   5.054
 4252SOL    HW213656   6.406   5.062   4.992
 4253SOL     OW13657   3.356   6.186   3.050
 4253SOL    HW113658   3.324   6.091   3.051
 4253SOL    HW213659   3.285   6.244   3.009
 4254SOL     OW13660   2.809   3.785   1.415
 4254SOL    HW113661   2.777   3.691   1.428
 4254SOL    HW213662   2.809   3.833   1.503
 4255SOL     OW13663   0.573   2.502   4.382
 4255SOL    HW113664   0.517   2.571   4.335
 4255SOL    HW213665   0.545   2.497   4.478
 4256SOL     OW13666   2.098   1.070   2.193
 4256SOL    HW113667   2.141   1.159   2.213
 4256SOL    HW213668   2.077   1.024   2.280
 4257SOL     OW13669   4.348   2.211   5.341
 4257SOL    HW113670   4.394   2.166   5.265
 4257SOL    HW213671   4.382   2.174   5.427
 4258SOL     OW13672   5.287   5.917   2.749
 4258SOL    HW113673   5.227   5.857   2.801
 4258SOL    HW213674   5.352   5.863   2.696
 4259SOL     OW13675   2.431   3.187   1.247
 4259SOL    HW113676   2.418   3.134   1.163
 4259SOL    HW213677   2.371   3.267   1.246
 4260SOL     OW13678   3.680   5.759   4.573
 4260SOL    HW113679   3.587   5.757   4.611
 4260SOL    HW213680   3.676   5.782   4.476
 4261SOL     OW13681   1.060   1.546   2.732
 4261SOL    HW113682   1.009   1.538   2.818
 4261SOL    HW213683   1.075   1.643   2.711
 4262SOL     OW13684   0.540   6.380   6.259
 4262SOL    HW113685   0.544   6.393   6.358
 4262SOL    HW213686   0.590   6.297   6.235
 4263SOL     OW13687   4.371   5.134   6.581
 4263SOL    HW113688   4.352   5.169   6.673
 4263SOL    HW213689   4.384   5.034   6.586
 4264SOL     OW13690   0.798   0.368   1.491
 4264SOL    HW113691   0.758   0.437   1.551
 4264SOL    HW213692   0.725   0.329   1.434
 4265SOL     OW13693   1.573   1.530   0.323
 4265SOL    HW113694   1.602   1.625   0.319
 4265SOL    HW213695   1.634   1.474   0.266
 4266SOL     OW13696   3.587   4.740   0.966
 4266SOL    HW113697   3.675   4.722   0.923
 4266SOL    HW213698   3.513   4.719   0.902
 4267SOL     OW13699   1.421   4.287   5.578
 4267SOL    HW113700   1.485   4.335   5.639
 4267SOL    HW213701   1.472   4.248   5.501
 4268SOL     OW13702   1.805   0.898   1.380
 4268SOL    HW113703   1.858   0.956   1.442
 4268SOL    HW213704   1.712   0.934   1.372
 4269SOL     OW13705   2.537   3.799   0.811
 4269SOL    HW113706   2.485   3.884   0.825
 4269SOL    HW213707   2.620   3.801   0.866
 4270SOL     OW13708   3.602   2.954   6.463
 4270SOL    HW113709   3.647   2.885   6.519
 4270SOL    HW213710   3.548   3.014   6.523
 4271SOL     OW13711   1.488   0.950   1.077
 4271SOL    HW113712   1.551   0.950   0.999
 4271SOL    HW213713   1.534   0.988   1.157
 4272SOL     OW13714   0.268   4.097   4.218
 4272SOL    HW113715   0.261   4.147   4.132
 4272SOL    HW213716   0.255   3.999   4.201
 4273SOL     OW13717   5.818   6.696   4.123
 4273SOL    HW113718   5.847   6.792   4.120
 4273SOL    HW213719   5.754   6.678   4.048
 4274SOL     OW13720   2.389   0.340   3.884
 4274SOL    HW113721   2.442   0.367   3.964
 4274SOL    HW213722   2.443   0.277   3.828
 4275SOL     OW13723   0.673   0.258   5.721
 4275SOL    HW113724   0.623   0.341   5.696
 4275SOL    HW213725   0.608   0.191   5.759
 4276SOL     OW13726   1.946   4.573   2.397
 4276SOL    HW113727   1.945   4.562   2.298
 4276SOL    HW213728   1.861   4.537   2.436
 4277SOL     OW13729   0.630   5.517   5.780
 4277SOL    HW113730   0.539   5.501   5.818
 4277SOL    HW213731   0.687   5.563   5.849
 4278SOL     OW13732   1.337   6.485   6.272
 4278SOL    HW113733   1.391   6.564   6.301
 4278SOL    HW213734   1.395   6.403   6.274
 4279SOL     OW13735   3.067   5.773   3.846
 4279SOL    HW113736   3.087   5.739   3.755
 4279SOL    HW213737   2.977   5.741   3.876
 4280SOL     OW13738   4.925   2.835   3.661
 4280SOL    HW113739   4.917   2.788   3.574
 4280SOL    HW213740   4.975   2.921   3.649
 4281SOL     OW13741   2.381   4.311   5.212
 4281SOL    HW113742   2.466   4.350   5.176
 4281SOL    HW213743   2.370   4.217   5.180
 4282SOL     OW13744   0.508   2.991   0.614
 4282SOL    HW113745   0.581   3.053   0.642
 4282SOL    HW213746   0.420   3.038   0.621
 4283SOL     OW13747   2.469   0.860   4.692
 4283SOL    HW113748   2.488   0.956   4.671
 4283SOL    HW213749   2.373   0.849   4.717
 4284SOL     OW13750   0.264   2.055   3.266
 4284SOL    HW113751   0.241   1.960   3.250
 4284SOL    HW213752   0.240   2.110   3.186
 4285SOL     OW13753   0.954   5.833   4.713
 4285SOL    HW113754   0.884   5.767   4.686
 4285SOL    HW213755   0.920   5.890   4.787
 4286SOL     OW13756   4.470   5.584   6.410
 4286SOL    HW113757   4.523   5.501   6.429
 4286SOL    HW213758   4.531   5.654   6.372
 4287SOL     OW13759   3.977   6.328   5.721
 4287SOL    HW113760   3.931   6.411   5.690
 4287SOL    HW213761   4.019   6.282   5.643
 4288SOL     OW13762   0.955   5.780   3.282
 4288SOL    HW113763   1.032   5.778   3.219
 4288SOL    HW213764   0.963   5.860   3.342
 4289SOL     OW13765   7.012   3.963   0.472
 4289SOL    HW113766   0.079   3.951   0.507
 4289SOL    HW213767   7.014   4.020   0.390
 4290SOL     OW13768   2.008   1.648   3.355
 4290SOL    HW113769   1.950   1.659   3.275
 4290SOL    HW213770   2.056   1.733   3.373
 4291SOL     OW13771   6.858   4.085   1.112
 4291SOL    HW113772   6.799   4.165   1.108
 4291SOL    HW213773   6.902   4.071   1.023
 4292SOL     OW13774   5.627   5.410   5.847
 4292SOL    HW113775   5.722   5.429   5.871
 4292SOL    HW213776   5.618   5.314   5.820
 4293SOL     OW13777   0.314   2.184   6.580
 4293SOL    HW113778   0.267   2.118   6.639
 4293SOL    HW213779   0.401   2.209   6.622
 4294SOL     OW13780   4.879   1.806   5.964
 4294SOL    HW113781   4.842   1.826   6.055
 4294SOL    HW213782   4.859   1.882   5.902
 4295SOL     OW13783   3.720   5.884   5.857
 4295SOL    HW113784   3.638   5.857   5.807
 4295SOL    HW213785   3.743   5.979   5.834
 4296SOL     OW13786   2.713   1.392   2.896
 4296SOL    HW113787   2.810   1.379   2.915
 4296SOL    HW213788   2.702   1.445   2.811
 4297SOL     OW13789   5.417   0.285   0.512
 4297SOL    HW113790   5.367   0.214   0.462
 4297SOL    HW213791   5.465   0.343   0.447
 4298SOL     OW13792   2.066   5.163   1.774
 4298SOL    HW113793   2.045   5.237   1.838
 4298SOL    HW213794   2.159   5.174   1.739
 4299SOL     OW13795   0.879   4.915   5.390
 4299SOL    HW113796   0.875   4.945   5.486
 4299SOL    HW213797   0.879   4.815   5.386
 4300SOL     OW13798   6.105   6.649   5.457
 4300SOL    HW113799   6.094   6.570   5.518
 4300SOL    HW213800   6.034   6.717   5.478
 4301SOL     OW13801   2.825   0.881   0.444
 4301SOL    HW113802   2.889   0.808   0.465
 4301SOL    HW213803   2.732   0.851   0.466
 4302SOL     OW13804   1.053   6.973   6.516
 4302SOL    HW113805   1.054   6.950   6.419
 4302SOL    HW213806   1.113   0.025   6.533
 4303SOL     OW13807   6.747   4.389   1.402
 4303SOL    HW113808   6.685   4.379   1.480
 4303SOL    HW213809   6.730   4.477   1.357
 4304SOL     OW13810   3.273   3.134   5.092
 4304SOL    HW113811   3.282   3.050   5.145
 4304SOL    HW213812   3.231   3.205   5.149
 4305SOL     OW13813   6.608   1.250   5.205
 4305SOL    HW113814   6.635   1.251   5.302
 4305SOL    HW213815   6.665   1.185   5.156
 4306SOL     OW13816   5.893   5.942   5.669
 4306SOL    HW113817   5.847   5.885   5.737
 4306SOL    HW213818   5.972   5.987   5.711
 4307SOL     OW13819   5.369   3.192   0.028
 4307SOL    HW113820   5.373   3.210   0.127
 4307SOL    HW213821   5.320   3.106   0.012
 4308SOL     OW13822   3.529   6.874   5.224
 4308SOL    HW113823   3.489   6.887   5.134
 4308SOL    HW213824   3.534   6.776   5.245
 4309SOL     OW13825   2.002   0.699   1.363
 4309SOL    HW113826   1.912   0.740   1.353
 4309SOL    HW213827   2.001   0.635   1.440
 4310SOL     OW13828   1.537   0.431   2.742
 4310SOL    HW113829   1.637   0.430   2.740
 4310SOL    HW213830   1.503   0.340   2.716
 4311SOL     OW13831   1.147   5.656   4.791
 4311SOL    HW113832   1.109   5.563   4.800
 4311SOL    HW213833   1.076   5.717   4.757
 4312SOL     OW13834   1.465   5.747   1.330
 4312SOL    HW113835   1.428   5.658   1.360
 4312SOL    HW213836   1.548   5.732   1.277
 4313SOL     OW13837   5.179   1.055   1.463
 4313SOL    HW113838   5.168   1.038   1.365
 4313SOL    HW213839   5.140   0.979   1.515
 4314SOL     OW13840   5.996   3.481   1.783
 4314SOL    HW113841   5.928   3.538   1.829
 4314SOL    HW213842   6.048   3.430   1.852
 4315SOL     OW13843   2.224   1.405   2.670
 4315SOL    HW113844   2.179   1.406   2.759
 4315SOL    HW213845   2.257   1.497   2.648
 4316SOL     OW13846   0.898   0.890   2.290
 4316SOL    HW113847   0.799   0.875   2.295
 4316SOL    HW213848   0.918   0.985   2.311
 4317SOL     OW13849   4.070   0.620   3.289
 4317SOL    HW113850   4.156   0.615   3.238
 4317SOL    HW213851   4.071   0.701   3.348
 4318SOL     OW13852   6.359   2.409   5.032
 4318SOL    HW113853   6.286   2.469   4.999
 4318SOL    HW213854   6.414   2.457   5.100
 4319SOL     OW13855   2.950   2.990   6.081
 4319SOL    HW113856   2.930   2.910   6.137
 4319SOL    HW213857   3.037   3.030   6.111
 4320SOL     OW13858   0.296   5.574   3.606
 4320SOL    HW113859   0.318   5.598   3.700
 4320SOL    HW213860   0.218   5.511   3.606
 4321SOL     OW13861   0.699   0.614   4.834
 4321SOL    HW113862   0.764   0.660   4.774
 4321SOL    HW213863   0.738   0.526   4.864
 4322SOL     OW13864   5.737   1.368   1.163
 4322SOL    HW113865   5.682   1.340   1.084
 4322SOL    HW213866   5.778   1.288   1.205
 4323SOL     OW13867   0.179   2.036   3.799
 4323SOL    HW113868   0.148   1.952   3.754
 4323SOL    HW213869   0.101   2.094   3.818
 4324SOL     OW13870   5.457   2.690   6.045
 4324SOL    HW113871   5.420   2.599   6.067
 4324SOL    HW213872   5.431   2.714   5.952
 4325SOL     OW13873   1.482   2.287   6.413
 4325SOL    HW113874   1.412   2.242   6.358
 4325SOL    HW213875   1.478   2.253   6.507
 4326SOL     OW13876   6.497   2.514   5.249
 4326SOL    HW113877   6.488   2.607   5.285
 4326SOL    HW213878   6.592   2.497   5.222
 4327SOL     OW13879   5.361   1.137   2.960
 4327SOL    HW113880   5.426   1.159   3.032
 4327SOL    HW213881   5.288   1.206   2.958
 4328SOL     OW13882   5.969   5.038   0.296
 4328SOL    HW113883   5.922   5.057   0.382
 4328SOL    HW213884   6.013   4.948   0.301
 4329SOL     OW13885   5.063   1.731   6.916
 4329SOL    HW113886   5.123   1.755   6.841
 4329SOL    HW213887   5.077   1.794   6.993
 4330SOL     OW13888   1.380   0.959   6.410
 4330SOL    HW113889   1.318   0.882   6.428
 4330SOL    HW213890   1.391   0.969   6.311
 4331SOL     OW13891   5.572   2.090   6.692
 4331SOL    HW113892   5.666   2.059   6.702
 4331SOL    HW213893   5.555   2.166   6.756
 4332SOL     OW13894   5.495   3.169   1.698
 4332SOL    HW113895   5.471   3.163   1.601
 4332SOL    HW213896   5.580   3.219   1.708
 4333SOL     OW13897   6.270   1.422   5.500
 4333SOL    HW113898   6.348   1.474   5.464
 4333SOL    HW213899   6.198   1.485   5.527
 4334SOL     OW13900   4.544   0.361   1.702
 4334SOL    HW113901   4.444   0.372   1.695
 4334SOL    HW213902   4.577   0.312   1.621
 4335SOL     OW13903   3.641   4.425   5.638
 4335SOL    HW113904   3.609   4.491   5.706
 4335SOL    HW213905   3.726   4.457   5.597
 4336SOL     OW13906   1.103   6.565   5.770
 4336SOL    HW113907   1.065   6.656   5.755
 4336SOL    HW213908   1.107   6.547   5.868
 4337SOL     OW13909   0.326   5.768   0.412
 4337SOL    HW113910   0.401   5.832   0.397
 4337SOL    HW213911   0.359   5.674   0.405
 4338SOL     OW13912   5.594   6.231   3.691
 4338SOL    HW113913   5.565   6.182   3.609
 4338SOL    HW213914   5.565   6.327   3.684
 4339SOL     OW13915   6.728   1.292   6.863
 4339SOL    HW113916   6.658   1.253   6.803
 4339SOL    HW213917   6.729   1.391   6.853
 4340SOL     OW13918   4.383   3.511   1.715
 4340SOL    HW113919   4.426   3.422   1.729
 4340SOL    HW213920   4.454   3.581   1.707
 4341SOL     OW13921   0.840   3.711   0.203
 4341SOL    HW113922   0.744   3.684   0.196
 4341SOL    HW213923   0.884   3.700   0.113
 4342SOL     OW13924   0.628   2.203   3.013
 4342SOL    HW113925   0.569   2.201   3.094
 4342SOL    HW213926   0.713   2.251   3.035
 4343SOL     OW13927   2.731   1.802   1.280
 4343SOL    HW113928   2.659   1.848   1.228
 4343SOL    HW213929   2.820   1.839   1.254
 4344SOL     OW13930   1.878   3.814   2.145
 4344SOL    HW113931   1.941   3.751   2.190
 4344SOL    HW213932   1.809   3.845   2.211
 4345SOL     OW13933   2.600   1.577   6.039
 4345SOL    HW113934   2.648   1.647   5.986
 4345SOL    HW213935   2.501   1.588   6.027
 4346SOL     OW13936   6.883   3.454   1.107
 4346SOL    HW113937   6.908   3.537   1.056
 4346SOL    HW213938   6.794   3.468   1.151
 4347SOL     OW13939   5.119   5.881   2.168
 4347SOL    HW113940   5.213   5.860   2.141
 4347SOL    HW213941   5.091   5.967   2.125
 4348SOL     OW13942   1.226   4.087   0.033
 4348SOL    HW113943   1.191   3.993   0.029
 4348SOL    HW213944   1.320   4.088   7.025
 4349SOL     OW13945   6.644   0.890   1.853
 4349SOL    HW113946   6.719   0.844   1.900
 4349SOL    HW213947   6.678   0.973   1.809
 4350SOL     OW13948   4.559   0.308   3.121
 4350SOL    HW113949   4.648   0.330   3.079
 4350SOL    HW213950   4.555   0.349   3.212
 4351SOL     OW13951   3.169   0.061   6.952
 4351SOL    HW113952   3.160   0.111   0.012
 4351SOL    HW213953   3.228   0.112   6.890
 4352SOL     OW13954   6.526   1.858   2.643
 4352SOL    HW113955   6.536   1.948   2.601
 4352SOL    HW213956   6.462   1.803   2.589
 4353SOL     OW13957   2.966   5.828   1.728
 4353SOL    HW113958   2.909   5.746   1.724
 4353SOL    HW213959   3.046   5.816   1.669
 4354SOL     OW13960   2.856   0.636   1.373
 4354SOL    HW113961   2.791   0.692   1.424
 4354SOL    HW213962   2.950   0.663   1.397
 4355SOL     OW13963   4.876   6.980   0.357
 4355SOL    HW113964   4.867   6.881   0.364
 4355SOL    HW213965   4.793   7.019   0.317
 4356SOL     OW13966   3.843   4.228   0.284
 4356SOL    HW113967   3.751   4.195   0.266
 4356SOL    HW213968   3.853   4.251   0.380
 4357SOL     OW13969   5.930   0.800   0.110
 4357SOL    HW113970   5.909   0.896   0.091
 4357SOL    HW213971   6.025   0.781   0.083
 4358SOL     OW13972   6.057   0.771   0.972
 4358SOL    HW113973   6.052   0.868   0.996
 4358SOL    HW213974   6.152   0.745   0.957
 4359SOL     OW13975   5.666   3.402   4.103
 4359SOL    HW113976   5.683   3.451   4.188
 4359SOL    HW213977   5.753   3.381   4.058
 4360SOL     OW13978   2.290   3.428   1.172
 4360SOL    HW113979   2.241   3.412   1.086
 4360SOL    HW213980   2.225   3.433   1.247
 4361SOL     OW13981   5.786   1.994   2.212
 4361SOL    HW113982   5.792   2.090   2.240
 4361SOL    HW213983   5.753   1.939   2.289
 4362SOL     OW13984   5.261   4.156   2.706
 4362SOL    HW113985   5.227   4.198   2.622
 4362SOL    HW213986   5.189   4.156   2.775
 4363SOL     OW13987   5.068   0.532   6.166
 4363SOL    HW113988   5.150   0.571   6.207
 4363SOL    HW213989   5.069   0.433   6.178
 4364SOL     OW13990   3.549   3.815   4.596
 4364SOL    HW113991   3.619   3.777   4.656
 4364SOL    HW213992   3.564   3.914   4.586
 4365SOL     OW13993   4.201   1.792   0.677
 4365SOL    HW113994   4.231   1.887   0.684
 4365SOL    HW213995   4.199   1.751   0.768
 4366SOL     OW13996   5.441   5.062   0.395
 4366SOL    HW113997   5.425   5.161   0.393
 4366SOL    HW213998   5.358   5.016   0.427
 4367SOL     OW13999   0.003   0.059   0.800
 4367SOL    HW114000   6.935   0.089   0.782
 4367SOL    HW214001   0.050   0.041   0.713
 4368SOL     OW14002   4.480   4.622   2.165
 4368SOL    HW114003   4.498   4.715   2.197
 4368SOL    HW214004   4.502   4.615   2.068
 4369SOL     OW14005   2.871   5.174   1.448
 4369SOL    HW114006   2.935   5.208   1.517
 4369SOL    HW214007   2.823   5.094   1.484
 4370SOL     OW14008   5.403   4.264   2.184
 4370SOL    HW114009   5.308   4.234   2.188
 4370SOL    HW214010   5.415   4.331   2.111
 4371SOL     OW14011   0.979   1.951   2.435
 4371SOL    HW114012   0.958   1.902   2.350
 4371SOL    HW214013   0.915   1.923   2.506
 4372SOL     OW14014   5.125   0.198   3.293
 4372SOL    HW114015   5.160   0.223   3.203
 4372SOL    HW214016   5.079   0.276   3.335
 4373SOL     OW14017   6.673   1.557   6.367
 4373SOL    HW114018   6.772   1.567   6.359
 4373SOL    HW214019   6.632   1.557   6.275
 4374SOL     OW14020   3.534   1.312   1.140
 4374SOL    HW114021   3.478   1.275   1.214
 4374SOL    HW214022   3.553   1.408   1.157
 4375SOL     OW14023   3.584   5.690   4.222
 4375SOL    HW114024   3.595   5.593   4.243
 4375SOL    HW214025   3.546   5.700   4.130
 4376SOL     OW14026   0.096   2.119   4.623
 4376SOL    HW114027   0.153   2.064   4.563
 4376SOL    HW214028   0.153   2.186   4.671
 4377SOL     OW14029   6.525   5.220   6.072
 4377SOL    HW114030   6.432   5.188   6.055
 4377SOL    HW214031   6.590   5.157   6.031
 4378SOL     OW14032   3.417   1.680   3.864
 4378SOL    HW114033   3.404   1.584   3.887
 4378SOL    HW214034   3.508   1.693   3.825
 4379SOL     OW14035   3.583   1.994   6.090
 4379SOL    HW114036   3.540   2.079   6.061
 4379SOL    HW214037   3.522   1.946   6.154
 4380SOL     OW14038   0.477   2.227   3.232
 4380SOL    HW114039   0.407   2.158   3.249
 4380SOL    HW214040   0.512   2.262   3.319
 4381SOL     OW14041   1.482   5.803   6.975
 4381SOL    HW114042   1.493   5.730   6.907
 4381SOL    HW214043   1.477   5.762   0.040
 4382SOL     OW14044   0.831   5.297   4.553
 4382SOL    HW114045   0.814   5.343   4.466
 4382SOL    HW214046   0.879   5.211   4.536
 4383SOL     OW14047   6.856   4.142   0.602
 4383SOL    HW114048   6.919   4.164   0.676
 4383SOL    HW214049   6.893   4.067   0.547
 4384SOL     OW14050   5.115   6.984   3.663
 4384SOL    HW114051   5.136   6.894   3.701
 4384SOL    HW214052   5.086   6.975   3.568
 4385SOL     OW14053   4.682   1.670   5.623
 4385SOL    HW114054   4.632   1.585   5.604
 4385SOL    HW214055   4.646   1.711   5.707
 4386SOL     OW14056   1.856   3.350   4.284
 4386SOL    HW114057   1.929   3.340   4.352
 4386SOL    HW214058   1.895   3.349   4.192
 4387SOL     OW14059   5.551   1.889   0.827
 4387SOL    HW114060   5.599   1.976   0.843
 4387SOL    HW214061   5.528   1.847   0.914
 4388SOL     OW14062   4.947   3.607   0.050
 4388SOL    HW114063   4.956   3.522   7.023
 4388SOL    HW214064   4.851   3.625   0.067
 4389SOL     OW14065   1.560   1.701   6.942
 4389SOL    HW114066   1.656   1.729   6.931
 4389SOL    HW214067   1.508   1.775   6.984
 4390SOL     OW14068   6.803   1.786   0.892
 4390SOL    HW114069   6.875   1.724   0.861
 4390SOL    HW214070   6.818   1.877   0.854
 4391SOL     OW14071   0.846   5.830   0.702
 4391SOL    HW114072   0.900   5.844   0.785
 4391SOL    HW214073   0.829   5.918   0.659
 4392SOL     OW14074   1.076   2.976   6.016
 4392SOL    HW114075   1.114   2.989   6.107
 4392SOL    HW214076   1.111   2.891   5.977
 4393SOL     OW14077   6.150   0.306   2.136
 4393SOL    HW114078   6.149   0.383   2.200
 4393SOL    HW214079   6.087   0.235   2.168
 4394SOL     OW14080   0.574   0.593   2.435
 4394SOL    HW114081   0.646   0.557   2.375
 4394SOL    HW214082   0.600   0.580   2.530
 4395SOL     OW14083   1.576   4.381   2.215
 4395SOL    HW114084   1.577   4.471   2.171
 4395SOL    HW214085   1.644   4.379   2.288
 4396SOL     OW14086   3.268   0.927   2.730
 4396SOL    HW114087   3.358   0.971   2.737
 4396SOL    HW214088   3.230   0.944   2.639
 4397SOL     OW14089   3.581   1.284   5.003
 4397SOL    HW114090   3.497   1.311   5.050
 4397SOL    HW214091   3.634   1.366   4.980
 4398SOL     OW14092   2.298   3.479   5.506
 4398SOL    HW114093   2.296   3.552   5.437
 4398SOL    HW214094   2.304   3.390   5.460
 4399SOL     OW14095   2.625   6.828   1.758
 4399SOL    HW114096   2.613   6.908   1.699
 4399SOL    HW214097   2.621   6.857   1.854
 4400SOL     OW14098   1.930   6.108   5.001
 4400SOL    HW114099   1.831   6.109   4.985
 4400SOL    HW214100   1.969   6.026   4.959
 4401SOL     OW14101   2.842   0.077   6.367
 4401SOL    HW114102   2.874   7.020   6.321
 4401SOL    HW214103   2.764   0.054   6.426
 4402SOL     OW14104   2.019   1.124   2.890
 4402SOL    HW114105   2.044   1.030   2.910
 4402SOL    HW214106   2.085   1.186   2.931
 4403SOL     OW14107   0.300   5.446   2.347
 4403SOL    HW114108   0.285   5.480   2.439
 4403SOL    HW214109   0.363   5.507   2.298
 4404SOL     OW14110   0.690   6.801   6.137
 4404SOL    HW114111   0.780   6.820   6.177
 4404SOL    HW214112   0.683   6.703   6.117
 4405SOL     OW14113   1.469   5.181   2.405
 4405SOL    HW114114   1.521   5.139   2.480
 4405SOL    HW214115   1.375   5.146   2.407
 4406SOL     OW14116   6.218   4.275   1.891
 4406SOL    HW114117   6.129   4.307   1.924
 4406SOL    HW214118   6.270   4.239   1.968
 4407SOL     OW14119   5.880   6.662   1.009
 4407SOL    HW114120   5.927   6.729   1.066
 4407SOL    HW214121   5.795   6.702   0.974
 4408SOL     OW14122   4.148   1.183   0.872
 4408SOL    HW114123   4.118   1.120   0.801
 4408SOL    HW214124   4.131   1.143   0.962
 4409SOL     OW14125   2.734   0.540   3.981
 4409SOL    HW114126   2.669   0.612   4.004
 4409SOL    HW214127   2.746   0.479   4.059
 4410SOL     OW14128   0.653   0.186   0.967
 4410SOL    HW114129   0.751   0.195   0.984
 4410SOL    HW214130   0.603   0.200   1.052
 4411SOL     OW14131   4.558   4.573   5.206
 4411SOL    HW114132   4.555   4.473   5.206
 4411SOL    HW214133   4.568   4.606   5.112
 4412SOL     OW14134   4.457   6.369   1.881
 4412SOL    HW114135   4.551   6.334   1.873
 4412SOL    HW214136   4.433   6.380   1.977
 4413SOL     OW14137   4.461   5.589   3.728
 4413SOL    HW114138   4.462   5.671   3.785
 4413SOL    HW214139   4.533   5.526   3.757
 4414SOL     OW14140   5.342   3.798   1.417
 4414SOL    HW114141   5.304   3.707   1.429
 4414SOL    HW214142   5.268   3.865   1.415
 4415SOL     OW14143   1.576   3.949   0.728
 4415SOL    HW114144   1.657   3.944   0.786
 4415SOL    HW214145   1.500   3.988   0.780
 4416SOL     OW14146   4.874   3.094   4.298
 4416SOL    HW114147   4.873   3.090   4.198
 4416SOL    HW214148   4.968   3.089   4.330
 4417SOL     OW14149   7.023   4.379   1.627
 4417SOL    HW114150   6.968   4.327   1.562
 4417SOL    HW214151   6.982   4.372   1.718
 4418SOL     OW14152   6.048   0.809   5.713
 4418SOL    HW114153   6.087   0.720   5.689
 4418SOL    HW214154   6.108   0.855   5.779
 4419SOL     OW14155   6.472   6.109   6.788
 4419SOL    HW114156   6.546   6.175   6.802
 4419SOL    HW214157   6.394   6.134   6.846
 4420SOL     OW14158   4.257   1.952   1.009
 4420SOL    HW114159   4.221   2.041   1.040
 4420SOL    HW214160   4.326   1.967   0.938
 4421SOL     OW14161   1.934   2.727   0.226
 4421SOL    HW114162   2.027   2.759   0.209
 4421SOL    HW214163   1.871   2.804   0.226
 4422SOL     OW14164   0.221   2.984   6.100
 4422SOL    HW114165   0.260   2.987   6.008
 4422SOL    HW214166   0.244   3.068   6.149
 4423SOL     OW14167   5.950   4.396   4.479
 4423SOL    HW114168   6.011   4.332   4.526
 4423SOL    HW214169   5.962   4.488   4.516
 4424SOL     OW14170   4.499   6.020   2.479
 4424SOL    HW114171   4.533   5.926   2.470
 4424SOL    HW214172   4.532   6.075   2.402
 4425SOL     OW14173   0.836   6.058   1.211
 4425SOL    HW114174   0.840   5.979   1.149
 4425SOL    HW214175   0.746   6.101   1.205
 4426SOL     OW14176   0.316   0.612   4.388
 4426SOL    HW114177   0.350   0.539   4.329
 4426SOL    HW214178   0.348   0.597   4.482
 4427SOL     OW14179   2.460   6.037   2.226
 4427SOL    HW114180   2.492   6.050   2.320
 4427SOL    HW214181   2.371   5.992   2.227
 4428SOL     OW14182   6.665   5.614   3.399
 4428SOL    HW114183   6.683   5.608   3.301
 4428SOL    HW214184   6.746   5.584   3.450
 4429SOL     OW14185   2.636   6.375   3.349
 4429SOL    HW114186   2.620   6.347   3.444
 4429SOL    HW214187   2.654   6.294   3.293
 4430SOL     OW14188   6.188   3.603   5.173
 4430SOL    HW114189   6.161   3.659   5.252
 4430SOL    HW214190   6.125   3.527   5.163
 4431SOL     OW14191   4.334   6.526   4.658
 4431SOL    HW114192   4.351   6.473   4.741
 4431SOL    HW214193   4.296   6.466   4.588
 4432SOL     OW14194   1.268   3.340   6.191
 4432SOL    HW114195   1.206   3.280   6.242
 4432SOL    HW214196   1.263   3.317   6.094
 4433SOL     OW14197   1.004   0.614   4.422
 4433SOL    HW114198   1.047   0.524   4.428
 4433SOL    HW214199   0.966   0.628   4.331
 4434SOL     OW14200   6.850   0.823   2.036
 4434SOL    HW114201   6.917   0.842   1.964
 4434SOL    HW214202   6.842   0.724   2.049
 4435SOL     OW14203   2.271   4.277   0.614
 4435SOL    HW114204   2.330   4.337   0.560
 4435SOL    HW214205   2.179   4.276   0.575
 4436SOL     OW14206   4.561   2.302   1.710
 4436SOL    HW114207   4.508   2.229   1.667
 4436SOL    HW214208   4.517   2.390   1.694
 4437SOL     OW14209   6.324   4.524   7.009
 4437SOL    HW114210   6.300   4.487   6.919
 4437SOL    HW214211   6.278   4.471   0.054
 4438SOL     OW14212   4.196   1.703   4.664
 4438SOL    HW114213   4.210   1.627   4.600
 4438SOL    HW214214   4.280   1.758   4.670
 4439SOL     OW14215   2.264   5.788   2.875
 4439SOL    HW114216   2.169   5.808   2.851
 4439SOL    HW214217   2.310   5.744   2.798
 4440SOL     OW14218   1.481   5.119   5.029
 4440SOL    HW114219   1.436   5.036   5.063
 4440SOL    HW214220   1.505   5.178   5.105
 4441SOL     OW14221   6.862   1.779   1.151
 4441SOL    HW114222   6.832   1.774   1.056
 4441SOL    HW214223   6.848   1.872   1.186
 4442SOL     OW14224   2.229   4.679   1.468
 4442SOL    HW114225   2.205   4.773   1.444
 4442SOL    HW214226   2.162   4.642   1.532
 4443SOL     OW14227   0.520   6.018   6.281
 4443SOL    HW114228   0.594   6.068   6.237
 4443SOL    HW214229   0.551   5.927   6.306
 4444SOL     OW14230   5.737   5.440   0.310
 4444SOL    HW114231   5.675   5.398   0.376
 4444SOL    HW214232   5.745   5.538   0.329
 4445SOL     OW14233   2.148   4.035   0.019
 4445SOL    HW114234   2.075   4.021   0.086
 4445SOL    HW214235   2.115   4.095   6.972
 4446SOL     OW14236   4.566   1.723   2.041
 4446SOL    HW114237   4.547   1.768   2.128
 4446SOL    HW214238   4.613   1.786   1.980
 4447SOL     OW14239   4.463   5.642   5.130
 4447SOL    HW114240   4.403   5.718   5.154
 4447SOL    HW214241   4.540   5.675   5.077
 4448SOL     OW14242   3.306   6.514   2.825
 4448SOL    HW114243   3.279   6.576   2.899
 4448SOL    HW214244   3.402   6.529   2.803
 4449SOL     OW14245   4.102   1.590   5.747
 4449SOL    HW114246   4.030   1.530   5.782
 4449SOL    HW214247   4.070   1.636   5.664
 4450SOL     OW14248   2.168   6.287   0.371
 4450SOL    HW114249   2.131   6.354   0.307
 4450SOL    HW214250   2.251   6.322   0.413
 4451SOL     OW14251   4.405   5.478   3.211
 4451SOL    HW114252   4.319   5.437   3.242
 4451SOL    HW214253   4.388   5.570   3.177
 4452SOL     OW14254   4.980   5.004   3.614
 4452SOL    HW114255   4.983   5.093   3.659
 4452SOL    HW214256   4.907   4.948   3.655
 4453SOL     OW14257   0.575   4.647   0.894
 4453SOL    HW114258   0.536   4.696   0.972
 4453SOL    HW214259   0.519   4.663   0.813
 4454SOL     OW14260   0.826   2.030   0.692
 4454SOL    HW114261   0.868   1.954   0.642
 4454SOL    HW214262   0.873   2.042   0.780
 4455SOL     OW14263   1.410   0.286   4.272
 4455SOL    HW114264   1.440   0.203   4.321
 4455SOL    HW214265   1.429   0.276   4.175
 4456SOL     OW14266   1.616   6.117   4.659
 4456SOL    HW114267   1.703   6.164   4.645
 4456SOL    HW214268   1.594   6.062   4.579
 4457SOL     OW14269   1.612   1.264   4.394
 4457SOL    HW114270   1.551   1.186   4.378
 4457SOL    HW214271   1.593   1.335   4.327
 4458SOL     OW14272   1.427   3.104   6.272
 4458SOL    HW114273   1.333   3.068   6.267
 4458SOL    HW214274   1.474   3.087   6.185
 4459SOL     OW14275   0.451   3.863   3.495
 4459SOL    HW114276   0.506   3.942   3.523
 4459SOL    HW214277   0.410   3.882   3.406
 4460SOL     OW14278   6.966   2.779   5.132
 4460SOL    HW114279   6.968   2.786   5.232
 4460SOL    HW214280   6.915   2.856   5.095
 4461SOL     OW14281   1.926   0.497   0.821
 4461SOL    HW114282   1.854   0.438   0.784
 4461SOL    HW214283   1.923   0.495   0.921
 4462SOL     OW14284   6.324   4.127   2.099
 4462SOL    HW114285   6.259   4.069   2.149
 4462SOL    HW214286   6.417   4.097   2.119
 4463SOL     OW14287   5.607   1.690   0.140
 4463SOL    HW114288   5.609   1.771   0.198
 4463SOL    HW214289   5.520   1.685   0.091
 4464SOL     OW14290   0.656   3.650   1.394
 4464SOL    HW114291   0.727   3.689   1.452
 4464SOL    HW214292   0.580   3.715   1.386
 4465SOL     OW14293   4.395   5.544   2.073
 4465SOL    HW114294   4.411   5.447   2.094
 4465SOL    HW214295   4.313   5.553   2.017
 4466SOL     OW14296   0.673   3.035   2.565
 4466SOL    HW114297   0.676   2.990   2.654
 4466SOL    HW214298   0.606   3.109   2.567
 4467SOL     OW14299   5.259   4.820   1.759
 4467SOL    HW114300   5.274   4.760   1.680
 4467SOL    HW214301   5.345   4.830   1.810
 4468SOL     OW14302   1.752   2.649   1.036
 4468SOL    HW114303   1.797   2.705   1.105
 4468SOL    HW214304   1.787   2.672   0.946
 4469SOL     OW14305   1.954   6.250   1.480
 4469SOL    HW114306   2.036   6.236   1.424
 4469SOL    HW214307   1.972   6.321   1.548
 4470SOL     OW14308   0.598   7.001   2.697
 4470SOL    HW114309   0.660   0.040   2.742
 4470SOL    HW214310   0.542   0.023   2.631
 4471SOL     OW14311   0.924   0.631   6.857
 4471SOL    HW114312   1.007   0.609   6.909
 4471SOL    HW214313   0.935   0.601   6.762
 4472SOL     OW14314   1.312   2.668   1.042
 4472SOL    HW114315   1.224   2.716   1.042
 4472SOL    HW214316   1.300   2.577   1.002
 4473SOL     OW14317   0.148   2.982   4.930
 4473SOL    HW114318   0.137   2.979   5.030
 4473SOL    HW214319   0.242   3.009   4.909
 4474SOL     OW14320   2.310   6.090   0.731
 4474SOL    HW114321   2.383   6.141   0.776
 4474SOL    HW214322   2.314   6.106   0.632
 4475SOL     OW14323   0.592   3.640   0.121
 4475SOL    HW114324   0.551   3.672   0.035
 4475SOL    HW214325   0.620   3.545   0.110
 4476SOL     OW14326   5.383   0.962   3.439
 4476SOL    HW114327   5.446   0.884   3.440
 4476SOL    HW214328   5.425   1.040   3.483
 4477SOL     OW14329   6.980   1.207   4.434
 4477SOL    HW114330   0.047   1.235   4.459
 4477SOL    HW214331   6.983   1.156   4.348
 4478SOL     OW14332   1.817   0.866   2.376
 4478SOL    HW114333   1.802   0.851   2.279
 4478SOL    HW214334   1.778   0.790   2.428
 4479SOL     OW14335   2.202   2.899   6.392
 4479SOL    HW114336   2.292   2.888   6.434
 4479SOL    HW214337   2.132   2.896   6.463
 4480SOL     OW14338   0.123   6.978   3.379
 4480SOL    HW114339   0.189   0.024   3.399
 4480SOL    HW214340   0.031   7.009   3.402
 4481SOL     OW14341   1.816   3.905   6.125
 4481SOL    HW114342   1.773   3.856   6.200
 4481SOL    HW214343   1.875   3.843   6.074
 4482SOL     OW14344   2.699   0.286   1.126
 4482SOL    HW114345   2.757   0.367   1.118
 4482SOL    HW214346   2.712   0.244   1.215
 4483SOL     OW14347   1.034   3.699   0.392
 4483SOL    HW114348   0.967   3.688   0.318
 4483SOL    HW214349   1.027   3.792   0.428
 4484SOL     OW14350   3.186   0.877   0.179
 4484SOL    HW114351   3.239   0.793   0.190
 4484SOL    HW214352   3.118   0.883   0.253
 4485SOL     OW14353   0.312   3.469   5.062
 4485SOL    HW114354   0.406   3.503   5.064
 4485SOL    HW214355   0.265   3.496   5.145
 4486SOL     OW14356   4.758   4.402   3.304
 4486SOL    HW114357   4.718   4.357   3.383
 4486SOL    HW214358   4.752   4.342   3.224
 4487SOL     OW14359   0.273   3.118   6.620
 4487SOL    HW114360   0.263   3.080   6.712
 4487SOL    HW214361   0.221   3.063   6.556
 4488SOL     OW14362   6.439   4.330   3.514
 4488SOL    HW114363   6.374   4.296   3.445
 4488SOL    HW214364   6.506   4.260   3.535
 4489SOL     OW14365   3.679   6.012   6.762
 4489SOL    HW114366   3.757   5.956   6.733
 4489SOL    HW214367   3.706   6.069   6.839
 4490SOL     OW14368   5.763   1.723   2.046
 4490SOL    HW114369   5.800   1.805   2.091
 4490SOL    HW214370   5.664   1.721   2.059
 4491SOL     OW14371   0.577   3.895   3.031
 4491SOL    HW114372   0.572   3.992   3.007
 4491SOL    HW214373   0.536   3.881   3.122
 4492SOL     OW14374   5.820   1.127   2.681
 4492SOL    HW114375   5.771   1.047   2.646
 4492SOL    HW214376   5.765   1.209   2.667
 4493SOL     OW14377   5.385   1.629   5.819
 4493SOL    HW114378   5.363   1.534   5.840
 4493SOL    HW214379   5.303   1.686   5.832
 4494SOL     OW14380   1.535   1.015   2.438
 4494SOL    HW114381   1.559   0.929   2.485
 4494SOL    HW214382   1.487   0.995   2.353
 4495SOL     OW14383   4.688   6.360   0.701
 4495SOL    HW114384   4.729   6.273   0.731
 4495SOL    HW214385   4.698   6.428   0.773
 4496SOL     OW14386   2.327   6.107   6.301
 4496SOL    HW114387   2.403   6.167   6.275
 4496SOL    HW214388   2.253   6.118   6.235
 4497SOL     OW14389   4.003   0.376   5.765
 4497SOL    HW114390   3.932   0.306   5.767
 4497SOL    HW214391   4.034   0.390   5.671
 4498SOL     OW14392   1.270   4.935   4.203
 4498SOL    HW114393   1.209   4.876   4.149
 4498SOL    HW214394   1.216   4.987   4.269
 4499SOL     OW14395   5.851   1.423   2.337
 4499SOL    HW114396   5.941   1.455   2.309
 4499SOL    HW214397   5.784   1.497   2.328
 4500SOL     OW14398   3.438   6.794   7.012
 4500SOL    HW114399   3.355   6.785   0.041
 4500SOL    HW214400   3.419   6.764   6.918
 4501SOL     OW14401   6.457   6.716   2.817
 4501SOL    HW114402   6.379   6.779   2.815
 4501SOL    HW214403   6.460   6.663   2.732
 4502SOL     OW14404   1.432   4.069   6.389
 4502SOL    HW114405   1.452   4.058   6.486
 4502SOL    HW214406   1.471   4.156   6.357
 4503SOL     OW14407   3.708   1.581   2.622
 4503SOL    HW114408   3.769   1.656   2.648
 4503SOL    HW214409   3.656   1.550   2.702
 4504SOL     OW14410   1.242   2.144   3.822
 4504SOL    HW114411   1.314   2.081   3.792
 4504SOL    HW214412   1.247   2.228   3.769
 4505SOL     OW14413   6.343   2.952   2.998
 4505SOL    HW114414   6.298   2.934   2.910
 4505SOL    HW214415   6.288   2.912   3.072
 4506SOL     OW14416   3.857   4.084   0.047
 4506SOL    HW114417   3.908   4.123   0.123
 4506SOL    HW214418   3.763   4.063   0.077
 4507SOL     OW14419   6.105   2.593   2.642
 4507SOL    HW114420   6.141   2.686   2.636
 4507SOL    HW214421   6.089   2.570   2.738
 4508SOL     OW14422   6.336   5.211   0.411
 4508SOL    HW114423   6.317   5.142   0.341
 4508SOL    HW214424   6.268   5.284   0.405
 4509SOL     OW14425   5.031   2.074   2.140
 4509SOL    HW114426   5.014   2.113   2.230
 4509SOL    HW214427   5.015   1.975   2.143
 4510SOL     OW14428   4.794   1.676   4.176
 4510SOL    HW114429   4.731   1.619   4.123
 4510SOL    HW214430   4.752   1.765   4.192
 4511SOL     OW14431   0.049   4.758   6.956
 4511SOL    HW114432   0.099   4.738   0.014
 4511SOL    HW214433   7.025   4.844   6.967
 4512SOL     OW14434   2.813   3.435   5.824
 4512SOL    HW114435   2.857   3.403   5.740
 4512SOL    HW214436   2.859   3.395   5.903
 4513SOL     OW14437   0.190   0.400   1.055
 4513SOL    HW114438   0.128   0.459   1.105
 4513SOL    HW214439   0.185   0.421   0.957
 4514SOL     OW14440   4.606   4.536   6.588
 4514SOL    HW114441   4.694   4.501   6.620
 4514SOL    HW214442   4.621   4.599   6.512
 4515SOL     OW14443   4.364   0.028   6.281
 4515SOL    HW114444   4.378   6.995   6.202
 4515SOL    HW214445   4.435   0.099   6.284
 4516SOL     OW14446   3.702   2.320   5.296
 4516SOL    HW114447   3.659   2.404   5.330
 4516SOL    HW214448   3.652   2.241   5.332
 4517SOL     OW14449   3.700   0.441   4.579
 4517SOL    HW114450   3.731   0.491   4.498
 4517SOL    HW214451   3.738   0.348   4.578
 4518SOL     OW14452   0.220   0.421   0.726
 4518SOL    HW114453   0.134   0.371   0.733
 4518SOL    HW214454   0.203   0.512   0.687
 4519SOL     OW14455   5.090   6.980   6.344
 4519SOL    HW114456   5.113   6.894   6.300
 4519SOL    HW214457   5.006   7.017   6.303
 4520SOL     OW14458   4.637   4.971   5.442
 4520SOL    HW114459   4.706   5.018   5.387
 4520SOL    HW214460   4.666   4.968   5.537
 4521SOL     OW14461   4.988   2.706   4.493
 4521SOL    HW114462   4.914   2.772   4.506
 4521SOL    HW214463   4.996   2.684   4.395
 4522SOL     OW14464   5.737   3.560   3.237
 4522SOL    HW114465   5.734   3.572   3.336
 4522SOL    HW214466   5.801   3.626   3.197
 4523SOL     OW14467   7.016   3.358   6.743
 4523SOL    HW114468   0.057   3.330   6.812
 4523SOL    HW214469   0.001   3.456   6.724
 4524SOL     OW14470   1.849   3.687   1.909
 4524SOL    HW114471   1.756   3.668   1.877
 4524SOL    HW214472   1.847   3.754   1.983
 4525SOL     OW14473   3.781   1.889   5.761
 4525SOL    HW114474   3.828   1.963   5.807
 4525SOL    HW214475   3.740   1.828   5.829
 4526SOL     OW14476   1.962   0.412   5.492
 4526SOL    HW114477   1.993   0.478   5.423
 4526SOL    HW214478   2.001   0.323   5.472
 4527SOL     OW14479   0.690   2.125   2.331
 4527SOL    HW114480   0.636   2.110   2.414
 4527SOL    HW214481   0.685   2.043   2.274
 4528SOL     OW14482   5.253   1.504   4.647
 4528SOL    HW114483   5.252   1.412   4.609
 4528SOL    HW214484   5.163   1.547   4.635
 4529SOL     OW14485   1.932   1.863   3.966
 4529SOL    HW114486   1.918   1.887   3.870
 4529SOL    HW214487   2.000   1.925   4.006
 4530SOL     OW14488   3.910   4.558   6.053
 4530SOL    HW114489   3.927   4.464   6.084
 4530SOL    HW214490   3.966   4.621   6.107
 4531SOL     OW14491   2.282   7.021   5.351
 4531SOL    HW114492   2.273   6.974   5.439
 4531SOL    HW214493   2.258   6.957   5.277
 4532SOL     OW14494   5.684   1.220   2.201
 4532SOL    HW114495   5.757   1.280   2.234
 4532SOL    HW214496   5.725   1.138   2.162
 4533SOL     OW14497   2.696   6.478   1.269
 4533SOL    HW114498   2.747   6.408   1.220
 4533SOL    HW214499   2.747   6.505   1.351
 4534SOL     OW14500   5.921   1.193   4.086
 4534SOL    HW114501   5.948   1.286   4.063
 4534SOL    HW214502   5.830   1.174   4.049
 4535SOL     OW14503   1.531   1.078   6.904
 4535SOL    HW114504   1.517   1.038   6.813
 4535SOL    HW214505   1.611   1.137   6.902
 4536SOL     OW14506   3.822   1.049   5.547
 4536SOL    HW114507   3.734   1.029   5.503
 4536SOL    HW214508   3.896   1.006   5.496
 4537SOL     OW14509   3.133   3.456   3.055
 4537SOL    HW114510   3.211   3.475   3.115
 4537SOL    HW214511   3.075   3.537   3.049
 4538SOL     OW14512   0.878   2.626   0.200
 4538SOL    HW114513   0.900   2.569   0.120
 4538SOL    HW214514   0.873   2.721   0.172
 4539SOL     OW14515   1.094   5.073   4.377
 4539SOL    HW114516   1.037   5.069   4.459
 4539SOL    HW214517   1.149   5.156   4.379
 4540SOL     OW14518   1.760   1.980   0.754
 4540SOL    HW114519   1.839   2.015   0.702
 4540SOL    HW214520   1.689   1.950   0.690
 4541SOL     OW14521   3.707   3.161   6.956
 4541SOL    HW114522   3.765   3.079   6.949
 4541SOL    HW214523   3.754   3.238   6.913
 4542SOL     OW14524   0.329   1.362   0.524
 4542SOL    HW114525   0.268   1.399   0.454
 4542SOL    HW214526   0.387   1.436   0.559
 4543SOL     OW14527   4.635   1.424   1.280
 4543SOL    HW114528   4.646   1.505   1.337
 4543SOL    HW214529   4.591   1.450   1.194
 4544SOL     OW14530   4.788   6.123   0.780
 4544SOL    HW114531   4.716   6.064   0.817
 4544SOL    HW214532   4.876   6.077   0.784
 4545SOL     OW14533   2.765   2.874   5.601
 4545SOL    HW114534   2.800   2.905   5.690
 4545SOL    HW214535   2.758   2.953   5.540
 4546SOL     OW14536   4.692   6.924   6.129
 4546SOL    HW114537   4.722   6.829   6.141
 4546SOL    HW214538   4.614   6.927   6.067
 4547SOL     OW14539   0.224   0.628   0.554
 4547SOL    HW114540   0.127   0.629   0.531
 4547SOL    HW214541   0.279   0.645   0.472
 4548SOL     OW14542   3.219   1.116   1.884
 4548SOL    HW114543   3.128   1.156   1.895
 4548SOL    HW214544   3.243   1.065   1.967
 4549SOL     OW14545   6.062   4.105   3.830
 4549SOL    HW114546   6.070   4.093   3.929
 4549SOL    HW214547   6.106   4.029   3.783
 4550SOL     OW14548   2.280   5.521   6.492
 4550SOL    HW114549   2.237   5.481   6.574
 4550SOL    HW214550   2.240   5.611   6.475
 4551SOL     OW14551   3.362   2.891   6.336
 4551SOL    HW114552   3.385   2.886   6.238
 4551SOL    HW214553   3.444   2.874   6.390
 4552SOL     OW14554   4.987   0.857   6.756
 4552SOL    HW114555   5.051   0.822   6.825
 4552SOL    HW214556   4.973   0.787   6.686
 4553SOL     OW14557   0.339   6.742   0.145
 4553SOL    HW114558   0.274   6.758   0.071
 4553SOL    HW214559   0.389   6.657   0.128
 4554SOL     OW14560   5.705   6.546   3.536
 4554SOL    HW114561   5.733   6.594   3.620
 4554SOL    HW214562   5.647   6.606   3.481
 4555SOL     OW14563   0.716   0.160   2.426
 4555SOL    HW114564   0.762   0.146   2.339
 4555SOL    HW214565   0.784   0.188   2.495
 4556SOL     OW14566   5.184   4.610   4.186
 4556SOL    HW114567   5.196   4.686   4.251
 4556SOL    HW214568   5.217   4.525   4.227
 4557SOL     OW14569   6.859   5.292   4.785
 4557SOL    HW114570   6.873   5.235   4.705
 4557SOL    HW214571   6.907   5.253   4.863
 4558SOL     OW14572   1.036   4.423   4.591
 4558SOL    HW114573   1.070   4.345   4.538
 4558SOL    HW214574   1.015   4.393   4.684
 4559SOL     OW14575   0.021   2.533   4.284
 4559SOL    HW114576   0.014   2.464   4.357
 4559SOL    HW214577   0.047   2.488   4.199
 4560SOL     OW14578   6.276   4.252   3.303
 4560SOL    HW114579   6.346   4.208   3.247
 4560SOL    HW214580   6.190   4.203   3.293
 4561SOL     OW14581   4.711   2.692   4.246
 4561SOL    HW114582   4.673   2.759   4.308
 4561SOL    HW214583   4.802   2.722   4.215
 4562SOL     OW14584   4.482   1.151   0.718
 4562SOL    HW114585   4.411   1.219   0.737
 4562SOL    HW214586   4.493   1.091   0.797
 4563SOL     OW14587   1.200   4.434   1.417
 4563SOL    HW114588   1.121   4.441   1.357
 4563SOL    HW214589   1.187   4.356   1.479
 4564SOL     OW14590   2.106   4.413   2.550
 4564SOL    HW114591   2.099   4.479   2.474
 4564SOL    HW214592   2.190   4.360   2.540
 4565SOL     OW14593   2.412   0.533   5.718
 4565SOL    HW114594   2.439   0.555   5.811
 4565SOL    HW214595   2.349   0.455   5.718
 4566SOL     OW14596   0.107   4.678   3.185
 4566SOL    HW114597   0.038   4.749   3.196
 4566SOL    HW214598   0.065   4.596   3.145
 4567SOL     OW14599   0.363   0.312   0.057
 4567SOL    HW114600   0.299   0.278   0.126
 4567SOL    HW214601   0.454   0.274   0.074
 4568SOL     OW14602   0.792   4.467   3.565
 4568SOL    HW114603   0.855   4.544   3.569
 4568SOL    HW214604   0.801   4.411   3.647
 4569SOL     OW14605   1.379   2.891   3.427
 4569SOL    HW114606   1.310   2.878   3.499
 4569SOL    HW214607   1.401   2.988   3.420
 4570SOL     OW14608   5.467   5.885   1.135
 4570SOL    HW114609   5.370   5.875   1.159
 4570SOL    HW214610   5.478   5.874   1.037
 4571SOL     OW14611   1.831   3.429   5.623
 4571SOL    HW114612   1.738   3.461   5.644
 4571SOL    HW214613   1.847   3.436   5.525
 4572SOL     OW14614   4.442   3.194   1.744
 4572SOL    HW114615   4.495   3.201   1.660
 4572SOL    HW214616   4.485   3.128   1.806
 4573SOL     OW14617   2.409   4.554   1.009
 4573SOL    HW114618   2.436   4.563   1.105
 4573SOL    HW214619   2.310   4.552   1.003
 4574SOL     OW14620   5.097   0.324   1.891
 4574SOL    HW114621   5.081   0.421   1.909
 4574SOL    HW214622   5.017   0.285   1.846
 4575SOL     OW14623   0.048   0.969   5.146
 4575SOL    HW114624   0.020   0.981   5.241
 4575SOL    HW214625   0.147   0.982   5.138
 4576SOL     OW14626   3.192   3.780   7.013
 4576SOL    HW114627   3.251   3.732   6.949
 4576SOL    HW214628   3.246   3.842   0.044
 4577SOL     OW14629   0.742   1.668   1.685
 4577SOL    HW114630   0.667   1.663   1.751
 4577SOL    HW214631   0.790   1.580   1.683
 4578SOL     OW14632   1.510   1.052   3.112
 4578SOL    HW114633   1.448   1.115   3.159
 4578SOL    HW214634   1.588   1.103   3.076
 4579SOL     OW14635   4.523   1.127   3.380
 4579SOL    HW114636   4.511   1.099   3.475
 4579SOL    HW214637   4.479   1.216   3.366
 4580SOL     OW14638   0.612   0.832   1.757
 4580SOL    HW114639   0.675   0.797   1.688
 4580SOL    HW214640   0.534   0.876   1.713
 4581SOL     OW14641   3.014   0.247   1.097
 4581SOL    HW114642   2.975   0.332   1.133
 4581SOL    HW214643   2.968   0.222   1.013
 4582SOL     OW14644   6.435   0.565   3.729
 4582SOL    HW114645   6.488   0.649   3.723
 4582SOL    HW214646   6.492   0.492   3.766
 4583SOL     OW14647   1.612   6.628   0.137
 4583SOL    HW114648   1.702   6.585   0.133
 4583SOL    HW214649   1.623   6.728   0.144
 4584SOL     OW14650   0.303   1.380   3.947
 4584SOL    HW114651   0.291   1.456   4.011
 4584SOL    HW214652   0.266   1.405   3.858
 4585SOL     OW14653   1.154   3.050   3.244
 4585SOL    HW114654   1.128   3.072   3.338
 4585SOL    HW214655   1.072   3.031   3.190
 4586SOL     OW14656   6.633   5.036   5.631
 4586SOL    HW114657   6.635   5.035   5.731
 4586SOL    HW214658   6.633   5.130   5.599
 4587SOL     OW14659   4.325   3.516   6.160
 4587SOL    HW114660   4.319   3.417   6.171
 4587SOL    HW214661   4.392   3.538   6.089
 4588SOL     OW14662   2.865   4.307   6.562
 4588SOL    HW114663   2.860   4.240   6.488
 4588SOL    HW214664   2.858   4.260   6.650
 4589SOL     OW14665   5.389   5.775   2.129
 4589SOL    HW114666   5.410   5.849   2.066
 4589SOL    HW214667   5.472   5.745   2.175
 4590SOL     OW14668   2.328   5.515   1.801
 4590SOL    HW114669   2.231   5.539   1.788
 4590SOL    HW214670   2.335   5.439   1.866
 4591SOL     OW14671   2.221   0.807   4.770
 4591SOL    HW114672   2.143   0.745   4.771
 4591SOL    HW214673   2.191   0.900   4.791
 4592SOL     OW14674   3.066   2.232   3.854
 4592SOL    HW114675   3.033   2.212   3.762
 4592SOL    HW214676   3.156   2.191   3.868
 4593SOL     OW14677   1.524   5.793   4.659
 4593SOL    HW114678   1.466   5.872   4.676
 4593SOL    HW214679   1.471   5.709   4.673
 4594SOL     OW14680   1.606   6.343   4.065
 4594SOL    HW114681   1.670   6.385   4.128
 4594SOL    HW214682   1.546   6.280   4.115
 4595SOL     OW14683   5.882   1.957   6.378
 4595SOL    HW114684   5.978   1.931   6.392
 4595SOL    HW214685   5.845   1.992   6.464
 4596SOL     OW14686   1.055   1.654   1.995
 4596SOL    HW114687   1.075   1.574   1.939
 4596SOL    HW214688   1.127   1.722   1.983
 4597SOL     OW14689   2.287   5.787   0.696
 4597SOL    HW114690   2.200   5.750   0.728
 4597SOL    HW214691   2.298   5.881   0.728
 4598SOL     OW14692   0.734   2.890   7.023
 4598SOL    HW114693   0.785   2.832   6.960
 4598SOL    HW214694   0.685   2.833   0.063
 4599SOL     OW14695   3.140   6.298   2.908
 4599SOL    HW114696   3.184   6.376   2.865
 4599SOL    HW214697   3.126   6.226   2.841
 4600SOL     OW14698   0.609   6.395   6.520
 4600SOL    HW114699   0.700   6.407   6.481
 4600SOL    HW214700   0.615   6.335   6.600
 4601SOL     OW14701   1.339   0.915   5.491
 4601SOL    HW114702   1.376   0.885   5.578
 4601SOL    HW214703   1.406   0.972   5.443
 4602SOL     OW14704   4.088   1.008   6.623
 4602SOL    HW114705   4.149   1.074   6.667
 4602SOL    HW214706   4.012   1.057   6.579
 4603SOL     OW14707   3.935   6.933   0.890
 4603SOL    HW114708   3.877   6.911   0.969
 4603SOL    HW214709   3.911   7.023   0.855
 4604SOL     OW14710   0.507   6.510   3.384
 4604SOL    HW114711   0.528   6.553   3.297
 4604SOL    HW214712   0.528   6.573   3.459
 4605SOL     OW14713   4.399   1.143   1.624
 4605SOL    HW114714   4.438   1.138   1.532
 4605SOL    HW214715   4.460   1.098   1.689
 4606SOL     OW14716   6.991   6.956   4.756
 4606SOL    HW114717   0.049   7.003   4.727
 4606SOL    HW214718   6.933   7.021   4.806
 4607SOL     OW14719   3.329   1.702   1.146
 4607SOL    HW114720   3.268   1.763   1.095
 4607SOL    HW214721   3.408   1.679   1.090
 4608SOL     OW14722   0.111   2.484   5.090
 4608SOL    HW114723   0.060   2.565   5.119
 4608SOL    HW214724   0.063   2.402   5.122
 4609SOL     OW14725   5.957   5.365   6.042
 4609SOL    HW114726   5.874   5.320   6.075
 4609SOL    HW214727   6.030   5.351   6.109
 4610SOL     OW14728   4.974   5.067   6.771
 4610SOL    HW114729   5.002   5.109   6.685
 4610SOL    HW214730   4.977   5.136   6.844
 4611SOL     OW14731   0.205   1.003   6.794
 4611SOL    HW114732   0.116   1.046   6.804
 4611SOL    HW214733   0.241   0.980   6.885
 4612SOL     OW14734   2.810   1.434   3.342
 4612SOL    HW114735   2.718   1.418   3.304
 4612SOL    HW214736   2.803   1.442   3.441
 4613SOL     OW14737   1.384   5.243   2.769
 4613SOL    HW114738   1.294   5.278   2.742
 4613SOL    HW214739   1.441   5.319   2.802
 4614SOL     OW14740   0.469   4.363   2.684
 4614SOL    HW114741   0.501   4.351   2.590
 4614SOL    HW214742   0.369   4.363   2.686
 4615SOL     OW14743   1.043   4.439   6.852
 4615SOL    HW114744   1.039   4.414   6.948
 4615SOL    HW214745   1.046   4.356   6.796
 4616SOL     OW14746   1.223   3.978   6.648
 4616SOL    HW114747   1.318   4.008   6.637
 4616SOL    HW214748   1.221   3.884   6.682
 4617SOL     OW14749   0.171   4.290   4.011
 4617SOL    HW114750   0.126   4.378   3.996
 4617SOL    HW214751   0.113   4.232   4.068
 4618SOL     OW14752   2.217   4.255   5.566
 4618SOL    HW114753   2.262   4.287   5.650
 4618SOL    HW214754   2.278   4.191   5.518
 4619SOL     OW14755   4.296   5.750   6.780
 4619SOL    HW114756   4.280   5.848   6.774
 4619SOL    HW214757   4.316   5.725   6.874
 4620SOL     OW14758   1.337   4.491   1.161
 4620SOL    HW114759   1.291   4.550   1.095
 4620SOL    HW214760   1.268   4.450   1.221
 4621SOL     OW14761   2.902   0.024   2.931
 4621SOL    HW114762   2.805   0.007   2.943
 4621SOL    HW214763   2.955   6.983   2.983
 4622SOL     OW14764   5.349   0.072   0.329
 4622SOL    HW114765   5.431   0.112   0.288
 4622SOL    HW214766   5.343   7.001   0.306
 4623SOL     OW14767   2.930   4.899   3.019
 4623SOL    HW114768   2.907   4.848   2.937
 4623SOL    HW214769   2.912   4.843   3.100
 4624SOL     OW14770   5.127   1.943   1.112
 4624SOL    HW114771   5.069   1.986   1.043
 4624SOL    HW214772   5.092   1.964   1.203
 4625SOL     OW14773   1.560   7.013   1.740
 4625SOL    HW114774   1.479   6.991   1.795
 4625SOL    HW214775   1.638   0.001   1.801
 4626SOL     OW14776   4.020   3.325   1.913
 4626SOL    HW114777   4.069   3.278   1.839
 4626SOL    HW214778   4.066   3.412   1.934
 4627SOL     OW14779   6.015   6.489   5.186
 4627SOL    HW114780   6.037   6.556   5.257
 4627SOL    HW214781   6.088   6.421   5.181
 4628SOL     OW14782   6.784   4.623   2.675
 4628SOL    HW114783   6.716   4.695   2.690
 4628SOL    HW214784   6.779   4.592   2.580
 4629SOL     OW14785   1.459   5.115   0.686
 4629SOL    HW114786   1.397   5.043   0.657
 4629SOL    HW214787   1.415   5.173   0.754
 4630SOL     OW14788   1.793   3.768   1.338
 4630SOL    HW114789   1.713   3.784   1.279
 4630SOL    HW214790   1.820   3.853   1.381
 4631SOL     OW14791   6.334   1.425   2.823
 4631SOL    HW114792   6.301   1.402   2.732
 4631SOL    HW214793   6.433   1.435   2.821
 4632SOL     OW14794   2.947   4.778   3.790
 4632SOL    HW114795   2.988   4.845   3.852
 4632SOL    HW214796   3.004   4.768   3.709
 4633SOL     OW14797   5.491   3.034   4.094
 4633SOL    HW114798   5.553   3.103   4.056
 4633SOL    HW214799   5.417   3.016   4.029
 4634SOL     OW14800   3.813   3.184   4.617
 4634SOL    HW114801   3.790   3.227   4.704
 4634SOL    HW214802   3.774   3.092   4.614
 4635SOL     OW14803   4.391   6.687   2.157
 4635SOL    HW114804   4.406   6.718   2.251
 4635SOL    HW214805   4.476   6.698   2.105
 4636SOL     OW14806   1.657   5.750   6.508
 4636SOL    HW114807   1.675   5.672   6.568
 4636SOL    HW214808   1.659   5.720   6.413
 4637SOL     OW14809   2.161   2.351   3.214
 4637SOL    HW114810   2.121   2.429   3.167
 4637SOL    HW214811   2.193   2.380   3.304
 4638SOL     OW14812   3.876   4.643   0.861
 4638SOL    HW114813   3.957   4.629   0.803
 4638SOL    HW214814   3.824   4.558   0.865
 4639SOL     OW14815   4.169   2.295   2.159
 4639SOL    HW114816   4.085   2.339   2.127
 4639SOL    HW214817   4.217   2.255   2.082
 4640SOL     OW14818   6.498   3.033   1.062
 4640SOL    HW114819   6.593   3.061   1.051
 4640SOL    HW214820   6.448   3.049   0.977
 4641SOL     OW14821   0.969   5.951   4.991
 4641SOL    HW114822   0.942   5.886   5.063
 4641SOL    HW214823   0.963   6.044   5.026
 4642SOL     OW14824   6.239   1.425   5.818
 4642SOL    HW114825   6.293   1.421   5.734
 4642SOL    HW214826   6.168   1.355   5.815
 4643SOL     OW14827   0.459   1.751   0.322
 4643SOL    HW114828   0.450   1.850   0.316
 4643SOL    HW214829   0.414   1.708   0.245
 4644SOL     OW14830   1.307   1.244   0.981
 4644SOL    HW114831   1.283   1.149   0.963
 4644SOL    HW214832   1.279   1.269   1.074
 4645SOL     OW14833   6.074   2.373   5.171
 4645SOL    HW114834   6.130   2.445   5.129
 4645SOL    HW214835   5.983   2.373   5.130
 4646SOL     OW14836   1.744   3.923   2.347
 4646SOL    HW114837   1.660   3.977   2.340
 4646SOL    HW214838   1.795   3.951   2.429
 4647SOL     OW14839   1.999   6.375   2.705
 4647SOL    HW114840   1.981   6.429   2.787
 4647SOL    HW214841   1.928   6.305   2.695
 4648SOL     OW14842   2.788   1.173   4.767
 4648SOL    HW114843   2.849   1.215   4.700
 4648SOL    HW214844   2.827   1.086   4.797
 4649SOL     OW14845   5.251   2.096   0.779
 4649SOL    HW114846   5.246   2.188   0.740
 4649SOL    HW214847   5.317   2.042   0.727
 4650SOL     OW14848   4.071   5.205   0.888
 4650SOL    HW114849   3.987   5.213   0.834
 4650SOL    HW214850   4.080   5.284   0.949
 4651SOL     OW14851   0.881   3.902   6.822
 4651SOL    HW114852   0.854   3.816   6.779
 4651SOL    HW214853   0.946   3.882   6.896
 4652SOL     OW14854   6.814   0.315   5.284
 4652SOL    HW114855   6.864   0.232   5.259
 4652SOL    HW214856   6.718   0.303   5.260
 4653SOL     OW14857   6.920   6.037   0.430
 4653SOL    HW114858   6.996   5.974   0.445
 4653SOL    HW214859   6.915   6.061   0.333
 4654SOL     OW14860   0.450   1.237   5.407
 4654SOL    HW114861   0.354   1.265   5.413
 4654SOL    HW214862   0.495   1.254   5.495
 4655SOL     OW14863   5.215   4.402   2.947
 4655SOL    HW114864   5.187   4.498   2.942
 4655SOL    HW214865   5.288   4.385   2.881
 4656SOL     OW14866   5.755   0.656   1.452
 4656SOL    HW114867   5.797   0.747   1.456
 4656SOL    HW214868   5.714   0.642   1.362
 4657SOL     OW14869   3.867   1.330   2.638
 4657SOL    HW114870   3.833   1.424   2.624
 4657SOL    HW214871   3.965   1.327   2.620
 4658SOL     OW14872   1.041   1.792   0.036
 4658SOL    HW114873   0.971   1.862   0.047
 4658SOL    HW214874   1.102   1.792   0.116
 4659SOL     OW14875   2.428   4.433   0.419
 4659SOL    HW114876   2.369   4.381   0.358
 4659SOL    HW214877   2.382   4.517   0.447
 4660SOL     OW14878   0.137   4.938   4.428
 4660SOL    HW114879   0.147   5.037   4.414
 4660SOL    HW214880   0.227   4.897   4.441
 4661SOL     OW14881   1.179   1.529   5.869
 4661SOL    HW114882   1.143   1.547   5.960
 4661SOL    HW214883   1.167   1.433   5.846
 4662SOL     OW14884   2.820   0.663   5.939
 4662SOL    HW114885   2.901   0.623   5.981
 4662SOL    HW214886   2.817   0.761   5.957
 4663SOL     OW14887   0.838   0.542   0.983
 4663SOL    HW114888   0.860   0.496   1.069
 4663SOL    HW214889   0.922   0.556   0.930
 4664SOL     OW14890   5.886   6.261   5.643
 4664SOL    HW114891   5.787   6.270   5.643
 4664SOL    HW214892   5.912   6.181   5.588
 4665SOL     OW14893   0.059   0.885   2.538
 4665SOL    HW114894   0.027   0.793   2.561
 4665SOL    HW214895   0.034   0.906   2.443
 4666SOL     OW14896   1.559   2.699   5.714
 4666SOL    HW114897   1.485   2.754   5.753
 4666SOL    HW214898   1.621   2.669   5.787
 4667SOL     OW14899   5.849   3.025   1.357
 4667SOL    HW114900   5.780   2.963   1.394
 4667SOL    HW214901   5.931   2.973   1.331
 4668SOL     OW14902   4.666   1.838   5.426
 4668SOL    HW114903   4.741   1.902   5.410
 4668SOL    HW214904   4.693   1.770   5.494
 4669SOL     OW14905   5.225   7.003   5.960
 4669SOL    HW114906   5.232   6.906   5.980
 4669SOL    HW214907   5.129   0.005   5.960
 4670SOL     OW14908   0.259   3.585   6.557
 4670SOL    HW114909   0.336   3.533   6.594
 4670SOL    HW214910   0.177   3.568   6.613
 4671SOL     OW14911   6.780   2.605   1.717
 4671SOL    HW114912   6.853   2.539   1.735
 4671SOL    HW214913   6.816   2.698   1.725
 4672SOL     OW14914   3.044   3.571   0.099
 4672SOL    HW114915   3.079   3.655   0.057
 4672SOL    HW214916   3.114   3.533   0.160
 4673SOL     OW14917   5.415   0.995   0.754
 4673SOL    HW114918   5.474   0.975   0.832
 4673SOL    HW214919   5.398   0.911   0.702
 4674SOL     OW14920   1.349   2.790   0.793
 4674SOL    HW114921   1.426   2.762   0.736
 4674SOL    HW214922   1.346   2.734   0.875
 4675SOL     OW14923   1.723   6.311   0.026
 4675SOL    HW114924   1.748   6.215   0.018
 4675SOL    HW214925   1.650   6.320   0.094
 4676SOL     OW14926   0.790   5.627   4.565
 4676SOL    HW114927   0.785   5.656   4.469
 4676SOL    HW214928   0.698   5.622   4.603
 4677SOL     OW14929   3.992   6.871   6.883
 4677SOL    HW114930   3.920   6.803   6.868
 4677SOL    HW214931   4.016   6.873   6.980
 4678SOL     OW14932   2.065   4.485   0.133
 4678SOL    HW114933   2.018   4.430   0.064
 4678SOL    HW214934   2.113   4.560   0.088
 4679SOL     OW14935   2.385   6.665   5.473
 4679SOL    HW114936   2.306   6.632   5.524
 4679SOL    HW214937   2.415   6.752   5.511
 4680SOL     OW14938   0.561   5.159   6.725
 4680SOL    HW114939   0.553   5.164   6.626
 4680SOL    HW214940   0.598   5.070   6.751
 4681SOL     OW14941   6.537   5.880   4.589
 4681SOL    HW114942   6.553   5.800   4.530
 4681SOL    HW214943   6.445   5.874   4.627
 4682SOL     OW14944   2.663   0.340   0.803
 4682SOL    HW114945   2.684   0.434   0.777
 4682SOL    HW214946   2.627   0.339   0.897
 4683SOL     OW14947   0.425   4.564   3.280
 4683SOL    HW114948   0.406   4.653   3.323
 4683SOL    HW214949   0.427   4.493   3.349
 4684SOL     OW14950   1.964   1.169   5.181
 4684SOL    HW114951   1.870   1.144   5.202
 4684SOL    HW214952   2.017   1.177   5.265
 4685SOL     OW14953   5.340   4.578   4.587
 4685SOL    HW114954   5.331   4.623   4.498
 4685SOL    HW214955   5.277   4.620   4.652
 4686SOL     OW14956   4.939   5.827   7.000
 4686SOL    HW114957   5.009   5.757   7.013
 4686SOL    HW214958   4.928   5.846   6.903
 4687SOL     OW14959   4.717   6.856   4.368
 4687SOL    HW114960   4.760   6.846   4.458
 4687SOL    HW214961   4.663   6.775   4.348
 4688SOL     OW14962   6.881   1.518   0.522
 4688SOL    HW114963   6.979   1.518   0.545
 4688SOL    HW214964   6.828   1.494   0.603
 4689SOL     OW14965   2.029   5.416   4.481
 4689SOL    HW114966   1.977   5.354   4.423
 4689SOL    HW214967   1.969   5.458   4.549
 4690SOL     OW14968   2.216   1.867   1.117
 4690SOL    HW114969   2.270   1.784   1.105
 4690SOL    HW214970   2.135   1.863   1.058
 4691SOL     OW14971   3.318   4.352   0.411
 4691SOL    HW114972   3.405   4.381   0.371
 4691SOL    HW214973   3.278   4.428   0.462
 4692SOL     OW14974   1.086   5.646   3.467
 4692SOL    HW114975   1.028   5.709   3.414
 4692SOL    HW214976   1.139   5.590   3.404
 4693SOL     OW14977   1.081   0.876   2.077
 4693SOL    HW114978   0.995   0.888   2.126
 4693SOL    HW214979   1.142   0.953   2.095
 4694SOL     OW14980   1.100   1.036   5.410
 4694SOL    HW114981   1.122   1.079   5.323
 4694SOL    HW214982   1.182   0.993   5.449
 4695SOL     OW14983   3.237   3.280   2.570
 4695SOL    HW114984   3.279   3.354   2.518
 4695SOL    HW214985   3.182   3.318   2.644
 4696SOL     OW14986   6.497   3.418   0.625
 4696SOL    HW114987   6.406   3.458   0.630
 4696SOL    HW214988   6.559   3.481   0.578
 4697SOL     OW14989   0.963   5.632   6.569
 4697SOL    HW114990   0.881   5.609   6.622
 4697SOL    HW214991   0.967   5.576   6.487
 4698SOL     OW14992   6.212   3.431   2.173
 4698SOL    HW114993   6.288   3.384   2.217
 4698SOL    HW214994   6.137   3.442   2.239
 4699SOL     OW14995   6.831   6.156   3.403
 4699SOL    HW114996   6.774   6.237   3.413
 4699SOL    HW214997   6.924   6.177   3.433
 4700SOL     OW14998   5.132   6.638   6.726
 4700SOL    HW114999   5.079   6.705   6.778
 4700SOL    HW215000   5.225   6.673   6.712
 4701SOL     OW15001   1.659   0.529   6.900
 4701SOL    HW115002   1.656   0.430   6.892
 4701SOL    HW215003   1.583   0.561   6.957
 4702SOL     OW15004   2.337   3.341   0.430
 4702SOL    HW115005   2.411   3.371   0.370
 4702SOL    HW215006   2.334   3.400   0.511
 4703SOL     OW15007   0.810   0.116   2.162
 4703SOL    HW115008   0.868   0.145   2.086
 4703SOL    HW215009   0.765   0.029   2.139
 4704SOL     OW15010   4.802   6.868   6.536
 4704SOL    HW115011   4.876   6.932   6.553
 4704SOL    HW215012   4.727   6.886   6.599
 4705SOL     OW15013   4.106   3.461   4.583
 4705SOL    HW115014   4.092   3.555   4.552
 4705SOL    HW215015   4.179   3.419   4.528
 4706SOL     OW15016   5.505   4.121   6.741
 4706SOL    HW115017   5.546   4.147   6.829
 4706SOL    HW215018   5.471   4.027   6.746
 4707SOL     OW15019   2.835   5.486   1.259
 4707SOL    HW115020   2.862   5.501   1.164
 4707SOL    HW215021   2.862   5.564   1.315
 4708SOL     OW15022   1.650   3.397   2.440
 4708SOL    HW115023   1.585   3.466   2.471
 4708SOL    HW215024   1.602   3.310   2.428
 4709SOL     OW15025   2.854   4.454   0.674
 4709SOL    HW115026   2.869   4.464   0.575
 4709SOL    HW215027   2.790   4.378   0.690
 4710SOL     OW15028   4.804   2.993   1.200
 4710SOL    HW115029   4.880   3.056   1.214
 4710SOL    HW215030   4.812   2.917   1.264
 4711SOL     OW15031   2.836   0.129   3.267
 4711SOL    HW115032   2.754   0.077   3.293
 4711SOL    HW215033   2.824   0.225   3.293
 4712SOL     OW15034   1.483   3.861   6.837
 4712SOL    HW115035   1.413   3.791   6.821
 4712SOL    HW215036   1.553   3.825   6.899
 4713SOL     OW15037   1.286   5.265   0.495
 4713SOL    HW115038   1.194   5.294   0.522
 4713SOL    HW215039   1.295   5.167   0.511
 4714SOL     OW15040   3.658   2.158   1.345
 4714SOL    HW115041   3.576   2.132   1.295
 4714SOL    HW215042   3.685   2.251   1.319
 4715SOL     OW15043   5.002   3.864   5.016
 4715SOL    HW115044   4.963   3.955   5.004
 4715SOL    HW215045   4.929   3.795   5.006
 4716SOL     OW15046   2.658   5.480   6.605
 4716SOL    HW115047   2.682   5.491   6.508
 4716SOL    HW215048   2.595   5.553   6.631
 4717SOL     OW15049   2.435   5.080   4.651
 4717SOL    HW115050   2.394   5.153   4.706
 4717SOL    HW215051   2.524   5.056   4.688
 4718SOL     OW15052   5.095   0.653   0.241
 4718SOL    HW115053   5.166   0.584   0.249
 4718SOL    HW215054   5.046   0.640   0.154
 4719SOL     OW15055   4.132   3.199   1.700
 4719SOL    HW115056   4.101   3.280   1.651
 4719SOL    HW215057   4.230   3.205   1.716
 4720SOL     OW15058   3.077   1.426   3.489
 4720SOL    HW115059   3.017   1.411   3.568
 4720SOL    HW215060   3.025   1.409   3.405
 4721SOL     OW15061   1.724   1.427   1.328
 4721SOL    HW115062   1.728   1.382   1.417
 4721SOL    HW215063   1.650   1.387   1.274
 4722SOL     OW15064   3.440   0.206   2.246
 4722SOL    HW115065   3.468   0.195   2.150
 4722SOL    HW215066   3.500   0.272   2.291
 4723SOL     OW15067   2.722   6.935   5.143
 4723SOL    HW115068   2.735   0.009   5.141
 4723SOL    HW215069   2.807   6.891   5.114
 4724SOL     OW15070   4.543   4.844   0.657
 4724SOL    HW115071   4.510   4.834   0.563
 4724SOL    HW215072   4.627   4.790   0.668
 4725SOL     OW15073   6.160   5.419   2.468
 4725SOL    HW115074   6.192   5.356   2.538
 4725SOL    HW215075   6.065   5.397   2.444
 4726SOL     OW15076   0.240   6.643   4.655
 4726SOL    HW115077   0.268   6.736   4.636
 4726SOL    HW215078   0.249   6.625   4.753
 4727SOL     OW15079   6.310   6.616   1.253
 4727SOL    HW115080   6.298   6.663   1.165
 4727SOL    HW215081   6.380   6.546   1.243
 4728SOL     OW15082   6.460   0.889   0.003
 4728SOL    HW115083   6.407   0.860   0.082
 4728SOL    HW215084   6.414   0.965   6.983
 4729SOL     OW15085   3.108   0.625   1.005
 4729SOL    HW115086   3.029   0.640   0.945
 4729SOL    HW215087   3.192   0.634   0.951
 4730SOL     OW15088   2.227   0.749   5.967
 4730SOL    HW115089   2.223   0.807   5.886
 4730SOL    HW215090   2.226   0.653   5.940
 4731SOL     OW15091   4.813   1.860   6.612
 4731SOL    HW115092   4.821   1.911   6.698
 4731SOL    HW215093   4.883   1.788   6.610
 4732SOL     OW15094   0.636   0.465   0.099
 4732SOL    HW115095   0.596   0.469   0.007
 4732SOL    HW215096   0.726   0.422   0.093
 4733SOL     OW15097   6.815   3.664   3.559
 4733SOL    HW115098   6.839   3.761   3.561
 4733SOL    HW215099   6.821   3.630   3.465
 4734SOL     OW15100   5.664   4.488   5.758
 4734SOL    HW115101   5.749   4.441   5.732
 4734SOL    HW215102   5.586   4.430   5.736
 4735SOL     OW15103   0.312   4.318   3.755
 4735SOL    HW115104   0.273   4.233   3.717
 4735SOL    HW215105   0.259   4.345   3.835
 4736SOL     OW15106   1.633   0.305   1.992
 4736SOL    HW115107   1.590   0.347   1.912
 4736SOL    HW215108   1.658   0.211   1.971
 4737SOL     OW15109   3.550   5.081   1.740
 4737SOL    HW115110   3.475   5.090   1.674
 4737SOL    HW215111   3.516   5.039   1.824
 4738SOL     OW15112   0.760   6.590   2.334
 4738SOL    HW115113   0.708   6.675   2.337
 4738SOL    HW215114   0.699   6.513   2.314
 4739SOL     OW15115   3.983   6.967   1.966
 4739SOL    HW115116   4.013   0.036   1.951
 4739SOL    HW215117   4.063   6.908   1.973
 4740SOL     OW15118   0.643   2.058   4.200
 4740SOL    HW115119   0.595   2.048   4.113
 4740SOL    HW215120   0.601   2.000   4.269
 4741SOL     OW15121   4.110   3.681   2.424
 4741SOL    HW115122   4.048   3.627   2.367
 4741SOL    HW215123   4.201   3.680   2.382
 4742SOL     OW15124   4.824   0.891   1.605
 4742SOL    HW115125   4.826   0.991   1.597
 4742SOL    HW215126   4.916   0.857   1.620
 4743SOL     OW15127   1.688   5.484   0.998
 4743SOL    HW115128   1.640   5.415   1.052
 4743SOL    HW215129   1.676   5.464   0.901
 4744SOL     OW15130   1.893   5.770   1.372
 4744SOL    HW115131   1.867   5.810   1.460
 4744SOL    HW215132   1.829   5.799   1.301
 4745SOL     OW15133   1.736   3.134   0.523
 4745SOL    HW115134   1.675   3.193   0.470
 4745SOL    HW215135   1.758   3.178   0.610
 4746SOL     OW15136   4.992   5.280   4.119
 4746SOL    HW115137   5.063   5.330   4.169
 4746SOL    HW215138   4.930   5.237   4.184
 4747SOL     OW15139   3.405   0.523   0.091
 4747SOL    HW115140   3.306   0.510   0.095
 4747SOL    HW215141   3.439   0.502   7.025
 4748SOL     OW15142   1.826   0.193   2.753
 4748SOL    HW115143   1.884   0.259   2.800
 4748SOL    HW215144   1.881   0.144   2.684
 4749SOL     OW15145   2.351   1.478   1.331
 4749SOL    HW115146   2.315   1.450   1.241
 4749SOL    HW215147   2.369   1.397   1.386
 4750SOL     OW15148   4.722   3.375   6.181
 4750SOL    HW115149   4.636   3.356   6.133
 4750SOL    HW215150   4.786   3.418   6.117
 4751SOL     OW15151   4.780   0.939   2.256
 4751SOL    HW115152   4.700   0.982   2.215
 4751SOL    HW215153   4.863   0.982   2.221
 4752SOL     OW15154   5.830   1.273   6.844
 4752SOL    HW115155   5.786   1.302   6.759
 4752SOL    HW215156   5.798   1.331   6.920
 4753SOL     OW15157   2.541   6.366   5.305
 4753SOL    HW115158   2.464   6.387   5.245
 4753SOL    HW215159   2.603   6.445   5.309
 4754SOL     OW15160   5.254   4.284   6.924
 4754SOL    HW115161   5.206   4.291   6.837
 4754SOL    HW215162   5.353   4.289   6.908
 4755SOL     OW15163   0.812   1.393   1.269
 4755SOL    HW115164   0.891   1.440   1.229
 4755SOL    HW215165   0.830   1.374   1.365
 4756SOL     OW15166   0.237   3.576   5.586
 4756SOL    HW115167   0.266   3.522   5.665
 4756SOL    HW215168   0.144   3.551   5.561
 4757SOL     OW15169   1.931   3.136   0.318
 4757SOL    HW115170   1.864   3.170   0.385
 4757SOL    HW215171   1.900   3.048   0.283
 4758SOL     OW15172   2.261   4.721   2.690
 4758SOL    HW115173   2.244   4.649   2.623
 4758SOL    HW215174   2.321   4.789   2.651
 4759SOL     OW15175   0.554   6.408   2.233
 4759SOL    HW115176   0.485   6.338   2.213
 4759SOL    HW215177   0.613   6.420   2.154
 4760SOL     OW15178   1.681   6.342   1.862
 4760SOL    HW115179   1.730   6.258   1.887
 4760SOL    HW215180   1.650   6.335   1.768
 4761SOL     OW15181   5.119   6.551   1.635
 4761SOL    HW115182   5.188   6.479   1.623
 4761SOL    HW215183   5.074   6.569   1.548
 4762SOL     OW15184   1.325   0.703   3.330
 4762SOL    HW115185   1.305   0.710   3.427
 4762SOL    HW215186   1.420   0.674   3.318
 4763SOL     OW15187   5.686   5.202   2.047
 4763SOL    HW115188   5.751   5.182   1.974
 4763SOL    HW215189   5.606   5.249   2.009
 4764SOL     OW15190   4.846   2.832   6.624
 4764SOL    HW115191   4.752   2.829   6.656
 4764SOL    HW215192   4.887   2.741   6.632
 4765SOL     OW15193   3.994   1.576   6.117
 4765SOL    HW115194   4.041   1.662   6.136
 4765SOL    HW215195   4.052   1.518   6.060
 4766SOL     OW15196   0.824   0.755   4.638
 4766SOL    HW115197   0.778   0.790   4.556
 4766SOL    HW215198   0.914   0.718   4.612
 4767SOL     OW15199   1.973   4.690   3.749
 4767SOL    HW115200   1.981   4.663   3.654
 4767SOL    HW215201   1.987   4.789   3.757
 4768SOL     OW15202   4.833   2.269   6.279
 4768SOL    HW115203   4.782   2.204   6.336
 4768SOL    HW215204   4.782   2.288   6.195
 4769SOL     OW15205   2.403   3.032   1.010
 4769SOL    HW115206   2.400   2.952   0.950
 4769SOL    HW215207   2.388   3.114   0.955
 4770SOL     OW15208   6.910   1.740   3.401
 4770SOL    HW115209   6.934   1.811   3.467
 4770SOL    HW215210   6.846   1.778   3.334
 4771SOL     OW15211   2.568   0.192   4.361
 4771SOL    HW115212   2.631   0.270   4.359
 4771SOL    HW215213   2.477   0.223   4.385
 4772SOL     OW15214   2.622   4.657   3.055
 4772SOL    HW115215   2.620   4.587   2.984
 4772SOL    HW215216   2.634   4.747   3.014
 4773SOL     OW15217   2.764   5.321   4.833
 4773SOL    HW115218   2.862   5.307   4.851
 4773SOL    HW215219   2.730   5.250   4.772
 4774SOL     OW15220   0.994   4.553   0.786
 4774SOL    HW115221   0.932   4.485   0.747
 4774SOL    HW215222   0.945   4.607   0.855
 4775SOL     OW15223   5.934   5.318   4.427
 4775SOL    HW115224   5.837   5.338   4.420
 4775SOL    HW215225   5.960   5.309   4.524
 4776SOL     OW15226   6.580   1.657   5.044
 4776SOL    HW115227   6.647   1.731   5.036
 4776SOL    HW215228   6.493   1.687   5.004
 4777SOL     OW15229   1.366   6.719   3.382
 4777SOL    HW115230   1.364   6.708   3.283
 4777SOL    HW215231   1.303   6.653   3.424
 4778SOL     OW15232   1.953   6.934   0.137
 4778SOL    HW115233   1.915   6.924   0.229
 4778SOL    HW215234   1.901   7.004   0.088
 4779SOL     OW15235   4.820   1.141   4.553
 4779SOL    HW115236   4.800   1.147   4.456
 4779SOL    HW215237   4.823   1.045   4.581
 4780SOL     OW15238   4.817   2.998   4.739
 4780SOL    HW115239   4.818   3.078   4.679
 4780SOL    HW215240   4.854   3.024   4.829
 4781SOL     OW15241   1.732   5.315   2.084
 4781SOL    HW115242   1.768   5.311   2.177
 4781SOL    HW215243   1.649   5.259   2.079
 4782SOL     OW15244   1.459   5.945   2.961
 4782SOL    HW115245   1.407   5.904   2.887
 4782SOL    HW215246   1.421   6.035   2.983
 4783SOL     OW15247   0.485   3.461   6.711
 4783SOL    HW115248   0.453   3.420   6.796
 4783SOL    HW215249   0.564   3.520   6.730
 4784SOL     OW15250   5.473   2.756   6.952
 4784SOL    HW115251   5.515   2.837   6.910
 4784SOL    HW215252   5.534   2.721   7.023
 4785SOL     OW15253   0.237   0.029   3.962
 4785SOL    HW115254   0.211   0.073   3.876
 4785SOL    HW215255   0.201   6.962   3.964
 4786SOL     OW15256   0.770   5.396   0.473
 4786SOL    HW115257   0.700   5.447   0.524
 4786SOL    HW215258   0.729   5.356   0.391
 4787SOL     OW15259   4.804   0.875   5.118
 4787SOL    HW115260   4.770   0.942   5.052
 4787SOL    HW215261   4.774   0.901   5.210
 4788SOL     OW15262   0.009   5.765   1.010
 4788SOL    HW115263   0.063   5.776   1.093
 4788SOL    HW215264   6.941   5.741   1.034
 4789SOL     OW15265   6.010   0.838   2.731
 4789SOL    HW115266   6.108   0.837   2.711
 4789SOL    HW215267   5.975   0.744   2.732
 4790SOL     OW15268   6.491   2.137   5.034
 4790SOL    HW115269   6.402   2.170   5.067
 4790SOL    HW215270   6.480   2.098   4.943
 4791SOL     OW15271   0.561   0.647   6.705
 4791SOL    HW115272   0.573   0.703   6.623
 4791SOL    HW215273   0.570   0.550   6.681
 4792SOL     OW15274   0.423   3.896   1.723
 4792SOL    HW115275   0.340   3.925   1.676
 4792SOL    HW215276   0.503   3.936   1.679
 4793SOL     OW15277   0.778   3.736   5.270
 4793SOL    HW115278   0.696   3.764   5.318
 4793SOL    HW215279   0.844   3.812   5.269
 4794SOL     OW15280   5.400   1.548   6.126
 4794SOL    HW115281   5.355   1.603   6.196
 4794SOL    HW215282   5.395   1.595   6.038
 4795SOL     OW15283   0.150   0.827   0.010
 4795SOL    HW115284   0.192   0.738   0.026
 4795SOL    HW215285   0.057   0.828   0.047
 4796SOL     OW15286   5.640   1.069   5.805
 4796SOL    HW115287   5.671   1.038   5.715
 4796SOL    HW215288   5.542   1.053   5.814
 4797SOL     OW15289   2.586   5.336   5.737
 4797SOL    HW115290   2.669   5.280   5.730
 4797SOL    HW215291   2.535   5.331   5.651
 4798SOL     OW15292   3.328   6.362   0.139
 4798SOL    HW115293   3.346   6.283   0.197
 4798SOL    HW215294   3.395   6.365   0.065
 4799SOL     OW15295   3.612   3.245   0.583
 4799SOL    HW115296   3.702   3.208   0.560
 4799SOL    HW215297   3.549   3.230   0.507
 4800SOL     OW15298   1.019   4.655   0.374
 4800SOL    HW115299   0.955   4.722   0.410
 4800SOL    HW215300   1.071   4.616   0.450
 4801SOL     OW15301   5.028   2.741   3.132
 4801SOL    HW115302   5.060   2.760   3.225
 4801SOL    HW215303   5.105   2.743   3.069
 4802SOL     OW15304   6.942   0.573   4.975
 4802SOL    HW115305   6.920   0.568   5.072
 4802SOL    HW215306   6.986   0.661   4.955
 4803SOL     OW15307   4.995   3.804   5.735
 4803SOL    HW115308   5.050   3.737   5.787
 4803SOL    HW215309   5.055   3.857   5.676
 4804SOL     OW15310   4.929   2.611   0.354
 4804SOL    HW115311   4.868   2.575   0.424
 4804SOL    HW215312   4.893   2.698   0.320
 4805SOL     OW15313   5.709   1.096   6.510
 4805SOL    HW115314   5.636   1.100   6.442
 4805SOL    HW215315   5.778   1.029   6.481
 4806SOL     OW15316   0.768   2.597   3.430
 4806SOL    HW115317   0.765   2.622   3.526
 4806SOL    HW215318   0.837   2.653   3.383
 4807SOL     OW15319   0.439   4.197   6.818
 4807SOL    HW115320   0.374   4.123   6.835
 4807SOL    HW215321   0.443   4.214   6.719
 4808SOL     OW15322   3.636   6.114   2.541
 4808SOL    HW115323   3.723   6.097   2.588
 4808SOL    HW215324   3.562   6.073   2.594
 4809SOL     OW15325   3.073   3.782   0.594
 4809SOL    HW115326   3.153   3.732   0.627
 4809SOL    HW215327   3.088   3.810   0.499
 4810SOL     OW15328   1.870   5.526   4.664
 4810SOL    HW115329   1.812   5.474   4.726
 4810SOL    HW215330   1.836   5.620   4.656
 4811SOL     OW15331   3.388   3.602   4.473
 4811SOL    HW115332   3.324   3.642   4.408
 4811SOL    HW215333   3.452   3.672   4.504
 4812SOL     OW15334   2.337   6.687   2.349
 4812SOL    HW115335   2.284   6.764   2.386
 4812SOL    HW215336   2.284   6.603   2.361
 4813SOL     OW15337   0.663   2.715   4.525
 4813SOL    HW115338   0.721   2.676   4.596
 4813SOL    HW215339   0.648   2.646   4.453
 4814SOL     OW15340   6.315   2.296   0.842
 4814SOL    HW115341   6.291   2.302   0.745
 4814SOL    HW215342   6.274   2.213   0.880
 4815SOL     OW15343   6.501   4.322   2.325
 4815SOL    HW115344   6.466   4.414   2.340
 4815SOL    HW215345   6.559   4.322   2.243
 4816SOL     OW15346   2.654   0.732   2.603
 4816SOL    HW115347   2.644   0.656   2.538
 4816SOL    HW215348   2.581   0.799   2.587
 4817SOL     OW15349   3.715   2.534   0.260
 4817SOL    HW115350   3.704   2.435   0.250
 4817SOL    HW215351   3.645   2.581   0.207
 4818SOL     OW15352   4.798   6.647   4.568
 4818SOL    HW115353   4.853   6.659   4.650
 4818SOL    HW215354   4.701   6.659   4.591
 4819SOL     OW15355   3.322   0.920   6.981
 4819SOL    HW115356   3.271   0.907   0.041
 4819SOL    HW215357   3.332   0.832   6.935
 4820SOL     OW15358   6.397   4.598   1.843
 4820SOL    HW115359   6.302   4.607   1.812
 4820SOL    HW215360   6.456   4.585   1.763
 4821SOL     OW15361   6.783   6.006   1.677
 4821SOL    HW115362   6.870   5.992   1.724
 4821SOL    HW215363   6.798   6.057   1.593
 4822SOL     OW15364   0.641   4.007   1.499
 4822SOL    HW115365   0.585   4.039   1.423
 4822SOL    HW215366   0.688   4.085   1.542
 4823SOL     OW15367   0.393   1.724   3.231
 4823SOL    HW115368   0.318   1.745   3.168
 4823SOL    HW215369   0.414   1.805   3.286
 4824SOL     OW15370   5.718   1.923   2.464
 4824SOL    HW115371   5.674   1.986   2.527
 4824SOL    HW215372   5.813   1.907   2.493
 4825SOL     OW15373   1.028   3.322   4.226
 4825SOL    HW115374   1.021   3.296   4.323
 4825SOL    HW215375   1.108   3.380   4.213
 4826SOL     OW15376   6.869   6.949   0.291
 4826SOL    HW115377   6.957   6.989   0.316
 4826SOL    HW215378   6.876   6.906   0.201
 4827SOL     OW15379   4.934   2.065   0.089
 4827SOL    HW115380   4.929   2.018   0.000
 4827SOL    HW215381   4.933   2.164   0.075
 4828SOL     OW15382   5.720   3.104   6.530
 4828SOL    HW115383   5.706   3.062   6.440
 4828SOL    HW215384   5.780   3.046   6.584
 4829SOL     OW15385   3.154   0.327   5.221
 4829SOL    HW115386   3.066   0.285   5.242
 4829SOL    HW215387   3.228   0.274   5.263
 4830SOL     OW15388   4.918   4.961   4.879
 4830SOL    HW115389   4.885   5.045   4.837
 4830SOL    HW215390   4.996   4.981   4.938
 4831SOL     OW15391   6.169   1.986   6.821
 4831SOL    HW115392   6.211   1.980   6.731
 4831SOL    HW215393   6.232   1.951   6.890
 4832SOL     OW15394   1.510   2.846   6.497
 4832SOL    HW115395   1.606   2.818   6.493
 4832SOL    HW215396   1.459   2.798   6.425
 4833SOL     OW15397   6.274   2.179   3.530
 4833SOL    HW115398   6.326   2.184   3.615
 4833SOL    HW215399   6.227   2.091   3.524
 4834SOL     OW15400   6.016   0.151   3.176
 4834SOL    HW115401   6.062   0.240   3.179
 4834SOL    HW215402   5.929   0.156   3.224
 4835SOL     OW15403   1.813   1.614   6.581
 4835SOL    HW115404   1.837   1.669   6.501
 4835SOL    HW215405   1.717   1.587   6.576
 4836SOL     OW15406   5.814   3.157   2.577
 4836SOL    HW115407   5.840   3.068   2.538
 4836SOL    HW215408   5.811   3.149   2.677
 4837SOL     OW15409   0.491   4.864   1.045
 4837SOL    HW115410   0.442   4.906   0.969
 4837SOL    HW215411   0.427   4.815   1.103
 4838SOL     OW15412   2.499   6.105   2.503
 4838SOL    HW115413   2.520   6.199   2.480
 4838SOL    HW215414   2.456   6.102   2.594
 4839SOL     OW15415   0.938   0.349   6.193
 4839SOL    HW115416   0.911   0.261   6.155
 4839SOL    HW215417   0.861   0.413   6.189
 4840SOL     OW15418   6.358   6.112   6.182
 4840SOL    HW115419   6.356   6.024   6.230
 4840SOL    HW215420   6.444   6.159   6.202
 4841SOL     OW15421   2.020   5.806   0.790
 4841SOL    HW115422   2.000   5.900   0.762
 4841SOL    HW215423   2.019   5.800   0.890
 4842SOL     OW15424   3.231   6.798   1.073
 4842SOL    HW115425   3.224   6.897   1.081
 4842SOL    HW215426   3.148   6.762   1.032
 4843SOL     OW15427   1.533   3.415   6.703
 4843SOL    HW115428   1.606   3.361   6.744
 4843SOL    HW215429   1.485   3.361   6.634
 4844SOL     OW15430   1.202   1.694   5.200
 4844SOL    HW115431   1.286   1.748   5.201
 4844SOL    HW215432   1.141   1.728   5.128
 4845SOL     OW15433   5.598   6.085   3.905
 4845SOL    HW115434   5.603   6.142   3.823
 4845SOL    HW215435   5.596   5.989   3.879
 4846SOL     OW15436   0.049   5.515   6.271
 4846SOL    HW115437   6.978   5.533   6.254
 4846SOL    HW215438   0.089   5.592   6.321
 4847SOL     OW15439   4.774   2.882   4.476
 4847SOL    HW115440   4.782   2.961   4.415
 4847SOL    HW215441   4.739   2.912   4.565
 4848SOL     OW15442   2.877   3.123   1.769
 4848SOL    HW115443   2.857   3.178   1.850
 4848SOL    HW215444   2.813   3.147   1.696
 4849SOL     OW15445   2.092   6.499   6.022
 4849SOL    HW115446   2.184   6.459   6.018
 4849SOL    HW215447   2.045   6.483   5.935
 4850SOL     OW15448   3.836   6.920   3.170
 4850SOL    HW115449   3.881   6.831   3.173
 4850SOL    HW215450   3.793   6.933   3.081
 4851SOL     OW15451   5.026   1.342   5.991
 4851SOL    HW115452   4.962   1.418   5.987
 4851SOL    HW215453   5.047   1.311   5.899
 4852SOL     OW15454   1.922   1.544   1.863
 4852SOL    HW115455   1.985   1.506   1.931
 4852SOL    HW215456   1.953   1.636   1.837
 4853SOL     OW15457   3.744   1.733   2.232
 4853SOL    HW115458   3.680   1.667   2.271
 4853SOL    HW215459   3.727   1.741   2.133
 4854SOL     OW15460   3.648   0.276   6.220
 4854SOL    HW115461   3.578   0.265   6.291
 4854SOL    HW215462   3.713   0.346   6.250
 4855SOL     OW15463   6.897   2.530   2.462
 4855SOL    HW115464   6.830   2.516   2.535
 4855SOL    HW215465   6.942   2.618   2.474
 4856SOL     OW15466   0.256   4.417   2.087
 4856SOL    HW115467   0.240   4.330   2.039
 4856SOL    HW215468   0.215   4.412   2.178
 4857SOL     OW15469   0.350   0.859   5.608
 4857SOL    HW115470   0.430   0.854   5.667
 4857SOL    HW215471   0.373   0.823   5.517
 4858SOL     OW15472   1.979   0.432   3.613
 4858SOL    HW115473   1.916   0.454   3.687
 4858SOL    HW215474   2.041   0.509   3.599
 4859SOL     OW15475   3.535   6.148   6.030
 4859SOL    HW115476   3.613   6.124   5.971
 4859SOL    HW215477   3.564   6.146   6.126
 4860SOL     OW15478   3.413   4.690   0.785
 4860SOL    HW115479   3.313   4.677   0.784
 4860SOL    HW215480   3.437   4.766   0.725
 4861SOL     OW15481   4.260   4.197   6.286
 4861SOL    HW115482   4.280   4.149   6.201
 4861SOL    HW215483   4.310   4.152   6.361
 4862SOL     OW15484   0.857   0.035   0.682
 4862SOL    HW115485   0.810   0.074   0.602
 4862SOL    HW215486   0.792   7.014   0.740
 4863SOL     OW15487   5.198   3.769   6.263
 4863SOL    HW115488   5.146   3.852   6.245
 4863SOL    HW215489   5.295   3.793   6.275
 4864SOL     OW15490   3.388   1.387   4.315
 4864SOL    HW115491   3.452   1.387   4.393
 4864SOL    HW215492   3.295   1.403   4.349
 4865SOL     OW15493   1.460   6.530   5.101
 4865SOL    HW115494   1.408   6.559   5.022
 4865SOL    HW215495   1.548   6.493   5.071
 4866SOL     OW15496   6.989   4.497   5.879
 4866SOL    HW115497   7.015   4.571   5.816
 4866SOL    HW215498   0.021   4.417   5.861
 4867SOL     OW15499   4.532   0.989   2.862
 4867SOL    HW115500   4.499   1.053   2.792
 4867SOL    HW215501   4.628   1.011   2.884
 4868SOL     OW15502   6.678   5.085   0.229
 4868SOL    HW115503   6.659   5.035   0.314
 4868SOL    HW215504   6.622   5.168   0.226
 4869SOL     OW15505   0.540   1.616   0.980
 4869SOL    HW115506   0.463   1.552   0.986
 4869SOL    HW215507   0.541   1.674   1.062
 4870SOL     OW15508   0.448   0.094   1.150
 4870SOL    HW115509   0.379   0.104   1.078
 4870SOL    HW215510   0.500   0.010   1.134
 4871SOL     OW15511   0.727   1.729   2.858
 4871SOL    HW115512   0.733   1.818   2.902
 4871SOL    HW215513   0.719   1.740   2.759
 4872SOL     OW15514   5.759   0.188   3.292
 4872SOL    HW115515   5.785   0.278   3.258
 4872SOL    HW215516   5.659   0.186   3.306
 4873SOL     OW15517   6.980   5.418   4.108
 4873SOL    HW115518   6.996   5.455   4.199
 4873SOL    HW215519   0.002   5.331   4.099
 4874SOL     OW15520   5.073   3.620   2.072
 4874SOL    HW115521   4.983   3.629   2.030
 4874SOL    HW215522   5.078   3.536   2.126
 4875SOL     OW15523   6.399   5.761   5.022
 4875SOL    HW115524   6.478   5.807   4.981
 4875SOL    HW215525   6.393   5.786   5.118
 4876SOL     OW15526   6.784   1.164   2.426
 4876SOL    HW115527   6.796   1.071   2.459
 4876SOL    HW215528   6.747   1.221   2.499
 4877SOL     OW15529   0.287   1.407   6.840
 4877SOL    HW115530   0.344   1.359   6.774
 4877SOL    HW215531   0.201   1.434   6.796
 4878SOL     OW15532   6.349   3.684   3.247
 4878SOL    HW115533   6.302   3.604   3.283
 4878SOL    HW215534   6.300   3.767   3.276
 4879SOL     OW15535   5.342   0.488   3.089
 4879SOL    HW115536   5.286   0.406   3.088
 4879SOL    HW215537   5.410   0.482   3.162
 4880SOL     OW15538   6.989   2.941   6.106
 4880SOL    HW115539   6.968   2.900   6.017
 4880SOL    HW215540   0.061   2.960   6.112
 4881SOL     OW15541   0.529   3.710   1.948
 4881SOL    HW115542   0.466   3.676   2.017
 4881SOL    HW215543   0.478   3.754   1.875
 4882SOL     OW15544   5.151   1.665   4.131
 4882SOL    HW115545   5.177   1.654   4.035
 4882SOL    HW215546   5.110   1.755   4.144
 4883SOL     OW15547   6.004   4.312   0.044
 4883SOL    HW115548   5.992   4.280   0.138
 4883SOL    HW215549   6.052   4.242   7.016
 4884SOL     OW15550   2.164   1.494   2.013
 4884SOL    HW115551   2.214   1.559   1.955
 4884SOL    HW215552   2.175   1.520   2.109
 4885SOL     OW15553   0.803   5.068   0.132
 4885SOL    HW115554   0.766   5.114   0.051
 4885SOL    HW215555   0.817   4.971   0.112
 4886SOL     OW15556   2.874   0.633   2.220
 4886SOL    HW115557   2.939   0.598   2.153
 4886SOL    HW215558   2.784   0.642   2.178
 4887SOL     OW15559   4.390   5.855   0.618
 4887SOL    HW115560   4.393   5.840   0.520
 4887SOL    HW215561   4.361   5.949   0.636
 4888SOL     OW15562   4.868   0.326   3.113
 4888SOL    HW115563   4.889   0.354   3.207
 4888SOL    HW215564   4.843   0.229   3.111
 4889SOL     OW15565   5.881   3.497   3.910
 4889SOL    HW115566   5.826   3.578   3.888
 4889SOL    HW215567   5.909   3.502   4.006
 4890SOL     OW15568   6.691   1.644   4.693
 4890SOL    HW115569   6.648   1.556   4.671
 4890SOL    HW215570   6.772   1.628   4.750
 4891SOL     OW15571   2.405   5.796   0.429
 4891SOL    HW115572   2.427   5.708   0.389
 4891SOL    HW215573   2.366   5.782   0.520
 4892SOL     OW15574   5.554   5.089   2.514
 4892SOL    HW115575   5.607   5.080   2.429
 4892SOL    HW215576   5.544   5.185   2.537
 4893SOL     OW15577   1.030   3.118   1.167
 4893SOL    HW115578   1.075   3.182   1.229
 4893SOL    HW215579   1.091   3.096   1.092
 4894SOL     OW15580   5.023   5.997   0.795
 4894SOL    HW115581   5.043   5.907   0.758
 4894SOL    HW215582   5.061   6.005   0.887
 4895SOL     OW15583   6.732   4.289   5.275
 4895SOL    HW115584   6.670   4.226   5.322
 4895SOL    HW215585   6.773   4.352   5.342
 4896SOL     OW15586   2.674   5.057   5.240
 4896SOL    HW115587   2.677   4.960   5.217
 4896SOL    HW215588   2.643   5.109   5.160
 4897SOL     OW15589   2.177   1.617   5.087
 4897SOL    HW115590   2.247   1.572   5.142
 4897SOL    HW215591   2.214   1.702   5.050
 4898SOL     OW15592   4.720   2.065   4.014
 4898SOL    HW115593   4.636   2.117   4.006
 4898SOL    HW215594   4.715   2.006   4.095
 4899SOL     OW15595   6.453   6.493   1.971
 4899SOL    HW115596   6.537   6.482   1.918
 4899SOL    HW215597   6.463   6.446   2.059
 4900SOL     OW15598   3.491   5.870   6.110
 4900SOL    HW115599   3.490   5.964   6.076
 4900SOL    HW215600   3.554   5.862   6.187
 4901SOL     OW15601   2.081   0.998   6.953
 4901SOL    HW115602   2.004   1.054   6.982
 4901SOL    HW215603   2.157   1.009   7.017
 4902SOL     OW15604   2.946   0.110   5.274
 4902SOL    HW115605   2.988   0.025   5.242
 4902SOL    HW215606   2.957   0.117   5.373
 4903SOL     OW15607   4.909   3.830   2.644
 4903SOL    HW115608   4.840   3.883   2.693
 4903SOL    HW215609   5.000   3.857   2.674
 4904SOL     OW15610   1.501   0.598   1.950
 4904SOL    HW115611   1.465   0.600   1.856
 4904SOL    HW215612   1.600   0.604   1.948
 4905SOL     OW15613   2.418   0.942   2.548
 4905SOL    HW115614   2.440   0.995   2.466
 4905SOL    HW215615   2.395   1.005   2.623
 4906SOL     OW15616   5.281   3.492   5.061
 4906SOL    HW115617   5.182   3.481   5.052
 4906SOL    HW215618   5.328   3.429   5.000
 4907SOL     OW15619   3.342   2.464   0.367
 4907SOL    HW115620   3.403   2.387   0.386
 4907SOL    HW215621   3.386   2.525   0.300
 4908SOL     OW15622   3.429   6.746   6.253
 4908SOL    HW115623   3.526   6.744   6.229
 4908SOL    HW215624   3.386   6.660   6.225
 4909SOL     OW15625   4.930   5.461   4.489
 4909SOL    HW115626   4.914   5.549   4.444
 4909SOL    HW215627   4.916   5.387   4.423
 4910SOL     OW15628   3.775   1.764   0.104
 4910SOL    HW115629   3.870   1.740   0.122
 4910SOL    HW215630   3.715   1.693   0.140
 4911SOL     OW15631   6.673   4.604   3.008
 4911SOL    HW115632   6.689   4.555   2.922
 4911SOL    HW215633   6.697   4.700   2.996
 4912SOL     OW15634   5.900   2.622   3.931
 4912SOL    HW115635   5.870   2.583   4.018
 4912SOL    HW215636   5.974   2.566   3.893
 4913SOL     OW15637   0.437   4.244   5.221
 4913SOL    HW115638   0.428   4.329   5.170
 4913SOL    HW215639   0.372   4.177   5.186
 4914SOL     OW15640   4.010   6.365   3.723
 4914SOL    HW115641   4.012   6.354   3.624
 4914SOL    HW215642   4.074   6.438   3.750
 4915SOL     OW15643   3.564   5.841   5.618
 4915SOL    HW115644   3.517   5.922   5.653
 4915SOL    HW215645   3.509   5.801   5.545
 4916SOL     OW15646   5.556   2.598   3.831
 4916SOL    HW115647   5.587   2.651   3.911
 4916SOL    HW215648   5.457   2.607   3.821
 4917SOL     OW15649   4.286   6.550   6.411
 4917SOL    HW115650   4.297   6.586   6.318
 4917SOL    HW215651   4.221   6.607   6.461
 4918SOL     OW15652   5.605   5.821   3.852
 4918SOL    HW115653   5.514   5.809   3.814
 4918SOL    HW215654   5.663   5.743   3.828
 4919SOL     OW15655   4.026   3.907   2.083
 4919SOL    HW115656   3.957   3.951   2.140
 4919SOL    HW215657   4.064   3.828   2.131
 4920SOL     OW15658   5.889   0.812   5.948
 4920SOL    HW115659   5.842   0.781   5.866
 4920SOL    HW215660   5.872   0.910   5.962
 4921SOL     OW15661   0.035   6.992   2.194
 4921SOL    HW115662   0.058   0.023   2.273
 4921SOL    HW215663   0.017   0.025   2.115
 4922SOL     OW15664   4.122   1.048   5.872
 4922SOL    HW115665   4.057   1.119   5.901
 4922SOL    HW215666   4.211   1.089   5.853
 4923SOL     OW15667   3.688   1.406   1.845
 4923SOL    HW115668   3.627   1.485   1.842
 4923SOL    HW215669   3.699   1.369   1.753
 4924SOL     OW15670   2.683   1.463   5.129
 4924SOL    HW115671   2.616   1.525   5.169
 4924SOL    HW215672   2.764   1.514   5.100
 4925SOL     OW15673   4.557   5.952   3.749
 4925SOL    HW115674   4.657   5.960   3.760
 4925SOL    HW215675   4.537   5.909   3.661
 4926SOL     OW15676   5.267   2.669   1.711
 4926SOL    HW115677   5.261   2.641   1.615
 4926SOL    HW215678   5.182   2.714   1.738
 4927SOL     OW15679   2.580   1.491   0.162
 4927SOL    HW115680   2.505   1.539   0.118
 4927SOL    HW215681   2.611   1.543   0.241
 4928SOL     OW15682   6.947   1.034   1.123
 4928SOL    HW115683   6.990   0.953   1.164
 4928SOL    HW215684   7.013   1.108   1.118
 4929SOL     OW15685   6.942   0.086   5.227
 4929SOL    HW115686   7.018   0.047   5.174
 4929SOL    HW215687   6.957   0.067   5.324
 4930SOL     OW15688   4.174   5.735   2.801
 4930SOL    HW115689   4.141   5.674   2.730
 4930SOL    HW215690   4.264   5.770   2.776
 4931SOL     OW15691   5.767   0.321   1.178
 4931SOL    HW115692   5.808   0.408   1.148
 4931SOL    HW215693   5.837   0.250   1.175
 4932SOL     OW15694   3.307   3.798   3.043
 4932SOL    HW115695   3.225   3.851   3.063
 4932SOL    HW215696   3.312   3.779   2.945
 4933SOL     OW15697   1.645   6.946   4.937
 4933SOL    HW115698   1.577   6.951   4.863
 4933SOL    HW215699   1.730   6.988   4.907
 4934SOL     OW15700   3.203   6.665   3.009
 4934SOL    HW115701   3.159   6.755   3.008
 4934SOL    HW215702   3.192   6.623   3.099
 4935SOL     OW15703   6.668   0.537   4.974
 4935SOL    HW115704   6.765   0.560   4.965
 4935SOL    HW215705   6.631   0.581   5.056
 4936SOL     OW15706   4.291   2.956   0.793
 4936SOL    HW115707   4.352   2.974   0.716
 4936SOL    HW215708   4.342   2.915   0.868
 4937SOL     OW15709   4.214   2.768   5.330
 4937SOL    HW115710   4.158   2.688   5.309
 4937SOL    HW215711   4.270   2.791   5.250
 4938SOL     OW15712   3.314   4.561   6.730
 4938SOL    HW115713   3.337   4.659   6.729
 4938SOL    HW215714   3.216   4.549   6.746
 4939SOL     OW15715   4.316   3.898   6.256
 4939SOL    HW115716   4.366   3.893   6.343
 4939SOL    HW215717   4.250   3.823   6.252
 4940SOL     OW15718   1.914   6.008   3.875
 4940SOL    HW115719   1.881   6.016   3.969
 4940SOL    HW215720   1.899   6.095   3.827
 4941SOL     OW15721   5.906   0.904   1.456
 4941SOL    HW115722   5.857   0.986   1.423
 4941SOL    HW215723   5.992   0.895   1.406
 4942SOL     OW15724   5.105   2.041   6.053
 4942SOL    HW115725   5.068   1.949   6.044
 4942SOL    HW215726   5.093   2.091   5.967
 4943SOL     OW15727   5.379   2.610   1.194
 4943SOL    HW115728   5.337   2.524   1.164
 4943SOL    HW215729   5.436   2.592   1.274
 4944SOL     OW15730   2.170   3.788   2.067
 4944SOL    HW115731   2.185   3.705   2.013
 4944SOL    HW215732   2.173   3.765   2.164
 4945SOL     OW15733   0.139   5.750   4.389
 4945SOL    HW115734   0.061   5.796   4.433
 4945SOL    HW215735   0.134   5.765   4.290
 4946SOL     OW15736   6.873   4.350   2.231
 4946SOL    HW115737   6.930   4.274   2.200
 4946SOL    HW215738   6.783   4.345   2.186
 4947SOL     OW15739   5.949   0.688   0.509
 4947SOL    HW115740   6.012   0.611   0.523
 4947SOL    HW215741   5.962   0.726   0.417
 4948SOL     OW15742   2.711   1.532   2.677
 4948SOL    HW115743   2.655   1.461   2.634
 4948SOL    HW215744   2.668   1.621   2.664
 4949SOL     OW15745   5.199   2.070   5.056
 4949SOL    HW115746   5.284   2.116   5.080
 4949SOL    HW215747   5.186   1.989   5.113
 4950SOL     OW15748   3.042   5.671   4.834
 4950SOL    HW115749   3.135   5.703   4.855
 4950SOL    HW215750   2.977   5.716   4.895
 4951SOL     OW15751   4.068   2.107   4.085
 4951SOL    HW115752   4.157   2.062   4.088
 4951SOL    HW215753   4.048   2.148   4.174
 4952SOL     OW15754   6.745   4.560   4.395
 4952SOL    HW115755   6.682   4.638   4.392
 4952SOL    HW215756   6.724   4.497   4.320
 4953SOL     OW15757   0.966   4.444   2.129
 4953SOL    HW115758   0.941   4.507   2.203
 4953SOL    HW215759   1.050   4.476   2.085
 4954SOL     OW15760   6.470   6.493   6.582
 4954SOL    HW115761   6.371   6.482   6.589
 4954SOL    HW215762   6.509   6.413   6.536
 4955SOL     OW15763   1.959   0.470   1.544
 4955SOL    HW115764   1.936   0.424   1.629
 4955SOL    HW215765   2.015   0.410   1.487
 4956SOL     OW15766   6.078   6.189   3.691
 4956SOL    HW115767   6.043   6.283   3.693
 4956SOL    HW215768   6.161   6.186   3.636
 4957SOL     OW15769   1.563   5.925   4.084
 4957SOL    HW115770   1.464   5.939   4.087
 4957SOL    HW215771   1.584   5.828   4.097
 4958SOL     OW15772   0.025   6.679   6.686
 4958SOL    HW115773   6.999   6.764   6.696
 4958SOL    HW215774   0.056   6.669   6.592
 4959SOL     OW15775   0.933   2.125   0.022
 4959SOL    HW115776   0.968   2.216   0.046
 4959SOL    HW215777   0.854   2.134   6.987
 4960SOL     OW15778   3.628   0.245   5.594
 4960SOL    HW115779   3.640   0.227   5.496
 4960SOL    HW215780   3.594   0.162   5.639
 4961SOL     OW15781   5.249   0.463   5.098
 4961SOL    HW115782   5.180   0.536   5.088
 4961SOL    HW215783   5.208   0.387   5.148
 4962SOL     OW15784   6.497   2.283   2.347
 4962SOL    HW115785   6.573   2.342   2.317
 4962SOL    HW215786   6.414   2.309   2.299
 4963SOL     OW15787   0.134   4.597   1.001
 4963SOL    HW115788   0.225   4.601   1.043
 4963SOL    HW215789   0.140   4.547   0.914
 4964SOL     OW15790   3.126   6.756   3.281
 4964SOL    HW115791   3.041   6.806   3.261
 4964SOL    HW215792   3.200   6.821   3.295
 4965SOL     OW15793   6.977   5.835   4.583
 4965SOL    HW115794   6.934   5.752   4.619
 4965SOL    HW215795   7.016   5.888   4.659
 4966SOL     OW15796   4.799   5.638   5.194
 4966SOL    HW115797   4.816   5.548   5.233
 4966SOL    HW215798   4.746   5.629   5.109
 4967SOL     OW15799   5.913   1.830   6.989
 4967SOL    HW115800   5.919   1.816   6.890
 4967SOL    HW215801   5.849   1.904   7.007
 4968SOL     OW15802   5.137   4.385   6.630
 4968SOL    HW115803   5.084   4.300   6.633
 4968SOL    HW215804   5.151   4.413   6.535
 4969SOL     OW15805   1.993   1.652   1.433
 4969SOL    HW115806   2.078   1.697   1.405
 4969SOL    HW215807   1.989   1.560   1.393
 4970SOL     OW15808   1.743   2.710   5.971
 4970SOL    HW115809   1.730   2.614   5.996
 4970SOL    HW215810   1.840   2.729   5.958
 4971SOL     OW15811   6.410   5.386   3.875
 4971SOL    HW115812   6.426   5.317   3.804
 4971SOL    HW215813   6.401   5.341   3.964
 4972SOL     OW15814   1.549   2.144   4.658
 4972SOL    HW115815   1.507   2.096   4.581
 4972SOL    HW215816   1.641   2.108   4.673
 4973SOL     OW15817   4.781   5.462   2.728
 4973SOL    HW115818   4.792   5.502   2.637
 4973SOL    HW215819   4.767   5.535   2.795
 4974SOL     OW15820   3.882   6.775   6.507
 4974SOL    HW115821   3.783   6.786   6.518
 4974SOL    HW215822   3.909   6.808   6.416
 4975SOL     OW15823   3.940   6.306   0.523
 4975SOL    HW115824   3.938   6.362   0.441
 4975SOL    HW215825   4.034   6.284   0.548
 4976SOL     OW15826   2.272   0.600   4.514
 4976SOL    HW115827   2.283   0.698   4.534
 4976SOL    HW215828   2.331   0.575   4.438
 4977SOL     OW15829   3.517   3.191   0.815
 4977SOL    HW115830   3.548   3.214   0.723
 4977SOL    HW215831   3.488   3.095   0.817
 4978SOL     OW15832   6.428   4.329   6.261
 4978SOL    HW115833   6.339   4.307   6.301
 4978SOL    HW215834   6.418   4.337   6.162
 4979SOL     OW15835   2.418   2.400   3.894
 4979SOL    HW115836   2.442   2.431   3.803
 4979SOL    HW215837   2.436   2.302   3.902
 4980SOL     OW15838   1.995   4.674   3.170
 4980SOL    HW115839   2.073   4.625   3.131
 4980SOL    HW215840   1.918   4.611   3.180
 4981SOL     OW15841   5.188   5.514   5.090
 4981SOL    HW115842   5.214   5.526   4.995
 4981SOL    HW215843   5.219   5.592   5.144
 4982SOL     OW15844   2.189   1.617   6.691
 4982SOL    HW115845   2.226   1.543   6.748
 4982SOL    HW215846   2.131   1.578   6.619
 4983SOL     OW15847   6.616   2.449   4.679
 4983SOL    HW115848   6.570   2.427   4.593
 4983SOL    HW215849   6.708   2.408   4.679
 4984SOL     OW15850   4.953   4.620   3.275
 4984SOL    HW115851   4.896   4.538   3.282
 4984SOL    HW215852   4.897   4.701   3.287
 4985SOL     OW15853   5.678   3.705   2.350
 4985SOL    HW115854   5.636   3.656   2.274
 4985SOL    HW215855   5.674   3.804   2.332
 4986SOL     OW15856   4.486   5.062   2.954
 4986SOL    HW115857   4.473   5.009   2.871
 4986SOL    HW215858   4.490   5.001   3.033
 4987SOL     OW15859   0.721   3.226   0.515
 4987SOL    HW115860   0.668   3.184   0.441
 4987SOL    HW215861   0.776   3.156   0.561
 4988SOL     OW15862   1.870   2.501   5.760
 4988SOL    HW115863   1.956   2.452   5.773
 4988SOL    HW215864   1.889   2.597   5.740
 4989SOL     OW15865   0.110   1.218   1.151
 4989SOL    HW115866   0.063   1.300   1.119
 4989SOL    HW215867   0.199   1.211   1.105
 4990SOL     OW15868   1.414   1.913   6.703
 4990SOL    HW115869   1.415   1.813   6.698
 4990SOL    HW215870   1.487   1.951   6.646
 4991SOL     OW15871   3.058   1.827   5.654
 4991SOL    HW115872   2.969   1.820   5.698
 4991SOL    HW215873   3.121   1.763   5.698
 4992SOL     OW15874   4.002   6.519   4.955
 4992SOL    HW115875   3.927   6.520   5.021
 4992SOL    HW215876   3.967   6.497   4.864
 4993SOL     OW15877   1.822   6.332   4.289
 4993SOL    HW115878   1.794   6.269   4.361
 4993SOL    HW215879   1.906   6.379   4.316
 4994SOL     OW15880   0.026   6.534   3.281
 4994SOL    HW115881   0.030   6.464   3.209
 4994SOL    HW215882   0.084   6.507   3.358
 4995SOL     OW15883   5.804   3.070   5.569
 4995SOL    HW115884   5.902   3.062   5.588
 4995SOL    HW215885   5.752   3.034   5.647
 4996SOL     OW15886   1.221   1.605   3.703
 4996SOL    HW115887   1.175   1.542   3.640
 4996SOL    HW215888   1.194   1.699   3.680
 4997SOL     OW15889   0.068   2.466   4.030
 4997SOL    HW115890   0.155   2.492   3.988
 4997SOL    HW215891   7.019   2.514   3.984
 4998SOL     OW15892   0.997   5.851   5.610
 4998SOL    HW115893   0.954   5.941   5.613
 4998SOL    HW215894   0.930   5.782   5.581
 4999SOL     OW15895   6.164   4.945   0.852
 4999SOL    HW115896   6.184   5.009   0.779
 4999SOL    HW215897   6.065   4.930   0.857
 5000SOL     OW15898   6.253   5.032   4.212
 5000SOL    HW115899   6.325   4.981   4.260
 5000SOL    HW215900   6.172   4.975   4.202
 5001SOL     OW15901   4.851   3.505   5.437
 5001SOL    HW115902   4.869   3.575   5.507
 5001SOL    HW215903   4.931   3.446   5.428
 5002SOL     OW15904   1.413   2.272   1.752
 5002SOL    HW115905   1.372   2.206   1.689
 5002SOL    HW215906   1.495   2.311   1.711
 5003SOL     OW15907   6.694   5.295   4.201
 5003SOL    HW115908   6.709   5.337   4.111
 5003SOL    HW215909   6.605   5.325   4.237
 5004SOL     OW15910   1.992   4.348   6.199
 5004SOL    HW115911   2.065   4.409   6.230
 5004SOL    HW215912   1.909   4.401   6.184
 5005SOL     OW15913   4.730   2.443   0.500
 5005SOL    HW115914   4.693   2.354   0.472
 5005SOL    HW215915   4.761   2.437   0.595
 5006SOL     OW15916   4.867   4.776   2.138
 5006SOL    HW115917   4.921   4.823   2.207
 5006SOL    HW215918   4.844   4.684   2.170
 5007SOL     OW15919   4.218   0.232   5.051
 5007SOL    HW115920   4.264   0.158   5.101
 5007SOL    HW215921   4.198   0.307   5.114
 5008SOL     OW15922   6.384   1.735   4.012
 5008SOL    HW115923   6.440   1.653   4.010
 5008SOL    HW215924   6.380   1.775   3.920
 5009SOL     OW15925   2.442   6.652   2.018
 5009SOL    HW115926   2.505   6.719   1.979
 5009SOL    HW215927   2.488   6.602   2.091
 5010SOL     OW15928   3.363   3.824   6.059
 5010SOL    HW115929   3.333   3.730   6.078
 5010SOL    HW215930   3.304   3.889   6.107
 5011SOL     OW15931   1.392   1.696   3.516
 5011SOL    HW115932   1.492   1.694   3.520
 5011SOL    HW215933   1.355   1.656   3.600
 5012SOL     OW15934   5.946   2.894   0.171
 5012SOL    HW115935   5.943   2.868   0.267
 5012SOL    HW215936   5.991   2.823   0.118
 5013SOL     OW15937   4.892   1.988   5.504
 5013SOL    HW115938   4.933   2.067   5.549
 5013SOL    HW215939   4.964   1.928   5.469
 5014SOL     OW15940   6.920   5.457   6.620
 5014SOL    HW115941   6.873   5.407   6.548
 5014SOL    HW215942   6.856   5.519   6.665
 5015SOL     OW15943   4.936   2.199   3.888
 5015SOL    HW115944   5.026   2.172   3.921
 5015SOL    HW215945   4.866   2.138   3.926
 5016SOL     OW15946   2.906   6.281   1.741
 5016SOL    HW115947   2.836   6.290   1.811
 5016SOL    HW215948   2.868   6.232   1.662
 5017SOL     OW15949   1.448   1.838   1.683
 5017SOL    HW115950   1.536   1.872   1.717
 5017SOL    HW215951   1.374   1.874   1.740
 5018SOL     OW15952   6.411   4.943   3.880
 5018SOL    HW115953   6.382   5.007   3.809
 5018SOL    HW215954   6.400   4.849   3.846
 5019SOL     OW15955   3.103   5.610   5.246
 5019SOL    HW115956   3.071   5.647   5.334
 5019SOL    HW215957   3.067   5.517   5.234
 5020SOL     OW15958   4.320   5.015   6.889
 5020SOL    HW115959   4.383   4.977   6.957
 5020SOL    HW215960   4.307   5.113   6.907
 5021SOL     OW15961   1.896   4.593   5.505
 5021SOL    HW115962   1.892   4.587   5.605
 5021SOL    HW215963   1.906   4.501   5.467
 5022SOL     OW15964   1.970   3.971   0.203
 5022SOL    HW115965   1.990   3.985   0.300
 5022SOL    HW215966   1.971   3.873   0.183
 5023SOL     OW15967   0.271   3.291   4.782
 5023SOL    HW115968   0.240   3.345   4.860
 5023SOL    HW215969   0.342   3.228   4.812
 5024SOL     OW15970   4.782   3.763   5.529
 5024SOL    HW115971   4.707   3.828   5.543
 5024SOL    HW215972   4.852   3.779   5.598
 5025SOL     OW15973   5.826   0.751   4.275
 5025SOL    HW115974   5.902   0.712   4.326
 5025SOL    HW215975   5.800   0.839   4.316
 5026SOL     OW15976   0.650   5.558   2.799
 5026SOL    HW115977   0.679   5.469   2.834
 5026SOL    HW215978   0.598   5.606   2.870
 5027SOL     OW15979   1.238   5.542   3.287
 5027SOL    HW115980   1.299   5.483   3.234
 5027SOL    HW215981   1.241   5.635   3.250
 5028SOL     OW15982   0.886   6.558   3.227
 5028SOL    HW115983   0.871   6.530   3.132
 5028SOL    HW215984   0.878   6.478   3.287
 5029SOL     OW15985   6.219   0.733   3.740
 5029SOL    HW115986   6.265   0.804   3.794
 5029SOL    HW215987   6.284   0.659   3.720
 5030SOL     OW15988   1.252   6.466   0.109
 5030SOL    HW115989   1.278   6.372   0.085
 5030SOL    HW215990   1.192   6.503   0.038
 5031SOL     OW15991   5.446   0.400   6.524
 5031SOL    HW115992   5.387   0.335   6.572
 5031SOL    HW215993   5.535   0.404   6.568
 5032SOL     OW15994   1.204   5.132   2.479
 5032SOL    HW115995   1.188   5.207   2.544
 5032SOL    HW215996   1.117   5.102   2.442
 5033SOL     OW15997   0.531   4.857   4.520
 5033SOL    HW115998   0.519   4.759   4.535
 5033SOL    HW215999   0.623   4.876   4.486
 5034SOL     OW16000   0.391   3.309   6.458
 5034SOL    HW116001   0.334   3.229   6.478
 5034SOL    HW216002   0.434   3.341   6.543
 5035SOL     OW16003   6.949   3.951   1.679
 5035SOL    HW116004   6.910   3.907   1.598
 5035SOL    HW216005   0.021   3.968   1.664
 5036SOL     OW16006   0.934   1.469   2.379
 5036SOL    HW116007   1.025   1.431   2.397
 5036SOL    HW216008   0.926   1.558   2.422
 5037SOL     OW16009   5.193   3.614   1.830
 5037SOL    HW116010   5.137   3.648   1.755
 5037SOL    HW216011   5.157   3.649   1.917
 5038SOL     OW16012   3.339   5.590   5.459
 5038SOL    HW116013   3.412   5.523   5.457
 5038SOL    HW216014   3.369   5.674   5.413
 5039SOL     OW16015   1.759   2.350   3.434
 5039SOL    HW116016   1.763   2.329   3.337
 5039SOL    HW216017   1.800   2.440   3.451
 5040SOL     OW16018   2.900   3.692   5.889
 5040SOL    HW116019   2.877   3.598   5.865
 5040SOL    HW216020   2.989   3.716   5.852
 5041SOL     OW16021   6.938   5.732   0.372
 5041SOL    HW116022   6.880   5.676   0.431
 5041SOL    HW216023   7.017   5.764   0.423
 5042SOL     OW16024   6.088   1.661   6.100
 5042SOL    HW116025   6.112   1.639   6.194
 5042SOL    HW216026   6.018   1.597   6.067
 5043SOL     OW16027   5.124   6.071   4.140
 5043SOL    HW116028   5.168   5.991   4.098
 5043SOL    HW216029   5.029   6.049   4.161
 5044SOL     OW16030   6.007   4.430   2.060
 5044SOL    HW116031   5.976   4.517   2.099
 5044SOL    HW216032   6.020   4.363   2.133
 5045SOL     OW16033   5.555   2.531   5.535
 5045SOL    HW116034   5.479   2.537   5.470
 5045SOL    HW216035   5.564   2.617   5.584
 5046SOL     OW16036   3.813   3.503   5.990
 5046SOL    HW116037   3.759   3.483   5.909
 5046SOL    HW216038   3.867   3.586   5.974
 5047SOL     OW16039   0.177   1.402   2.352
 5047SOL    HW116040   0.164   1.306   2.374
 5047SOL    HW216041   0.254   1.438   2.406
 5048SOL     OW16042   5.958   3.319   1.031
 5048SOL    HW116043   5.919   3.289   1.118
 5048SOL    HW216044   5.891   3.374   0.981
 5049SOL     OW16045   0.848   1.259   1.506
 5049SOL    HW116046   0.900   1.334   1.545
 5049SOL    HW216047   0.845   1.183   1.572
 5050SOL     OW16048   2.248   4.603   0.527
 5050SOL    HW116049   2.149   4.616   0.534
 5050SOL    HW216050   2.294   4.660   0.595
 5051SOL     OW16051   2.339   4.088   6.219
 5051SOL    HW116052   2.240   4.077   6.223
 5051SOL    HW216053   2.382   3.998   6.225
 5052SOL     OW16054   6.279   2.762   0.955
 5052SOL    HW116055   6.258   2.675   0.910
 5052SOL    HW216056   6.377   2.782   0.946
 5053SOL     OW16057   1.471   4.076   1.268
 5053SOL    HW116058   1.373   4.095   1.268
 5053SOL    HW216059   1.485   3.977   1.261
 5054SOL     OW16060   3.924   6.119   5.490
 5054SOL    HW116061   3.889   6.034   5.530
 5054SOL    HW216062   3.986   6.098   5.415
 5055SOL     OW16063   0.757   0.652   3.665
 5055SOL    HW116064   0.795   0.621   3.577
 5055SOL    HW216065   0.815   0.723   3.703
 5056SOL     OW16066   3.506   2.579   6.053
 5056SOL    HW116067   3.542   2.505   5.996
 5056SOL    HW216068   3.455   2.540   6.129
 5057SOL     OW16069   0.341   3.980   2.719
 5057SOL    HW116070   0.341   4.047   2.793
 5057SOL    HW216071   0.338   4.028   2.631
 5058SOL     OW16072   3.669   2.047   0.065
 5058SOL    HW116073   3.712   1.957   0.075
 5058SOL    HW216074   3.739   2.116   0.052
 5059SOL     OW16075   5.390   2.084   2.498
 5059SOL    HW116076   5.455   2.154   2.527
 5059SOL    HW216077   5.299   2.109   2.530
 5060SOL     OW16078   6.434   2.873   5.647
 5060SOL    HW116079   6.390   2.962   5.639
 5060SOL    HW216080   6.440   2.830   5.556
 5061SOL     OW16081   3.918   2.812   5.723
 5061SOL    HW116082   3.959   2.897   5.757
 5061SOL    HW216083   3.842   2.786   5.781
 5062SOL     OW16084   5.595   1.360   3.471
 5062SOL    HW116085   5.624   1.439   3.526
 5062SOL    HW216086   5.575   1.390   3.378
 5063SOL     OW16087   0.629   1.727   1.445
 5063SOL    HW116088   0.709   1.735   1.385
 5063SOL    HW216089   0.660   1.717   1.540
 5064SOL     OW16090   6.198   4.988   1.340
 5064SOL    HW116091   6.115   4.951   1.298
 5064SOL    HW216092   6.254   5.031   1.269
 5065SOL     OW16093   2.243   1.995   2.690
 5065SOL    HW116094   2.330   2.013   2.736
 5065SOL    HW216095   2.200   2.082   2.666
 5066SOL     OW16096   1.624   5.249   3.152
 5066SOL    HW116097   1.578   5.187   3.088
 5066SOL    HW216098   1.681   5.195   3.214
 5067SOL     OW16099   5.076   2.537   0.784
 5067SOL    HW116100   5.092   2.626   0.828
 5067SOL    HW216101   4.978   2.525   0.768
 5068SOL     OW16102   1.479   6.681   1.058
 5068SOL    HW116103   1.514   6.588   1.068
 5068SOL    HW216104   1.510   6.737   1.135
 5069SOL     OW16105   4.246   4.442   5.904
 5069SOL    HW116106   4.245   4.469   6.000
 5069SOL    HW216107   4.219   4.519   5.847
 5070SOL     OW16108   6.820   3.700   6.117
 5070SOL    HW116109   6.908   3.709   6.071
 5070SOL    HW216110   6.786   3.607   6.104
 5071SOL     OW16111   2.582   6.351   2.789
 5071SOL    HW116112   2.584   6.260   2.830
 5071SOL    HW216113   2.661   6.403   2.819
 5072SOL     OW16114   1.033   1.869   2.168
 5072SOL    HW116115   1.110   1.861   2.231
 5072SOL    HW216116   1.029   1.787   2.110
 5073SOL     OW16117   1.789   1.362   3.721
 5073SOL    HW116118   1.822   1.437   3.664
 5073SOL    HW216119   1.852   1.285   3.716
 5074SOL     OW16120   3.657   2.144   0.835
 5074SOL    HW116121   3.743   2.103   0.864
 5074SOL    HW216122   3.589   2.132   0.907
 5075SOL     OW16123   6.412   2.368   0.315
 5075SOL    HW116124   6.460   2.431   0.376
 5075SOL    HW216125   6.443   2.274   0.334
 5076SOL     OW16126   6.909   1.095   6.026
 5076SOL    HW116127   6.881   1.189   6.012
 5076SOL    HW216128   6.966   1.065   5.950
 5077SOL     OW16129   0.322   4.612   4.106
 5077SOL    HW116130   0.267   4.613   4.023
 5077SOL    HW216131   0.407   4.563   4.089
 5078SOL     OW16132   6.270   2.439   2.991
 5078SOL    HW116133   6.256   2.373   3.065
 5078SOL    HW216134   6.367   2.464   2.986
 5079SOL     OW16135   1.930   4.173   4.816
 5079SOL    HW116136   1.882   4.250   4.859
 5079SOL    HW216137   1.863   4.107   4.783
 5080SOL     OW16138   6.532   5.497   6.981
 5080SOL    HW116139   6.520   5.521   6.885
 5080SOL    HW216140   6.492   5.568   0.013
 5081SOL     OW16141   2.586   4.576   5.514
 5081SOL    HW116142   2.491   4.553   5.534
 5081SOL    HW216143   2.618   4.522   5.436
 5082SOL     OW16144   5.880   0.210   2.368
 5082SOL    HW116145   5.815   0.268   2.318
 5082SOL    HW216146   5.832   0.132   2.406
 5083SOL     OW16147   0.907   6.770   3.402
 5083SOL    HW116148   0.834   6.833   3.427
 5083SOL    HW216149   0.871   6.699   3.341
 5084SOL     OW16150   3.361   5.292   5.996
 5084SOL    HW116151   3.372   5.251   5.905
 5084SOL    HW216152   3.400   5.231   6.065
 5085SOL     OW16153   0.277   4.178   5.586
 5085SOL    HW116154   0.347   4.107   5.586
 5085SOL    HW216155   0.207   4.155   5.518
 5086SOL     OW16156   0.925   4.193   2.295
 5086SOL    HW116157   1.022   4.171   2.307
 5086SOL    HW216158   0.913   4.292   2.298
 5087SOL     OW16159   0.086   5.671   1.739
 5087SOL    HW116160   0.085   5.639   1.644
 5087SOL    HW216161   7.025   5.650   1.782
 5088SOL     OW16162   4.478   5.006   1.953
 5088SOL    HW116163   4.492   5.101   1.925
 5088SOL    HW216164   4.535   4.987   2.033
 5089SOL     OW16165   5.339   6.560   5.638
 5089SOL    HW116166   5.265   6.524   5.581
 5089SOL    HW216167   5.382   6.637   5.591
 5090SOL     OW16168   2.354   6.574   4.354
 5090SOL    HW116169   2.443   6.590   4.311
 5090SOL    HW216170   2.317   6.660   4.389
 5091SOL     OW16171   6.175   5.986   5.927
 5091SOL    HW116172   6.270   6.011   5.946
 5091SOL    HW216173   6.145   6.031   5.844
 5092SOL     OW16174   3.833   2.975   4.176
 5092SOL    HW116175   3.926   2.965   4.212
 5092SOL    HW216176   3.767   2.961   4.250
 5093SOL     OW16177   3.610   2.125   3.848
 5093SOL    HW116178   3.599   2.112   3.947
 5093SOL    HW216179   3.654   2.045   3.809
 5094SOL     OW16180   1.996   6.118   5.262
 5094SOL    HW116181   1.923   6.066   5.306
 5094SOL    HW216182   1.985   6.115   5.163
 5095SOL     OW16183   6.646   1.580   3.362
 5095SOL    HW116184   6.660   1.675   3.334
 5095SOL    HW216185   6.722   1.550   3.419
 5096SOL     OW16186   6.149   2.824   6.134
 5096SOL    HW116187   6.150   2.725   6.149
 5096SOL    HW216188   6.223   2.866   6.185
 5097SOL     OW16189   0.952   1.560   5.267
 5097SOL    HW116190   1.017   1.617   5.217
 5097SOL    HW216191   0.865   1.609   5.275
 5098SOL     OW16192   3.114   1.808   0.972
 5098SOL    HW116193   3.111   1.907   0.984
 5098SOL    HW216194   3.086   1.784   0.879
 5099SOL     OW16195   2.033   5.487   2.713
 5099SOL    HW116196   2.010   5.579   2.745
 5099SOL    HW216197   1.949   5.432   2.710
 5100SOL     OW16198   5.661   3.590   1.725
 5100SOL    HW116199   5.578   3.644   1.713
 5100SOL    HW216200   5.693   3.598   1.820
 5101SOL     OW16201   3.356   1.325   5.185
 5101SOL    HW116202   3.325   1.330   5.280
 5101SOL    HW216203   3.316   1.399   5.132
 5102SOL     OW16204   5.742   4.511   5.336
 5102SOL    HW116205   5.819   4.447   5.334
 5102SOL    HW216206   5.661   4.464   5.372
 5103SOL     OW16207   0.925   0.567   5.836
 5103SOL    HW116208   0.865   0.513   5.896
 5103SOL    HW216209   1.014   0.580   5.880
 5104SOL     OW16210   3.679   3.737   3.570
 5104SOL    HW116211   3.773   3.725   3.600
 5104SOL    HW216212   3.673   3.721   3.472
 5105SOL     OW16213   4.225   3.139   6.961
 5105SOL    HW116214   4.135   3.149   7.003
 5105SOL    HW216215   4.215   3.104   6.868
 5106SOL     OW16216   3.508   1.233   1.417
 5106SOL    HW116217   3.472   1.176   1.491
 5106SOL    HW216218   3.538   1.321   1.455
 5107SOL     OW16219   5.925   5.387   6.703
 5107SOL    HW116220   5.861   5.461   6.686
 5107SOL    HW216221   6.018   5.423   6.713
 5108SOL     OW16222   4.113   4.208   1.408
 5108SOL    HW116223   4.103   4.300   1.370
 5108SOL    HW216224   4.023   4.171   1.429
 5109SOL     OW16225   1.799   2.580   2.377
 5109SOL    HW116226   1.897   2.584   2.392
 5109SOL    HW216227   1.779   2.522   2.298
 5110SOL     OW16228   3.910   5.988   4.953
 5110SOL    HW116229   4.010   5.983   4.953
 5110SOL    HW216230   3.875   5.949   4.868
 5111SOL     OW16231   2.308   5.511   5.774
 5111SOL    HW116232   2.331   5.484   5.868
 5111SOL    HW216233   2.393   5.525   5.722
 5112SOL     OW16234   1.038   4.411   2.466
 5112SOL    HW116235   1.085   4.498   2.452
 5112SOL    HW216236   1.073   4.367   2.549
 5113SOL     OW16237   2.425   4.032   0.837
 5113SOL    HW116238   2.444   4.074   0.749
 5113SOL    HW216239   2.327   4.039   0.858
 5114SOL     OW16240   4.496   4.935   1.691
 5114SOL    HW116241   4.509   4.837   1.672
 5114SOL    HW216242   4.481   4.948   1.789
 5115SOL     OW16243   1.376   4.805   0.887
 5115SOL    HW116244   1.470   4.812   0.920
 5115SOL    HW216245   1.377   4.776   0.791
 5116SOL     OW16246   0.526   6.391   5.538
 5116SOL    HW116247   0.479   6.477   5.557
 5116SOL    HW216248   0.459   6.318   5.523
 5117SOL     OW16249   6.968   3.279   3.787
 5117SOL    HW116250   6.871   3.302   3.784
 5117SOL    HW216251   7.001   3.259   3.695
 5118SOL     OW16252   4.008   5.185   6.848
 5118SOL    HW116253   3.937   5.189   6.919
 5118SOL    HW216254   3.982   5.245   6.772
 5119SOL     OW16255   5.733   1.538   0.750
 5119SOL    HW116256   5.784   1.579   0.675
 5119SOL    HW216257   5.776   1.562   0.837
 5120SOL     OW16258   5.869   6.601   6.110
 5120SOL    HW116259   5.871   6.574   6.013
 5120SOL    HW216260   5.962   6.598   6.147
 5121SOL     OW16261   1.072   3.247   0.141
 5121SOL    HW116262   1.080   3.184   0.064
 5121SOL    HW216263   0.977   3.248   0.173
 5122SOL     OW16264   4.496   4.811   3.435
 5122SOL    HW116265   4.542   4.729   3.401
 5122SOL    HW216266   4.405   4.786   3.469
 5123SOL     OW16267   4.991   2.281   1.445
 5123SOL    HW116268   5.084   2.280   1.482
 5123SOL    HW216269   4.995   2.300   1.347
 5124SOL     OW16270   0.524   5.862   4.297
 5124SOL    HW116271   0.462   5.886   4.222
 5124SOL    HW216272   0.475   5.869   4.384
 5125SOL     OW16273   5.965   2.371   3.781
 5125SOL    HW116274   5.896   2.341   3.715
 5125SOL    HW216275   5.961   2.311   3.861
 5126SOL     OW16276   2.337   1.130   2.032
 5126SOL    HW116277   2.336   1.220   1.987
 5126SOL    HW216278   2.244   1.102   2.054
 5127SOL     OW16279   2.164   6.862   7.013
 5127SOL    HW116280   2.090   6.882   0.050
 5127SOL    HW216281   2.196   6.768   0.002
 5128SOL     OW16282   4.384   6.806   1.174
 5128SOL    HW116283   4.453   6.846   1.235
 5128SOL    HW216284   4.427   6.778   1.089
 5129SOL     OW16285   6.174   5.974   0.225
 5129SOL    HW116286   6.269   5.991   0.252
 5129SOL    HW216287   6.123   6.060   0.226
 5130SOL     OW16288   6.324   4.893   2.622
 5130SOL    HW116289   6.317   4.877   2.523
 5130SOL    HW216290   6.270   4.825   2.670
 5131SOL     OW16291   2.516   2.509   2.602
 5131SOL    HW116292   2.587   2.489   2.534
 5131SOL    HW216293   2.445   2.439   2.598
 5132SOL     OW16294   2.357   5.896   5.284
 5132SOL    HW116295   2.416   5.939   5.216
 5132SOL    HW216296   2.410   5.831   5.338
 5133SOL     OW16297   3.530   6.343   4.911
 5133SOL    HW116298   3.471   6.323   4.833
 5133SOL    HW216299   3.498   6.292   4.991
 5134SOL     OW16300   6.694   3.723   6.580
 5134SOL    HW116301   6.653   3.632   6.591
 5134SOL    HW216302   6.786   3.723   6.619
 5135SOL     OW16303   6.943   1.810   4.094
 5135SOL    HW116304   6.854   1.765   4.088
 5135SOL    HW216305   6.942   1.878   4.167
 5136SOL     OW16306   3.027   2.007   6.532
 5136SOL    HW116307   2.963   2.022   6.457
 5136SOL    HW216308   3.002   2.065   6.609
 5137SOL     OW16309   4.006   3.529   6.966
 5137SOL    HW116310   3.983   3.623   6.990
 5137SOL    HW216311   4.102   3.524   6.938
 5138SOL     OW16312   2.250   3.452   5.770
 5138SOL    HW116313   2.151   3.452   5.785
 5138SOL    HW216314   2.269   3.462   5.672
 5139SOL     OW16315   0.814   6.678   3.736
 5139SOL    HW116316   0.807   6.777   3.723
 5139SOL    HW216317   0.902   6.656   3.778
 5140SOL     OW16318   3.087   3.015   1.392
 5140SOL    HW116319   3.072   2.923   1.429
 5140SOL    HW216320   3.184   3.038   1.400
 5141SOL     OW16321   1.292   4.081   5.935
 5141SOL    HW116322   1.311   4.085   5.836
 5141SOL    HW216323   1.226   4.008   5.952
 5142SOL     OW16324   5.844   3.327   2.011
 5142SOL    HW116325   5.935   3.316   1.970
 5142SOL    HW216326   5.782   3.258   1.974
 5143SOL     OW16327   6.865   4.899   5.427
 5143SOL    HW116328   6.847   4.820   5.369
 5143SOL    HW216329   6.781   4.952   5.438
 5144SOL     OW16330   2.042   1.828   4.902
 5144SOL    HW116331   2.121   1.790   4.854
 5144SOL    HW216332   2.067   1.915   4.945
 5145SOL     OW16333   3.400   5.704   5.872
 5145SOL    HW116334   3.449   5.747   5.949
 5145SOL    HW216335   3.307   5.741   5.867
 5146SOL     OW16336   3.108   4.687   0.845
 5146SOL    HW116337   3.123   4.780   0.880
 5146SOL    HW216338   3.014   4.660   0.863
 5147SOL     OW16339   6.775   5.302   6.394
 5147SOL    HW116340   6.712   5.224   6.400
 5147SOL    HW216341   6.753   5.356   6.312
 5148SOL     OW16342   0.072   0.820   1.214
 5148SOL    HW116343   0.137   0.805   1.140
 5148SOL    HW216344   0.122   0.839   1.299
 5149SOL     OW16345   6.618   0.203   5.760
 5149SOL    HW116346   6.569   0.128   5.717
 5149SOL    HW216347   6.689   0.237   5.698
 5150SOL     OW16348   2.520   5.509   5.316
 5150SOL    HW116349   2.489   5.519   5.221
 5150SOL    HW216350   2.471   5.575   5.373
 5151SOL     OW16351   3.966   0.625   5.347
 5151SOL    HW116352   3.886   0.652   5.401
 5151SOL    HW216353   4.019   0.558   5.398
 5152SOL     OW16354   0.128   5.002   6.770
 5152SOL    HW116355   0.073   4.942   6.828
 5152SOL    HW216356   0.080   5.089   6.758
 5153SOL     OW16357   1.690   2.246   1.086
 5153SOL    HW116358   1.644   2.332   1.110
 5153SOL    HW216359   1.654   2.172   1.142
 5154SOL     OW16360   1.778   4.739   4.687
 5154SOL    HW116361   1.877   4.749   4.681
 5154SOL    HW216362   1.744   4.788   4.767
 5155SOL     OW16363   4.074   0.370   2.539
 5155SOL    HW116364   4.169   0.381   2.510
 5155SOL    HW216365   4.050   0.273   2.537
 5156SOL     OW16366   5.210   3.115   5.834
 5156SOL    HW116367   5.214   3.077   5.926
 5156SOL    HW216368   5.128   3.082   5.788
 5157SOL     OW16369   6.469   1.914   4.174
 5157SOL    HW116370   6.488   1.863   4.258
 5157SOL    HW216371   6.451   1.850   4.099
 5158SOL     OW16372   3.692   0.565   1.103
 5158SOL    HW116373   3.671   0.591   1.009
 5158SOL    HW216374   3.644   0.626   1.166
 5159SOL     OW16375   2.165   3.292   4.693
 5159SOL    HW116376   2.124   3.287   4.784
 5159SOL    HW216377   2.210   3.205   4.672
 5160SOL     OW16378   2.727   2.409   3.876
 5160SOL    HW116379   2.638   2.427   3.919
 5160SOL    HW216380   2.784   2.355   3.938
 5161SOL     OW16381   2.088   3.277   6.550
 5161SOL    HW116382   2.040   3.303   6.633
 5161SOL    HW216383   2.031   3.215   6.496
 5162SOL     OW16384   6.848   5.561   4.572
 5162SOL    HW116385   6.771   5.498   4.559
 5162SOL    HW216386   6.905   5.529   4.648
 5163SOL     OW16387   5.399   3.964   0.941
 5163SOL    HW116388   5.423   3.993   0.848
 5163SOL    HW216389   5.319   4.015   0.972
 5164SOL     OW16390   6.449   6.254   4.495
 5164SOL    HW116391   6.469   6.351   4.513
 5164SOL    HW216392   6.351   6.238   4.510
 5165SOL     OW16393   5.541   3.629   5.153
 5165SOL    HW116394   5.566   3.722   5.177
 5165SOL    HW216395   5.481   3.631   5.072
 5166SOL     OW16396   1.642   7.007   2.621
 5166SOL    HW116397   1.652   0.012   2.526
 5166SOL    HW216398   1.707   0.031   2.678
 5167SOL     OW16399   2.105   0.237   5.958
 5167SOL    HW116400   2.026   0.190   5.919
 5167SOL    HW216401   2.165   0.170   6.001
 5168SOL     OW16402   3.563   2.099   2.582
 5168SOL    HW116403   3.464   2.109   2.591
 5168SOL    HW216404   3.584   2.041   2.503
 5169SOL     OW16405   4.041   4.593   6.488
 5169SOL    HW116406   3.966   4.578   6.424
 5169SOL    HW216407   4.022   4.673   6.545
 5170SOL     OW16408   4.012   5.246   4.045
 5170SOL    HW116409   4.038   5.170   4.104
 5170SOL    HW216410   3.938   5.217   3.984
 5171SOL     OW16411   2.719   4.779   5.186
 5171SOL    HW116412   2.633   4.729   5.176
 5171SOL    HW216413   2.794   4.722   5.153
 5172SOL     OW16414   1.789   4.137   6.713
 5172SOL    HW116415   1.787   4.090   6.801
 5172SOL    HW216416   1.805   4.070   6.640
 5173SOL     OW16417   6.873   2.375   4.810
 5173SOL    HW116418   6.876   2.467   4.772
 5173SOL    HW216419   6.948   2.363   4.875
 5174SOL     OW16420   2.334   4.890   6.386
 5174SOL    HW116421   2.330   4.847   6.296
 5174SOL    HW216422   2.332   4.819   6.457
 5175SOL     OW16423   0.186   5.734   6.463
 5175SOL    HW116424   0.116   5.801   6.490
 5175SOL    HW216425   0.199   5.669   6.538
 5176SOL     OW16426   5.648   4.021   6.399
 5176SOL    HW116427   5.705   4.069   6.464
 5176SOL    HW216428   5.560   4.068   6.389
 5177SOL     OW16429   5.442   5.555   5.644
 5177SOL    HW116430   5.457   5.643   5.690
 5177SOL    HW216431   5.521   5.496   5.660
 5178SOL     OW16432   2.923   4.220   0.437
 5178SOL    HW116433   2.922   4.152   0.511
 5178SOL    HW216434   2.937   4.173   0.349
 5179SOL     OW16435   3.427   6.257   5.165
 5179SOL    HW116436   3.334   6.222   5.174
 5179SOL    HW216437   3.491   6.190   5.202
 5180SOL     OW16438   4.506   1.740   0.160
 5180SOL    HW116439   4.488   1.822   0.105
 5180SOL    HW216440   4.605   1.731   0.174
 5181SOL     OW16441   3.351   5.980   2.137
 5181SOL    HW116442   3.274   5.919   2.119
 5181SOL    HW216443   3.431   5.948   2.085
 5182SOL     OW16444   4.837   4.324   1.321
 5182SOL    HW116445   4.838   4.304   1.223
 5182SOL    HW216446   4.767   4.267   1.365
 5183SOL     OW16447   3.771   0.678   3.871
 5183SOL    HW116448   3.826   0.712   3.947
 5183SOL    HW216449   3.724   0.754   3.827
 5184SOL     OW16450   0.961   2.744   3.284
 5184SOL    HW116451   1.055   2.735   3.253
 5184SOL    HW216452   0.923   2.829   3.249
 5185SOL     OW16453   3.932   0.026   1.250
 5185SOL    HW116454   3.888   6.974   1.296
 5185SOL    HW216455   4.007   7.018   1.194
 5186SOL     OW16456   5.145   4.483   0.067
 5186SOL    HW116457   5.106   4.423   0.137
 5186SOL    HW216458   5.182   4.427   7.018
 5187SOL     OW16459   4.921   3.086   3.997
 5187SOL    HW116460   4.962   2.995   3.989
 5187SOL    HW216461   4.886   3.115   3.908
 5188SOL     OW16462   0.381   0.946   3.769
 5188SOL    HW116463   0.322   0.875   3.732
 5188SOL    HW216464   0.444   0.906   3.836
 5189SOL     OW16465   4.811   5.994   6.006
 5189SOL    HW116466   4.835   5.898   5.990
 5189SOL    HW216467   4.824   6.046   5.922
 5190SOL     OW16468   2.352   2.706   1.937
 5190SOL    HW116469   2.298   2.721   2.020
 5190SOL    HW216470   2.350   2.789   1.881
 5191SOL     OW16471   4.765   0.449   2.511
 5191SOL    HW116472   4.809   0.506   2.442
 5191SOL    HW216473   4.822   0.368   2.528
 5192SOL     OW16474   6.458   4.083   1.281
 5192SOL    HW116475   6.431   3.993   1.315
 5192SOL    HW216476   6.399   4.154   1.321
 5193SOL     OW16477   3.769   4.890   2.146
 5193SOL    HW116478   3.708   4.945   2.204
 5193SOL    HW216479   3.715   4.846   2.074
 5194SOL     OW16480   5.316   0.686   0.444
 5194SOL    HW116481   5.309   0.590   0.420
 5194SOL    HW216482   5.229   0.719   0.480
 5195SOL     OW16483   0.448   6.581   4.984
 5195SOL    HW116484   0.513   6.507   4.966
 5195SOL    HW216485   0.356   6.544   4.990
 5196SOL     OW16486   6.888   4.030   3.792
 5196SOL    HW116487   6.951   4.009   3.866
 5196SOL    HW216488   6.795   4.036   3.828
 5197SOL     OW16489   4.084   5.668   5.315
 5197SOL    HW116490   4.063   5.571   5.330
 5197SOL    HW216491   3.999   5.720   5.305
 5198SOL     OW16492   4.378   1.568   5.581
 5198SOL    HW116493   4.312   1.557   5.655
 5198SOL    HW216494   4.338   1.625   5.509
 5199SOL     OW16495   0.260   5.700   1.371
 5199SOL    HW116496   0.161   5.703   1.367
 5199SOL    HW216497   0.291   5.606   1.384
 5200SOL     OW16498   6.824   0.431   4.572
 5200SOL    HW116499   6.769   0.362   4.526
 5200SOL    HW216500   6.803   0.521   4.534
 5201SOL     OW16501   6.469   4.396   5.545
 5201SOL    HW116502   6.471   4.311   5.492
 5201SOL    HW216503   6.561   4.415   5.580
 5202SOL     OW16504   3.817   2.281   5.924
 5202SOL    HW116505   3.872   2.359   5.893
 5202SOL    HW216506   3.825   2.272   6.023
 5203SOL     OW16507   1.152   0.787   6.430
 5203SOL    HW116508   1.101   0.726   6.369
 5203SOL    HW216509   1.093   0.862   6.459
 5204SOL     OW16510   1.761   0.652   1.891
 5204SOL    HW116511   1.831   0.601   1.841
 5204SOL    HW216512   1.723   0.724   1.831
 5205SOL     OW16513   6.949   0.080   1.930
 5205SOL    HW116514   7.000   0.012   1.877
 5205SOL    HW216515   6.855   0.050   1.941
 5206SOL     OW16516   0.900   5.029   4.579
 5206SOL    HW116517   0.856   4.965   4.515
 5206SOL    HW216518   0.862   5.015   4.671
 5207SOL     OW16519   4.871   0.360   5.050
 5207SOL    HW116520   4.789   0.306   5.029
 5207SOL    HW216521   4.919   0.382   4.964
 5208SOL     OW16522   6.715   1.889   0.171
 5208SOL    HW116523   6.739   1.862   0.265
 5208SOL    HW216524   6.621   1.861   0.152
 5209SOL     OW16525   5.284   6.046   2.487
 5209SOL    HW116526   5.294   5.995   2.573
 5209SOL    HW216527   5.202   6.014   2.439
 5210SOL     OW16528   5.976   4.395   1.162
 5210SOL    HW116529   5.914   4.425   1.090
 5210SOL    HW216530   6.019   4.475   1.204
 5211SOL     OW16531   5.595   2.957   5.163
 5211SOL    HW116532   5.686   2.981   5.197
 5211SOL    HW216533   5.527   3.013   5.209
 5212SOL     OW16534   6.523   4.073   6.529
 5212SOL    HW116535   6.551   4.167   6.513
 5212SOL    HW216536   6.555   4.015   6.455
 5213SOL     OW16537   3.441   2.845   3.251
 5213SOL    HW116538   3.363   2.886   3.299
 5213SOL    HW216539   3.517   2.835   3.315
 5214SOL     OW16540   5.658   3.056   6.026
 5214SOL    HW116541   5.613   3.080   6.111
 5214SOL    HW216542   5.736   2.996   6.045
 5215SOL     OW16543   0.041   5.446   5.132
 5215SOL    HW116544   0.138   5.445   5.157
 5215SOL    HW216545   7.014   5.492   5.204
 5216SOL     OW16546   6.389   4.059   1.024
 5216SOL    HW116547   6.310   4.120   1.033
 5216SOL    HW216548   6.439   4.056   1.110
 5217SOL     OW16549   3.915   6.625   2.824
 5217SOL    HW116550   3.846   6.578   2.768
 5217SOL    HW216551   3.892   6.722   2.830
 5218SOL     OW16552   5.740   0.087   0.541
 5218SOL    HW116553   5.747   0.143   0.458
 5218SOL    HW216554   5.726   0.146   0.620
 5219SOL     OW16555   3.948   1.608   4.778
 5219SOL    HW116556   4.023   1.672   4.760
 5219SOL    HW216557   3.874   1.625   4.713
 5220SOL     OW16558   1.686   4.739   4.435
 5220SOL    HW116559   1.726   4.735   4.526
 5220SOL    HW216560   1.655   4.648   4.408
 5221SOL     OW16561   5.203   5.834   1.196
 5221SOL    HW116562   5.167   5.836   1.289
 5221SOL    HW216563   5.164   5.757   1.146
 5222SOL     OW16564   6.955   3.559   2.450
 5222SOL    HW116565   6.862   3.538   2.478
 5222SOL    HW216566   6.977   3.507   2.367
 5223SOL     OW16567   0.182   2.635   1.088
 5223SOL    HW116568   0.125   2.565   1.045
 5223SOL    HW216569   0.278   2.610   1.079
 5224SOL     OW16570   1.854   1.100   4.384
 5224SOL    HW116571   1.941   1.129   4.343
 5224SOL    HW216572   1.789   1.176   4.383
 5225SOL     OW16573   6.922   2.191   5.950
 5225SOL    HW116574   6.908   2.155   5.858
 5225SOL    HW216575   6.833   2.206   5.993
 5226SOL     OW16576   0.209   6.548   4.244
 5226SOL    HW116577   0.142   6.544   4.170
 5226SOL    HW216578   0.301   6.541   4.205
 5227SOL     OW16579   1.369   3.050   5.857
 5227SOL    HW116580   1.425   3.092   5.786
 5227SOL    HW216581   1.312   3.120   5.900
 5228SOL     OW16582   1.227   2.354   5.001
 5228SOL    HW116583   1.288   2.417   4.953
 5228SOL    HW216584   1.160   2.317   4.936
 5229SOL     OW16585   3.609   1.830   6.683
 5229SOL    HW116586   3.533   1.796   6.738
 5229SOL    HW216587   3.579   1.911   6.631
 5230SOL     OW16588   6.743   0.217   2.146
 5230SOL    HW116589   6.835   0.255   2.160
 5230SOL    HW216590   6.683   0.289   2.110
 5231SOL     OW16591   6.141   3.318   1.949
 5231SOL    HW116592   6.158   3.346   2.044
 5231SOL    HW216593   6.210   3.251   1.921
 5232SOL     OW16594   1.805   1.778   5.594
 5232SOL    HW116595   1.877   1.831   5.637
 5232SOL    HW216596   1.845   1.704   5.540
 5233SOL     OW16597   2.991   6.893   3.720
 5233SOL    HW116598   2.918   6.855   3.663
 5233SOL    HW216599   3.031   6.972   3.675
 5234SOL     OW16600   2.637   2.377   6.539
 5234SOL    HW116601   2.567   2.373   6.611
 5234SOL    HW216602   2.627   2.297   6.479
 5235SOL     OW16603   2.511   2.732   1.572
 5235SOL    HW116604   2.459   2.648   1.591
 5235SOL    HW216605   2.466   2.781   1.497
 5236SOL     OW16606   2.995   4.916   2.308
 5236SOL    HW116607   2.954   5.004   2.286
 5236SOL    HW216608   2.982   4.897   2.406
 5237SOL     OW16609   1.817   1.879   2.070
 5237SOL    HW116610   1.913   1.874   2.096
 5237SOL    HW216611   1.763   1.822   2.133
 5238SOL     OW16612   6.418   0.785   2.907
 5238SOL    HW116613   6.408   0.700   2.959
 5238SOL    HW216614   6.406   0.863   2.969
 5239SOL     OW16615   3.009   4.473   0.426
 5239SOL    HW116616   3.016   4.374   0.429
 5239SOL    HW216617   3.014   4.504   0.331
 5240SOL     OW16618   2.025   4.372   5.902
 5240SOL    HW116619   2.036   4.380   6.001
 5240SOL    HW216620   2.114   4.366   5.858
 5241SOL     OW16621   1.732   6.209   3.466
 5241SOL    HW116622   1.698   6.135   3.523
 5241SOL    HW216623   1.661   6.235   3.400
 5242SOL     OW16624   4.336   6.159   5.488
 5242SOL    HW116625   4.304   6.199   5.402
 5242SOL    HW216626   4.436   6.160   5.490
 5243SOL     OW16627   2.100   5.822   3.725
 5243SOL    HW116628   2.052   5.894   3.774
 5243SOL    HW216629   2.162   5.863   3.658
 5244SOL     OW16630   5.075   1.285   6.252
 5244SOL    HW116631   4.995   1.238   6.289
 5244SOL    HW216632   5.068   1.289   6.152
 5245SOL     OW16633   3.268   4.025   2.118
 5245SOL    HW116634   3.217   4.010   2.033
 5245SOL    HW216635   3.245   3.953   2.184
 5246SOL     OW16636   6.603   3.220   5.874
 5246SOL    HW116637   6.599   3.197   5.777
 5246SOL    HW216638   6.699   3.228   5.902
 5247SOL     OW16639   4.453   1.199   6.069
 5247SOL    HW116640   4.515   1.277   6.075
 5247SOL    HW216641   4.420   1.190   5.974
 5248SOL     OW16642   4.782   1.014   3.317
 5248SOL    HW116643   4.753   0.935   3.264
 5248SOL    HW216644   4.702   1.056   3.362
 5249SOL     OW16645   0.144   5.323   1.855
 5249SOL    HW116646   0.102   5.233   1.866
 5249SOL    HW216647   0.189   5.328   1.766
 5250SOL     OW16648   2.116   5.132   0.754
 5250SOL    HW116649   2.095   5.225   0.786
 5250SOL    HW216650   2.154   5.079   0.829
 5251SOL     OW16651   0.817   4.807   7.026
 5251SOL    HW116652   0.765   4.765   0.074
 5251SOL    HW216653   0.913   4.818   0.027
 5252SOL     OW16654   3.834   5.509   3.212
 5252SOL    HW116655   3.884   5.511   3.299
 5252SOL    HW216656   3.830   5.415   3.178
 5253SOL     OW16657   0.065   6.055   4.734
 5253SOL    HW116658   0.142   6.119   4.741
 5253SOL    HW216659   7.012   6.093   4.782
 5254SOL     OW16660   4.674   6.332   2.399
 5254SOL    HW116661   4.699   6.424   2.431
 5254SOL    HW216662   4.579   6.333   2.369
 5255SOL     OW16663   0.436   1.206   6.430
 5255SOL    HW116664   0.481   1.172   6.348
 5255SOL    HW216665   0.378   1.135   6.469
 5256SOL     OW16666   4.260   2.285   2.669
 5256SOL    HW116667   4.203   2.324   2.741
 5256SOL    HW216668   4.351   2.265   2.705
 5257SOL     OW16669   5.244   1.263   6.796
 5257SOL    HW116670   5.268   1.286   6.702
 5257SOL    HW216671   5.259   1.166   6.812
 5258SOL     OW16672   5.522   1.587   5.299
 5258SOL    HW116673   5.580   1.656   5.255
 5258SOL    HW216674   5.568   1.499   5.296
 5259SOL     OW16675   4.921   5.755   3.926
 5259SOL    HW116676   4.875   5.817   3.863
 5259SOL    HW216677   5.007   5.724   3.884
 5260SOL     OW16678   1.794   5.884   1.585
 5260SOL    HW116679   1.721   5.948   1.561
 5260SOL    HW216680   1.847   5.922   1.661
 5261SOL     OW16681   6.180   4.802   0.032
 5261SOL    HW116682   6.216   4.710   0.018
 5261SOL    HW216683   6.090   4.796   0.076
 5262SOL     OW16684   1.872   2.222   1.672
 5262SOL    HW116685   1.824   2.135   1.655
 5262SOL    HW216686   1.970   2.208   1.660
 5263SOL     OW16687   0.991   5.967   3.461
 5263SOL    HW116688   0.915   6.031   3.472
 5263SOL    HW216689   1.077   6.015   3.473
 5264SOL     OW16690   6.758   2.452   2.226
 5264SOL    HW116691   6.760   2.496   2.136
 5264SOL    HW216692   6.809   2.508   2.291
 5265SOL     OW16693   0.029   6.004   6.020
 5265SOL    HW116694   0.114   6.006   5.968
 5265SOL    HW216695   7.003   5.922   5.997
 5266SOL     OW16696   1.613   6.981   6.288
 5266SOL    HW116697   1.712   6.983   6.276
 5266SOL    HW216698   1.568   7.013   6.205
 5267SOL     OW16699   6.091   1.302   4.764
 5267SOL    HW116700   6.182   1.271   4.790
 5267SOL    HW216701   6.098   1.357   4.680
 5268SOL     OW16702   5.368   0.073   5.712
 5268SOL    HW116703   5.316   0.048   5.793
 5268SOL    HW216704   5.466   0.077   5.735
 5269SOL     OW16705   1.352   0.663   4.334
 5269SOL    HW116706   1.440   0.710   4.323
 5269SOL    HW216707   1.281   0.729   4.357
 5270SOL     OW16708   0.831   1.604   6.611
 5270SOL    HW116709   0.918   1.606   6.660
 5270SOL    HW216710   0.809   1.696   6.578
 5271SOL     OW16711   1.316   5.582   5.816
 5271SOL    HW116712   1.294   5.548   5.907
 5271SOL    HW216713   1.403   5.632   5.819
 5272SOL     OW16714   4.303   0.452   6.194
 5272SOL    HW116715   4.296   0.425   6.098
 5272SOL    HW216716   4.233   0.520   6.216
 5273SOL     OW16717   2.243   1.499   3.425
 5273SOL    HW116718   2.160   1.550   3.403
 5273SOL    HW216719   2.219   1.421   3.483
 5274SOL     OW16720   5.535   4.371   1.218
 5274SOL    HW116721   5.631   4.359   1.243
 5274SOL    HW216722   5.515   4.468   1.205
 5275SOL     OW16723   5.515   1.128   6.280
 5275SOL    HW116724   5.603   1.144   6.235
 5275SOL    HW216725   5.451   1.200   6.252
 5276SOL     OW16726   3.577   6.417   1.592
 5276SOL    HW116727   3.600   6.514   1.583
 5276SOL    HW216728   3.505   6.407   1.661
 5277SOL     OW16729   1.938   3.515   1.707
 5277SOL    HW116730   1.933   3.580   1.783
 5277SOL    HW216731   1.875   3.544   1.635
 5278SOL     OW16732   3.641   3.704   2.261
 5278SOL    HW116733   3.652   3.638   2.335
 5278SOL    HW216734   3.694   3.786   2.281
 5279SOL     OW16735   1.642   6.292   2.949
 5279SOL    HW116736   1.677   6.386   2.956
 5279SOL    HW216737   1.667   6.241   3.031
 5280SOL     OW16738   4.006   0.558   4.324
 5280SOL    HW116739   3.937   0.623   4.356
 5280SOL    HW216740   3.991   0.469   4.369
 5281SOL     OW16741   6.604   3.111   3.872
 5281SOL    HW116742   6.557   3.100   3.959
 5281SOL    HW216743   6.659   3.194   3.873
 5282SOL     OW16744   4.579   2.658   1.379
 5282SOL    HW116745   4.631   2.633   1.297
 5282SOL    HW216746   4.641   2.663   1.457
 5283SOL     OW16747   4.932   4.700   5.715
 5283SOL    HW116748   4.983   4.729   5.634
 5283SOL    HW216749   4.849   4.756   5.724
 5284SOL     OW16750   5.233   2.802   4.241
 5284SOL    HW116751   5.254   2.865   4.166
 5284SOL    HW216752   5.187   2.851   4.315
 5285SOL     OW16753   4.375   6.390   2.438
 5285SOL    HW116754   4.365   6.296   2.471
 5285SOL    HW216755   4.291   6.417   2.391
 5286SOL     OW16756   2.125   5.157   2.136
 5286SOL    HW116757   2.157   5.242   2.179
 5286SOL    HW216758   2.056   5.180   2.067
 5287SOL     OW16759   1.098   0.736   2.416
 5287SOL    HW116760   1.145   0.796   2.482
 5287SOL    HW216761   1.025   0.787   2.371
 5288SOL     OW16762   3.847   0.243   1.079
 5288SOL    HW116763   3.854   0.159   1.133
 5288SOL    HW216764   3.840   0.220   0.982
 5289SOL     OW16765   1.803   6.549   1.464
 5289SOL    HW116766   1.863   6.483   1.510
 5289SOL    HW216767   1.841   6.641   1.475
 5290SOL     OW16768   5.567   5.819   6.783
 5290SOL    HW116769   5.609   5.756   6.848
 5290SOL    HW216770   5.484   5.858   6.824
 5291SOL     OW16771   1.006   5.409   0.016
 5291SOL    HW116772   0.952   5.491   0.038
 5291SOL    HW216773   0.996   5.342   0.089
 5292SOL     OW16774   5.534   1.711   1.096
 5292SOL    HW116775   5.540   1.617   1.063
 5292SOL    HW216776   5.536   1.711   1.196
 5293SOL     OW16777   1.951   1.256   4.045
 5293SOL    HW116778   1.853   1.272   4.055
 5293SOL    HW216779   2.002   1.327   4.094
 5294SOL     OW16780   3.317   2.462   6.207
 5294SOL    HW116781   3.323   2.376   6.257
 5294SOL    HW216782   3.237   2.513   6.239
 5295SOL     OW16783   6.715   1.846   3.233
 5295SOL    HW116784   6.713   1.908   3.155
 5295SOL    HW216785   6.654   1.880   3.305
 5296SOL     OW16786   0.046   2.719   6.856
 5296SOL    HW116787   0.062   2.744   6.760
 5296SOL    HW216788   0.106   2.643   6.881
 5297SOL     OW16789   1.119   2.399   1.807
 5297SOL    HW116790   1.176   2.480   1.816
 5297SOL    HW216791   1.089   2.390   1.712
 5298SOL     OW16792   1.182   4.545   1.994
 5298SOL    HW116793   1.216   4.487   2.069
 5298SOL    HW216794   1.254   4.557   1.926
 5299SOL     OW16795   3.847   0.054   0.362
 5299SOL    HW116796   3.836   0.153   0.368
 5299SOL    HW216797   3.810   0.012   0.445
 5300SOL     OW16798   6.570   5.003   3.561
 5300SOL    HW116799   6.603   4.948   3.485
 5300SOL    HW216800   6.640   5.009   3.632
 5301SOL     OW16801   5.853   0.536   6.621
 5301SOL    HW116802   5.788   0.568   6.552
 5301SOL    HW216803   5.890   0.615   6.671
 5302SOL     OW16804   6.835   4.346   3.964
 5302SOL    HW116805   6.747   4.380   3.932
 5302SOL    HW216806   6.848   4.252   3.935
 5303SOL     OW16807   1.809   4.484   3.150
 5303SOL    HW116808   1.857   4.455   3.067
 5303SOL    HW216809   1.713   4.504   3.128
 5304SOL     OW16810   4.451   2.052   5.902
 5304SOL    HW116811   4.534   2.046   5.848
 5304SOL    HW216812   4.372   2.058   5.841
 5305SOL     OW16813   3.543   2.101   4.905
 5305SOL    HW116814   3.582   2.186   4.941
 5305SOL    HW216815   3.617   2.037   4.884
 5306SOL     OW16816   2.738   6.836   3.645
 5306SOL    HW116817   2.721   6.917   3.701
 5306SOL    HW216818   2.715   6.754   3.697
 5307SOL     OW16819   5.500   6.487   6.814
 5307SOL    HW116820   5.546   6.567   6.778
 5307SOL    HW216821   5.468   6.429   6.738
 5308SOL     OW16822   0.066   1.293   1.894
 5308SOL    HW116823   0.055   1.376   1.839
 5308SOL    HW216824   7.002   1.261   1.924
 5309SOL     OW16825   4.075   3.256   4.827
 5309SOL    HW116826   4.148   3.188   4.830
 5309SOL    HW216827   4.091   3.319   4.751
 5310SOL     OW16828   5.237   2.766   6.760
 5310SOL    HW116829   5.256   2.864   6.758
 5310SOL    HW216830   5.305   2.720   6.817
 5311SOL     OW16831   6.665   6.313   0.195
 5311SOL    HW116832   6.620   6.297   0.282
 5311SOL    HW216833   6.650   6.235   0.134
 5312SOL     OW16834   0.223   3.643   1.511
 5312SOL    HW116835   0.298   3.668   1.451
 5312SOL    HW216836   0.257   3.627   1.604
 5313SOL     OW16837   0.213   6.756   6.879
 5313SOL    HW116838   0.154   6.745   6.799
 5313SOL    HW216839   0.263   6.842   6.872
 5314SOL     OW16840   3.751   5.152   1.243
 5314SOL    HW116841   3.745   5.141   1.342
 5314SOL    HW216842   3.660   5.162   1.204
 5315SOL     OW16843   5.421   1.229   2.111
 5315SOL    HW116844   5.416   1.183   2.022
 5315SOL    HW216845   5.517   1.242   2.136
 5316SOL     OW16846   5.218   5.368   4.245
 5316SOL    HW116847   5.275   5.410   4.315
 5316SOL    HW216848   5.270   5.359   4.160
 5317SOL     OW16849   6.394   5.010   1.712
 5317SOL    HW116850   6.299   4.981   1.726
 5317SOL    HW216851   6.397   5.110   1.701
 5318SOL     OW16852   6.897   2.600   3.864
 5318SOL    HW116853   6.919   2.542   3.785
 5318SOL    HW216854   6.821   2.661   3.839
 5319SOL     OW16855   3.115   6.175   2.665
 5319SOL    HW116856   3.144   6.255   2.613
 5319SOL    HW216857   3.094   6.100   2.602
 5320SOL     OW16858   6.789   2.354   0.186
 5320SOL    HW116859   6.873   2.399   0.158
 5320SOL    HW216860   6.710   2.410   0.158
 5321SOL     OW16861   2.807   4.545   0.036
 5321SOL    HW116862   2.778   4.451   0.016
 5321SOL    HW216863   2.760   4.577   0.119
 5322SOL     OW16864   2.504   6.644   0.164
 5322SOL    HW116865   2.516   6.687   0.253
 5322SOL    HW216866   2.518   6.545   0.172
 5323SOL     OW16867   6.126   3.230   0.456
 5323SOL    HW116868   6.026   3.233   0.454
 5323SOL    HW216869   6.158   3.251   0.549
 5324SOL     OW16870   3.952   3.773   1.685
 5324SOL    HW116871   3.956   3.863   1.728
 5324SOL    HW216872   4.043   3.749   1.649
 5325SOL     OW16873   3.220   6.095   5.573
 5325SOL    HW116874   3.236   6.190   5.547
 5325SOL    HW216875   3.299   6.061   5.624
 5326SOL     OW16876   6.430   0.960   3.099
 5326SOL    HW116877   6.467   1.052   3.092
 5326SOL    HW216878   6.345   0.962   3.153
 5327SOL     OW16879   6.208   0.041   4.222
 5327SOL    HW116880   6.286   7.021   4.265
 5327SOL    HW216881   6.204   0.136   4.253
 5328SOL     OW16882   3.068   5.290   6.561
 5328SOL    HW116883   3.039   5.305   6.467
 5328SOL    HW216884   3.012   5.345   6.623
 5329SOL     OW16885   0.288   6.465   6.872
 5329SOL    HW116886   0.248   6.556   6.861
 5329SOL    HW216887   0.376   6.473   6.920
 5330SOL     OW16888   4.446   4.684   0.873
 5330SOL    HW116889   4.469   4.733   0.789
 5330SOL    HW216890   4.349   4.696   0.893
 5331SOL     OW16891   5.751   0.998   6.770
 5331SOL    HW116892   5.736   1.094   6.796
 5331SOL    HW216893   5.752   0.990   6.670
 5332SOL     OW16894   6.420   2.559   6.829
 5332SOL    HW116895   6.443   2.513   6.914
 5332SOL    HW216896   6.503   2.596   6.787
 5333SOL     OW16897   0.821   6.897   4.026
 5333SOL    HW116898   0.780   6.805   4.023
 5333SOL    HW216899   0.884   6.908   3.949
 5334SOL     OW16900   3.157   6.005   1.437
 5334SOL    HW116901   3.180   5.912   1.408
 5334SOL    HW216902   3.241   6.059   1.446
 5335SOL     OW16903   0.072   5.010   1.542
 5335SOL    HW116904   0.126   5.076   1.489
 5335SOL    HW216905   0.069   5.040   1.637
 5336SOL     OW16906   1.492   3.160   5.547
 5336SOL    HW116907   1.412   3.211   5.516
 5336SOL    HW216908   1.531   3.205   5.628
 5337SOL     OW16909   6.525   1.689   0.932
 5337SOL    HW116910   6.621   1.693   0.905
 5337SOL    HW216911   6.486   1.781   0.933
 5338SOL     OW16912   0.437   3.809   1.313
 5338SOL    HW116913   0.423   3.805   1.214
 5338SOL    HW216914   0.413   3.900   1.346
 5339SOL     OW16915   4.935   3.402   3.016
 5339SOL    HW116916   5.026   3.373   2.985
 5339SOL    HW216917   4.871   3.326   3.008
 5340SOL     OW16918   4.981   3.324   0.749
 5340SOL    HW116919   5.025   3.383   0.816
 5340SOL    HW216920   4.893   3.365   0.722
 5341SOL     OW16921   4.971   5.054   3.357
 5341SOL    HW116922   4.995   5.034   3.452
 5341SOL    HW216923   4.930   4.973   3.316
 5342SOL     OW16924   6.055   5.541   4.957
 5342SOL    HW116925   5.996   5.606   5.005
 5342SOL    HW216926   6.087   5.581   4.872
 5343SOL     OW16927   3.425   3.308   6.846
 5343SOL    HW116928   3.339   3.359   6.854
 5343SOL    HW216929   3.405   3.214   6.816
 5344SOL     OW16930   6.643   1.555   0.241
 5344SOL    HW116931   6.590   1.492   0.183
 5344SOL    HW216932   6.735   1.519   0.254
 5345SOL     OW16933   3.607   1.576   0.219
 5345SOL    HW116934   3.686   1.529   0.260
 5345SOL    HW216935   3.535   1.509   0.199
 5346SOL     OW16936   1.981   5.941   3.197
 5346SOL    HW116937   1.994   5.848   3.162
 5346SOL    HW216938   1.948   5.937   3.291
 5347SOL     OW16939   5.962   1.433   5.243
 5347SOL    HW116940   5.967   1.452   5.145
 5347SOL    HW216941   6.032   1.366   5.268
 5348SOL     OW16942   4.930   2.790   5.199
 5348SOL    HW116943   4.866   2.714   5.198
 5348SOL    HW216944   4.881   2.875   5.221
 5349SOL     OW16945   1.137   4.287   0.416
 5349SOL    HW116946   1.124   4.210   0.480
 5349SOL    HW216947   1.213   4.267   0.355
 5350SOL     OW16948   1.147   6.757   6.658
 5350SOL    HW116949   1.111   6.846   6.631
 5350SOL    HW216950   1.083   6.685   6.630
 5351SOL     OW16951   0.584   5.570   3.735
 5351SOL    HW116952   0.574   5.638   3.662
 5351SOL    HW216953   0.672   5.583   3.780
 5352SOL     OW16954   0.333   2.613   5.569
 5352SOL    HW116955   0.326   2.655   5.478
 5352SOL    HW216956   0.429   2.596   5.591
 5353SOL     OW16957   2.729   6.647   3.327
 5353SOL    HW116958   2.668   6.589   3.382
 5353SOL    HW216959   2.820   6.606   3.323
 5354SOL     OW16960   3.346   5.710   1.858
 5354SOL    HW116961   3.284   5.720   1.936
 5354SOL    HW216962   3.293   5.687   1.776
 5355SOL     OW16963   5.522   4.957   5.155
 5355SOL    HW116964   5.535   5.009   5.239
 5355SOL    HW216965   5.611   4.934   5.116
 5356SOL     OW16966   0.609   6.513   1.800
 5356SOL    HW116967   0.701   6.498   1.763
 5356SOL    HW216968   0.542   6.472   1.738
 5357SOL     OW16969   6.534   3.443   2.764
 5357SOL    HW116970   6.558   3.348   2.784
 5357SOL    HW216971   6.475   3.478   2.836
 5358SOL     OW16972   6.074   0.749   6.473
 5358SOL    HW116973   6.097   0.694   6.392
 5358SOL    HW216974   6.107   0.703   6.555
 5359SOL     OW16975   2.945   2.295   6.992
 5359SOL    HW116976   2.863   2.337   0.006
 5359SOL    HW216977   3.006   2.367   6.958
 5360SOL     OW16978   5.769   4.850   2.845
 5360SOL    HW116979   5.700   4.834   2.774
 5360SOL    HW216980   5.739   4.810   2.931
 5361SOL     OW16981   1.614   3.699   2.679
 5361SOL    HW116982   1.532   3.714   2.624
 5361SOL    HW216983   1.692   3.685   2.618
 5362SOL     OW16984   5.997   1.722   3.584
 5362SOL    HW116985   6.013   1.820   3.598
 5362SOL    HW216986   5.971   1.706   3.489
 5363SOL     OW16987   6.139   5.137   4.843
 5363SOL    HW116988   6.156   5.212   4.907
 5363SOL    HW216989   6.209   5.067   4.855
 5364SOL     OW16990   4.362   2.514   1.666
 5364SOL    HW116991   4.296   2.579   1.703
 5364SOL    HW216992   4.357   2.515   1.566
 5365SOL     OW16993   3.596   3.120   6.209
 5365SOL    HW116994   3.548   3.049   6.261
 5365SOL    HW216995   3.644   3.078   6.132
 5366SOL     OW16996   0.597   4.756   3.857
 5366SOL    HW116997   0.555   4.842   3.887
 5366SOL    HW216998   0.571   4.683   3.919
 5367SOL     OW16999   6.498   6.158   1.372
 5367SOL    HW117000   6.460   6.079   1.323
 5367SOL    HW217001   6.471   6.154   1.468
 5368SOL     OW17002   6.572   6.152   5.313
 5368SOL    HW117003   6.568   6.170   5.214
 5368SOL    HW217004   6.512   6.076   5.335
 5369SOL     OW17005   3.876   6.899   2.888
 5369SOL    HW117006   3.824   6.983   2.871
 5369SOL    HW217007   3.960   6.922   2.937
 5370SOL     OW17008   2.500   2.783   0.565
 5370SOL    HW117009   2.447   2.829   0.494
 5370SOL    HW217010   2.465   2.689   0.576
 5371SOL     OW17011   6.183   5.198   3.512
 5371SOL    HW117012   6.188   5.297   3.501
 5371SOL    HW217013   6.161   5.176   3.607
 5372SOL     OW17014   0.928   0.191   4.045
 5372SOL    HW117015   0.893   0.152   4.130
 5372SOL    HW217016   0.900   0.132   3.968
 5373SOL     OW17017   4.066   6.929   0.340
 5373SOL    HW117018   4.097   6.963   0.251
 5373SOL    HW217019   3.985   6.979   0.369
 5374SOL     OW17020   1.231   3.953   1.067
 5374SOL    HW117021   1.187   4.000   1.143
 5374SOL    HW217022   1.233   3.855   1.085
 5375SOL     OW17023   3.049   4.863   5.061
 5375SOL    HW117024   3.099   4.843   5.145
 5375SOL    HW217025   2.982   4.791   5.043
 5376SOL     OW17026   0.405   0.012   2.169
 5376SOL    HW117027   0.382   7.016   2.074
 5376SOL    HW217028   0.502   0.032   2.175
 5377SOL     OW17029   0.880   2.445   1.934
 5377SOL    HW117030   0.975   2.431   1.906
 5377SOL    HW217031   0.871   2.535   1.977
 5378SOL     OW17032   5.544   6.705   3.356
 5378SOL    HW117033   5.480   6.719   3.280
 5378SOL    HW217034   5.567   6.794   3.396
 5379SOL     OW17035   2.698   2.327   4.687
 5379SOL    HW117036   2.637   2.394   4.729
 5379SOL    HW217037   2.771   2.303   4.751
 5380SOL     OW17038   4.865   6.381   1.621
 5380SOL    HW117039   4.821   6.450   1.679
 5380SOL    HW217040   4.899   6.424   1.537
 5381SOL     OW17041   3.287   2.073   2.577
 5381SOL    HW117042   3.223   2.012   2.624
 5381SOL    HW217043   3.251   2.097   2.487
 5382SOL     OW17044   4.839   0.876   2.678
 5382SOL    HW117045   4.875   0.892   2.586
 5382SOL    HW217046   4.776   0.799   2.676
 5383SOL     OW17047   2.427   4.082   5.440
 5383SOL    HW117048   2.380   4.030   5.368
 5383SOL    HW217049   2.466   4.165   5.400
 5384SOL     OW17050   5.211   6.481   6.068
 5384SOL    HW117051   5.115   6.461   6.053
 5384SOL    HW217052   5.255   6.402   6.111
 5385SOL     OW17053   3.869   4.083   0.675
 5385SOL    HW117054   3.917   3.996   0.688
 5385SOL    HW217055   3.777   4.065   0.640
 5386SOL     OW17056   4.560   4.560   3.406
 5386SOL    HW117057   4.654   4.527   3.398
 5386SOL    HW217058   4.515   4.515   3.483
 5387SOL     OW17059   0.912   2.298   4.564
 5387SOL    HW117060   0.971   2.261   4.636
 5387SOL    HW217061   0.830   2.241   4.556
 5388SOL     OW17062   6.436   6.444   3.675
 5388SOL    HW117063   6.374   6.396   3.613
 5388SOL    HW217064   6.434   6.401   3.765
 5389SOL     OW17065   5.698   1.479   4.687
 5389SOL    HW117066   5.760   1.482   4.609
 5389SOL    HW217067   5.726   1.406   4.750
 5390SOL     OW17068   5.803   3.305   3.206
 5390SOL    HW117069   5.783   3.402   3.194
 5390SOL    HW217070   5.871   3.293   3.279
 5391SOL     OW17071   4.476   2.996   0.589
 5391SOL    HW117072   4.537   3.073   0.608
 5391SOL    HW217073   4.447   3.000   0.493
 5392SOL     OW17074   5.231   0.864   4.236
 5392SOL    HW117075   5.287   0.853   4.154
 5392SOL    HW217076   5.231   0.960   4.264
 5393SOL     OW17077   4.608   2.589   3.027
 5393SOL    HW117078   4.587   2.556   3.119
 5393SOL    HW217079   4.697   2.553   2.998
 5394SOL     OW17080   0.065   2.859   2.776
 5394SOL    HW117081   0.146   2.901   2.736
 5394SOL    HW217082   0.022   2.799   2.708
 5395SOL     OW17083   0.061   0.540   1.670
 5395SOL    HW117084   0.140   0.592   1.703
 5395SOL    HW217085   7.003   0.577   1.712
 5396SOL     OW17086   4.203   2.612   0.074
 5396SOL    HW117087   4.160   2.527   0.043
 5396SOL    HW217088   4.167   2.636   0.164
 5397SOL     OW17089   0.752   6.888   2.472
 5397SOL    HW117090   0.682   6.839   2.526
 5397SOL    HW217091   0.737   6.986   2.480
 5398SOL     OW17092   6.026   2.683   3.199
 5398SOL    HW117093   6.070   2.630   3.271
 5398SOL    HW217094   6.016   2.627   3.117
 5399SOL     OW17095   2.552   3.139   0.057
 5399SOL    HW117096   2.551   3.201   7.004
 5399SOL    HW217097   2.638   3.151   0.108
 5400SOL     OW17098   5.520   2.918   0.754
 5400SOL    HW117099   5.483   2.866   0.830
 5400SOL    HW217100   5.456   2.917   0.677
 5401SOL     OW17101   5.169   4.096   1.044
 5401SOL    HW117102   5.077   4.084   1.081
 5401SOL    HW217103   5.167   4.163   0.970
 5402SOL     OW17104   1.727   6.080   1.989
 5402SOL    HW117105   1.670   6.091   2.070
 5402SOL    HW217106   1.792   6.005   2.004
 5403SOL     OW17107   6.056   2.379   5.436
 5403SOL    HW117108   5.992   2.430   5.494
 5403SOL    HW217109   6.031   2.392   5.340
 5404SOL     OW17110   4.750   6.475   0.478
 5404SOL    HW117111   4.720   6.426   0.560
 5404SOL    HW217112   4.737   6.418   0.397
 5405SOL     OW17113   6.493   4.863   6.040
 5405SOL    HW117114   6.468   4.960   6.048
 5405SOL    HW217115   6.410   4.808   6.027
 5406SOL     OW17116   2.217   1.010   5.096
 5406SOL    HW117117   2.252   0.916   5.098
 5406SOL    HW217118   2.132   1.014   5.149
 5407SOL     OW17119   2.069   1.594   2.915
 5407SOL    HW117120   2.157   1.612   2.959
 5407SOL    HW217121   2.065   1.642   2.827
 5408SOL     OW17122   1.938   2.153   4.382
 5408SOL    HW117123   2.034   2.172   4.363
 5408SOL    HW217124   1.931   2.092   4.461
 5409SOL     OW17125   6.984   4.393   3.443
 5409SOL    HW117126   6.887   4.371   3.432
 5409SOL    HW217127   7.010   4.385   3.539
 5410SOL     OW17128   5.828   2.091   0.328
 5410SOL    HW117129   5.846   2.081   0.426
 5410SOL    HW217130   5.899   2.043   0.277
 5411SOL     OW17131   3.208   5.693   1.611
 5411SOL    HW117132   3.164   5.607   1.583
 5411SOL    HW217133   3.277   5.718   1.544
 5412SOL     OW17134   1.761   1.748   6.166
 5412SOL    HW117135   1.674   1.745   6.117
 5412SOL    HW217136   1.799   1.841   6.160
 5413SOL     OW17137   6.908   5.888   5.772
 5413SOL    HW117138   6.810   5.902   5.754
 5413SOL    HW217139   6.959   5.969   5.743
 5414SOL     OW17140   5.790   6.120   6.359
 5414SOL    HW117141   5.788   6.212   6.318
 5414SOL    HW217142   5.734   6.119   6.442
 5415SOL     OW17143   2.107   1.403   0.149
 5415SOL    HW117144   2.029   1.347   0.176
 5415SOL    HW217145   2.105   1.489   0.199
 5416SOL     OW17146   3.932   5.602   6.447
 5416SOL    HW117147   4.021   5.577   6.411
 5416SOL    HW217148   3.860   5.558   6.393
 5417SOL     OW17149   5.496   0.106   2.196
 5417SOL    HW117150   5.422   0.123   2.262
 5417SOL    HW217151   5.486   0.014   2.158
 5418SOL     OW17152   0.648   3.233   5.142
 5418SOL    HW117153   0.657   3.252   5.044
 5418SOL    HW217154   0.608   3.142   5.154
 5419SOL     OW17155   3.491   2.232   6.306
 5419SOL    HW117156   3.571   2.281   6.272
 5419SOL    HW217157   3.502   2.211   6.403
 5420SOL     OW17158   2.340   1.616   1.048
 5420SOL    HW117159   2.440   1.615   1.051
 5420SOL    HW217160   2.307   1.522   1.036
 5421SOL     OW17161   4.446   5.332   1.581
 5421SOL    HW117162   4.346   5.338   1.578
 5421SOL    HW217163   4.483   5.420   1.610
 5422SOL     OW17164   2.300   6.957   2.806
 5422SOL    HW117165   2.326   6.866   2.835
 5422SOL    HW217166   2.371   7.023   2.833
 5423SOL     OW17167   4.692   6.863   2.175
 5423SOL    HW117168   4.757   6.787   2.175
 5423SOL    HW217169   4.671   6.889   2.081
 5424SOL     OW17170   3.501   3.322   5.055
 5424SOL    HW117171   3.485   3.226   5.031
 5424SOL    HW217172   3.413   3.370   5.058
 5425SOL     OW17173   0.962   5.113   5.240
 5425SOL    HW117174   1.047   5.120   5.292
 5425SOL    HW217175   0.903   5.044   5.282
 5426SOL     OW17176   1.187   4.435   0.185
 5426SOL    HW117177   1.121   4.383   0.130
 5426SOL    HW217178   1.138   4.501   0.242
 5427SOL     OW17179   4.918   2.049   0.540
 5427SOL    HW117180   4.966   2.134   0.560
 5427SOL    HW217181   4.837   2.042   0.598
 5428SOL     OW17182   4.437   5.815   2.830
 5428SOL    HW117183   4.392   5.786   2.914
 5428SOL    HW217184   4.533   5.788   2.832
 5429SOL     OW17185   2.419   6.606   3.495
 5429SOL    HW117186   2.346   6.604   3.563
 5429SOL    HW217187   2.413   6.692   3.443
 5430SOL     OW17188   1.120   4.547   5.410
 5430SOL    HW117189   1.040   4.585   5.457
 5430SOL    HW217190   1.202   4.596   5.438
 5431SOL     OW17191   5.351   4.387   1.521
 5431SOL    HW117192   5.254   4.392   1.496
 5431SOL    HW217193   5.403   4.351   1.444
 5432SOL     OW17194   0.901   5.287   5.921
 5432SOL    HW117195   0.992   5.269   5.959
 5432SOL    HW217196   0.863   5.369   5.964
 5433SOL     OW17197   2.755   0.268   1.391
 5433SOL    HW117198   2.826   0.210   1.431
 5433SOL    HW217199   2.716   0.327   1.462
 5434SOL     OW17200   5.120   5.612   4.178
 5434SOL    HW117201   5.035   5.575   4.141
 5434SOL    HW217202   5.165   5.541   4.232
 5435SOL     OW17203   6.724   3.427   7.021
 5435SOL    HW117204   6.631   3.390   7.021
 5435SOL    HW217205   6.721   3.523   0.023
 5436SOL     OW17206   1.174   4.667   1.008
 5436SOL    HW117207   1.246   4.725   0.969
 5436SOL    HW217208   1.125   4.620   0.934
 5437SOL     OW17209   3.830   6.440   6.330
 5437SOL    HW117210   3.893   6.512   6.303
 5437SOL    HW217211   3.839   6.423   6.428
 5438SOL     OW17212   5.213   6.380   2.665
 5438SOL    HW117213   5.241   6.299   2.716
 5438SOL    HW217214   5.248   6.375   2.572
 5439SOL     OW17215   1.444   3.800   1.281
 5439SOL    HW117216   1.430   3.821   1.378
 5439SOL    HW217217   1.356   3.773   1.240
 5440SOL     OW17218   6.102   6.780   3.979
 5440SOL    HW117219   6.049   6.846   4.032
 5440SOL    HW217220   6.063   6.689   3.991
 5441SOL     OW17221   5.367   0.877   5.073
 5441SOL    HW117222   5.403   0.970   5.068
 5441SOL    HW217223   5.397   0.835   5.158
 5442SOL     OW17224   2.809   0.361   6.716
 5442SOL    HW117225   2.806   0.442   6.657
 5442SOL    HW217226   2.875   0.375   6.789
 5443SOL     OW17227   5.657   1.104   3.514
 5443SOL    HW117228   5.648   1.064   3.423
 5443SOL    HW217229   5.627   1.200   3.511
 5444SOL     OW17230   1.375   1.294   6.315
 5444SOL    HW117231   1.452   1.332   6.367
 5444SOL    HW217232   1.296   1.283   6.374
 5445SOL     OW17233   5.710   6.836   4.951
 5445SOL    HW117234   5.807   6.858   4.961
 5445SOL    HW217235   5.658   6.919   4.930
 5446SOL     OW17236   2.300   4.816   6.133
 5446SOL    HW117237   2.265   4.900   6.092
 5446SOL    HW217238   2.380   4.784   6.082
 5447SOL     OW17239   6.508   2.165   1.339
 5447SOL    HW117240   6.541   2.225   1.412
 5447SOL    HW217241   6.425   2.118   1.370
 5448SOL     OW17242   6.173   4.808   1.530
 5448SOL    HW117243   6.193   4.884   1.468
 5448SOL    HW217244   6.216   4.725   1.495
 5449SOL     OW17245   2.250   0.281   2.391
 5449SOL    HW117246   2.245   0.260   2.489
 5449SOL    HW217247   2.345   0.277   2.361
 5450SOL     OW17248   4.677   5.566   2.109
 5450SOL    HW117249   4.598   5.540   2.053
 5450SOL    HW217250   4.722   5.646   2.068
 5451SOL     OW17251   0.678   5.896   3.966
 5451SOL    HW117252   0.691   5.909   3.868
 5451SOL    HW217253   0.702   5.980   4.014
 5452SOL     OW17254   2.218   3.871   3.017
 5452SOL    HW117255   2.217   3.913   2.926
 5452SOL    HW217256   2.238   3.773   3.009
 5453SOL     OW17257   5.709   4.730   4.094
 5453SOL    HW117258   5.730   4.810   4.038
 5453SOL    HW217259   5.774   4.725   4.170
 5454SOL     OW17260   6.014   3.702   2.189
 5454SOL    HW117261   6.107   3.737   2.178
 5454SOL    HW217262   5.963   3.717   2.105
 5455SOL     OW17263   2.458   2.206   3.430
 5455SOL    HW117264   2.376   2.149   3.423
 5455SOL    HW217265   2.457   2.255   3.517
 5456SOL     OW17266   5.019   2.925   0.611
 5456SOL    HW117267   4.972   2.987   0.547
 5456SOL    HW217268   4.968   2.839   0.617
 5457SOL     OW17269   6.870   1.375   0.277
 5457SOL    HW117270   6.782   1.328   0.283
 5457SOL    HW217271   6.887   1.423   0.363
 5458SOL     OW17272   6.169   5.048   5.789
 5458SOL    HW117273   6.204   4.962   5.752
 5458SOL    HW217274   6.075   5.062   5.757
 5459SOL     OW17275   2.434   3.688   5.340
 5459SOL    HW117276   2.431   3.763   5.274
 5459SOL    HW217277   2.486   3.717   5.421
 5460SOL     OW17278   0.212   0.749   1.776
 5460SOL    HW117279   0.215   0.732   1.874
 5460SOL    HW217280   0.281   0.817   1.752
 5461SOL     OW17281   5.719   1.347   6.613
 5461SOL    HW117282   5.752   1.413   6.545
 5461SOL    HW217283   5.712   1.256   6.572
 5462SOL     OW17284   5.062   5.458   6.473
 5462SOL    HW117285   5.122   5.419   6.403
 5462SOL    HW217286   4.974   5.482   6.432
 5463SOL     OW17287   2.265   5.389   6.892
 5463SOL    HW117288   2.179   5.339   6.900
 5463SOL    HW217289   2.334   5.345   6.951
 5464SOL     OW17290   1.814   5.698   4.203
 5464SOL    HW117291   1.769   5.648   4.276
 5464SOL    HW217292   1.846   5.786   4.238
 5465SOL     OW17293   1.032   1.108   4.880
 5465SOL    HW117294   1.098   1.101   4.805
 5465SOL    HW217295   0.957   1.045   4.864
 5466SOL     OW17296   5.027   2.532   4.894
 5466SOL    HW117297   4.992   2.473   4.967
 5466SOL    HW217298   5.007   2.491   4.806
 5467SOL     OW17299   5.648   3.712   4.035
 5467SOL    HW117300   5.697   3.759   4.109
 5467SOL    HW217301   5.624   3.619   4.066
 5468SOL     OW17302   0.380   2.949   1.561
 5468SOL    HW117303   0.433   3.016   1.509
 5468SOL    HW217304   0.432   2.920   1.641
 5469SOL     OW17305   4.385   1.572   3.552
 5469SOL    HW117306   4.444   1.527   3.485
 5469SOL    HW217307   4.322   1.634   3.504
 5470SOL     OW17308   2.810   4.747   4.018
 5470SOL    HW117309   2.795   4.845   4.008
 5470SOL    HW217310   2.849   4.710   3.934
 5471SOL     OW17311   5.614   0.449   3.650
 5471SOL    HW117312   5.567   0.361   3.648
 5471SOL    HW217313   5.584   0.501   3.730
 5472SOL     OW17314   2.529   4.016   6.858
 5472SOL    HW117315   2.531   3.957   6.939
 5472SOL    HW217316   2.598   3.986   6.792
 5473SOL     OW17317   2.783   4.717   2.254
 5473SOL    HW117318   2.862   4.778   2.258
 5473SOL    HW217319   2.781   4.671   2.165
 5474SOL     OW17320   0.866   4.963   1.679
 5474SOL    HW117321   0.940   5.018   1.639
 5474SOL    HW217322   0.869   4.970   1.778
 5475SOL     OW17323   0.655   0.592   5.358
 5475SOL    HW117324   0.638   0.493   5.360
 5475SOL    HW217325   0.688   0.618   5.267
 5476SOL     OW17326   2.275   0.756   5.160
 5476SOL    HW117327   2.315   0.705   5.084
 5476SOL    HW217328   2.317   0.727   5.246
 5477SOL     OW17329   2.126   3.782   3.364
 5477SOL    HW117330   2.026   3.784   3.361
 5477SOL    HW217331   2.161   3.873   3.340
 5478SOL     OW17332   6.491   3.444   5.456
 5478SOL    HW117333   6.536   3.515   5.511
 5478SOL    HW217334   6.405   3.480   5.419
 5479SOL     OW17335   5.068   3.537   4.004
 5479SOL    HW117336   5.082   3.462   4.069
 5479SOL    HW217337   5.013   3.503   3.927
 5480SOL     OW17338   1.586   3.034   5.083
 5480SOL    HW117339   1.594   2.982   5.168
 5480SOL    HW217340   1.598   2.973   5.005
 5481SOL     OW17341   4.407   1.228   0.449
 5481SOL    HW117342   4.444   1.224   0.541
 5481SOL    HW217343   4.309   1.207   0.451
 5482SOL     OW17344   5.167   4.389   2.577
 5482SOL    HW117345   5.112   4.382   2.494
 5482SOL    HW217346   5.106   4.395   2.656
 5483SOL     OW17347   5.834   2.062   0.600
 5483SOL    HW117348   5.846   2.161   0.611
 5483SOL    HW217349   5.923   2.017   0.610
 5484SOL     OW17350   6.219   0.534   5.275
 5484SOL    HW117351   6.265   0.466   5.219
 5484SOL    HW217352   6.168   0.489   5.348
 5485SOL     OW17353   2.947   0.886   4.144
 5485SOL    HW117354   2.933   0.953   4.072
 5485SOL    HW217355   3.004   0.811   4.110
 5486SOL     OW17356   0.461   0.030   3.757
 5486SOL    HW117357   0.493   0.092   3.685
 5486SOL    HW217358   0.387   0.073   3.808
 5487SOL     OW17359   4.852   5.305   0.884
 5487SOL    HW117360   4.774   5.328   0.941
 5487SOL    HW217361   4.928   5.273   0.941
 5488SOL     OW17362   5.122   0.986   6.117
 5488SOL    HW117363   5.175   0.954   6.196
 5488SOL    HW217364   5.030   1.012   6.146
 5489SOL     OW17365   6.900   3.832   2.495
 5489SOL    HW117366   6.953   3.896   2.438
 5489SOL    HW217367   6.923   3.738   2.470
 5490SOL     OW17368   3.114   1.628   6.390
 5490SOL    HW117369   3.155   1.706   6.437
 5490SOL    HW217370   3.019   1.617   6.419
 5491SOL     OW17371   0.013   5.714   2.821
 5491SOL    HW117372   0.050   5.793   2.771
 5491SOL    HW217373   7.018   5.641   2.756
 5492SOL     OW17374   1.193   0.971   4.699
 5492SOL    HW117375   1.164   0.929   4.613
 5492SOL    HW217376   1.264   1.039   4.680
 5493SOL     OW17377   3.765   1.741   0.638
 5493SOL    HW117378   3.754   1.769   0.733
 5493SOL    HW217379   3.819   1.810   0.589
 5494SOL     OW17380   5.088   3.192   2.449
 5494SOL    HW117381   5.168   3.159   2.499
 5494SOL    HW217382   5.087   3.152   2.357
 5495SOL     OW17383   3.495   2.926   3.739
 5495SOL    HW117384   3.554   2.891   3.812
 5495SOL    HW217385   3.499   3.026   3.738
 5496SOL     OW17386   4.984   5.753   1.879
 5496SOL    HW117387   4.947   5.685   1.816
 5496SOL    HW217388   5.073   5.723   1.913
 5497SOL     OW17389   5.471   0.349   0.119
 5497SOL    HW117390   5.510   0.257   0.129
 5497SOL    HW217391   5.543   0.414   0.097
 5498SOL     OW17392   4.278   1.972   4.203
 5498SOL    HW117393   4.202   1.919   4.240
 5498SOL    HW217394   4.352   1.977   4.270
 5499SOL     OW17395   0.210   0.607   5.201
 5499SOL    HW117396   0.229   0.531   5.263
 5499SOL    HW217397   0.291   0.627   5.147
 5500SOL     OW17398   2.299   6.490   0.757
 5500SOL    HW117399   2.235   6.438   0.813
 5500SOL    HW217400   2.355   6.548   0.816
 5501SOL     OW17401   2.942   0.484   2.426
 5501SOL    HW117402   2.919   0.391   2.395
 5501SOL    HW217403   2.921   0.549   2.353
 5502SOL     OW17404   4.556   3.596   0.795
 5502SOL    HW117405   4.611   3.565   0.872
 5502SOL    HW217406   4.534   3.518   0.736
 5503SOL     OW17407   6.862   0.228   3.720
 5503SOL    HW117408   6.874   0.327   3.713
 5503SOL    HW217409   6.897   0.196   3.808
 5504SOL     OW17410   2.909   2.214   4.834
 5504SOL    HW117411   2.988   2.262   4.871
 5504SOL    HW217412   2.938   2.126   4.797
 5505SOL     OW17413   3.175   4.956   0.870
 5505SOL    HW117414   3.233   4.958   0.788
 5505SOL    HW217415   3.083   4.988   0.847
 5506SOL     OW17416   0.443   6.888   6.026
 5506SOL    HW117417   0.531   6.853   6.060
 5506SOL    HW217418   0.373   6.877   6.096
 5507SOL     OW17419   2.920   5.102   5.130
 5507SOL    HW117420   2.847   5.108   5.198
 5507SOL    HW217421   2.956   5.008   5.128
 5508SOL     OW17422   1.520   0.786   5.234
 5508SOL    HW117423   1.525   0.723   5.311
 5508SOL    HW217424   1.427   0.785   5.196
 5509SOL     OW17425   6.568   0.148   6.435
 5509SOL    HW117426   6.499   0.077   6.420
 5509SOL    HW217427   6.522   0.234   6.457
 5510SOL     OW17428   6.656   0.381   6.281
 5510SOL    HW117429   6.626   0.296   6.326
 5510SOL    HW217430   6.578   0.442   6.269
 5511SOL     OW17431   0.438   2.706   1.474
 5511SOL    HW117432   0.394   2.635   1.530
 5511SOL    HW217433   0.400   2.795   1.498
 5512SOL     OW17434   6.095   0.443   0.407
 5512SOL    HW117435   6.138   0.446   0.317
 5512SOL    HW217436   6.020   0.377   0.406
 5513SOL     OW17437   2.760   5.939   4.778
 5513SOL    HW117438   2.819   5.873   4.824
 5513SOL    HW217439   2.798   5.960   4.688
 5514SOL     OW17440   6.364   5.855   3.691
 5514SOL    HW117441   6.326   5.882   3.603
 5514SOL    HW217442   6.402   5.935   3.737
 5515SOL     OW17443   6.931   4.043   3.167
 5515SOL    HW117444   6.997   4.064   3.095
 5515SOL    HW217445   6.963   3.965   3.220
 5516SOL     OW17446   1.127   2.340   0.142
 5516SOL    HW117447   1.052   2.380   0.090
 5516SOL    HW217448   1.215   2.368   0.102
 5517SOL     OW17449   2.927   1.120   2.458
 5517SOL    HW117450   2.919   1.022   2.440
 5517SOL    HW217451   2.974   1.135   2.545
 5518SOL     OW17452   5.520   4.181   5.318
 5518SOL    HW117453   5.513   4.195   5.219
 5518SOL    HW217454   5.578   4.102   5.337
 5519SOL     OW17455   5.580   4.375   2.356
 5519SOL    HW117456   5.660   4.316   2.368
 5519SOL    HW217457   5.513   4.329   2.297
 5520SOL     OW17458   1.541   2.491   1.151
 5520SOL    HW117459   1.444   2.512   1.143
 5520SOL    HW217460   1.594   2.555   1.096
 5521SOL     OW17461   5.587   5.308   6.545
 5521SOL    HW117462   5.682   5.282   6.561
 5521SOL    HW217463   5.585   5.383   6.479
 5522SOL     OW17464   1.886   2.466   2.116
 5522SOL    HW117465   1.984   2.471   2.135
 5522SOL    HW217466   1.852   2.374   2.137
 5523SOL     OW17467   3.072   6.676   1.615
 5523SOL    HW117468   3.051   6.697   1.711
 5523SOL    HW217469   3.144   6.738   1.583
 5524SOL     OW17470   6.227   6.583   5.801
 5524SOL    HW117471   6.326   6.579   5.818
 5524SOL    HW217472   6.198   6.500   5.754
 5525SOL     OW17473   6.373   5.749   3.295
 5525SOL    HW117474   6.456   5.801   3.275
 5525SOL    HW217475   6.384   5.656   3.261
 5526SOL     OW17476   5.099   2.945   4.623
 5526SOL    HW117477   5.146   2.860   4.649
 5526SOL    HW217478   5.019   2.957   4.681
 5527SOL     OW17479   1.850   3.367   7.015
 5527SOL    HW117480   1.902   3.358   0.074
 5527SOL    HW217481   1.788   3.445   7.022
 5528SOL     OW17482   6.572   2.821   2.341
 5528SOL    HW117483   6.495   2.885   2.346
 5528SOL    HW217484   6.543   2.733   2.378
 5529SOL     OW17485   0.952   0.894   3.727
 5529SOL    HW117486   0.896   0.954   3.671
 5529SOL    HW217487   1.035   0.869   3.677
 5530SOL     OW17488   6.738   2.858   0.050
 5530SOL    HW117489   6.716   2.898   0.139
 5530SOL    HW217490   6.698   2.914   7.003
 5531SOL     OW17491   1.975   3.041   0.019
 5531SOL    HW117492   2.009   3.021   6.953
 5531SOL    HW217493   1.878   3.020   0.025
 5532SOL     OW17494   2.379   2.545   1.299
 5532SOL    HW117495   2.435   2.480   1.350
 5532SOL    HW217496   2.438   2.608   1.248
 5533SOL     OW17497   3.949   0.622   0.997
 5533SOL    HW117498   3.865   0.611   1.050
 5533SOL    HW217499   3.934   0.591   0.904
 5534SOL     OW17500   0.483   3.827   5.126
 5534SOL    HW117501   0.444   3.821   5.218
 5534SOL    HW217502   0.537   3.745   5.107
 5535SOL     OW17503   5.378   3.893   3.235
 5535SOL    HW117504   5.399   3.973   3.178
 5535SOL    HW217505   5.340   3.923   3.322
 5536SOL     OW17506   2.541   0.692   4.152
 5536SOL    HW117507   2.484   0.610   4.155
 5536SOL    HW217508   2.514   0.749   4.075
 5537SOL     OW17509   3.897   0.827   4.668
 5537SOL    HW117510   3.983   0.777   4.676
 5537SOL    HW217511   3.828   0.784   4.728
 5538SOL     OW17512   5.508   2.167   2.241
 5538SOL    HW117513   5.457   2.105   2.301
 5538SOL    HW217514   5.462   2.256   2.239
 5539SOL     OW17515   2.392   0.146   6.586
 5539SOL    HW117516   2.365   0.199   6.666
 5539SOL    HW217517   2.327   0.164   6.512
 5540SOL     OW17518   5.495   6.719   5.486
 5540SOL    HW117519   5.452   6.804   5.454
 5540SOL    HW217520   5.591   6.718   5.459
 5541SOL     OW17521   4.674   2.613   7.006
 5541SOL    HW117522   4.756   2.558   6.991
 5541SOL    HW217523   4.656   2.619   0.078
 5542SOL     OW17524   4.834   4.457   6.705
 5542SOL    HW117525   4.811   4.426   6.797
 5542SOL    HW217526   4.924   4.502   6.706
 5543SOL     OW17527   0.883   0.444   6.516
 5543SOL    HW117528   0.966   0.499   6.523
 5543SOL    HW217529   0.907   0.350   6.489
 5544SOL     OW17530   3.717   4.941   0.695
 5544SOL    HW117531   3.760   4.869   0.750
 5544SOL    HW217532   3.762   5.028   0.713
 5545SOL     OW17533   5.699   1.406   2.678
 5545SOL    HW117534   5.694   1.506   2.674
 5545SOL    HW217535   5.614   1.370   2.718
 5546SOL     OW17536   0.307   5.376   4.634
 5546SOL    HW117537   0.372   5.346   4.564
 5546SOL    HW217538   0.255   5.297   4.667
 5547SOL     OW17539   4.999   1.463   5.269
 5547SOL    HW117540   5.032   1.539   5.213
 5547SOL    HW217541   4.964   1.498   5.356
 5548SOL     OW17542   0.245   3.824   5.000
 5548SOL    HW117543   0.335   3.814   5.043
 5548SOL    HW217544   0.257   3.848   4.904
 5549SOL     OW17545   3.481   2.696   0.562
 5549SOL    HW117546   3.453   2.746   0.644
 5549SOL    HW217547   3.576   2.717   0.541
 5550SOL     OW17548   2.212   4.146   1.553
 5550SOL    HW117549   2.286   4.084   1.529
 5550SOL    HW217550   2.235   4.239   1.522
 5551SOL     OW17551   1.473   4.697   2.647
 5551SOL    HW117552   1.560   4.712   2.694
 5551SOL    HW217553   1.465   4.601   2.621
 5552SOL     OW17554   1.013   0.176   0.079
 5552SOL    HW117555   1.111   0.192   0.072
 5552SOL    HW217556   0.996   0.096   0.137
 5553SOL     OW17557   5.234   0.350   7.001
 5553SOL    HW117558   5.312   0.381   0.028
 5553SOL    HW217559   5.265   0.322   6.910
 5554SOL     OW17560   6.703   2.547   1.262
 5554SOL    HW117561   6.722   2.645   1.266
 5554SOL    HW217562   6.657   2.519   1.346
 5555SOL     OW17563   1.139   5.272   2.162
 5555SOL    HW117564   1.147   5.371   2.154
 5555SOL    HW217565   1.218   5.228   2.118
 5556SOL     OW17566   0.302   0.906   4.856
 5556SOL    HW117567   0.342   0.894   4.765
 5556SOL    HW217568   0.350   0.978   4.905
 5557SOL     OW17569   3.849   6.118   2.731
 5557SOL    HW117570   3.873   6.031   2.774
 5557SOL    HW217571   3.932   6.164   2.700
 5558SOL     OW17572   4.502   3.608   6.368
 5558SOL    HW117573   4.480   3.703   6.388
 5558SOL    HW217574   4.432   3.569   6.308
 5559SOL     OW17575   3.542   0.671   2.431
 5559SOL    HW117576   3.520   0.622   2.347
 5559SOL    HW217577   3.614   0.621   2.480
 5560SOL     OW17578   0.115   5.398   3.721
 5560SOL    HW117579   0.025   5.412   3.762
 5560SOL    HW217580   0.186   5.418   3.788
 5561SOL     OW17581   3.734   0.315   3.576
 5561SOL    HW117582   3.706   0.223   3.605
 5561SOL    HW217583   3.706   0.382   3.644
 5562SOL     OW17584   3.892   3.142   0.554
 5562SOL    HW117585   3.912   3.238   0.533
 5562SOL    HW217586   3.936   3.117   0.640
 5563SOL     OW17587   2.561   4.862   2.344
 5563SOL    HW117588   2.643   4.820   2.305
 5563SOL    HW217589   2.483   4.802   2.330
 5564SOL     OW17590   4.876   0.081   6.228
 5564SOL    HW117591   4.821   0.164   6.215
 5564SOL    HW217592   4.818   0.001   6.217
 5565SOL     OW17593   3.891   1.439   5.811
 5565SOL    HW117594   3.921   1.373   5.880
 5565SOL    HW217595   3.837   1.393   5.741
 5566SOL     OW17596   1.300   5.281   5.818
 5566SOL    HW117597   1.311   5.381   5.818
 5566SOL    HW217598   1.223   5.257   5.760
 5567SOL     OW17599   0.269   4.900   0.178
 5567SOL    HW117600   0.297   4.813   0.218
 5567SOL    HW217601   0.238   4.962   0.251
 5568SOL     OW17602   4.743   4.903   1.405
 5568SOL    HW117603   4.665   4.941   1.455
 5568SOL    HW217604   4.791   4.977   1.358
 5569SOL     OW17605   2.263   2.624   2.879
 5569SOL    HW117606   2.256   2.530   2.913
 5569SOL    HW217607   2.358   2.642   2.851
 5570SOL     OW17608   6.744   3.825   1.513
 5570SOL    HW117609   6.654   3.864   1.531
 5570SOL    HW217610   6.740   3.725   1.524
 5571SOL     OW17611   6.471   4.374   0.709
 5571SOL    HW117612   6.514   4.397   0.796
 5571SOL    HW217613   6.433   4.282   0.713
 5572SOL     OW17614   1.739   4.010   5.084
 5572SOL    HW117615   1.786   3.935   5.037
 5572SOL    HW217616   1.640   3.995   5.081
 5573SOL     OW17617   3.222   5.396   4.119
 5573SOL    HW117618   3.212   5.486   4.076
 5573SOL    HW217619   3.178   5.327   4.061
 5574SOL     OW17620   0.947   1.874   5.423
 5574SOL    HW117621   0.977   1.953   5.369
 5574SOL    HW217622   1.008   1.863   5.502
 5575SOL     OW17623   0.196   0.146   1.542
 5575SOL    HW117624   0.143   0.194   1.471
 5575SOL    HW217625   0.171   0.049   1.542
 5576SOL     OW17626   1.720   4.936   3.544
 5576SOL    HW117627   1.697   4.841   3.566
 5576SOL    HW217628   1.637   4.992   3.547
 5577SOL     OW17629   1.960   2.843   6.290
 5577SOL    HW117630   2.052   2.862   6.325
 5577SOL    HW217631   1.952   2.876   6.196
 5578SOL     OW17632   3.676   3.860   3.829
 5578SOL    HW117633   3.743   3.907   3.886
 5578SOL    HW217634   3.711   3.851   3.736
 5579SOL     OW17635   6.271   2.903   1.749
 5579SOL    HW117636   6.240   2.905   1.844
 5579SOL    HW217637   6.371   2.895   1.747
 5580SOL     OW17638   5.519   2.058   5.594
 5580SOL    HW117639   5.557   2.072   5.503
 5580SOL    HW217640   5.567   2.116   5.660
 5581SOL     OW17641   0.915   2.054   6.353
 5581SOL    HW117642   0.862   2.132   6.320
 5581SOL    HW217643   0.989   2.035   6.289
 5582SOL     OW17644   2.859   2.713   6.006
 5582SOL    HW117645   2.933   2.780   5.996
 5582SOL    HW217646   2.813   2.727   6.094
 5583SOL     OW17647   5.519   7.022   0.947
 5583SOL    HW117648   5.564   0.052   0.877
 5583SOL    HW217649   5.521   0.044   1.035
 5584SOL     OW17650   1.968   2.930   4.482
 5584SOL    HW117651   2.002   2.837   4.500
 5584SOL    HW217652   1.974   2.984   4.566
 5585SOL     OW17653   5.619   5.076   1.712
 5585SOL    HW117654   5.681   5.097   1.635
 5585SOL    HW217655   5.586   5.161   1.752
 5586SOL     OW17656   0.811   5.209   0.727
 5586SOL    HW117657   0.857   5.280   0.673
 5586SOL    HW217658   0.752   5.155   0.668
 5587SOL     OW17659   6.351   0.904   6.111
 5587SOL    HW117660   6.299   0.981   6.150
 5587SOL    HW217661   6.358   0.916   6.012
 5588SOL     OW17662   3.368   6.653   0.812
 5588SOL    HW117663   3.272   6.631   0.829
 5588SOL    HW217664   3.418   6.570   0.789
 5589SOL     OW17665   6.683   4.644   5.952
 5589SOL    HW117666   6.708   4.566   6.009
 5589SOL    HW217667   6.613   4.698   5.998
 5590SOL     OW17668   5.970   5.470   3.235
 5590SOL    HW117669   5.978   5.375   3.267
 5590SOL    HW217670   5.971   5.532   3.313
 5591SOL     OW17671   5.385   1.365   1.772
 5591SOL    HW117672   5.454   1.389   1.704
 5591SOL    HW217673   5.373   1.265   1.775
 5592SOL     OW17674   0.205   4.372   3.234
 5592SOL    HW117675   0.273   4.445   3.229
 5592SOL    HW217676   0.116   4.406   3.205
 5593SOL     OW17677   0.830   3.889   0.526
 5593SOL    HW117678   0.825   3.913   0.429
 5593SOL    HW217679   0.738   3.891   0.566
 5594SOL     OW17680   6.137   1.671   5.840
 5594SOL    HW117681   6.101   1.689   5.931
 5594SOL    HW217682   6.148   1.572   5.828
 5595SOL     OW17683   0.555   2.454   0.507
 5595SOL    HW117684   0.557   2.523   0.579
 5595SOL    HW217685   0.460   2.437   0.479
 5596SOL     OW17686   3.258   5.797   3.386
 5596SOL    HW117687   3.299   5.708   3.364
 5596SOL    HW217688   3.190   5.785   3.458
 5597SOL     OW17689   4.878   3.176   1.819
 5597SOL    HW117690   4.857   3.086   1.857
 5597SOL    HW217691   4.826   3.189   1.734
 5598SOL     OW17692   5.071   0.995   5.054
 5598SOL    HW117693   5.003   0.937   5.099
 5598SOL    HW217694   5.163   0.965   5.082
 5599SOL     OW17695   0.794   1.291   3.239
 5599SOL    HW117696   0.829   1.197   3.242
 5599SOL    HW217697   0.858   1.351   3.287
 5600SOL     OW17698   2.233   2.704   5.353
 5600SOL    HW117699   2.157   2.761   5.382
 5600SOL    HW217700   2.319   2.746   5.383
 5601SOL     OW17701   2.802   0.962   6.385
 5601SOL    HW117702   2.762   0.957   6.477
 5601SOL    HW217703   2.902   0.972   6.393
 5602SOL     OW17704   1.764   0.909   0.293
 5602SOL    HW117705   1.803   0.955   0.373
 5602SOL    HW217706   1.836   0.862   0.243
 5603SOL     OW17707   6.103   4.345   5.666
 5603SOL    HW117708   6.168   4.402   5.615
 5603SOL    HW217709   6.153   4.288   5.730
 5604SOL     OW17710   5.921   1.495   6.001
 5604SOL    HW117711   5.833   1.478   6.044
 5604SOL    HW217712   5.945   1.417   5.943
 5605SOL     OW17713   0.653   1.965   6.791
 5605SOL    HW117714   0.712   1.983   6.713
 5605SOL    HW217715   0.574   1.911   6.762
 5606SOL     OW17716   5.834   6.643   3.120
 5606SOL    HW117717   5.759   6.709   3.112
 5606SOL    HW217718   5.853   6.602   3.031
 5607SOL     OW17719   5.547   0.497   0.998
 5607SOL    HW117720   5.464   0.442   1.000
 5607SOL    HW217721   5.626   0.438   1.014
 5608SOL     OW17722   4.059   6.085   5.250
 5608SOL    HW117723   4.043   6.008   5.188
 5608SOL    HW217724   4.148   6.127   5.229
 5609SOL     OW17725   1.094   5.577   5.651
 5609SOL    HW117726   1.174   5.558   5.708
 5609SOL    HW217727   1.072   5.674   5.656
 5610SOL     OW17728   4.456   0.757   6.214
 5610SOL    HW117729   4.492   0.676   6.260
 5610SOL    HW217730   4.435   0.735   6.119
 5611SOL     OW17731   2.214   4.107   4.022
 5611SOL    HW117732   2.300   4.157   4.029
 5611SOL    HW217733   2.150   4.143   4.090
 5612SOL     OW17734   3.192   6.759   4.639
 5612SOL    HW117735   3.143   6.673   4.651
 5612SOL    HW217736   3.289   6.740   4.625
 5613SOL     OW17737   3.489   5.523   1.542
 5613SOL    HW117738   3.390   5.533   1.532
 5613SOL    HW217739   3.525   5.599   1.596
 5614SOL     OW17740   5.389   1.864   4.236
 5614SOL    HW117741   5.328   1.910   4.300
 5614SOL    HW217742   5.357   1.879   4.142
 5615SOL     OW17743   1.693   1.219   1.550
 5615SOL    HW117744   1.772   1.159   1.560
 5615SOL    HW217745   1.703   1.298   1.610
 5616SOL     OW17746   2.011   6.929   5.026
 5616SOL    HW117747   1.967   6.987   5.094
 5616SOL    HW217748   2.110   6.932   5.039
 5617SOL     OW17749   0.909   0.817   5.455
 5617SOL    HW117750   0.971   0.893   5.436
 5617SOL    HW217751   0.853   0.798   5.374
 5618SOL     OW17752   6.457   4.906   3.166
 5618SOL    HW117753   6.416   4.966   3.235
 5618SOL    HW217754   6.384   4.864   3.111
 5619SOL     OW17755   2.113   4.086   5.234
 5619SOL    HW117756   2.192   4.111   5.178
 5619SOL    HW217757   2.031   4.133   5.199
 5620SOL     OW17758   4.446   1.162   0.169
 5620SOL    HW117759   4.453   1.180   0.267
 5620SOL    HW217760   4.471   1.245   0.118
 5621SOL     OW17761   2.560   1.473   6.703
 5621SOL    HW117762   2.514   1.526   6.631
 5621SOL    HW217763   2.524   1.380   6.704
 5622SOL     OW17764   5.423   0.660   5.245
 5622SOL    HW117765   5.374   0.589   5.195
 5622SOL    HW217766   5.383   0.671   5.336
 5623SOL     OW17767   0.543   6.195   0.020
 5623SOL    HW117768   0.572   6.244   0.102
 5623SOL    HW217769   0.446   6.211   0.004
 5624SOL     OW17770   0.248   3.784   1.913
 5624SOL    HW117771   0.298   3.843   1.850
 5624SOL    HW217772   0.150   3.802   1.905
 5625SOL     OW17773   6.256   2.138   5.611
 5625SOL    HW117774   6.259   2.156   5.513
 5625SOL    HW217775   6.209   2.052   5.628
 5626SOL     OW17776   5.121   6.456   4.146
 5626SOL    HW117777   5.150   6.370   4.103
 5626SOL    HW217778   5.054   6.437   4.217
 5627SOL     OW17779   1.044   6.960   0.978
 5627SOL    HW117780   1.005   0.011   0.927
 5627SOL    HW217781   1.144   6.960   0.967
 5628SOL     OW17782   1.525   1.573   4.178
 5628SOL    HW117783   1.488   1.664   4.162
 5628SOL    HW217784   1.525   1.521   4.092
 5629SOL     OW17785   3.616   2.900   3.468
 5629SOL    HW117786   3.567   2.907   3.555
 5629SOL    HW217787   3.699   2.955   3.472
 5630SOL     OW17788   6.653   4.274   1.164
 5630SOL    HW117789   6.587   4.203   1.189
 5630SOL    HW217790   6.668   4.335   1.241
 5631SOL     OW17791   5.709   1.466   6.194
 5631SOL    HW117792   5.627   1.519   6.172
 5631SOL    HW217793   5.735   1.483   6.289
 5632SOL     OW17794   2.681   2.417   0.384
 5632SOL    HW117795   2.768   2.373   0.362
 5632SOL    HW217796   2.699   2.504   0.431
 5633SOL     OW17797   0.021   3.004   5.403
 5633SOL    HW117798   0.072   3.009   5.488
 5633SOL    HW217799   6.962   2.952   5.418
 5634SOL     OW17800   5.109   6.162   4.585
 5634SOL    HW117801   5.137   6.100   4.512
 5634SOL    HW217802   5.011   6.178   4.579
 5635SOL     OW17803   3.430   1.740   5.869
 5635SOL    HW117804   3.378   1.820   5.900
 5635SOL    HW217805   3.520   1.741   5.912
 5636SOL     OW17806   3.945   6.251   4.597
 5636SOL    HW117807   4.034   6.226   4.637
 5636SOL    HW217808   3.872   6.206   4.649
 5637SOL     OW17809   6.267   0.189   3.399
 5637SOL    HW117810   6.345   0.173   3.338
 5637SOL    HW217811   6.289   0.265   3.461
 5638SOL     OW17812   6.450   3.427   0.123
 5638SOL    HW117813   6.362   3.472   0.137
 5638SOL    HW217814   6.514   3.455   0.194
 5639SOL     OW17815   4.352   0.309   6.972
 5639SOL    HW117816   4.262   0.288   6.933
 5639SOL    HW217817   4.342   0.372   0.023
 5640SOL     OW17818   1.463   0.295   3.045
 5640SOL    HW117819   1.456   0.261   3.139
 5640SOL    HW217820   1.530   0.240   2.995
 5641SOL     OW17821   6.579   5.701   4.377
 5641SOL    HW117822   6.563   5.633   4.306
 5641SOL    HW217823   6.639   5.773   4.342
 5642SOL     OW17824   1.776   1.923   0.066
 5642SOL    HW117825   1.765   2.022   0.075
 5642SOL    HW217826   1.797   1.900   6.997
 5643SOL     OW17827   5.203   1.828   6.678
 5643SOL    HW117828   5.147   1.755   6.640
 5643SOL    HW217829   5.187   1.913   6.627
 5644SOL     OW17830   2.540   1.231   6.169
 5644SOL    HW117831   2.619   1.286   6.197
 5644SOL    HW217832   2.456   1.274   6.203
 5645SOL     OW17833   5.571   3.820   4.646
 5645SOL    HW117834   5.555   3.813   4.547
 5645SOL    HW217835   5.535   3.907   4.680
 5646SOL     OW17836   1.008   3.899   2.893
 5646SOL    HW117837   1.104   3.927   2.885
 5646SOL    HW217838   0.988   3.829   2.824
 5647SOL     OW17839   5.523   6.179   2.952
 5647SOL    HW117840   5.585   6.240   2.903
 5647SOL    HW217841   5.570   6.138   3.030
 5648SOL     OW17842   4.922   5.852   3.552
 5648SOL    HW117843   4.882   5.804   3.474
 5648SOL    HW217844   5.021   5.860   3.538
 5649SOL     OW17845   0.907   6.866   4.481
 5649SOL    HW117846   0.984   6.874   4.545
 5649SOL    HW217847   0.843   6.796   4.514
 5650SOL     OW17848   6.871   4.023   6.016
 5650SOL    HW117849   6.890   3.960   6.091
 5650SOL    HW217850   6.896   3.981   5.929
 5651SOL     OW17851   2.493   1.174   0.492
 5651SOL    HW117852   2.393   1.179   0.492
 5651SOL    HW217853   2.528   1.209   0.405
 5652SOL     OW17854   0.399   5.922   3.321
 5652SOL    HW117855   0.433   5.861   3.392
 5652SOL    HW217856   0.355   5.867   3.249
 5653SOL     OW17857   0.026   0.196   2.775
 5653SOL    HW117858   0.031   0.096   2.779
 5653SOL    HW217859   0.110   0.232   2.733
 5654SOL     OW17860   3.052   5.950   5.427
 5654SOL    HW117861   3.084   6.026   5.483
 5654SOL    HW217862   3.067   5.864   5.475
 5655SOL     OW17863   5.056   2.593   5.348
 5655SOL    HW117864   5.036   2.659   5.275
 5655SOL    HW217865   4.972   2.543   5.370
 5656SOL     OW17866   0.274   3.922   0.489
 5656SOL    HW117867   0.340   3.926   0.564
 5656SOL    HW217868   0.322   3.911   0.403
 5657SOL     OW17869   5.289   5.807   4.647
 5657SOL    HW117870   5.330   5.867   4.716
 5657SOL    HW217871   5.279   5.857   4.561
 5658SOL     OW17872   2.212   3.109   6.173
 5658SOL    HW117873   2.295   3.105   6.117
 5658SOL    HW217874   2.217   3.041   6.246
 5659SOL     OW17875   2.336   4.043   0.222
 5659SOL    HW117876   2.274   4.069   0.148
 5659SOL    HW217877   2.293   4.061   0.310
 5660SOL     OW17878   3.980   6.932   4.843
 5660SOL    HW117879   3.913   6.866   4.810
 5660SOL    HW217880   4.020   6.981   4.766
 5661SOL     OW17881   1.040   5.822   5.949
 5661SOL    HW117882   1.125   5.802   5.899
 5661SOL    HW217883   0.976   5.869   5.889
 5662SOL     OW17884   3.253   6.580   0.503
 5662SOL    HW117885   3.184   6.516   0.536
 5662SOL    HW217886   3.257   6.658   0.565
 5663SOL     OW17887   1.751   3.173   6.091
 5663SOL    HW117888   1.800   3.149   6.007
 5663SOL    HW217889   1.734   3.090   6.145
 5664SOL     OW17890   4.709   4.996   4.264
 5664SOL    HW117891   4.707   4.896   4.258
 5664SOL    HW217892   4.616   5.030   4.276
 5665SOL     OW17893   2.091   1.430   0.902
 5665SOL    HW117894   2.081   1.331   0.904
 5665SOL    HW217895   2.018   1.472   0.958
 5666SOL     OW17896   5.826   2.635   5.375
 5666SOL    HW117897   5.750   2.582   5.335
 5666SOL    HW217898   5.830   2.725   5.332
 5667SOL     OW17899   2.749   4.736   4.276
 5667SOL    HW117900   2.796   4.704   4.194
 5667SOL    HW217901   2.687   4.666   4.309
 5668SOL     OW17902   4.630   4.319   3.846
 5668SOL    HW117903   4.583   4.328   3.934
 5668SOL    HW217904   4.681   4.233   3.844
 5669SOL     OW17905   5.419   4.501   6.027
 5669SOL    HW117906   5.485   4.559   6.075
 5669SOL    HW217907   5.351   4.559   5.982
 5670SOL     OW17908   1.425   2.657   3.991
 5670SOL    HW117909   1.415   2.755   3.974
 5670SOL    HW217910   1.335   2.613   3.986
 5671SOL     OW17911   6.927   5.268   3.189
 5671SOL    HW117912   6.832   5.296   3.176
 5671SOL    HW217913   6.967   5.243   3.101
 5672SOL     OW17914   5.281   3.176   4.734
 5672SOL    HW117915   5.197   3.131   4.703
 5672SOL    HW217916   5.292   3.263   4.684
 5673SOL     OW17917   0.710   2.404   0.300
 5673SOL    HW117918   0.651   2.412   0.381
 5673SOL    HW217919   0.790   2.463   0.312
 5674SOL     OW17920   2.462   5.043   5.404
 5674SOL    HW117921   2.545   5.071   5.356
 5674SOL    HW217922   2.482   4.967   5.465
 5675SOL     OW17923   3.043   2.374   0.785
 5675SOL    HW117924   2.989   2.292   0.767
 5675SOL    HW217925   3.136   2.360   0.750
 5676SOL     OW17926   3.377   1.472   1.960
 5676SOL    HW117927   3.310   1.497   1.890
 5676SOL    HW217928   3.469   1.481   1.923
 5677SOL     OW17929   0.638   1.500   6.170
 5677SOL    HW117930   0.710   1.463   6.110
 5677SOL    HW217931   0.647   1.460   6.261
 5678SOL     OW17932   3.793   2.102   2.257
 5678SOL    HW117933   3.718   2.049   2.296
 5678SOL    HW217934   3.761   2.152   2.177
 5679SOL     OW17935   0.072   4.145   5.386
 5679SOL    HW117936   0.102   4.106   5.299
 5679SOL    HW217937   7.001   4.124   5.401
 5680SOL     OW17938   0.588   5.787   4.996
 5680SOL    HW117939   0.523   5.770   4.922
 5680SOL    HW217940   0.665   5.724   4.988
 5681SOL     OW17941   1.262   3.623   3.357
 5681SOL    HW117942   1.312   3.544   3.322
 5681SOL    HW217943   1.213   3.667   3.282
 5682SOL     OW17944   2.151   4.627   1.201
 5682SOL    HW117945   2.237   4.669   1.231
 5682SOL    HW217946   2.085   4.629   1.275
 5683SOL     OW17947   6.908   0.399   6.346
 5683SOL    HW117948   6.810   0.404   6.330
 5683SOL    HW217949   6.957   0.452   6.277
 5684SOL     OW17950   2.252   3.010   4.773
 5684SOL    HW117951   2.289   3.036   4.862
 5684SOL    HW217952   2.298   2.927   4.741
 5685SOL     OW17953   2.420   1.518   2.363
 5685SOL    HW117954   2.358   1.596   2.374
 5685SOL    HW217955   2.428   1.470   2.450
 5686SOL     OW17956   5.323   5.660   5.981
 5686SOL    HW117957   5.281   5.570   5.978
 5686SOL    HW217958   5.263   5.724   6.029
 5687SOL     OW17959   2.120   6.805   6.130
 5687SOL    HW117960   2.158   6.781   6.219
 5687SOL    HW217961   2.129   6.727   6.068
 5688SOL     OW17962   1.888   1.993   3.235
 5688SOL    HW117963   1.958   2.007   3.305
 5688SOL    HW217964   1.805   1.957   3.277
 5689SOL     OW17965   0.283   2.380   1.342
 5689SOL    HW117966   0.313   2.299   1.293
 5689SOL    HW217967   0.339   2.393   1.424
 5690SOL     OW17968   3.408   5.464   0.223
 5690SOL    HW117969   3.336   5.423   0.166
 5690SOL    HW217970   3.492   5.470   0.170
 5691SOL     OW17971   4.636   2.670   3.972
 5691SOL    HW117972   4.577   2.592   3.955
 5691SOL    HW217973   4.682   2.659   4.060
 5692SOL     OW17974   6.127   4.614   1.731
 5692SOL    HW117975   6.057   4.653   1.790
 5692SOL    HW217976   6.144   4.675   1.654
 5693SOL     OW17977   3.790   0.307   2.143
 5693SOL    HW117978   3.796   0.390   2.087
 5693SOL    HW217979   3.879   0.263   2.148
 5694SOL     OW17980   0.469   0.229   1.580
 5694SOL    HW117981   0.516   0.244   1.493
 5694SOL    HW217982   0.392   0.166   1.566
 5695SOL     OW17983   2.210   1.288   2.290
 5695SOL    HW117984   2.303   1.255   2.309
 5695SOL    HW217985   2.214   1.381   2.255
 5696SOL     OW17986   0.578   7.015   4.045
 5696SOL    HW117987   0.524   6.967   3.977
 5696SOL    HW217988   0.654   6.957   4.075
 5697SOL     OW17989   6.455   2.144   0.086
 5697SOL    HW117990   6.381   2.199   0.048
 5697SOL    HW217991   6.477   2.069   0.024
 5698SOL     OW17992   3.472   2.023   4.370
 5698SOL    HW117993   3.376   2.025   4.399
 5698SOL    HW217994   3.529   2.065   4.441
 5699SOL     OW17995   2.134   3.176   2.664
 5699SOL    HW117996   2.113   3.179   2.566
 5699SOL    HW217997   2.089   3.098   2.706
 5700SOL     OW17998   6.146   0.183   2.739
 5700SOL    HW117999   6.245   0.168   2.734
 5700SOL    HW218000   6.120   0.256   2.675
 5701SOL     OW18001   1.143   0.646   0.649
 5701SOL    HW118002   1.070   0.677   0.588
 5701SOL    HW218003   1.228   0.694   0.628
 5702SOL     OW18004   1.891   6.694   4.928
 5702SOL    HW118005   1.908   6.691   4.829
 5702SOL    HW218006   1.937   6.774   4.967
 5703SOL     OW18007   0.641   2.768   5.999
 5703SOL    HW118008   0.547   2.768   5.966
 5703SOL    HW218009   0.674   2.862   6.006
 5704SOL     OW18010   3.976   5.311   4.385
 5704SOL    HW118011   4.003   5.256   4.464
 5704SOL    HW218012   3.935   5.397   4.417
 5705SOL     OW18013   5.679   0.429   5.394
 5705SOL    HW118014   5.708   0.450   5.487
 5705SOL    HW218015   5.702   0.505   5.333
 5706SOL     OW18016   5.073   2.026   1.370
 5706SOL    HW118017   4.981   2.026   1.408
 5706SOL    HW218018   5.125   2.102   1.409
 5707SOL     OW18019   6.302   5.551   0.904
 5707SOL    HW118020   6.280   5.463   0.948
 5707SOL    HW218021   6.270   5.550   0.809
 5708SOL     OW18022   5.452   6.154   1.922
 5708SOL    HW118023   5.431   6.070   1.872
 5708SOL    HW218024   5.433   6.140   2.019
 5709SOL     OW18025   0.001   2.790   2.524
 5709SOL    HW118026   7.008   2.831   2.435
 5709SOL    HW218027   0.099   2.772   2.532
 5710SOL     OW18028   4.854   1.522   0.728
 5710SOL    HW118029   4.829   1.467   0.808
 5710SOL    HW218030   4.891   1.610   0.758
 5711SOL     OW18031   4.576   1.897   2.306
 5711SOL    HW118032   4.478   1.907   2.323
 5711SOL    HW218033   4.610   1.976   2.254
 5712SOL     OW18034   6.107   6.013   6.985
 5712SOL    HW118035   6.172   6.085   7.010
 5712SOL    HW218036   6.098   5.947   0.034
 5713SOL     OW18037   1.541   1.143   0.726
 5713SOL    HW118038   1.483   1.139   0.808
 5713SOL    HW218039   1.485   1.131   0.645
 5714SOL     OW18040   5.916   0.073   0.867
 5714SOL    HW118041   5.862   0.151   0.836
 5714SOL    HW218042   5.903   7.023   0.803
 5715SOL     OW18043   0.015   6.485   1.184
 5715SOL    HW118044   0.009   6.568   1.240
 5715SOL    HW218045   0.003   6.509   1.087
 5716SOL     OW18046   0.496   4.734   5.423
 5716SOL    HW118047   0.478   4.806   5.356
 5716SOL    HW218048   0.485   4.771   5.516
 5717SOL     OW18049   0.678   5.431   3.459
 5717SOL    HW118050   0.713   5.474   3.542
 5717SOL    HW218051   0.587   5.393   3.478
 5718SOL     OW18052   0.807   4.155   6.906
 5718SOL    HW118053   0.823   4.067   6.862
 5718SOL    HW218054   0.750   4.212   6.848
 5719SOL     OW18055   2.776   3.606   0.095
 5719SOL    HW118056   2.770   3.650   0.184
 5719SOL    HW218057   2.867   3.565   0.084
 5720SOL     OW18058   3.222   5.055   6.529
 5720SOL    HW118059   3.315   5.087   6.549
 5720SOL    HW218060   3.159   5.132   6.532
 5721SOL     OW18061   1.279   2.938   0.142
 5721SOL    HW118062   1.212   2.985   0.084
 5721SOL    HW218063   1.250   2.844   0.156
 5722SOL     OW18064   1.823   0.459   6.060
 5722SOL    HW118065   1.908   0.512   6.069
 5722SOL    HW218066   1.777   0.486   5.975
 5723SOL     OW18067   4.146   3.125   0.339
 5723SOL    HW118068   4.126   3.134   0.242
 5723SOL    HW218069   4.105   3.201   0.389
 5724SOL     OW18070   5.745   2.217   5.786
 5724SOL    HW118071   5.652   2.230   5.820
 5724SOL    HW218072   5.780   2.129   5.818
 5725SOL     OW18073   0.173   4.599   4.949
 5725SOL    HW118074   0.075   4.619   4.945
 5725SOL    HW218075   0.207   4.581   4.857
 5726SOL     OW18076   4.891   4.099   1.932
 5726SOL    HW118077   4.966   4.033   1.921
 5726SOL    HW218078   4.901   4.172   1.865
 5727SOL     OW18079   1.154   2.948   5.172
 5727SOL    HW118080   1.212   2.993   5.105
 5727SOL    HW218081   1.097   2.879   5.126
 5728SOL     OW18082   3.043   6.902   5.120
 5728SOL    HW118083   3.075   6.913   5.026
 5728SOL    HW218084   2.995   6.815   5.130
 5729SOL     OW18085   2.513   1.930   4.780
 5729SOL    HW118086   2.479   1.961   4.868
 5729SOL    HW218087   2.525   2.008   4.719
 5730SOL     OW18088   6.377   4.484   4.989
 5730SOL    HW118089   6.317   4.559   5.017
 5730SOL    HW218090   6.446   4.468   5.059
 5731SOL     OW18091   0.622   6.423   2.586
 5731SOL    HW118092   0.681   6.487   2.537
 5731SOL    HW218093   0.588   6.466   2.670
 5732SOL     OW18094   5.980   0.338   3.651
 5732SOL    HW118095   5.921   0.313   3.728
 5732SOL    HW218096   5.976   0.437   3.637
 5733SOL     OW18097   2.603   1.078   5.172
 5733SOL    HW118098   2.638   0.996   5.127
 5733SOL    HW218099   2.593   1.151   5.104
 5734SOL     OW18100   1.763   6.471   3.575
 5734SOL    HW118101   1.806   6.450   3.663
 5734SOL    HW218102   1.770   6.391   3.515
 5735SOL     OW18103   3.130   0.672   1.461
 5735SOL    HW118104   3.113   0.631   1.550
 5735SOL    HW218105   3.139   0.771   1.470
 5736SOL     OW18106   1.759   4.911   0.536
 5736SOL    HW118107   1.852   4.881   0.516
 5736SOL    HW218108   1.761   4.972   0.616
 5737SOL     OW18109   5.748   3.983   7.005
 5737SOL    HW118110   5.737   3.918   6.930
 5737SOL    HW218111   5.846   3.994   7.025
 5738SOL     OW18112   0.441   5.020   4.695
 5738SOL    HW118113   0.484   4.953   4.635
 5738SOL    HW218114   0.470   5.112   4.669
 5739SOL     OW18115   0.778   3.040   0.727
 5739SOL    HW118116   0.695   3.037   0.784
 5739SOL    HW218117   0.832   2.957   0.743
 5740SOL     OW18118   4.167   4.825   6.771
 5740SOL    HW118119   4.193   4.916   6.804
 5740SOL    HW218120   4.075   4.830   6.731
 5741SOL     OW18121   0.261   3.107   1.809
 5741SOL    HW118122   0.181   3.087   1.752
 5741SOL    HW218123   0.316   3.024   1.821
 5742SOL     OW18124   0.314   5.556   3.874
 5742SOL    HW118125   0.285   5.537   3.968
 5742SOL    HW218126   0.406   5.521   3.860
 5743SOL     OW18127   1.426   6.398   5.724
 5743SOL    HW118128   1.365   6.369   5.798
 5743SOL    HW218129   1.373   6.418   5.642
 5744SOL     OW18130   6.355   0.185   1.630
 5744SOL    HW118131   6.311   0.231   1.707
 5744SOL    HW218132   6.297   0.193   1.548
 5745SOL     OW18133   0.611   3.499   3.125
 5745SOL    HW118134   0.587   3.478   3.220
 5745SOL    HW218135   0.529   3.492   3.068
 5746SOL     OW18136   6.279   4.196   6.564
 5746SOL    HW118137   6.378   4.187   6.562
 5746SOL    HW218138   6.247   4.226   6.474
 5747SOL     OW18139   0.845   5.752   3.634
 5747SOL    HW118140   0.869   5.686   3.705
 5747SOL    HW218141   0.929   5.788   3.593
 5748SOL     OW18142   1.895   0.102   3.858
 5748SOL    HW118143   1.980   0.127   3.811
 5748SOL    HW218144   1.881   0.165   3.935
 5749SOL     OW18145   0.988   1.145   2.860
 5749SOL    HW118146   0.952   1.051   2.866
 5749SOL    HW218147   0.917   1.209   2.890
 5750SOL     OW18148   6.010   6.423   2.530
 5750SOL    HW118149   6.054   6.454   2.614
 5750SOL    HW218150   6.079   6.405   2.460
 5751SOL     OW18151   0.740   2.669   5.728
 5751SOL    HW118152   0.685   2.711   5.800
 5751SOL    HW218153   0.825   2.719   5.716
 5752SOL     OW18154   1.533   1.575   6.522
 5752SOL    HW118155   1.561   1.483   6.550
 5752SOL    HW218156   1.447   1.599   6.568
 5753SOL     OW18157   4.695   1.762   0.507
 5753SOL    HW118158   4.609   1.800   0.474
 5753SOL    HW218159   4.678   1.677   0.555
 5754SOL     OW18160   5.954   6.087   0.508
 5754SOL    HW118161   6.017   6.157   0.541
 5754SOL    HW218162   5.982   5.998   0.543
 5755SOL     OW18163   3.337   3.688   1.480
 5755SOL    HW118164   3.422   3.676   1.532
 5755SOL    HW218165   3.273   3.615   1.502
 5756SOL     OW18166   6.860   6.556   4.123
 5756SOL    HW118167   6.943   6.512   4.087
 5756SOL    HW218168   6.784   6.538   4.062
 5757SOL     OW18169   6.475   6.386   2.227
 5757SOL    HW118170   6.394   6.427   2.270
 5757SOL    HW218171   6.467   6.287   2.229
 5758SOL     OW18172   2.797   1.645   5.835
 5758SOL    HW118173   2.788   1.594   5.750
 5758SOL    HW218174   2.858   1.596   5.897
 5759SOL     OW18175   0.833   1.385   6.019
 5759SOL    HW118176   0.815   1.394   5.921
 5759SOL    HW218177   0.777   1.311   6.056
 5760SOL     OW18178   6.625   5.761   1.221
 5760SOL    HW118179   6.664   5.702   1.151
 5760SOL    HW218180   6.691   5.832   1.245
 5761SOL     OW18181   4.546   0.503   4.476
 5761SOL    HW118182   4.502   0.570   4.536
 5761SOL    HW218183   4.485   0.426   4.461
 5762SOL     OW18184   5.858   6.268   1.434
 5762SOL    HW118185   5.953   6.299   1.443
 5762SOL    HW218186   5.814   6.318   1.360
 5763SOL     OW18187   2.868   0.652   0.900
 5763SOL    HW118188   2.888   0.674   0.805
 5763SOL    HW218189   2.783   0.696   0.928
 5764SOL     OW18190   3.963   3.258   6.031
 5764SOL    HW118191   3.956   3.198   6.110
 5764SOL    HW218192   3.930   3.349   6.055
 5765SOL     OW18193   6.474   5.594   6.731
 5765SOL    HW118194   6.483   5.575   6.633
 5765SOL    HW218195   6.393   5.651   6.747
 5766SOL     OW18196   2.719   1.505   3.610
 5766SOL    HW118197   2.649   1.464   3.551
 5766SOL    HW218198   2.694   1.492   3.706
 5767SOL     OW18199   5.258   6.806   0.113
 5767SOL    HW118200   5.202   6.737   0.067
 5767SOL    HW218201   5.330   6.837   0.051
 5768SOL     OW18202   6.629   6.997   2.099
 5768SOL    HW118203   6.668   0.062   2.113
 5768SOL    HW218204   6.704   6.930   2.094
 5769SOL     OW18205   1.219   4.357   3.103
 5769SOL    HW118206   1.228   4.433   3.168
 5769SOL    HW218207   1.181   4.277   3.150
 5770SOL     OW18208   5.481   1.758   1.845
 5770SOL    HW118209   5.535   1.813   1.781
 5770SOL    HW218210   5.486   1.797   1.936
 5771SOL     OW18211   1.222   0.800   1.472
 5771SOL    HW118212   1.253   0.851   1.391
 5771SOL    HW218213   1.256   0.846   1.554
 5772SOL     OW18214   6.577   5.313   5.584
 5772SOL    HW118215   6.623   5.360   5.660
 5772SOL    HW218216   6.478   5.311   5.601
 5773SOL     OW18217   5.427   5.302   4.528
 5773SOL    HW118218   5.418   5.317   4.627
 5773SOL    HW218219   5.335   5.292   4.488
 5774SOL     OW18220   2.135   5.403   2.281
 5774SOL    HW118221   2.074   5.464   2.229
 5774SOL    HW218222   2.170   5.452   2.361
 5775SOL     OW18223   0.965   0.760   0.474
 5775SOL    HW118224   0.908   0.719   0.403
 5775SOL    HW218225   0.911   0.825   0.528
 5776SOL     OW18226   4.958   1.045   5.718
 5776SOL    HW118227   4.914   1.064   5.805
 5776SOL    HW218228   4.980   0.948   5.712
 5777SOL     OW18229   6.000   6.502   4.875
 5777SOL    HW118230   5.902   6.521   4.881
 5777SOL    HW218231   6.045   6.527   4.960
 5778SOL     OW18232   2.781   0.027   3.830
 5778SOL    HW118233   2.726   0.028   3.914
 5778SOL    HW218234   2.877   0.015   3.853
 5779SOL     OW18235   4.017   0.294   1.648
 5779SOL    HW118236   4.015   0.266   1.552
 5779SOL    HW218237   4.054   0.387   1.656
 5780SOL     OW18238   6.226   3.957   0.601
 5780SOL    HW118239   6.286   3.877   0.601
 5780SOL    HW218240   6.270   4.032   0.650
 5781SOL     OW18241   3.566   4.349   5.183
 5781SOL    HW118242   3.564   4.321   5.280
 5781SOL    HW218243   3.582   4.447   5.177
 5782SOL     OW18244   4.234   1.580   2.808
 5782SOL    HW118245   4.196   1.606   2.897
 5782SOL    HW218246   4.181   1.624   2.735
 5783SOL     OW18247   3.135   5.909   2.523
 5783SOL    HW118248   3.208   5.881   2.461
 5783SOL    HW218249   3.047   5.877   2.488
 5784SOL     OW18250   1.494   6.308   0.539
 5784SOL    HW118251   1.471   6.258   0.455
 5784SOL    HW218252   1.574   6.365   0.523
 5785SOL     OW18253   2.431   2.642   6.307
 5785SOL    HW118254   2.369   2.681   6.240
 5785SOL    HW218255   2.386   2.638   6.396
 5786SOL     OW18256   1.151   1.980   6.251
 5786SOL    HW118257   1.095   1.925   6.190
 5786SOL    HW218258   1.221   1.922   6.293
 5787SOL     OW18259   0.807   2.523   4.690
 5787SOL    HW118260   0.838   2.452   4.626
 5787SOL    HW218261   0.813   2.488   4.784
 5788SOL     OW18262   0.525   1.926   1.838
 5788SOL    HW118263   0.623   1.929   1.858
 5788SOL    HW218264   0.477   1.880   1.913
 5789SOL     OW18265   2.506   6.976   0.195
 5789SOL    HW118266   2.598   6.947   0.170
 5789SOL    HW218267   2.454   6.898   0.228
 5790SOL     OW18268   6.922   6.567   2.659
 5790SOL    HW118269   6.946   6.487   2.604
 5790SOL    HW218270   7.005   6.606   2.699
 5791SOL     OW18271   4.375   0.712   1.384
 5791SOL    HW118272   4.379   0.726   1.483
 5791SOL    HW218273   4.308   0.641   1.363
 5792SOL     OW18274   4.799   2.770   2.622
 5792SOL    HW118275   4.760   2.683   2.651
 5792SOL    HW218276   4.781   2.840   2.692
 5793SOL     OW18277   4.123   1.843   0.429
 5793SOL    HW118278   4.032   1.884   0.425
 5793SOL    HW218279   4.153   1.838   0.525
 5794SOL     OW18280   3.034   6.399   7.020
 5794SOL    HW118281   3.115   6.409   0.052
 5794SOL    HW218282   3.029   6.305   6.985
 5795SOL     OW18283   1.215   0.682   0.986
 5795SOL    HW118284   1.210   0.776   0.951
 5795SOL    HW218285   1.183   0.619   0.916
 5796SOL     OW18286   4.765   0.419   5.730
 5796SOL    HW118287   4.711   0.336   5.722
 5796SOL    HW218288   4.844   0.402   5.790
 5797SOL     OW18289   6.327   1.758   0.385
 5797SOL    HW118290   6.358   1.680   0.438
 5797SOL    HW218291   6.227   1.757   0.379
 5798SOL     OW18292   2.058   2.406   4.560
 5798SOL    HW118293   2.058   2.335   4.490
 5798SOL    HW218294   2.048   2.496   4.517
 5799SOL     OW18295   2.887   0.256   3.697
 5799SOL    HW118296   2.961   0.190   3.683
 5799SOL    HW218297   2.814   0.214   3.751
 5800SOL     OW18298   1.363   6.075   1.693
 5800SOL    HW118299   1.417   6.078   1.777
 5800SOL    HW218300   1.371   6.163   1.645
 5801SOL     OW18301   1.496   1.997   2.990
 5801SOL    HW118302   1.472   1.926   3.057
 5801SOL    HW218303   1.525   2.080   3.038
 5802SOL     OW18304   6.975   6.906   2.897
 5802SOL    HW118305   6.891   6.900   2.843
 5802SOL    HW218306   6.970   6.841   2.973
 5803SOL     OW18307   0.697   0.015   4.448
 5803SOL    HW118308   0.783   6.990   4.443
 5803SOL    HW218309   0.620   6.978   4.443
 5804SOL     OW18310   6.193   1.967   3.766
 5804SOL    HW118311   6.116   1.983   3.704
 5804SOL    HW218312   6.207   1.868   3.776
 5805SOL     OW18313   1.155   2.789   1.494
 5805SOL    HW118314   1.230   2.724   1.501
 5805SOL    HW218315   1.186   2.871   1.445
 5806SOL     OW18316   6.535   4.293   1.845
 5806SOL    HW118317   6.437   4.303   1.860
 5806SOL    HW218318   6.557   4.197   1.830
 5807SOL     OW18319   1.160   1.176   2.055
 5807SOL    HW118320   1.253   1.191   2.086
 5807SOL    HW218321   1.099   1.165   2.133
 5808SOL     OW18322   6.530   6.746   5.997
 5808SOL    HW118323   6.613   6.790   6.030
 5808SOL    HW218324   6.451   6.806   6.015
 5809SOL     OW18325   0.105   3.707   4.564
 5809SOL    HW118326   0.151   3.618   4.569
 5809SOL    HW218327   0.009   3.693   4.538
 5810SOL     OW18328   1.283   6.563   5.546
 5810SOL    HW118329   1.218   6.543   5.620
 5810SOL    HW218330   1.267   6.655   5.512
 5811SOL     OW18331   3.251   5.086   0.181
 5811SOL    HW118332   3.346   5.091   0.211
 5811SOL    HW218333   3.245   5.121   0.087
 5812SOL     OW18334   6.614   3.099   6.164
 5812SOL    HW118335   6.641   3.106   6.068
 5812SOL    HW218336   6.538   3.035   6.173
 5813SOL     OW18337   6.255   5.064   1.083
 5813SOL    HW118338   6.204   5.150   1.072
 5813SOL    HW218339   6.241   5.007   1.002
 5814SOL     OW18340   4.941   1.762   2.750
 5814SOL    HW118341   4.897   1.681   2.711
 5814SOL    HW218342   4.880   1.803   2.818
 5815SOL     OW18343   6.322   3.308   4.939
 5815SOL    HW118344   6.273   3.242   4.996
 5815SOL    HW218345   6.302   3.290   4.843
 5816SOL     OW18346   6.787   4.636   0.657
 5816SOL    HW118347   6.882   4.603   0.660
 5816SOL    HW218348   6.727   4.561   0.630
 5817SOL     OW18349   6.472   2.751   4.042
 5817SOL    HW118350   6.408   2.808   3.991
 5817SOL    HW218351   6.430   2.663   4.062
 5818SOL     OW18352   2.571   6.825   4.087
 5818SOL    HW118353   2.577   6.730   4.116
 5818SOL    HW218354   2.517   6.877   4.154
 5819SOL     OW18355   4.326   4.598   1.406
 5819SOL    HW118356   4.229   4.573   1.399
 5819SOL    HW218357   4.353   4.646   1.322
 5820SOL     OW18358   0.899   6.663   2.554
 5820SOL    HW118359   0.870   6.758   2.561
 5820SOL    HW218360   0.872   6.626   2.466
 5821SOL     OW18361   6.114   6.531   2.744
 5821SOL    HW118362   6.200   6.499   2.782
 5821SOL    HW218363   6.119   6.629   2.727
 5822SOL     OW18364   0.781   4.108   2.904
 5822SOL    HW118365   0.856   4.172   2.889
 5822SOL    HW218366   0.816   4.014   2.895
 5823SOL     OW18367   2.628   6.455   4.911
 5823SOL    HW118368   2.598   6.551   4.911
 5823SOL    HW218369   2.683   6.438   4.993
 5824SOL     OW18370   2.536   5.491   2.858
 5824SOL    HW118371   2.437   5.501   2.869
 5824SOL    HW218372   2.556   5.405   2.810
 5825SOL     OW18373   3.876   2.107   4.563
 5825SOL    HW118374   3.779   2.104   4.586
 5825SOL    HW218375   3.930   2.110   4.648
 5826SOL     OW18376   1.193   6.387   5.008
 5826SOL    HW118377   1.231   6.447   4.938
 5826SOL    HW218378   1.189   6.435   5.095
 5827SOL     OW18379   2.213   4.019   3.675
 5827SOL    HW118380   2.256   4.067   3.752
 5827SOL    HW218381   2.218   3.920   3.690
 5828SOL     OW18382   4.448   6.915   4.757
 5828SOL    HW118383   4.419   6.994   4.703
 5828SOL    HW218384   4.434   6.934   4.854
 5829SOL     OW18385   2.364   1.450   3.173
 5829SOL    HW118386   2.339   1.531   3.120
 5829SOL    HW218387   2.332   1.461   3.267
 5830SOL     OW18388   4.752   4.719   4.572
 5830SOL    HW118389   4.703   4.631   4.575
 5830SOL    HW218390   4.818   4.723   4.646
 5831SOL     OW18391   2.226   1.567   4.725
 5831SOL    HW118392   2.126   1.556   4.729
 5831SOL    HW218393   2.270   1.479   4.735
 5832SOL     OW18394   2.204   4.794   3.905
 5832SOL    HW118395   2.256   4.746   3.976
 5832SOL    HW218396   2.258   4.871   3.871
 5833SOL     OW18397   2.689   4.574   1.439
 5833SOL    HW118398   2.772   4.598   1.389
 5833SOL    HW218399   2.706   4.496   1.499
 5834SOL     OW18400   5.821   1.933   5.886
 5834SOL    HW118401   5.784   1.842   5.903
 5834SOL    HW218402   5.902   1.948   5.943
 5835SOL     OW18403   4.052   1.129   3.822
 5835SOL    HW118404   4.142   1.120   3.779
 5835SOL    HW218405   4.001   1.202   3.776
 5836SOL     OW18406   4.978   4.903   1.110
 5836SOL    HW118407   5.045   4.886   1.038
 5836SOL    HW218408   4.892   4.933   1.069
 5837SOL     OW18409   2.394   4.961   0.321
 5837SOL    HW118410   2.297   4.984   0.332
 5837SOL    HW218411   2.445   4.989   0.402
 5838SOL     OW18412   3.130   3.829   0.333
 5838SOL    HW118413   3.062   3.873   0.275
 5838SOL    HW218414   3.162   3.745   0.289
 5839SOL     OW18415   2.718   1.334   1.354
 5839SOL    HW118416   2.694   1.268   1.283
 5839SOL    HW218417   2.807   1.374   1.334
 5840SOL     OW18418   6.681   3.660   2.864
 5840SOL    HW118419   6.659   3.663   2.962
 5840SOL    HW218420   6.634   3.583   2.822
 5841SOL     OW18421   5.225   2.366   0.669
 5841SOL    HW118422   5.159   2.432   0.703
 5841SOL    HW218423   5.194   2.328   0.582
 5842SOL     OW18424   4.054   2.128   2.322
 5842SOL    HW118425   3.964   2.096   2.292
 5842SOL    HW218426   4.096   2.182   2.249
 5843SOL     OW18427   2.867   2.583   0.773
 5843SOL    HW118428   2.929   2.504   0.767
 5843SOL    HW218429   2.921   2.667   0.781
 5844SOL     OW18430   0.004   5.407   5.428
 5844SOL    HW118431   0.029   5.310   5.426
 5844SOL    HW218432   0.083   5.462   5.453
 5845SOL     OW18433   1.772   6.218   2.699
 5845SOL    HW118434   1.744   6.268   2.781
 5845SOL    HW218435   1.692   6.169   2.662
 5846SOL     OW18436   1.051   4.627   5.141
 5846SOL    HW118437   1.130   4.670   5.098
 5846SOL    HW218438   1.069   4.614   5.238
 5847SOL     OW18439   2.034   4.080   6.274
 5847SOL    HW118440   1.982   4.012   6.223
 5847SOL    HW218441   2.028   4.168   6.228
 5848SOL     OW18442   3.131   6.524   1.977
 5848SOL    HW118443   3.131   6.453   1.907
 5848SOL    HW218444   3.063   6.594   1.954
 5849SOL     OW18445   3.370   5.724   6.929
 5849SOL    HW118446   3.401   5.754   6.838
 5849SOL    HW218447   3.381   5.625   6.936
 5850SOL     OW18448   5.433   2.014   1.756
 5850SOL    HW118449   5.344   1.969   1.767
 5850SOL    HW218450   5.476   2.025   1.846
 5851SOL     OW18451   1.102   3.142   5.563
 5851SOL    HW118452   1.179   3.202   5.543
 5851SOL    HW218453   1.120   3.051   5.526
 5852SOL     OW18454   4.528   4.768   2.654
 5852SOL    HW118455   4.605   4.832   2.660
 5852SOL    HW218456   4.442   4.818   2.664
 5853SOL     OW18457   4.033   4.940   0.364
 5853SOL    HW118458   3.947   4.904   0.400
 5853SOL    HW218459   4.056   4.892   0.279
 5854SOL     OW18460   2.659   4.460   5.283
 5854SOL    HW118461   2.604   4.527   5.234
 5854SOL    HW218462   2.753   4.461   5.247
 5855SOL     OW18463   1.648   1.819   4.868
 5855SOL    HW118464   1.686   1.905   4.834
 5855SOL    HW218465   1.722   1.762   4.904
 5856SOL     OW18466   0.321   0.638   2.515
 5856SOL    HW118467   0.398   0.635   2.452
 5856SOL    HW218468   0.351   0.678   2.602
 5857SOL     OW18469   6.169   5.467   6.766
 5857SOL    HW118470   6.240   5.425   6.709
 5857SOL    HW218471   6.189   5.448   6.862
 5858SOL     OW18472   3.037   1.696   2.276
 5858SOL    HW118473   3.051   1.616   2.218
 5858SOL    HW218474   3.124   1.744   2.288
 5859SOL     OW18475   5.805   5.110   1.505
 5859SOL    HW118476   5.846   5.021   1.525
 5859SOL    HW218477   5.762   5.108   1.415
 5860SOL     OW18478   1.564   3.531   2.189
 5860SOL    HW118479   1.649   3.515   2.239
 5860SOL    HW218480   1.541   3.450   2.136
 5861SOL     OW18481   5.544   0.029   4.901
 5861SOL    HW118482   5.552   0.125   4.874
 5861SOL    HW218483   5.470   0.019   4.967
 5862SOL     OW18484   6.929   4.696   2.122
 5862SOL    HW118485   6.863   4.743   2.180
 5862SOL    HW218486   6.886   4.673   2.034
 5863SOL     OW18487   4.113   0.047   5.805
 5863SOL    HW118488   4.138   6.978   5.822
 5863SOL    HW218489   4.096   0.093   5.892
 5864SOL     OW18490   3.836   3.064   3.469
 5864SOL    HW118491   3.838   3.163   3.460
 5864SOL    HW218492   3.862   3.022   3.382
 5865SOL     OW18493   6.345   6.767   1.774
 5865SOL    HW118494   6.262   6.799   1.817
 5865SOL    HW218495   6.323   6.722   1.687
 5866SOL     OW18496   3.380   3.608   3.905
 5866SOL    HW118497   3.360   3.510   3.901
 5866SOL    HW218498   3.395   3.643   3.813
 5867SOL     OW18499   4.896   1.384   0.978
 5867SOL    HW118500   4.799   1.361   0.982
 5867SOL    HW218501   4.948   1.318   1.033
 5868SOL     OW18502   1.183   0.971   0.944
 5868SOL    HW118503   1.103   0.956   0.886
 5868SOL    HW218504   1.153   0.997   1.036
 5869SOL     OW18505   2.074   5.193   3.342
 5869SOL    HW118506   2.066   5.282   3.298
 5869SOL    HW218507   2.119   5.128   3.281
 5870SOL     OW18508   4.467   6.802   4.089
 5870SOL    HW118509   4.534   6.733   4.117
 5870SOL    HW218510   4.383   6.758   4.060
 5871SOL     OW18511   4.049   3.452   3.452
 5871SOL    HW118512   4.020   3.395   3.528
 5871SOL    HW218513   4.007   3.419   3.367
 5872SOL     OW18514   3.211   5.692   1.271
 5872SOL    HW118515   3.201   5.592   1.270
 5872SOL    HW218516   3.243   5.724   1.182
 5873SOL     OW18517   4.215   6.841   2.016
 5873SOL    HW118518   4.266   6.925   1.995
 5873SOL    HW218519   4.276   6.777   2.063
 5874SOL     OW18520   6.856   4.145   4.616
 5874SOL    HW118521   6.894   4.237   4.623
 5874SOL    HW218522   6.877   4.094   4.700
 5875SOL     OW18523   3.821   2.401   1.060
 5875SOL    HW118524   3.805   2.473   1.127
 5875SOL    HW218525   3.896   2.427   1.000
 5876SOL     OW18526   3.251   3.005   2.538
 5876SOL    HW118527   3.295   2.994   2.449
 5876SOL    HW218528   3.244   3.102   2.560
 5877SOL     OW18529   4.918   4.050   1.611
 5877SOL    HW118530   4.891   4.134   1.659
 5877SOL    HW218531   4.860   3.974   1.642
 5878SOL     OW18532   0.804   3.844   1.853
 5878SOL    HW118533   0.813   3.863   1.951
 5878SOL    HW218534   0.713   3.806   1.835
 5879SOL     OW18535   2.085   4.477   4.854
 5879SOL    HW118536   2.095   4.574   4.878
 5879SOL    HW218537   1.988   4.454   4.849
 5880SOL     OW18538   2.673   5.168   6.702
 5880SOL    HW118539   2.631   5.127   6.622
 5880SOL    HW218540   2.682   5.267   6.688
 5881SOL     OW18541   1.788   6.068   4.124
 5881SOL    HW118542   1.711   6.008   4.103
 5881SOL    HW218543   1.754   6.158   4.152
 5882SOL     OW18544   4.510   0.776   3.113
 5882SOL    HW118545   4.575   0.844   3.080
 5882SOL    HW218546   4.520   0.692   3.060
 5883SOL     OW18547   1.247   3.131   4.919
 5883SOL    HW118548   1.219   3.191   4.843
 5883SOL    HW218549   1.297   3.052   4.883
 5884SOL     OW18550   0.175   0.894   3.256
 5884SOL    HW118551   0.243   0.957   3.295
 5884SOL    HW218552   0.087   0.940   3.252
 5885SOL     OW18553   5.453   6.712   0.305
 5885SOL    HW118554   5.389   6.678   0.374
 5885SOL    HW218555   5.403   6.732   0.220
 5886SOL     OW18556   6.048   1.389   6.507
 5886SOL    HW118557   6.007   1.481   6.505
 5886SOL    HW218558   6.075   1.367   6.600
 5887SOL     OW18559   3.584   6.538   2.766
 5887SOL    HW118560   3.599   6.489   2.681
 5887SOL    HW218561   3.601   6.636   2.753
 5888SOL     OW18562   6.757   6.424   2.164
 5888SOL    HW118563   6.831   6.358   2.178
 5888SOL    HW218564   6.672   6.386   2.202
 5889SOL     OW18565   2.770   0.319   7.023
 5889SOL    HW118566   2.847   0.379   0.021
 5889SOL    HW218567   2.685   0.368   0.014
 5890SOL     OW18568   3.947   5.545   5.805
 5890SOL    HW118569   3.979   5.456   5.837
 5890SOL    HW218570   3.943   5.609   5.882
 5891SOL     OW18571   1.478   3.505   6.208
 5891SOL    HW118572   1.549   3.476   6.273
 5891SOL    HW218573   1.406   3.436   6.204
 5892SOL     OW18574   2.254   5.769   2.367
 5892SOL    HW118575   2.168   5.811   2.339
 5892SOL    HW218576   2.236   5.677   2.403
 5893SOL     OW18577   1.189   2.611   2.621
 5893SOL    HW118578   1.185   2.570   2.712
 5893SOL    HW218579   1.221   2.705   2.628
 5894SOL     OW18580   1.401   3.527   3.975
 5894SOL    HW118581   1.483   3.578   4.002
 5894SOL    HW218582   1.374   3.555   3.882
 5895SOL     OW18583   5.643   4.328   2.898
 5895SOL    HW118584   5.563   4.367   2.853
 5895SOL    HW218585   5.668   4.243   2.852
 5896SOL     OW18586   4.936   2.256   5.611
 5896SOL    HW118587   5.024   2.298   5.590
 5896SOL    HW218588   4.862   2.315   5.579
 5897SOL     OW18589   3.985   4.377   1.041
 5897SOL    HW118590   4.040   4.442   0.989
 5897SOL    HW218591   4.043   4.300   1.068
 5898SOL     OW18592   2.212   6.384   3.120
 5898SOL    HW118593   2.112   6.390   3.120
 5898SOL    HW218594   2.245   6.377   3.214
 5899SOL     OW18595   5.334   0.676   3.610
 5899SOL    HW118596   5.317   0.580   3.632
 5899SOL    HW218597   5.302   0.734   3.685
 5900SOL     OW18598   3.782   4.874   1.787
 5900SOL    HW118599   3.720   4.827   1.850
 5900SOL    HW218600   3.786   4.971   1.808
 5901SOL     OW18601   3.038   5.993   4.079
 5901SOL    HW118602   3.042   5.897   4.052
 5901SOL    HW218603   3.068   6.051   4.003
 5902SOL     OW18604   6.114   2.559   0.595
 5902SOL    HW118605   6.061   2.519   0.520
 5902SOL    HW218606   6.099   2.658   0.596
 5903SOL     OW18607   0.447   2.027   6.166
 5903SOL    HW118608   0.354   2.056   6.186
 5903SOL    HW218609   0.501   2.106   6.135
 5904SOL     OW18610   1.634   3.222   2.177
 5904SOL    HW118611   1.600   3.254   2.088
 5904SOL    HW218612   1.604   3.128   2.192
 5905SOL     OW18613   0.103   3.928   2.335
 5905SOL    HW118614   0.089   3.830   2.330
 5905SOL    HW218615   0.200   3.948   2.348
 5906SOL     OW18616   6.884   0.992   3.064
 5906SOL    HW118617   6.858   0.900   3.092
 5906SOL    HW218618   6.870   1.056   3.139
 5907SOL     OW18619   2.280   1.033   3.201
 5907SOL    HW118620   2.280   0.938   3.233
 5907SOL    HW218621   2.359   1.080   3.239
 5908SOL     OW18622   0.438   2.732   5.320
 5908SOL    HW118623   0.487   2.673   5.257
 5908SOL    HW218624   0.493   2.748   5.402
 5909SOL     OW18625   6.320   4.680   6.655
 5909SOL    HW118626   6.328   4.701   6.557
 5909SOL    HW218627   6.288   4.761   6.704
 5910SOL     OW18628   1.291   1.232   3.453
 5910SOL    HW118629   1.349   1.248   3.372
 5910SOL    HW218630   1.238   1.315   3.473
 5911SOL     OW18631   6.680   6.130   0.000
 5911SOL    HW118632   6.666   6.181   6.941
 5911SOL    HW218633   6.627   6.045   7.023
 5912SOL     OW18634   0.753   0.836   3.256
 5912SOL    HW118635   0.805   0.751   3.257
 5912SOL    HW218636   0.717   0.852   3.164
 5913SOL     OW18637   6.550   2.913   1.286
 5913SOL    HW118638   6.630   2.859   1.259
 5913SOL    HW218639   6.506   2.951   1.204
 5914SOL     OW18640   1.078   0.176   0.806
 5914SOL    HW118641   0.989   0.160   0.762
 5914SOL    HW218642   1.148   0.122   0.761
 5915SOL     OW18643   3.835   0.274   5.167
 5915SOL    HW118644   3.830   0.175   5.176
 5915SOL    HW218645   3.747   0.315   5.191
 5916SOL     OW18646   1.430   0.564   2.369
 5916SOL    HW118647   1.386   0.482   2.405
 5916SOL    HW218648   1.401   0.578   2.274
 5917SOL     OW18649   3.094   3.094   0.575
 5917SOL    HW118650   3.129   3.002   0.553
 5917SOL    HW218651   3.001   3.087   0.611
 5918SOL     OW18652   3.418   6.803   4.344
 5918SOL    HW118653   3.348   6.863   4.384
 5918SOL    HW218654   3.492   6.859   4.308
 5919SOL     OW18655   3.024   3.875   4.877
 5919SOL    HW118656   3.121   3.853   4.866
 5919SOL    HW218657   2.980   3.877   4.787
 5920SOL     OW18658   0.841   0.831   5.735
 5920SOL    HW118659   0.884   0.829   5.645
 5920SOL    HW218660   0.851   0.741   5.779
 5921SOL     OW18661   2.810   5.179   0.370
 5921SOL    HW118662   2.772   5.222   0.288
 5921SOL    HW218663   2.901   5.216   0.388
 5922SOL     OW18664   5.158   2.417   2.393
 5922SOL    HW118665   5.174   2.323   2.422
 5922SOL    HW218666   5.101   2.463   2.461
 5923SOL     OW18667   5.840   0.837   3.068
 5923SOL    HW118668   5.870   0.752   3.111
 5923SOL    HW218669   5.913   0.874   3.011
 5924SOL     OW18670   6.734   6.416   3.661
 5924SOL    HW118671   6.760   6.417   3.564
 5924SOL    HW218672   6.636   6.435   3.669
 5925SOL     OW18673   4.905   1.134   0.758
 5925SOL    HW118674   4.992   1.183   0.759
 5925SOL    HW218675   4.849   1.169   0.682
 5926SOL     OW18676   5.322   3.202   3.123
 5926SOL    HW118677   5.421   3.213   3.133
 5926SOL    HW218678   5.293   3.241   3.036
 5927SOL     OW18679   0.648   6.376   1.377
 5927SOL    HW118680   0.649   6.471   1.345
 5927SOL    HW218681   0.625   6.315   1.302
 5928SOL     OW18682   3.123   0.409   0.118
 5928SOL    HW118683   3.151   0.327   0.168
 5928SOL    HW218684   3.059   0.462   0.175
 5929SOL     OW18685   1.110   0.532   1.518
 5929SOL    HW118686   1.168   0.612   1.531
 5929SOL    HW218687   1.105   0.510   1.421
 5930SOL     OW18688   0.829   4.224   1.465
 5930SOL    HW118689   0.913   4.267   1.430
 5930SOL    HW218690   0.755   4.291   1.464
 5931SOL     OW18691   4.293   5.775   3.859
 5931SOL    HW118692   4.222   5.768   3.929
 5931SOL    HW218693   4.318   5.870   3.846
 5932SOL     OW18694   4.008   6.272   0.236
 5932SOL    HW118695   3.928   6.222   0.270
 5932SOL    HW218696   4.083   6.208   0.220
 5933SOL     OW18697   6.861   5.677   4.110
 5933SOL    HW118698   6.886   5.580   4.118
 5933SOL    HW218699   6.928   5.732   4.160
 5934SOL     OW18700   3.290   4.298   0.062
 5934SOL    HW118701   3.299   4.224   0.128
 5934SOL    HW218702   3.318   4.384   0.106
 5935SOL     OW18703   1.477   0.127   5.517
 5935SOL    HW118704   1.512   0.178   5.438
 5935SOL    HW218705   1.411   0.183   5.566
 5936SOL     OW18706   3.736   2.879   2.178
 5936SOL    HW118707   3.701   2.923   2.096
 5936SOL    HW218708   3.778   2.792   2.154
 5937SOL     OW18709   0.566   3.176   0.276
 5937SOL    HW118710   0.486   3.123   0.304
 5937SOL    HW218711   0.541   3.273   0.271
 5938SOL     OW18712   0.752   3.350   4.630
 5938SOL    HW118713   0.769   3.355   4.728
 5938SOL    HW218714   0.761   3.441   4.590
 5939SOL     OW18715   4.337   1.203   5.812
 5939SOL    HW118716   4.292   1.292   5.819
 5939SOL    HW218717   4.370   1.190   5.718
 5940SOL     OW18718   5.108   5.134   1.341
 5940SOL    HW118719   5.140   5.043   1.367
 5940SOL    HW218720   5.045   5.168   1.412
 5941SOL     OW18721   0.778   1.957   3.266
 5941SOL    HW118722   0.842   1.888   3.301
 5941SOL    HW218723   0.806   2.048   3.299
 5942SOL     OW18724   4.995   2.647   6.250
 5942SOL    HW118725   5.037   2.737   6.261
 5942SOL    HW218726   5.047   2.579   6.302
 5943SOL     OW18727   1.790   5.120   1.781
 5943SOL    HW118728   1.882   5.113   1.819
 5943SOL    HW218729   1.766   5.216   1.769
 5944SOL     OW18730   6.238   3.991   6.002
 5944SOL    HW118731   6.263   4.003   5.906
 5944SOL    HW218732   6.321   3.977   6.056
 5945SOL     OW18733   6.807   6.479   4.378
 5945SOL    HW118734   6.810   6.494   4.279
 5945SOL    HW218735   6.827   6.564   4.425
 5946SOL     OW18736   2.480   2.994   0.299
 5946SOL    HW118737   2.488   3.053   0.219
 5946SOL    HW218738   2.395   3.015   0.348
 5947SOL     OW18739   3.465   3.192   4.526
 5947SOL    HW118740   3.451   3.290   4.519
 5947SOL    HW218741   3.525   3.172   4.603
 5948SOL     OW18742   4.688   4.120   1.458
 5948SOL    HW118743   4.752   4.116   1.536
 5948SOL    HW218744   4.594   4.119   1.493
 5949SOL     OW18745   1.032   4.238   3.611
 5949SOL    HW118746   1.100   4.227   3.539
 5949SOL    HW218747   1.035   4.159   3.673
 5950SOL     OW18748   2.821   6.445   4.684
 5950SOL    HW118749   2.779   6.533   4.659
 5950SOL    HW218750   2.786   6.415   4.773
 5951SOL     OW18751   6.874   3.081   6.320
 5951SOL    HW118752   6.924   3.047   6.241
 5951SOL    HW218753   6.776   3.067   6.306
 5952SOL     OW18754   3.890   4.251   1.631
 5952SOL    HW118755   3.883   4.168   1.687
 5952SOL    HW218756   3.803   4.301   1.635
 5953SOL     OW18757   6.874   2.722   6.533
 5953SOL    HW118758   6.947   2.753   6.473
 5953SOL    HW218759   6.853   2.794   6.600
 5954SOL     OW18760   1.929   4.958   3.753
 5954SOL    HW118761   2.016   5.003   3.733
 5954SOL    HW218762   1.862   4.982   3.683
 5955SOL     OW18763   3.773   2.692   0.535
 5955SOL    HW118764   3.836   2.750   0.587
 5955SOL    HW218765   3.781   2.597   0.566
 5956SOL     OW18766   4.356   2.719   5.756
 5956SOL    HW118767   4.323   2.759   5.841
 5956SOL    HW218768   4.456   2.724   5.754
 5957SOL     OW18769   6.441   2.294   3.775
 5957SOL    HW118770   6.395   2.239   3.844
 5957SOL    HW218771   6.512   2.350   3.818
 5958SOL     OW18772   2.423   6.107   2.759
 5958SOL    HW118773   2.385   6.026   2.804
 5958SOL    HW218774   2.383   6.189   2.801
 5959SOL     OW18775   5.350   3.716   3.002
 5959SOL    HW118776   5.444   3.682   2.997
 5959SOL    HW218777   5.344   3.786   3.073
 5960SOL     OW18778   5.668   0.077   6.556
 5960SOL    HW118779   5.582   0.091   6.508
 5960SOL    HW218780   5.732   0.151   6.533
 5961SOL     OW18781   3.138   1.877   4.207
 5961SOL    HW118782   3.203   1.881   4.131
 5961SOL    HW218783   3.152   1.792   4.258
 5962SOL     OW18784   4.643   4.244   0.234
 5962SOL    HW118785   4.692   4.320   0.191
 5962SOL    HW218786   4.649   4.253   0.334
 5963SOL     OW18787   1.763   4.118   0.078
 5963SOL    HW118788   1.810   4.199   0.042
 5963SOL    HW218789   1.828   4.064   0.132
 5964SOL     OW18790   1.858   7.023   3.118
 5964SOL    HW118791   1.859   6.969   3.034
 5964SOL    HW218792   1.925   0.071   3.111
 5965SOL     OW18793   2.569   0.551   1.192
 5965SOL    HW118794   2.646   0.488   1.202
 5965SOL    HW218795   2.603   0.645   1.188
 5966SOL     OW18796   2.712   1.787   5.124
 5966SOL    HW118797   2.770   1.721   5.076
 5966SOL    HW218798   2.731   1.879   5.090
 5967SOL     OW18799   4.693   2.270   5.212
 5967SOL    HW118800   4.621   2.339   5.201
 5967SOL    HW218801   4.682   2.224   5.300
 5968SOL     OW18802   6.266   2.086   2.971
 5968SOL    HW118803   6.280   1.988   2.961
 5968SOL    HW218804   6.289   2.114   3.064
 5969SOL     OW18805   5.206   0.284   1.218
 5969SOL    HW118806   5.138   0.268   1.289
 5969SOL    HW218807   5.206   0.208   1.154
 5970SOL     OW18808   6.563   2.484   0.086
 5970SOL    HW118809   6.503   2.563   0.101
 5970SOL    HW218810   6.533   2.409   0.145
 5971SOL     OW18811   6.453   5.222   3.650
 5971SOL    HW118812   6.527   5.156   3.654
 5971SOL    HW218813   6.378   5.185   3.595
 5972SOL     OW18814   5.807   5.175   0.930
 5972SOL    HW118815   5.824   5.245   0.999
 5972SOL    HW218816   5.708   5.160   0.921
 5973SOL     OW18817   3.327   1.010   2.382
 5973SOL    HW118818   3.281   1.084   2.431
 5973SOL    HW218819   3.426   1.025   2.386
 5974SOL     OW18820   5.789   0.952   4.453
 5974SOL    HW118821   5.887   0.956   4.475
 5974SOL    HW218822   5.755   1.044   4.433
 5975SOL     OW18823   4.360   5.159   1.210
 5975SOL    HW118824   4.419   5.217   1.266
 5975SOL    HW218825   4.267   5.161   1.246
 5976SOL     OW18826   1.446   3.541   5.543
 5976SOL    HW118827   1.459   3.537   5.444
 5976SOL    HW218828   1.535   3.553   5.587
 5977SOL     OW18829   0.253   5.372   1.352
 5977SOL    HW118830   0.180   5.364   1.285
 5977SOL    HW218831   0.336   5.328   1.317
 5978SOL     OW18832   2.774   3.873   6.037
 5978SOL    HW118833   2.815   3.799   5.984
 5978SOL    HW218834   2.837   3.951   6.039
 5979SOL     OW18835   5.912   0.062   1.145
 5979SOL    HW118836   5.937   0.082   1.050
 5979SOL    HW218837   5.937   6.993   1.166
 5980SOL     OW18838   3.008   2.831   0.810
 5980SOL    HW118839   3.046   2.841   0.902
 5980SOL    HW218840   2.943   2.905   0.793
 5981SOL     OW18841   3.347   2.947   1.092
 5981SOL    HW118842   3.248   2.943   1.105
 5981SOL    HW218843   3.392   2.881   1.152
 5982SOL     OW18844   5.272   2.390   1.029
 5982SOL    HW118845   5.229   2.396   0.939
 5982SOL    HW218846   5.346   2.323   1.027
 5983SOL     OW18847   6.765   1.256   3.521
 5983SOL    HW118848   6.810   1.183   3.573
 5983SOL    HW218849   6.671   1.230   3.501
 5984SOL     OW18850   6.448   6.140   2.896
 5984SOL    HW118851   6.414   6.047   2.902
 5984SOL    HW218852   6.481   6.169   2.986
 5985SOL     OW18853   6.791   4.186   2.793
 5985SOL    HW118854   6.777   4.087   2.794
 5985SOL    HW218855   6.834   4.213   2.707
 5986SOL     OW18856   3.981   3.267   3.278
 5986SOL    HW118857   3.987   3.172   3.247
 5986SOL    HW218858   4.057   3.319   3.239
 5987SOL     OW18859   0.177   6.269   4.326
 5987SOL    HW118860   0.223   6.356   4.308
 5987SOL    HW218861   0.089   6.268   4.279
 5988SOL     OW18862   1.179   2.704   0.282
 5988SOL    HW118863   1.210   2.700   0.376
 5988SOL    HW218864   1.081   2.725   0.280
 5989SOL     OW18865   1.893   6.440   5.527
 5989SOL    HW118866   1.819   6.403   5.471
 5989SOL    HW218867   1.874   6.423   5.624
 5990SOL     OW18868   2.083   3.995   1.722
 5990SOL    HW118869   2.132   3.995   1.809
 5990SOL    HW218870   2.133   4.051   1.656
 5991SOL     OW18871   5.416   1.256   0.677
 5991SOL    HW118872   5.419   1.159   0.701
 5991SOL    HW218873   5.475   1.308   0.739
 5992SOL     OW18874   2.377   4.785   3.388
 5992SOL    HW118875   2.309   4.850   3.355
 5992SOL    HW218876   2.350   4.750   3.477
 5993SOL     OW18877   5.337   2.376   0.340
 5993SOL    HW118878   5.286   2.457   0.309
 5993SOL    HW218879   5.432   2.401   0.358
 5994SOL     OW18880   6.879   4.542   0.406
 5994SOL    HW118881   6.841   4.464   0.456
 5994SOL    HW218882   6.807   4.609   0.389
 5995SOL     OW18883   5.319   3.148   1.120
 5995SOL    HW118884   5.350   3.163   1.026
 5995SOL    HW218885   5.306   3.237   1.165
 5996SOL     OW18886   2.744   0.599   1.842
 5996SOL    HW118887   2.825   0.644   1.880
 5996SOL    HW218888   2.676   0.586   1.914
 5997SOL     OW18889   6.259   0.347   4.289
 5997SOL    HW118890   6.261   0.402   4.205
 5997SOL    HW218891   6.288   0.404   4.366
 5998SOL     OW18892   6.022   6.241   6.026
 5998SOL    HW118893   6.060   6.188   6.101
 5998SOL    HW218894   5.973   6.181   5.963
 5999SOL     OW18895   5.249   3.423   1.201
 5999SOL    HW118896   5.343   3.457   1.193
 5999SOL    HW218897   5.201   3.476   1.271
 6000SOL     OW18898   1.285   4.890   1.481
 6000SOL    HW118899   1.262   4.808   1.534
 6000SOL    HW218900   1.214   4.906   1.412
 6001SOL     OW18901   6.785   6.059   5.465
 6001SOL    HW118902   6.712   6.077   5.399
 6001SOL    HW218903   6.759   6.095   5.554
 6002SOL     OW18904   5.535   4.697   4.851
 6002SOL    HW118905   5.550   4.659   4.942
 6002SOL    HW218906   5.440   4.726   4.842
 6003SOL     OW18907   2.687   1.895   5.640
 6003SOL    HW118908   2.600   1.849   5.659
 6003SOL    HW218909   2.751   1.878   5.714
 6004SOL     OW18910   5.422   3.075   5.364
 6004SOL    HW118911   5.415   3.132   5.446
 6004SOL    HW218912   5.335   3.078   5.314
 6005SOL     OW18913   3.946   4.321   0.555
 6005SOL    HW118914   3.925   4.239   0.608
 6005SOL    HW218915   4.034   4.308   0.508
 6006SOL     OW18916   3.251   6.183   6.636
 6006SOL    HW118917   3.191   6.262   6.645
 6006SOL    HW218918   3.205   6.112   6.582
 6007SOL     OW18919   2.873   6.360   5.060
 6007SOL    HW118920   2.965   6.374   5.096
 6007SOL    HW218921   2.867   6.270   5.017
 6008SOL     OW18922   2.299   4.023   6.638
 6008SOL    HW118923   2.336   4.035   6.730
 6008SOL    HW218924   2.244   3.940   6.634
 6009SOL     OW18925   2.949   5.505   2.980
 6009SOL    HW118926   3.026   5.517   3.043
 6009SOL    HW218927   2.864   5.494   3.032
 6010SOL     OW18928   0.211   4.971   5.185
 6010SOL    HW118929   0.246   4.997   5.095
 6010SOL    HW218930   0.194   4.872   5.186
 6011SOL     OW18931   5.346   1.443   3.065
 6011SOL    HW118932   5.258   1.400   3.086
 6011SOL    HW218933   5.330   1.525   3.009
 6012SOL     OW18934   6.589   1.260   6.347
 6012SOL    HW118935   6.686   1.277   6.364
 6012SOL    HW218936   6.566   1.286   6.254
 6013SOL     OW18937   5.291   1.294   2.565
 6013SOL    HW118938   5.220   1.360   2.589
 6013SOL    HW218939   5.369   1.343   2.525
 6014SOL     OW18940   3.773   3.474   3.834
 6014SOL    HW118941   3.770   3.524   3.921
 6014SOL    HW218942   3.683   3.474   3.792
 6015SOL     OW18943   5.937   6.973   4.159
 6015SOL    HW118944   6.030   7.004   4.178
 6015SOL    HW218945   5.876   0.026   4.153
 6016SOL     OW18946   4.186   2.256   4.916
 6016SOL    HW118947   4.195   2.335   4.977
 6016SOL    HW218948   4.173   2.173   4.971
 6017SOL     OW18949   1.515   2.110   5.052
 6017SOL    HW118950   1.536   2.143   5.144
 6017SOL    HW218951   1.428   2.149   5.021
 6018SOL     OW18952   2.660   1.567   3.878
 6018SOL    HW118953   2.615   1.522   3.954
 6018SOL    HW218954   2.756   1.584   3.901
 6019SOL     OW18955   6.728   4.434   6.098
 6019SOL    HW118956   6.723   4.335   6.083
 6019SOL    HW218957   6.805   4.454   6.160
 6020SOL     OW18958   0.492   5.643   5.437
 6020SOL    HW118959   0.472   5.689   5.523
 6020SOL    HW218960   0.472   5.705   5.361
 6021SOL     OW18961   5.473   0.163   3.306
 6021SOL    HW118962   5.465   0.260   3.330
 6021SOL    HW218963   5.387   0.116   3.324
 6022SOL     OW18964   6.306   2.890   1.448
 6022SOL    HW118965   6.392   2.934   1.422
 6022SOL    HW218966   6.289   2.904   1.546
 6023SOL     OW18967   4.650   6.682   2.575
 6023SOL    HW118968   4.569   6.740   2.577
 6023SOL    HW218969   4.628   6.593   2.616
 6024SOL     OW18970   0.529   5.947   0.122
 6024SOL    HW118971   0.562   6.023   0.066
 6024SOL    HW218972   0.451   5.904   0.077
 6025SOL     OW18973   3.242   0.652   5.571
 6025SOL    HW118974   3.333   0.654   5.611
 6025SOL    HW218975   3.177   0.696   5.632
 6026SOL     OW18976   5.757   5.597   3.766
 6026SOL    HW118977   5.746   5.524   3.698
 6026SOL    HW218978   5.825   5.662   3.734
 6027SOL     OW18979   5.872   4.764   6.069
 6027SOL    HW118980   5.780   4.805   6.069
 6027SOL    HW218981   5.884   4.712   5.984
 6028SOL     OW18982   6.039   5.827   6.102
 6028SOL    HW118983   6.082   5.896   6.044
 6028SOL    HW218984   6.110   5.774   6.149
 6029SOL     OW18985   2.991   2.191   2.908
 6029SOL    HW118986   3.082   2.151   2.901
 6029SOL    HW218987   2.966   2.235   2.822
 6030SOL     OW18988   5.640   3.335   4.757
 6030SOL    HW118989   5.579   3.388   4.699
 6030SOL    HW218990   5.719   3.390   4.783
 6031SOL     OW18991   0.064   6.825   3.938
 6031SOL    HW118992   0.095   6.732   3.956
 6031SOL    HW218993   6.997   6.836   3.974
 6032SOL     OW18994   3.400   6.830   3.649
 6032SOL    HW118995   3.405   6.859   3.554
 6032SOL    HW218996   3.477   6.770   3.670
 6033SOL     OW18997   1.158   1.695   2.399
 6033SOL    HW118998   1.106   1.733   2.476
 6033SOL    HW218999   1.176   1.598   2.416
 6034SOL     OW19000   0.719   0.539   0.553
 6034SOL    HW119001   0.735   0.467   0.620
 6034SOL    HW219002   0.627   0.575   0.564
 6035SOL     OW19003   2.350   0.750   2.838
 6035SOL    HW119004   2.312   0.743   2.746
 6035SOL    HW219005   2.344   0.661   2.883
 6036SOL     OW19006   6.678   3.271   0.767
 6036SOL    HW119007   6.771   3.301   0.748
 6036SOL    HW219008   6.613   3.337   0.730
 6037SOL     OW19009   4.761   0.836   6.048
 6037SOL    HW119010   4.745   0.787   6.134
 6037SOL    HW219011   4.833   0.792   5.997
 6038SOL     OW19012   1.539   1.316   6.568
 6038SOL    HW119013   1.566   1.220   6.577
 6038SOL    HW219014   1.439   1.323   6.573
 6039SOL     OW19015   3.677   2.855   3.955
 6039SOL    HW119016   3.646   2.771   3.999
 6039SOL    HW219017   3.736   2.906   4.017
 6040SOL     OW19018   0.415   2.043   0.400
 6040SOL    HW119019   0.453   2.039   0.493
 6040SOL    HW219020   0.467   2.110   0.347
 6041SOL     OW19021   0.602   3.168   4.736
 6041SOL    HW119022   0.655   3.236   4.685
 6041SOL    HW219023   0.554   3.108   4.672
 6042SOL     OW19024   2.295   5.737   3.877
 6042SOL    HW119025   2.206   5.770   3.846
 6042SOL    HW219026   2.315   5.775   3.967
 6043SOL     OW19027   2.352   6.399   2.305
 6043SOL    HW119028   2.435   6.394   2.362
 6043SOL    HW219029   2.273   6.375   2.361
 6044SOL     OW19030   6.963   3.072   0.661
 6044SOL    HW119031   6.953   3.170   0.677
 6044SOL    HW219032   0.026   3.042   0.694
 6045SOL     OW19033   5.169   1.313   4.257
 6045SOL    HW119034   5.218   1.340   4.175
 6045SOL    HW219035   5.189   1.217   4.278
 6046SOL     OW19036   3.685   3.680   2.959
 6046SOL    HW119037   3.617   3.615   2.990
 6046SOL    HW219038   3.640   3.761   2.921
 6047SOL     OW19039   0.341   1.290   0.056
 6047SOL    HW119040   0.254   1.288   0.106
 6047SOL    HW219041   0.326   1.333   6.993
 6048SOL     OW19042   5.687   5.634   3.273
 6048SOL    HW119043   5.638   5.667   3.192
 6048SOL    HW219044   5.780   5.608   3.247
 6049SOL     OW19045   5.007   5.231   6.011
 6049SOL    HW119046   4.975   5.145   6.051
 6049SOL    HW219047   4.946   5.305   6.038
 6050SOL     OW19048   2.400   5.199   3.060
 6050SOL    HW119049   2.358   5.290   3.068
 6050SOL    HW219050   2.352   5.147   2.990
 6051SOL     OW19051   0.701   1.265   2.140
 6051SOL    HW119052   0.637   1.312   2.079
 6051SOL    HW219053   0.724   1.176   2.101
 6052SOL     OW19054   5.634   5.716   0.003
 6052SOL    HW119055   5.632   5.616   0.002
 6052SOL    HW219056   5.607   5.749   0.094
 6053SOL     OW19057   3.877   2.289   6.185
 6053SOL    HW119058   3.842   2.202   6.219
 6053SOL    HW219059   3.976   2.293   6.198
 6054SOL     OW19060   4.022   3.378   0.435
 6054SOL    HW119061   3.985   3.409   0.347
 6054SOL    HW219062   4.061   3.457   0.484
 6055SOL     OW19063   3.109   4.465   1.480
 6055SOL    HW119064   3.094   4.556   1.519
 6055SOL    HW219065   3.186   4.469   1.417
 6056SOL     OW19066   5.270   5.740   3.265
 6056SOL    HW119067   5.278   5.814   3.197
 6056SOL    HW219068   5.275   5.652   3.219
 6057SOL     OW19069   5.742   1.562   3.625
 6057SOL    HW119070   5.778   1.470   3.640
 6057SOL    HW219071   5.813   1.619   3.583
 6058SOL     OW19072   0.097   2.457   5.565
 6058SOL    HW119073   0.173   2.522   5.557
 6058SOL    HW219074   0.040   2.483   5.643
 6059SOL     OW19075   4.149   2.332   7.020
 6059SOL    HW119076   4.080   2.261   7.006
 6059SOL    HW219077   4.239   2.289   0.005
 6060SOL     OW19078   1.567   2.082   0.906
 6060SOL    HW119079   1.600   2.142   0.979
 6060SOL    HW219080   1.643   2.028   0.870
 6061SOL     OW19081   2.874   4.221   6.845
 6061SOL    HW119082   2.913   4.133   6.816
 6061SOL    HW219083   2.820   4.207   6.929
 6062SOL     OW19084   2.297   2.017   5.953
 6062SOL    HW119085   2.231   1.947   5.925
 6062SOL    HW219086   2.366   1.976   6.013
 6063SOL     OW19087   5.148   4.224   6.168
 6063SOL    HW119088   5.090   4.151   6.133
 6063SOL    HW219089   5.240   4.214   6.129
 6064SOL     OW19090   5.465   6.328   0.600
 6064SOL    HW119091   5.506   6.305   0.512
 6064SOL    HW219092   5.455   6.244   0.654
 6065SOL     OW19093   2.325   6.068   1.655
 6065SOL    HW119094   2.269   6.062   1.737
 6065SOL    HW219095   2.300   6.149   1.603
 6066SOL     OW19096   5.641   5.683   2.162
 6066SOL    HW119097   5.705   5.749   2.204
 6066SOL    HW219098   5.639   5.600   2.218
 6067SOL     OW19099   0.092   5.728   5.688
 6067SOL    HW119100   0.060   5.696   5.777
 6067SOL    HW219101   0.149   5.657   5.646
 6068SOL     OW19102   4.690   1.924   4.233
 6068SOL    HW119103   4.759   1.914   4.305
 6068SOL    HW219104   4.599   1.932   4.275
 6069SOL     OW19105   0.387   4.893   5.746
 6069SOL    HW119106   0.460   4.928   5.687
 6069SOL    HW219107   0.428   4.848   5.825
 6070SOL     OW19108   2.804   1.004   0.733
 6070SOL    HW119109   2.894   1.046   0.745
 6070SOL    HW219110   2.806   0.942   0.655
 6071SOL     OW19111   5.352   0.643   6.231
 6071SOL    HW119112   5.426   0.580   6.255
 6071SOL    HW219113   5.391   0.733   6.210
 6072SOL     OW19114   0.015   3.097   0.400
 6072SOL    HW119115   7.014   3.107   0.496
 6072SOL    HW219116   0.047   3.004   0.384
 6073SOL     OW19117   4.736   3.822   0.874
 6073SOL    HW119118   4.820   3.772   0.893
 6073SOL    HW219119   4.678   3.768   0.812
 6074SOL     OW19120   1.056   6.033   2.926
 6074SOL    HW119121   1.135   6.052   2.867
 6074SOL    HW219122   1.053   5.935   2.945
 6075SOL     OW19123   6.299   6.833   6.633
 6075SOL    HW119124   6.230   6.773   6.591
 6075SOL    HW219125   6.388   6.814   6.593
 6076SOL     OW19126   0.344   6.520   3.824
 6076SOL    HW119127   0.305   6.588   3.763
 6076SOL    HW219128   0.443   6.533   3.831
 6077SOL     OW19129   4.968   5.901   2.665
 6077SOL    HW119130   4.904   5.959   2.715
 6077SOL    HW219131   5.026   5.852   2.730
 6078SOL     OW19132   5.265   4.701   0.221
 6078SOL    HW119133   5.353   4.675   0.180
 6078SOL    HW219134   5.201   4.624   0.215
 6079SOL     OW19135   3.194   2.016   0.450
 6079SOL    HW119136   3.174   1.978   0.359
 6079SOL    HW219137   3.241   1.946   0.505
 6080SOL     OW19138   0.379   3.141   5.438
 6080SOL    HW119139   0.313   3.204   5.478
 6080SOL    HW219140   0.335   3.088   5.365
 6081SOL     OW19141   2.016   4.229   4.157
 6081SOL    HW119142   2.022   4.328   4.150
 6081SOL    HW219143   1.922   4.200   4.141
 6082SOL     OW19144   5.314   1.341   1.191
 6082SOL    HW119145   5.296   1.413   1.259
 6082SOL    HW219146   5.228   1.294   1.170
 6083SOL     OW19147   5.362   6.744   6.570
 6083SOL    HW119148   5.445   6.752   6.625
 6083SOL    HW219149   5.382   6.764   6.475
 6084SOL     OW19150   6.209   5.268   3.051
 6084SOL    HW119151   6.143   5.296   2.981
 6084SOL    HW219152   6.295   5.241   3.007
 6085SOL     OW19153   0.578   6.585   0.560
 6085SOL    HW119154   0.486   6.609   0.591
 6085SOL    HW219155   0.589   6.486   0.564
 6086SOL     OW19156   3.618   3.376   0.102
 6086SOL    HW119157   3.596   3.357   0.006
 6086SOL    HW219158   3.581   3.303   0.159
 6087SOL     OW19159   4.338   0.456   0.965
 6087SOL    HW119160   4.414   0.392   0.953
 6087SOL    HW219161   4.257   0.407   0.997
 6088SOL     OW19162   4.215   5.836   1.935
 6088SOL    HW119163   4.315   5.827   1.942
 6088SOL    HW219164   4.184   5.906   1.999
 6089SOL     OW19165   6.707   4.435   3.414
 6089SOL    HW119166   6.701   4.392   3.324
 6089SOL    HW219167   6.694   4.366   3.485
 6090SOL     OW19168   3.826   5.797   5.235
 6090SOL    HW119169   3.801   5.820   5.329
 6090SOL    HW219170   3.752   5.743   5.194
 6091SOL     OW19171   0.878   2.373   2.603
 6091SOL    HW119172   0.896   2.470   2.585
 6091SOL    HW219173   0.955   2.318   2.571
 6092SOL     OW19174   2.552   6.829   1.199
 6092SOL    HW119175   2.532   6.732   1.184
 6092SOL    HW219176   2.469   6.874   1.233
 6093SOL     OW19177   3.060   2.746   1.413
 6093SOL    HW119178   3.018   2.679   1.352
 6093SOL    HW219179   3.056   2.713   1.507
 6094SOL     OW19180   1.302   0.293   5.629
 6094SOL    HW119181   1.268   0.381   5.595
 6094SOL    HW219182   1.308   0.296   5.728
 6095SOL     OW19183   5.356   5.030   2.098
 6095SOL    HW119184   5.366   5.113   2.153
 6095SOL    HW219185   5.261   5.018   2.072
 6096SOL     OW19186   4.947   5.803   2.402
 6096SOL    HW119187   5.009   5.829   2.328
 6096SOL    HW219188   4.967   5.858   2.483
 6097SOL     OW19189   2.768   5.303   2.394
 6097SOL    HW119190   2.676   5.320   2.431
 6097SOL    HW219191   2.828   5.378   2.421
 6098SOL     OW19192   5.931   0.637   5.429
 6098SOL    HW119193   5.885   0.649   5.341
 6098SOL    HW219194   5.872   0.672   5.502
 6099SOL     OW19195   3.471   6.842   5.505
 6099SOL    HW119196   3.414   6.913   5.548
 6099SOL    HW219197   3.488   6.866   5.409
 6100SOL     OW19198   0.185   6.085   5.211
 6100SOL    HW119199   0.258   6.153   5.213
 6100SOL    HW219200   0.096   6.130   5.211
 6101SOL     OW19201   0.343   2.505   1.637
 6101SOL    HW119202   0.420   2.510   1.701
 6101SOL    HW219203   0.295   2.419   1.650
 6102SOL     OW19204   3.172   6.926   2.909
 6102SOL    HW119205   3.207   7.013   2.943
 6102SOL    HW219206   3.176   6.926   2.809
 6103SOL     OW19207   5.307   1.058   2.302
 6103SOL    HW119208   5.328   1.146   2.259
 6103SOL    HW219209   5.217   1.063   2.345
 6104SOL     OW19210   6.666   0.875   4.515
 6104SOL    HW119211   6.728   0.895   4.591
 6104SOL    HW219212   6.694   0.926   4.434
 6105SOL     OW19213   3.858   4.536   5.509
 6105SOL    HW119214   3.919   4.538   5.589
 6105SOL    HW219215   3.901   4.486   5.435
 6106SOL     OW19216   6.301   4.093   4.788
 6106SOL    HW119217   6.239   4.112   4.712
 6106SOL    HW219218   6.391   4.130   4.768
 6107SOL     OW19219   5.785   4.898   5.070
 6107SOL    HW119220   5.880   4.927   5.086
 6107SOL    HW219221   5.781   4.798   5.072
 6108SOL     OW19222   2.835   1.118   6.079
 6108SOL    HW119223   2.809   1.073   6.165
 6108SOL    HW219224   2.804   1.213   6.080
 6109SOL     OW19225   0.072   6.546   4.004
 6109SOL    HW119226   0.022   6.538   3.918
 6109SOL    HW219227   0.166   6.514   3.990
 6110SOL     OW19228   1.146   1.555   3.962
 6110SOL    HW119229   1.205   1.558   3.881
 6110SOL    HW219230   1.069   1.495   3.944
 6111SOL     OW19231   2.210   2.971   0.692
 6111SOL    HW119232   2.290   2.918   0.722
 6111SOL    HW219233   2.226   3.004   0.599
 6112SOL     OW19234   4.750   6.685   3.829
 6112SOL    HW119235   4.654   6.707   3.810
 6112SOL    HW219236   4.799   6.769   3.852
 6113SOL     OW19237   2.998   5.488   0.741
 6113SOL    HW119238   2.965   5.582   0.755
 6113SOL    HW219239   2.958   5.450   0.658
 6114SOL     OW19240   4.333   3.269   1.432
 6114SOL    HW119241   4.386   3.353   1.424
 6114SOL    HW219242   4.237   3.291   1.445
 6115SOL     OW19243   6.840   0.564   5.225
 6115SOL    HW119244   6.836   0.466   5.240
 6115SOL    HW219245   6.751   0.605   5.245
 6116SOL     OW19246   6.422   3.156   0.026
 6116SOL    HW119247   6.420   3.254   0.047
 6116SOL    HW219248   6.337   3.114   0.056
 6117SOL     OW19249   2.384   2.426   1.650
 6117SOL    HW119250   2.369   2.354   1.717
 6117SOL    HW219251   2.411   2.385   1.563
 6118SOL     OW19252   5.248   0.801   1.880
 6118SOL    HW119253   5.307   0.808   1.960
 6118SOL    HW219254   5.299   0.758   1.805
 6119SOL     OW19255   0.329   0.975   6.545
 6119SOL    HW119256   0.291   0.985   6.637
 6119SOL    HW219257   0.373   0.885   6.538
 6120SOL     OW19258   3.112   0.403   3.821
 6120SOL    HW119259   3.205   0.411   3.786
 6120SOL    HW219260   3.050   0.377   3.747
 6121SOL     OW19261   2.313   1.855   5.013
 6121SOL    HW119262   2.262   1.932   4.976
 6121SOL    HW219263   2.358   1.882   5.098
 6122SOL     OW19264   4.889   4.701   4.849
 6122SOL    HW119265   4.907   4.800   4.851
 6122SOL    HW219266   4.956   4.654   4.906
 6123SOL     OW19267   6.501   1.401   4.999
 6123SOL    HW119268   6.539   1.333   5.062
 6123SOL    HW219269   6.557   1.484   5.002
 6124SOL     OW19270   2.103   5.900   4.095
 6124SOL    HW119271   2.043   5.897   4.015
 6124SOL    HW219272   2.048   5.897   4.178
 6125SOL     OW19273   3.450   1.335   5.502
 6125SOL    HW119274   3.518   1.381   5.446
 6125SOL    HW219275   3.439   1.385   5.588
 6126SOL     OW19276   6.227   3.030   6.845
 6126SOL    HW119277   6.280   3.062   6.923
 6126SOL    HW219278   6.281   3.039   6.762
 6127SOL     OW19279   5.665   1.675   2.685
 6127SOL    HW119280   5.642   1.701   2.591
 6127SOL    HW219281   5.633   1.746   2.748
 6128SOL     OW19282   5.757   5.722   5.747
 6128SOL    HW119283   5.664   5.742   5.778
 6128SOL    HW219284   5.814   5.698   5.825
 6129SOL     OW19285   2.669   5.495   3.102
 6129SOL    HW119286   2.606   5.506   3.026
 6129SOL    HW219287   2.622   5.451   3.179
 6130SOL     OW19288   5.780   3.100   0.046
 6130SOL    HW119289   5.805   3.030   0.113
 6130SOL    HW219290   5.719   3.166   0.089
 6131SOL     OW19291   6.617   2.329   2.799
 6131SOL    HW119292   6.693   2.264   2.791
 6131SOL    HW219293   6.531   2.282   2.782
 6132SOL     OW19294   4.688   6.436   6.050
 6132SOL    HW119295   4.642   6.362   6.100
 6132SOL    HW219296   4.622   6.484   5.994
 6133SOL     OW19297   0.846   2.387   3.162
 6133SOL    HW119298   0.818   2.450   3.235
 6133SOL    HW219299   0.864   2.438   3.078
 6134SOL     OW19300   6.872   6.222   5.131
 6134SOL    HW119301   6.881   6.316   5.165
 6134SOL    HW219302   6.776   6.194   5.136
 6135SOL     OW19303   6.347   6.591   0.530
 6135SOL    HW119304   6.423   6.580   0.593
 6135SOL    HW219305   6.381   6.614   0.439
 6136SOL     OW19306   1.211   1.879   3.461
 6136SOL    HW119307   1.287   1.818   3.482
 6136SOL    HW219308   1.240   1.945   3.392
 6137SOL     OW19309   6.649   5.237   0.964
 6137SOL    HW119310   6.603   5.211   0.879
 6137SOL    HW219311   6.707   5.161   0.994
 6138SOL     OW19312   5.320   0.604   2.286
 6138SOL    HW119313   5.304   0.538   2.212
 6138SOL    HW219314   5.256   0.681   2.277
 6139SOL     OW19315   1.779   2.039   4.732
 6139SOL    HW119316   1.854   2.004   4.675
 6139SOL    HW219317   1.815   2.066   4.821
 6140SOL     OW19318   2.130   0.127   3.079
 6140SOL    HW119319   2.200   0.067   3.040
 6140SOL    HW219320   2.170   0.178   3.156
 6141SOL     OW19321   1.197   0.903   0.223
 6141SOL    HW119322   1.183   0.930   0.318
 6141SOL    HW219323   1.139   0.959   0.164
 6142SOL     OW19324   6.914   0.215   1.428
 6142SOL    HW119325   6.931   0.313   1.420
 6142SOL    HW219326   6.844   0.199   1.498
 6143SOL     OW19327   0.822   3.326   5.511
 6143SOL    HW119328   0.895   3.344   5.577
 6143SOL    HW219329   0.857   3.267   5.438
 6144SOL     OW19330   3.387   5.358   2.578
 6144SOL    HW119331   3.390   5.449   2.538
 6144SOL    HW219332   3.392   5.365   2.678
 6145SOL     OW19333   4.896   3.189   3.723
 6145SOL    HW119334   4.900   3.156   3.628
 6145SOL    HW219335   4.900   3.289   3.724
 6146SOL     OW19336   5.850   0.108   5.825
 6146SOL    HW119337   5.919   0.180   5.833
 6146SOL    HW219338   5.780   0.136   5.758
 6147SOL     OW19339   1.280   2.150   5.596
 6147SOL    HW119340   1.378   2.157   5.611
 6147SOL    HW219341   1.233   2.220   5.650
 6148SOL     OW19342   3.819   5.188   0.021
 6148SOL    HW119343   3.739   5.150   0.069
 6148SOL    HW219344   3.813   5.288   0.022
 6149SOL     OW19345   3.673   1.994   1.562
 6149SOL    HW119346   3.671   2.042   1.475
 6149SOL    HW219347   3.764   1.955   1.577
 6150SOL     OW19348   0.277   4.687   4.622
 6150SOL    HW119349   0.257   4.665   4.527
 6150SOL    HW219350   0.199   4.733   4.663
 6151SOL     OW19351   3.732   5.037   3.017
 6151SOL    HW119352   3.651   5.004   3.067
 6151SOL    HW219353   3.729   5.002   2.924
 6152SOL     OW19354   0.987   3.583   2.803
 6152SOL    HW119355   1.048   3.509   2.831
 6152SOL    HW219356   1.033   3.641   2.736
 6153SOL     OW19357   4.990   6.182   1.243
 6153SOL    HW119358   4.901   6.141   1.225
 6153SOL    HW219359   5.005   6.186   1.342
 6154SOL     OW19360   4.800   4.246   2.504
 6154SOL    HW119361   4.889   4.287   2.481
 6154SOL    HW219362   4.800   4.150   2.476
 6155SOL     OW19363   1.915   0.994   3.977
 6155SOL    HW119364   1.933   1.091   3.992
 6155SOL    HW219365   1.953   0.967   3.888
 6156SOL     OW19366   5.038   4.312   2.331
 6156SOL    HW119367   5.056   4.310   2.233
 6156SOL    HW219368   5.072   4.228   2.374
 6157SOL     OW19369   0.608   3.032   0.943
 6157SOL    HW119370   0.605   3.106   1.011
 6157SOL    HW219371   0.665   2.958   0.978
 6158SOL     OW19372   3.076   1.678   5.419
 6158SOL    HW119373   3.087   1.762   5.472
 6158SOL    HW219374   2.981   1.670   5.390
 6159SOL     OW19375   5.750   2.601   0.095
 6159SOL    HW119376   5.847   2.621   0.109
 6159SOL    HW219377   5.735   2.577   7.025
 6160SOL     OW19378   0.305   6.927   1.310
 6160SOL    HW119379   0.360   6.844   1.317
 6160SOL    HW219380   0.359   6.999   1.265
 6161SOL     OW19381   4.906   4.041   6.828
 6161SOL    HW119382   4.898   3.943   6.807
 6161SOL    HW219383   4.834   4.067   6.891
 6162SOL     OW19384   6.383   5.828   1.551
 6162SOL    HW119385   6.366   5.802   1.455
 6162SOL    HW219386   6.322   5.902   1.576
 6163SOL     OW19387   6.273   5.927   2.928
 6163SOL    HW119388   6.255   5.868   3.007
 6163SOL    HW219389   6.200   5.994   2.919
 6164SOL     OW19390   3.191   3.906   4.155
 6164SOL    HW119391   3.196   3.807   4.148
 6164SOL    HW219392   3.258   3.939   4.221
 6165SOL     OW19393   3.647   1.075   6.909
 6165SOL    HW119394   3.634   1.035   6.819
 6165SOL    HW219395   3.589   1.156   6.919
 6166SOL     OW19396   2.854   1.960   6.165
 6166SOL    HW119397   2.910   1.879   6.187
 6166SOL    HW219398   2.811   1.994   6.248
 6167SOL     OW19399   1.459   3.492   3.041
 6167SOL    HW119400   1.461   3.583   3.081
 6167SOL    HW219401   1.516   3.490   2.959
 6168SOL     OW19402   0.248   3.882   4.417
 6168SOL    HW119403   0.195   3.839   4.490
 6168SOL    HW219404   0.256   3.980   4.434
 6169SOL     OW19405   2.671   0.611   0.157
 6169SOL    HW119406   2.630   0.695   0.122
 6169SOL    HW219407   2.617   0.532   0.127
 6170SOL     OW19408   2.880   4.532   0.942
 6170SOL    HW119409   2.831   4.470   1.002
 6170SOL    HW219410   2.863   4.507   0.846
 6171SOL     OW19411   2.317   4.227   1.957
 6171SOL    HW119412   2.242   4.161   1.960
 6171SOL    HW219413   2.405   4.178   1.955
 6172SOL     OW19414   2.880   5.377   1.855
 6172SOL    HW119415   2.968   5.381   1.903
 6172SOL    HW219416   2.809   5.350   1.919
 6173SOL     OW19417   1.042   5.558   2.185
 6173SOL    HW119418   1.027   5.577   2.088
 6173SOL    HW219419   1.053   5.645   2.234
 6174SOL     OW19420   5.554   4.279   1.687
 6174SOL    HW119421   5.499   4.359   1.665
 6174SOL    HW219422   5.514   4.198   1.644
 6175SOL     OW19423   5.422   0.209   4.176
 6175SOL    HW119424   5.498   0.242   4.231
 6175SOL    HW219425   5.336   0.224   4.224
 6176SOL     OW19426   5.054   3.129   6.604
 6176SOL    HW119427   4.959   3.113   6.574
 6176SOL    HW219428   5.076   3.226   6.595
 6177SOL     OW19429   6.753   2.947   2.729
 6177SOL    HW119430   6.756   2.904   2.638
 6177SOL    HW219431   6.797   2.888   2.796
 6178SOL     OW19432   5.770   3.575   1.452
 6178SOL    HW119433   5.747   3.601   1.546
 6178SOL    HW219434   5.707   3.504   1.420
 6179SOL     OW19435   0.324   1.627   4.862
 6179SOL    HW119436   0.418   1.656   4.847
 6179SOL    HW219437   0.303   1.635   4.960
 6180SOL     OW19438   3.457   0.282   5.994
 6180SOL    HW119439   3.431   0.375   5.966
 6180SOL    HW219440   3.529   0.288   6.063
 6181SOL     OW19441   4.266   6.031   6.739
 6181SOL    HW119442   4.246   6.111   6.682
 6181SOL    HW219443   4.365   6.024   6.754
 6182SOL     OW19444   4.785   6.949   5.661
 6182SOL    HW119445   4.729   6.913   5.587
 6182SOL    HW219446   4.878   6.915   5.652
 6183SOL     OW19447   3.629   0.981   2.398
 6183SOL    HW119448   3.650   0.884   2.409
 6183SOL    HW219449   3.651   1.010   2.304
 6184SOL     OW19450   5.871   6.923   6.410
 6184SOL    HW119451   5.904   6.992   6.346
 6184SOL    HW219452   5.814   6.965   6.479
 6185SOL     OW19453   1.532   2.890   6.066
 6185SOL    HW119454   1.502   2.945   5.988
 6185SOL    HW219455   1.601   2.824   6.037
 6186SOL     OW19456   5.119   0.361   4.564
 6186SOL    HW119457   5.115   0.283   4.501
 6186SOL    HW219458   5.125   0.445   4.511
 6187SOL     OW19459   3.254   5.000   4.894
 6187SOL    HW119460   3.170   4.959   4.931
 6187SOL    HW219461   3.235   5.035   4.802
 6188SOL     OW19462   2.882   0.057   1.518
 6188SOL    HW119463   2.928   0.065   1.606
 6188SOL    HW219464   2.938   0.002   1.456
 6189SOL     OW19465   4.906   4.831   2.926
 6189SOL    HW119466   4.972   4.890   2.972
 6189SOL    HW219467   4.817   4.838   2.971
 6190SOL     OW19468   4.741   2.744   5.645
 6190SOL    HW119469   4.740   2.644   5.646
 6190SOL    HW219470   4.755   2.778   5.738
 6191SOL     OW19471   6.733   1.929   6.697
 6191SOL    HW119472   6.670   1.901   6.624
 6191SOL    HW219473   6.719   1.872   6.777
 6192SOL     OW19474   3.131   2.281   0.478
 6192SOL    HW119475   3.207   2.331   0.437
 6192SOL    HW219476   3.147   2.183   0.468
 6193SOL     OW19477   6.472   6.934   1.313
 6193SOL    HW119478   6.556   6.989   1.317
 6193SOL    HW219479   6.443   6.910   1.405
 6194SOL     OW19480   2.192   0.520   0.747
 6194SOL    HW119481   2.232   0.429   0.734
 6194SOL    HW219482   2.094   0.511   0.765
 6195SOL     OW19483   2.639   6.756   5.729
 6195SOL    HW119484   2.562   6.798   5.682
 6195SOL    HW219485   2.655   6.802   5.816
 6196SOL     OW19486   0.456   1.306   5.977
 6196SOL    HW119487   0.504   1.243   6.038
 6196SOL    HW219488   0.408   1.375   6.031
 6197SOL     OW19489   2.411   2.852   0.834
 6197SOL    HW119490   2.365   2.767   0.858
 6197SOL    HW219491   2.483   2.833   0.767
 6198SOL     OW19492   3.535   5.151   2.528
 6198SOL    HW119493   3.478   5.231   2.544
 6198SOL    HW219494   3.521   5.084   2.601
 6199SOL     OW19495   0.782   0.846   6.232
 6199SOL    HW119496   0.829   0.760   6.213
 6199SOL    HW219497   0.847   0.922   6.231
 6200SOL     OW19498   4.011   0.781   5.854
 6200SOL    HW119499   3.935   0.741   5.802
 6200SOL    HW219500   4.020   0.878   5.831
 6201SOL     OW19501   2.043   4.514   3.931
 6201SOL    HW119502   2.025   4.560   4.019
 6201SOL    HW219503   2.036   4.581   3.857
 6202SOL     OW19504   2.703   2.591   1.371
 6202SOL    HW119505   2.675   2.570   1.278
 6202SOL    HW219506   2.679   2.686   1.393
 6203SOL     OW19507   5.496   2.121   5.023
 6203SOL    HW119508   5.528   2.188   4.957
 6203SOL    HW219509   5.552   2.038   5.017
 6204SOL     OW19510   1.604   6.561   6.299
 6204SOL    HW119511   1.650   6.491   6.243
 6204SOL    HW219512   1.597   6.646   6.247
 6205SOL     OW19513   5.290   6.272   6.925
 6205SOL    HW119514   5.343   6.354   6.907
 6205SOL    HW219515   5.340   6.213   6.989
 6206SOL     OW19516   5.616   6.961   3.433
 6206SOL    HW119517   5.685   7.018   3.389
 6206SOL    HW219518   5.527   6.975   3.388
 6207SOL     OW19519   2.167   4.099   4.342
 6207SOL    HW119520   2.242   4.159   4.372
 6207SOL    HW219521   2.099   4.152   4.292
 6208SOL     OW19522   5.643   5.750   5.270
 6208SOL    HW119523   5.602   5.686   5.205
 6208SOL    HW219524   5.689   5.699   5.343
 6209SOL     OW19525   2.750   5.004   1.214
 6209SOL    HW119526   2.757   4.908   1.186
 6209SOL    HW219527   2.689   5.012   1.292
 6210SOL     OW19528   6.767   4.847   2.974
 6210SOL    HW119529   6.714   4.928   2.998
 6210SOL    HW219530   6.845   4.874   2.917
 6211SOL     OW19531   2.566   0.439   5.138
 6211SOL    HW119532   2.549   0.387   5.222
 6211SOL    HW219533   2.479   0.456   5.091
 6212SOL     OW19534   6.587   0.120   3.641
 6212SOL    HW119535   6.656   0.050   3.662
 6212SOL    HW219536   6.496   0.080   3.648
 6213SOL     OW19537   6.709   0.322   0.119
 6213SOL    HW119538   6.740   0.256   0.050
 6213SOL    HW219539   6.713   0.414   0.081
 6214SOL     OW19540   5.719   4.715   1.986
 6214SOL    HW119541   5.714   4.617   1.969
 6214SOL    HW219542   5.627   4.753   1.988
 6215SOL     OW19543   2.401   5.182   1.248
 6215SOL    HW119544   2.487   5.230   1.265
 6215SOL    HW219545   2.413   5.117   1.172
 6216SOL     OW19546   6.677   1.967   2.340
 6216SOL    HW119547   6.619   1.989   2.419
 6216SOL    HW219548   6.733   2.046   2.316
 6217SOL     OW19549   5.235   1.812   1.497
 6217SOL    HW119550   5.204   1.836   1.589
 6217SOL    HW219551   5.185   1.865   1.430
 6218SOL     OW19552   4.028   4.823   4.398
 6218SOL    HW119553   4.075   4.829   4.486
 6218SOL    HW219554   4.088   4.777   4.332
 6219SOL     OW19555   0.308   1.323   4.323
 6219SOL    HW119556   0.248   1.356   4.396
 6219SOL    HW219557   0.317   1.393   4.252
 6220SOL     OW19558   1.661   3.679   5.396
 6220SOL    HW119559   1.656   3.771   5.436
 6220SOL    HW219560   1.756   3.648   5.397
 6221SOL     OW19561   4.196   4.836   4.607
 6221SOL    HW119562   4.257   4.914   4.593
 6221SOL    HW219563   4.237   4.772   4.671
 6222SOL     OW19564   0.253   1.553   1.234
 6222SOL    HW119565   0.333   1.496   1.217
 6222SOL    HW219566   0.250   1.579   1.330
 6223SOL     OW19567   4.819   4.040   4.522
 6223SOL    HW119568   4.807   4.066   4.618
 6223SOL    HW219569   4.772   3.954   4.505
 6224SOL     OW19570   2.604   0.337   4.815
 6224SOL    HW119571   2.620   0.239   4.798
 6224SOL    HW219572   2.603   0.386   4.728
 6225SOL     OW19573   4.185   1.973   7.017
 6225SOL    HW119574   4.112   2.020   6.969
 6225SOL    HW219575   4.146   1.916   0.064
 6226SOL     OW19576   6.704   6.707   4.623
 6226SOL    HW119577   6.683   6.791   4.574
 6226SOL    HW219578   6.721   6.728   4.719
 6227SOL     OW19579   3.092   4.585   0.200
 6227SOL    HW119580   3.086   4.684   0.198
 6227SOL    HW219581   3.084   4.549   0.107
 6228SOL     OW19582   6.819   1.851   2.687
 6228SOL    HW119583   6.727   1.870   2.652
 6228SOL    HW219584   6.813   1.795   2.770
 6229SOL     OW19585   1.547   2.642   1.987
 6229SOL    HW119586   1.538   2.613   2.082
 6229SOL    HW219587   1.640   2.674   1.970
 6230SOL     OW19588   2.155   2.317   3.961
 6230SOL    HW119589   2.093   2.393   3.980
 6230SOL    HW219590   2.248   2.351   3.951
 6231SOL     OW19591   6.732   5.538   1.450
 6231SOL    HW119592   6.719   5.635   1.469
 6231SOL    HW219593   6.732   5.522   1.352
 6232SOL     OW19594   1.052   1.238   0.225
 6232SOL    HW119595   0.960   1.206   0.245
 6232SOL    HW219596   1.049   1.307   0.153
 6233SOL     OW19597   4.400   1.305   6.516
 6233SOL    HW119598   4.430   1.277   6.607
 6233SOL    HW219599   4.305   1.336   6.520
 6234SOL     OW19600   1.875   2.469   3.721
 6234SOL    HW119601   1.864   2.519   3.635
 6234SOL    HW219602   1.796   2.484   3.779
 6235SOL     OW19603   1.903   6.009   2.542
 6235SOL    HW119604   1.952   5.932   2.583
 6235SOL    HW219605   1.868   6.069   2.614
 6236SOL     OW19606   6.639   4.016   0.281
 6236SOL    HW119607   6.560   3.993   0.224
 6236SOL    HW219608   6.673   4.107   0.255
 6237SOL     OW19609   3.908   6.335   6.586
 6237SOL    HW119610   3.899   6.236   6.584
 6237SOL    HW219611   3.845   6.373   6.655
 6238SOL     OW19612   5.092   3.800   0.732
 6238SOL    HW119613   5.091   3.890   0.774
 6238SOL    HW219614   5.050   3.804   0.641
 6239SOL     OW19615   2.657   6.950   3.388
 6239SOL    HW119616   2.564   6.915   3.390
 6239SOL    HW219617   2.704   6.923   3.472
 6240SOL     OW19618   1.413   3.574   0.112
 6240SOL    HW119619   1.321   3.605   0.134
 6240SOL    HW219620   1.478   3.619   0.173
 6241SOL     OW19621   4.901   0.245   1.627
 6241SOL    HW119622   4.983   0.294   1.594
 6241SOL    HW219623   4.831   0.246   1.555
 6242SOL     OW19624   4.273   2.364   3.450
 6242SOL    HW119625   4.178   2.334   3.448
 6242SOL    HW219626   4.284   2.437   3.519
 6243SOL     OW19627   5.667   5.369   3.109
 6243SOL    HW119628   5.735   5.296   3.121
 6243SOL    HW219629   5.700   5.452   3.155
 6244SOL     OW19630   1.987   2.067   2.307
 6244SOL    HW119631   2.026   1.977   2.288
 6244SOL    HW219632   2.060   2.134   2.320
 6245SOL     OW19633   2.128   3.421   0.969
 6245SOL    HW119634   2.121   3.502   0.911
 6245SOL    HW219635   2.059   3.354   0.942
 6246SOL     OW19636   4.360   0.462   0.188
 6246SOL    HW119637   4.372   0.381   0.245
 6246SOL    HW219638   4.297   0.525   0.233
 6247SOL     OW19639   6.765   6.106   3.101
 6247SOL    HW119640   6.861   6.133   3.105
 6247SOL    HW219641   6.757   6.008   3.117
 6248SOL     OW19642   1.426   5.725   0.835
 6248SOL    HW119643   1.520   5.690   0.837
 6248SOL    HW219644   1.427   5.823   0.853
 6249SOL     OW19645   6.193   3.939   6.567
 6249SOL    HW119646   6.218   4.035   6.569
 6249SOL    HW219647   6.162   3.910   6.657
 6250SOL     OW19648   6.239   4.776   5.724
 6250SOL    HW119649   6.330   4.734   5.721
 6250SOL    HW219650   6.180   4.731   5.657
 6251SOL     OW19651   4.844   1.834   1.127
 6251SOL    HW119652   4.750   1.831   1.161
 6251SOL    HW219653   4.906   1.849   1.204
 6252SOL     OW19654   2.252   6.190   5.316
 6252SOL    HW119655   2.311   6.126   5.365
 6252SOL    HW219656   2.171   6.142   5.283
 6253SOL     OW19657   2.529   4.116   1.687
 6253SOL    HW119658   2.543   4.203   1.639
 6253SOL    HW219659   2.489   4.050   1.624
 6254SOL     OW19660   5.082   0.300   0.429
 6254SOL    HW119661   5.044   0.287   0.337
 6254SOL    HW219662   5.056   0.223   0.487
 6255SOL     OW19663   6.925   2.553   3.162
 6255SOL    HW119664   6.834   2.592   3.176
 6255SOL    HW219665   6.994   2.616   3.197
 6256SOL     OW19666   3.629   5.177   4.100
 6256SOL    HW119667   3.668   5.114   4.033
 6256SOL    HW219668   3.577   5.248   4.052
 6257SOL     OW19669   4.482   3.107   0.054
 6257SOL    HW119670   4.544   3.156   7.019
 6257SOL    HW219671   4.388   3.115   0.021
 6258SOL     OW19672   4.565   2.408   2.815
 6258SOL    HW119673   4.544   2.479   2.883
 6258SOL    HW219674   4.566   2.449   2.724
 6259SOL     OW19675   3.091   2.300   1.469
 6259SOL    HW119676   3.129   2.299   1.561
 6259SOL    HW219677   2.997   2.334   1.471
 6260SOL     OW19678   3.425   4.147   1.060
 6260SOL    HW119679   3.394   4.222   1.001
 6260SOL    HW219680   3.363   4.069   1.051
 6261SOL     OW19681   4.570   0.156   6.852
 6261SOL    HW119682   4.509   0.223   6.894
 6261SOL    HW219683   4.539   0.138   6.758
 6262SOL     OW19684   0.679   6.034   5.058
 6262SOL    HW119685   0.652   5.938   5.047
 6262SOL    HW219686   0.597   6.090   5.073
 6263SOL     OW19687   6.452   1.131   1.067
 6263SOL    HW119688   6.551   1.139   1.077
 6263SOL    HW219689   6.412   1.095   1.151
 6264SOL     OW19690   2.111   1.627   0.291
 6264SOL    HW119691   2.054   1.652   0.369
 6264SOL    HW219692   2.137   1.709   0.240
 6265SOL     OW19693   5.272   3.700   0.899
 6265SOL    HW119694   5.317   3.779   0.942
 6265SOL    HW219695   5.200   3.733   0.838
 6266SOL     OW19696   2.495   0.173   2.355
 6266SOL    HW119697   2.453   0.097   2.306
 6266SOL    HW219698   2.589   0.184   2.323
 6267SOL     OW19699   2.517   0.407   0.088
 6267SOL    HW119700   2.496   0.359   0.174
 6267SOL    HW219701   2.440   0.466   0.064
 6268SOL     OW19702   2.316   5.577   3.269
 6268SOL    HW119703   2.399   5.522   3.268
 6268SOL    HW219704   2.256   5.547   3.343
 6269SOL     OW19705   5.897   4.412   0.454
 6269SOL    HW119706   5.914   4.319   0.424
 6269SOL    HW219707   5.952   4.476   0.400
 6270SOL     OW19708   0.567   0.865   3.924
 6270SOL    HW119709   0.535   0.813   4.003
 6270SOL    HW219710   0.667   0.877   3.931
 6271SOL     OW19711   6.275   1.772   1.066
 6271SOL    HW119712   6.194   1.767   1.007
 6271SOL    HW219713   6.354   1.739   1.016
 6272SOL     OW19714   1.928   1.950   3.685
 6272SOL    HW119715   2.015   1.903   3.667
 6272SOL    HW219716   1.943   2.048   3.690
 6273SOL     OW19717   4.545   0.699   2.240
 6273SOL    HW119718   4.452   0.707   2.278
 6273SOL    HW219719   4.597   0.633   2.294
 6274SOL     OW19720   2.924   6.584   6.568
 6274SOL    HW119721   2.851   6.540   6.621
 6274SOL    HW219722   2.965   6.657   6.622
 6275SOL     OW19723   2.936   0.587   4.261
 6275SOL    HW119724   2.960   0.672   4.308
 6275SOL    HW219725   2.983   0.582   4.173
 6276SOL     OW19726   1.254   5.442   3.754
 6276SOL    HW119727   1.176   5.427   3.693
 6276SOL    HW219728   1.231   5.407   3.846
 6277SOL     OW19729   5.684   3.466   4.537
 6277SOL    HW119730   5.727   3.414   4.611
 6277SOL    HW219731   5.755   3.511   4.483
 6278SOL     OW19732   4.314   0.590   4.024
 6278SOL    HW119733   4.260   0.538   3.957
 6278SOL    HW219734   4.375   0.653   3.977
 6279SOL     OW19735   4.773   1.714   6.887
 6279SOL    HW119736   4.737   1.798   6.927
 6279SOL    HW219737   4.871   1.708   6.904
 6280SOL     OW19738   1.114   5.236   6.085
 6280SOL    HW119739   1.190   5.287   6.046
 6280SOL    HW219740   1.117   5.141   6.053
 6281SOL     OW19741   3.268   6.331   4.774
 6281SOL    HW119742   3.221   6.412   4.740
 6281SOL    HW219743   3.201   6.260   4.799
 6282SOL     OW19744   0.901   0.248   3.626
 6282SOL    HW119745   0.950   0.267   3.540
 6282SOL    HW219746   0.957   0.277   3.703
 6283SOL     OW19747   0.861   3.383   4.896
 6283SOL    HW119748   0.873   3.441   4.976
 6283SOL    HW219749   0.888   3.289   4.918
 6284SOL     OW19750   2.825   4.693   6.391
 6284SOL    HW119751   2.855   4.619   6.331
 6284SOL    HW219752   2.765   4.656   6.462
 6285SOL     OW19753   1.726   4.791   2.748
 6285SOL    HW119754   1.823   4.777   2.731
 6285SOL    HW219755   1.708   4.789   2.847
 6286SOL     OW19756   6.536   6.500   4.606
 6286SOL    HW119757   6.590   6.584   4.596
 6286SOL    HW219758   6.572   6.445   4.681
 6287SOL     OW19759   3.470   4.968   2.742
 6287SOL    HW119760   3.387   4.952   2.796
 6287SOL    HW219761   3.549   4.931   2.791
 6288SOL     OW19762   5.487   3.545   1.121
 6288SOL    HW119763   5.530   3.635   1.131
 6288SOL    HW219764   5.463   3.530   1.025
 6289SOL     OW19765   1.402   6.804   2.368
 6289SOL    HW119766   1.456   6.856   2.302
 6289SOL    HW219767   1.326   6.860   2.400
 6290SOL     OW19768   5.998   3.980   3.468
 6290SOL    HW119769   5.952   3.917   3.531
 6290SOL    HW219770   6.065   3.930   3.414
 6291SOL     OW19771   3.894   3.826   3.301
 6291SOL    HW119772   3.863   3.921   3.311
 6291SOL    HW219773   3.934   3.814   3.211
 6292SOL     OW19774   0.291   1.176   2.026
 6292SOL    HW119775   0.258   1.199   1.934
 6292SOL    HW219776   0.215   1.144   2.082
 6293SOL     OW19777   5.572   4.940   0.174
 6293SOL    HW119778   5.530   4.974   0.258
 6293SOL    HW219779   5.661   4.985   0.161
 6294SOL     OW19780   3.893   5.837   2.136
 6294SOL    HW119781   3.822   5.886   2.186
 6294SOL    HW219782   3.930   5.764   2.194
 6295SOL     OW19783   6.990   6.237   5.919
 6295SOL    HW119784   6.927   6.228   5.841
 6295SOL    HW219785   7.004   6.147   5.961
 6296SOL     OW19786   6.831   0.528   2.911
 6296SOL    HW119787   6.870   0.618   2.931
 6296SOL    HW219788   6.782   0.494   2.991
 6297SOL     OW19789   5.393   0.957   5.845
 6297SOL    HW119790   5.345   1.018   5.908
 6297SOL    HW219791   5.339   0.949   5.761
 6298SOL     OW19792   6.974   2.139   3.860
 6298SOL    HW119793   6.997   2.182   3.947
 6298SOL    HW219794   6.921   2.203   3.804
 6299SOL     OW19795   6.444   3.054   0.743
 6299SOL    HW119796   6.511   3.127   0.729
 6299SOL    HW219797   6.474   2.972   0.694
 6300SOL     OW19798   5.254   1.352   3.421
 6300SOL    HW119799   5.175   1.359   3.481
 6300SOL    HW219800   5.315   1.430   3.436
 6301SOL     OW19801   3.338   0.645   0.860
 6301SOL    HW119802   3.403   0.721   0.867
 6301SOL    HW219803   3.383   0.561   0.892
 6302SOL     OW19804   6.487   0.572   2.582
 6302SOL    HW119805   6.537   0.645   2.535
 6302SOL    HW219806   6.389   0.581   2.562
 6303SOL     OW19807   1.829   5.732   5.112
 6303SOL    HW119808   1.889   5.771   5.043
 6303SOL    HW219809   1.845   5.777   5.200
 6304SOL     OW19810   4.295   0.855   4.923
 6304SOL    HW119811   4.203   0.883   4.896
 6304SOL    HW219812   4.289   0.776   4.984
 6305SOL     OW19813   5.103   1.114   2.467
 6305SOL    HW119814   5.010   1.139   2.495
 6305SOL    HW219815   5.166   1.189   2.489
 6306SOL     OW19816   6.144   2.604   4.260
 6306SOL    HW119817   6.105   2.689   4.225
 6306SOL    HW219818   6.159   2.540   4.184
 6307SOL     OW19819   2.007   4.827   0.511
 6307SOL    HW119820   2.046   4.773   0.585
 6307SOL    HW219821   1.977   4.766   0.437
 6308SOL     OW19822   3.822   2.546   6.211
 6308SOL    HW119823   3.843   2.449   6.214
 6308SOL    HW219824   3.904   2.597   6.185
 6309SOL     OW19825   5.877   2.070   5.047
 6309SOL    HW119826   5.876   2.130   5.127
 6309SOL    HW219827   5.931   2.112   4.974
 6310SOL     OW19828   0.197   5.210   4.368
 6310SOL    HW119829   0.214   5.218   4.270
 6310SOL    HW219830   0.281   5.230   4.418
 6311SOL     OW19831   6.167   6.773   4.403
 6311SOL    HW119832   6.105   6.700   4.375
 6311SOL    HW219833   6.114   6.848   4.443
 6312SOL     OW19834   5.114   4.472   5.662
 6312SOL    HW119835   5.061   4.547   5.701
 6312SOL    HW219836   5.125   4.487   5.563
 6313SOL     OW19837   2.450   5.268   4.132
 6313SOL    HW119838   2.455   5.229   4.224
 6313SOL    HW219839   2.365   5.320   4.122
 6314SOL     OW19840   1.450   0.416   3.647
 6314SOL    HW119841   1.483   0.489   3.586
 6314SOL    HW219842   1.409   0.343   3.593
 6315SOL     OW19843   2.272   3.785   0.113
 6315SOL    HW119844   2.331   3.780   0.193
 6315SOL    HW219845   2.230   3.876   0.108
 6316SOL     OW19846   4.384   1.290   5.551
 6316SOL    HW119847   4.447   1.274   5.474
 6316SOL    HW219848   4.390   1.385   5.579
 6317SOL     OW19849   5.970   5.357   4.697
 6317SOL    HW119850   6.040   5.287   4.705
 6317SOL    HW219851   5.934   5.379   4.788
 6318SOL     OW19852   2.011   1.983   4.566
 6318SOL    HW119853   2.101   2.026   4.576
 6318SOL    HW219854   2.018   1.902   4.508
 6319SOL     OW19855   0.639   1.790   2.611
 6319SOL    HW119856   0.541   1.797   2.595
 6319SOL    HW219857   0.687   1.784   2.524
 6320SOL     OW19858   0.504   1.905   3.438
 6320SOL    HW119859   0.466   1.996   3.453
 6320SOL    HW219860   0.587   1.911   3.382
 6321SOL     OW19861   2.511   3.820   6.226
 6321SOL    HW119862   2.510   3.721   6.241
 6321SOL    HW219863   2.589   3.844   6.169
 6322SOL     OW19864   2.281   0.920   0.318
 6322SOL    HW119865   2.322   0.991   0.261
 6322SOL    HW219866   2.195   0.955   0.357
 6323SOL     OW19867   4.139   1.811   1.522
 6323SOL    HW119868   4.180   1.721   1.540
 6323SOL    HW219869   4.189   1.855   1.447
 6324SOL     OW19870   3.571   2.006   6.494
 6324SOL    HW119871   3.528   1.979   6.408
 6324SOL    HW219872   3.654   2.060   6.474
 6325SOL     OW19873   1.287   2.864   2.598
 6325SOL    HW119874   1.270   2.876   2.500
 6325SOL    HW219875   1.236   2.933   2.650
 6326SOL     OW19876   4.387   6.390   1.285
 6326SOL    HW119877   4.350   6.396   1.378
 6326SOL    HW219878   4.485   6.411   1.287
 6327SOL     OW19879   4.063   5.710   5.615
 6327SOL    HW119880   4.096   5.692   5.523
 6327SOL    HW219881   4.015   5.629   5.650
 6328SOL     OW19882   2.753   4.537   6.597
 6328SOL    HW119883   2.829   4.589   6.636
 6328SOL    HW219884   2.784   4.445   6.574
 6329SOL     OW19885   0.622   1.489   2.856
 6329SOL    HW119886   0.663   1.577   2.834
 6329SOL    HW219887   0.688   1.432   2.904
 6330SOL     OW19888   3.980   0.297   0.597
 6330SOL    HW119889   4.062   0.351   0.613
 6330SOL    HW219890   3.954   0.303   0.501
 6331SOL     OW19891   5.242   3.011   2.246
 6331SOL    HW119892   5.184   2.943   2.201
 6331SOL    HW219893   5.330   3.015   2.198
 6332SOL     OW19894   4.974   6.457   2.526
 6332SOL    HW119895   4.989   6.539   2.470
 6332SOL    HW219896   5.054   6.442   2.584
 6333SOL     OW19897   1.752   5.076   2.880
 6333SOL    HW119898   1.778   4.980   2.871
 6333SOL    HW219899   1.653   5.084   2.871
 6334SOL     OW19900   2.668   1.900   2.400
 6334SOL    HW119901   2.590   1.902   2.338
 6334SOL    HW219902   2.644   1.946   2.486
 6335SOL     OW19903   0.141   1.670   0.312
 6335SOL    HW119904   0.059   1.720   0.285
 6335SOL    HW219905   0.203   1.662   0.234
 6336SOL     OW19906   1.066   3.729   5.029
 6336SOL    HW119907   1.059   3.773   5.118
 6336SOL    HW219908   1.070   3.629   5.041
 6337SOL     OW19909   6.731   4.996   4.818
 6337SOL    HW119910   6.751   4.904   4.783
 6337SOL    HW219911   6.754   5.000   4.916
 6338SOL     OW19912   3.779   1.271   4.476
 6338SOL    HW119913   3.819   1.294   4.565
 6338SOL    HW219914   3.848   1.280   4.405
 6339SOL     OW19915   0.066   2.861   4.660
 6339SOL    HW119916   0.138   2.843   4.593
 6339SOL    HW219917   0.108   2.883   4.748
 6340SOL     OW19918   2.417   5.696   4.453
 6340SOL    HW119919   2.475   5.709   4.534
 6340SOL    HW219920   2.366   5.610   4.463
 6341SOL     OW19921   6.431   5.301   2.320
 6341SOL    HW119922   6.342   5.257   2.312
 6341SOL    HW219923   6.425   5.377   2.384
 6342SOL     OW19924   1.218   3.558   0.588
 6342SOL    HW119925   1.278   3.637   0.601
 6342SOL    HW219926   1.147   3.581   0.522
 6343SOL     OW19927   4.745   1.211   0.556
 6343SOL    HW119928   4.746   1.143   0.482
 6343SOL    HW219929   4.662   1.199   0.610
 6344SOL     OW19930   6.675   4.688   4.893
 6344SOL    HW119931   6.614   4.721   4.821
 6344SOL    HW219932   6.646   4.725   4.981
 6345SOL     OW19933   2.550   2.291   2.036
 6345SOL    HW119934   2.596   2.218   1.986
 6345SOL    HW219935   2.563   2.378   1.988
 6346SOL     OW19936   0.524   5.407   4.157
 6346SOL    HW119937   0.528   5.377   4.062
 6346SOL    HW219938   0.587   5.484   4.170
 6347SOL     OW19939   3.222   0.175   0.834
 6347SOL    HW119940   3.274   0.090   0.846
 6347SOL    HW219941   3.173   0.196   0.919
 6348SOL     OW19942   0.242   2.576   4.595
 6348SOL    HW119943   0.169   2.507   4.586
 6348SOL    HW219944   0.328   2.530   4.616
 6349SOL     OW19945   1.330   0.849   0.572
 6349SOL    HW119946   1.396   0.853   0.497
 6349SOL    HW219947   1.246   0.897   0.546
 6350SOL     OW19948   0.095   5.519   3.148
 6350SOL    HW119949   0.017   5.550   3.093
 6350SOL    HW219950   0.086   5.420   3.165
 6351SOL     OW19951   0.139   1.834   3.204
 6351SOL    HW119952   0.068   1.850   3.136
 6351SOL    HW219953   0.098   1.791   3.285
 6352SOL     OW19954   0.295   4.933   2.345
 6352SOL    HW119955   0.334   4.959   2.257
 6352SOL    HW219956   0.225   4.863   2.332
 6353SOL     OW19957   0.332   6.223   1.785
 6353SOL    HW119958   0.241   6.192   1.812
 6353SOL    HW219959   0.347   6.316   1.819
 6354SOL     OW19960   0.290   6.922   4.371
 6354SOL    HW119961   0.366   6.985   4.353
 6354SOL    HW219962   0.222   6.930   4.299
 6355SOL     OW19963   1.215   2.665   2.150
 6355SOL    HW119964   1.200   2.592   2.217
 6355SOL    HW219965   1.249   2.625   2.065
 6356SOL     OW19966   3.501   3.804   1.118
 6356SOL    HW119967   3.436   3.792   1.192
 6356SOL    HW219968   3.590   3.830   1.155
 6357SOL     OW19969   5.408   2.175   0.985
 6357SOL    HW119970   5.393   2.128   1.072
 6357SOL    HW219971   5.354   2.131   0.914
 6358SOL     OW19972   0.912   3.070   4.760
 6358SOL    HW119973   0.949   2.978   4.770
 6358SOL    HW219974   0.895   3.088   4.663
 6359SOL     OW19975   0.051   1.462   6.771
 6359SOL    HW119976   7.025   1.505   6.845
 6359SOL    HW219977   7.013   1.424   6.704
 6360SOL     OW19978   2.533   5.509   4.051
 6360SOL    HW119979   2.595   5.549   4.118
 6360SOL    HW219980   2.519   5.412   4.071
 6361SOL     OW19981   3.171   6.794   5.556
 6361SOL    HW119982   3.077   6.808   5.589
 6361SOL    HW219983   3.236   6.825   5.625
 6362SOL     OW19984   6.149   5.211   6.203
 6362SOL    HW119985   6.175   5.238   6.296
 6362SOL    HW219986   6.115   5.117   6.204
 6363SOL     OW19987   0.661   5.627   4.224
 6363SOL    HW119988   0.733   5.676   4.175
 6363SOL    HW219989   0.592   5.692   4.255
 6364SOL     OW19990   2.281   2.573   6.564
 6364SOL    HW119991   2.344   2.510   6.609
 6364SOL    HW219992   2.246   2.639   6.630
 6365SOL     OW19993   4.317   5.413   2.437
 6365SOL    HW119994   4.330   5.335   2.377
 6365SOL    HW219995   4.366   5.492   2.400
 6366SOL     OW19996   0.428   4.474   5.443
 6366SOL    HW119997   0.449   4.562   5.399
 6366SOL    HW219998   0.479   4.402   5.397
 6367SOL     OW19999   5.990   6.068   2.831
 6367SOL    HW120000   6.055   6.055   2.756
 6367SOL    HW220001   6.002   6.160   2.869
 6368SOL     OW20002   3.613   0.920   3.342
 6368SOL    HW120003   3.524   0.879   3.324
 6368SOL    HW220004   3.676   0.898   3.268
 6369SOL     OW20005   2.439   5.342   5.512
 6369SOL    HW120006   2.400   5.250   5.502
 6369SOL    HW220007   2.430   5.391   5.425
 6370SOL     OW20008   5.095   2.853   1.814
 6370SOL    HW120009   5.084   2.840   1.912
 6370SOL    HW220010   5.169   2.919   1.797
 6371SOL     OW20011   4.618   1.588   3.882
 6371SOL    HW120012   4.537   1.534   3.905
 6371SOL    HW220013   4.662   1.551   3.800
 6372SOL     OW20014   2.642   6.995   2.596
 6372SOL    HW120015   2.548   7.009   2.565
 6372SOL    HW220016   2.671   6.902   2.571
 6373SOL     OW20017   3.557   4.809   6.965
 6373SOL    HW120018   3.461   4.828   6.989
 6373SOL    HW220019   3.586   4.872   6.893
 6374SOL     OW20020   3.102   3.034   2.766
 6374SOL    HW120021   3.135   2.981   2.844
 6374SOL    HW220022   3.137   2.993   2.681
 6375SOL     OW20023   1.852   5.839   2.014
 6375SOL    HW120024   1.778   5.784   1.975
 6375SOL    HW220025   1.928   5.843   1.950
 6376SOL     OW20026   1.058   2.079   5.051
 6376SOL    HW120027   0.971   2.127   5.064
 6376SOL    HW220028   1.112   2.083   5.135
 6377SOL     OW20029   1.042   1.997   3.685
 6377SOL    HW120030   1.092   2.048   3.755
 6377SOL    HW220031   1.097   1.994   3.601
 6378SOL     OW20032   4.415   5.607   3.455
 6378SOL    HW120033   4.427   5.587   3.552
 6378SOL    HW220034   4.451   5.531   3.401
 6379SOL     OW20035   2.381   4.682   1.876
 6379SOL    HW120036   2.395   4.757   1.813
 6379SOL    HW220037   2.437   4.695   1.958
 6380SOL     OW20038   1.310   1.171   5.943
 6380SOL    HW120039   1.359   1.205   5.863
 6380SOL    HW220040   1.219   1.212   5.946
 6381SOL     OW20041   2.990   3.494   1.932
 6381SOL    HW120042   3.008   3.591   1.948
 6381SOL    HW220043   3.024   3.468   1.841
 6382SOL     OW20044   1.135   4.878   4.666
 6382SOL    HW120045   1.213   4.938   4.682
 6382SOL    HW220046   1.056   4.933   4.639
 6383SOL     OW20047   3.694   1.606   3.647
 6383SOL    HW120048   3.727   1.532   3.588
 6383SOL    HW220049   3.725   1.591   3.740
 6384SOL     OW20050   6.817   4.525   2.433
 6384SOL    HW120051   6.852   4.477   2.352
 6384SOL    HW220052   6.778   4.613   2.404
 6385SOL     OW20053   0.990   5.720   5.299
 6385SOL    HW120054   0.920   5.713   5.370
 6385SOL    HW220055   1.024   5.814   5.294
 6386SOL     OW20056   2.334   5.341   2.038
 6386SOL    HW120057   2.289   5.407   2.098
 6386SOL    HW220058   2.429   5.329   2.067
 6387SOL     OW20059   5.991   0.760   5.131
 6387SOL    HW120060   5.905   0.809   5.145
 6387SOL    HW220061   6.053   0.777   5.208
 6388SOL     OW20062   1.970   5.150   3.037
 6388SOL    HW120063   2.034   5.077   3.015
 6388SOL    HW220064   1.896   5.150   2.969
 6389SOL     OW20065   1.228   4.658   1.592
 6389SOL    HW120066   1.267   4.625   1.678
 6389SOL    HW220067   1.207   4.581   1.533
 6390SOL     OW20068   0.795   2.849   4.185
 6390SOL    HW120069   0.711   2.880   4.229
 6390SOL    HW220070   0.855   2.806   4.252
 6391SOL     OW20071   3.774   0.721   6.694
 6391SOL    HW120072   3.700   0.789   6.694
 6391SOL    HW220073   3.748   0.643   6.751
 6392SOL     OW20074   1.261   6.140   4.584
 6392SOL    HW120075   1.290   6.061   4.638
 6392SOL    HW220076   1.203   6.109   4.508
 6393SOL     OW20077   5.243   1.590   0.123
 6393SOL    HW120078   5.181   1.668   0.120
 6393SOL    HW220079   5.284   1.582   0.214
 6394SOL     OW20080   3.263   4.835   1.598
 6394SOL    HW120081   3.205   4.852   1.518
 6394SOL    HW220082   3.314   4.918   1.620
 6395SOL     OW20083   5.971   2.379   0.415
 6395SOL    HW120084   5.882   2.361   0.374
 6395SOL    HW220085   6.036   2.308   0.387
 6396SOL     OW20086   6.654   3.599   5.878
 6396SOL    HW120087   6.650   3.579   5.976
 6396SOL    HW220088   6.730   3.550   5.836
 6397SOL     OW20089   6.034   1.015   1.062
 6397SOL    HW120090   5.949   1.054   1.026
 6397SOL    HW220091   6.067   1.070   1.138
 6398SOL     OW20092   3.720   1.019   1.378
 6398SOL    HW120093   3.661   1.088   1.337
 6398SOL    HW220094   3.792   1.065   1.430
 6399SOL     OW20095   2.088   6.689   6.782
 6399SOL    HW120096   2.157   6.758   6.803
 6399SOL    HW220097   2.132   6.611   6.738
 6400SOL     OW20098   2.621   4.966   4.820
 6400SOL    HW120099   2.634   5.043   4.884
 6400SOL    HW220100   2.709   4.921   4.804
 6401SOL     OW20101   0.595   4.702   5.052
 6401SOL    HW120102   0.658   4.694   4.974
 6401SOL    HW220103   0.525   4.770   5.032
 6402SOL     OW20104   2.014   2.731   3.268
 6402SOL    HW120105   2.106   2.741   3.306
 6402SOL    HW220106   2.011   2.651   3.208
 6403SOL     OW20107   1.171   6.856   1.246
 6403SOL    HW120108   1.104   6.879   1.317
 6403SOL    HW220109   1.123   6.836   1.161
 6404SOL     OW20110   4.808   1.063   2.870
 6404SOL    HW120111   4.886   1.122   2.888
 6404SOL    HW220112   4.826   1.008   2.788
 6405SOL     OW20113   3.484   0.605   1.943
 6405SOL    HW120114   3.463   0.575   1.850
 6405SOL    HW220115   3.475   0.704   1.949
 6406SOL     OW20116   2.766   2.010   3.644
 6406SOL    HW120117   2.864   2.000   3.623
 6406SOL    HW220118   2.726   2.078   3.583
 6407SOL     OW20119   4.516   5.815   6.571
 6407SOL    HW120120   4.501   5.830   6.473
 6407SOL    HW220121   4.448   5.751   6.606
 6408SOL     OW20122   5.527   2.159   0.537
 6408SOL    HW120123   5.619   2.120   0.546
 6408SOL    HW220124   5.523   2.246   0.586
 6409SOL     OW20125   0.838   5.005   1.975
 6409SOL    HW120126   0.761   5.041   2.028
 6409SOL    HW220127   0.880   4.929   2.024
 6410SOL     OW20128   0.751   1.037   2.012
 6410SOL    HW120129   0.741   0.940   2.035
 6410SOL    HW220130   0.749   1.048   1.913
 6411SOL     OW20131   0.949   1.381   3.910
 6411SOL    HW120132   0.971   1.326   3.829
 6411SOL    HW220133   0.863   1.349   3.950
 6412SOL     OW20134   5.841   2.666   4.410
 6412SOL    HW120135   5.813   2.742   4.469
 6412SOL    HW220136   5.931   2.633   4.439
 6413SOL     OW20137   0.458   4.725   0.606
 6413SOL    HW120138   0.499   4.759   0.521
 6413SOL    HW220139   0.438   4.801   0.667
 6414SOL     OW20140   6.220   0.344   2.977
 6414SOL    HW120141   6.292   0.292   3.022
 6414SOL    HW220142   6.225   0.328   2.878
 6415SOL     OW20143   1.916   1.484   2.414
 6415SOL    HW120144   1.837   1.450   2.363
 6415SOL    HW220145   1.903   1.467   2.511
 6416SOL     OW20146   2.687   6.676   6.412
 6416SOL    HW120147   2.737   6.633   6.486
 6416SOL    HW220148   2.598   6.631   6.400
 6417SOL     OW20149   0.952   6.209   4.109
 6417SOL    HW120150   0.852   6.203   4.116
 6417SOL    HW220151   0.977   6.300   4.077
 6418SOL     OW20152   6.739   5.480   2.188
 6418SOL    HW120153   6.727   5.575   2.217
 6418SOL    HW220154   6.763   5.424   2.267
 6419SOL     OW20155   2.205   3.626   0.377
 6419SOL    HW120156   2.268   3.621   0.454
 6419SOL    HW220157   2.113   3.646   0.410
 6420SOL     OW20158   0.671   2.676   6.608
 6420SOL    HW120159   0.721   2.624   6.540
 6420SOL    HW220160   0.705   2.770   6.610
 6421SOL     OW20161   5.369   2.076   0.338
 6421SOL    HW120162   5.394   2.127   0.421
 6421SOL    HW220163   5.360   2.139   0.261
 6422SOL     OW20164   6.324   2.402   2.556
 6422SOL    HW120165   6.248   2.467   2.551
 6422SOL    HW220166   6.308   2.337   2.629
 6423SOL     OW20167   5.261   3.815   0.330
 6423SOL    HW120168   5.296   3.861   0.412
 6423SOL    HW220169   5.252   3.881   0.256
 6424SOL     OW20170   6.393   4.610   5.380
 6424SOL    HW120171   6.419   4.701   5.413
 6424SOL    HW220172   6.413   4.543   5.451
 6425SOL     OW20173   0.050   5.441   1.118
 6425SOL    HW120174   6.999   5.471   1.061
 6425SOL    HW220175   0.134   5.485   1.085
 6426SOL     OW20176   6.580   2.766   3.060
 6426SOL    HW120177   6.502   2.823   3.035
 6426SOL    HW220178   6.660   2.794   3.005
 6427SOL     OW20179   0.822   2.968   5.476
 6427SOL    HW120180   0.871   3.036   5.422
 6427SOL    HW220181   0.818   2.998   5.571
 6428SOL     OW20182   6.294   3.020   4.406
 6428SOL    HW120183   6.330   2.927   4.398
 6428SOL    HW220184   6.359   3.085   4.366
 6429SOL     OW20185   0.843   1.277   5.003
 6429SOL    HW120186   0.911   1.218   4.961
 6429SOL    HW220187   0.888   1.355   5.047
 6430SOL     OW20188   6.196   3.003   0.112
 6430SOL    HW120189   6.217   2.964   0.202
 6430SOL    HW220190   6.099   2.989   0.091
 6431SOL     OW20191   6.205   1.326   2.599
 6431SOL    HW120192   6.124   1.297   2.547
 6431SOL    HW220193   6.248   1.404   2.554
 6432SOL     OW20194   6.503   3.757   0.398
 6432SOL    HW120195   6.595   3.796   0.399
 6432SOL    HW220196   6.476   3.735   0.492
 6433SOL     OW20197   2.179   3.714   1.654
 6433SOL    HW120198   2.180   3.800   1.704
 6433SOL    HW220199   2.175   3.732   1.556
 6434SOL     OW20200   1.665   5.353   0.145
 6434SOL    HW120201   1.685   5.317   0.236
 6434SOL    HW220202   1.720   5.303   0.077
 6435SOL     OW20203   5.148   3.204   0.474
 6435SOL    HW120204   5.079   3.131   0.470
 6435SOL    HW220205   5.119   3.273   0.540
 6436SOL     OW20206   2.307   2.352   2.157
 6436SOL    HW120207   2.385   2.310   2.109
 6436SOL    HW220208   2.261   2.415   2.096
 6437SOL     OW20209   0.450   0.610   0.790
 6437SOL    HW120210   0.394   0.689   0.764
 6437SOL    HW220211   0.400   0.526   0.770
 6438SOL     OW20212   0.901   3.654   4.181
 6438SOL    HW120213   0.816   3.606   4.158
 6438SOL    HW220214   0.942   3.613   4.262
 6439SOL     OW20215   0.246   6.671   2.223
 6439SOL    HW120216   0.162   6.636   2.181
 6439SOL    HW220217   0.231   6.687   2.320
 6440SOL     OW20218   0.307   0.747   2.034
 6440SOL    HW120219   0.241   0.748   2.109
 6440SOL    HW220220   0.373   0.821   2.047
 6441SOL     OW20221   4.397   1.164   2.683
 6441SOL    HW120222   4.455   1.173   2.602
 6441SOL    HW220223   4.335   1.243   2.688
 6442SOL     OW20224   3.372   0.780   3.284
 6442SOL    HW120225   3.421   0.699   3.253
 6442SOL    HW220226   3.302   0.805   3.218
 6443SOL     OW20227   2.561   0.603   0.772
 6443SOL    HW120228   2.596   0.617   0.679
 6443SOL    HW220229   2.589   0.679   0.830
 6444SOL     OW20230   0.418   1.356   2.724
 6444SOL    HW120231   0.438   1.381   2.629
 6444SOL    HW220232   0.483   1.401   2.785
 6445SOL     OW20233   3.260   4.030   5.855
 6445SOL    HW120234   3.280   3.956   5.919
 6445SOL    HW220235   3.325   4.105   5.869
 6446SOL     OW20236   0.114   1.583   0.571
 6446SOL    HW120237   0.104   1.634   0.486
 6446SOL    HW220238   0.207   1.594   0.606
 6447SOL     OW20239   1.614   0.582   3.485
 6447SOL    HW120240   1.571   0.651   3.542
 6447SOL    HW220241   1.709   0.607   3.466
 6448SOL     OW20242   0.049   2.255   2.847
 6448SOL    HW120243   0.065   2.346   2.885
 6448SOL    HW220244   0.008   2.196   2.916
 6449SOL     OW20245   3.992   2.688   0.817
 6449SOL    HW120246   3.896   2.677   0.840
 6449SOL    HW220247   4.004   2.770   0.761
 6450SOL     OW20248   6.839   2.824   0.738
 6450SOL    HW120249   6.879   2.769   0.665
 6450SOL    HW220250   6.875   2.917   0.733
 6451SOL     OW20251   2.592   6.606   4.237
 6451SOL    HW120252   2.667   6.660   4.275
 6451SOL    HW220253   2.607   6.509   4.256
 6452SOL     OW20254   3.512   5.950   5.141
 6452SOL    HW120255   3.447   5.984   5.073
 6452SOL    HW220256   3.601   5.993   5.125
 6453SOL     OW20257   2.093   5.482   6.693
 6453SOL    HW120258   2.036   5.402   6.676
 6453SOL    HW220259   2.157   5.462   6.768
 6454SOL     OW20260   3.932   1.205   4.964
 6454SOL    HW120261   3.876   1.180   5.043
 6454SOL    HW220262   4.012   1.257   4.995
 6455SOL     OW20263   6.176   3.427   6.767
 6455SOL    HW120264   6.205   3.336   6.737
 6455SOL    HW220265   6.078   3.437   6.751
 6456SOL     OW20266   0.042   1.474   5.034
 6456SOL    HW120267   0.128   1.517   5.061
 6456SOL    HW220268   7.016   1.448   5.116
 6457SOL     OW20269   6.198   2.801   2.348
 6457SOL    HW120270   6.270   2.869   2.339
 6457SOL    HW220271   6.205   2.735   2.273
 6458SOL     OW20272   0.716   6.075   3.435
 6458SOL    HW120273   0.683   6.011   3.504
 6458SOL    HW220274   0.660   6.158   3.438
 6459SOL     OW20275   5.425   4.312   0.941
 6459SOL    HW120276   5.332   4.283   0.915
 6459SOL    HW220277   5.431   4.320   1.040
 6460SOL     OW20278   3.624   4.839   1.432
 6460SOL    HW120279   3.651   4.934   1.416
 6460SOL    HW220280   3.571   4.806   1.354
 6461SOL     OW20281   2.992   6.001   5.747
 6461SOL    HW120282   2.919   6.069   5.740
 6461SOL    HW220283   3.062   6.021   5.678
 6462SOL     OW20284   2.120   3.589   3.157
 6462SOL    HW120285   2.134   3.663   3.222
 6462SOL    HW220286   2.130   3.501   3.204
 6463SOL     OW20287   1.333   3.531   5.790
 6463SOL    HW120288   1.396   3.522   5.713
 6463SOL    HW220289   1.375   3.587   5.862
 6464SOL     OW20290   1.627   5.064   2.202
 6464SOL    HW120291   1.556   5.023   2.145
 6464SOL    HW220292   1.585   5.110   2.280
 6465SOL     OW20293   6.277   0.854   2.674
 6465SOL    HW120294   6.343   0.809   2.734
 6465SOL    HW220295   6.259   0.946   2.707
 6466SOL     OW20296   0.032   1.878   4.984
 6466SOL    HW120297   6.978   1.826   5.015
 6466SOL    HW220298   0.023   1.896   4.886
 6467SOL     OW20299   3.290   0.981   6.045
 6467SOL    HW120300   3.304   1.068   6.093
 6467SOL    HW220301   3.242   0.918   6.106
 6468SOL     OW20302   5.117   3.981   1.902
 6468SOL    HW120303   5.142   3.923   1.825
 6468SOL    HW220304   5.183   4.056   1.910
 6469SOL     OW20305   5.815   0.859   5.590
 6469SOL    HW120306   5.842   0.918   5.514
 6469SOL    HW220307   5.884   0.862   5.661
 6470SOL     OW20308   6.462   5.923   4.304
 6470SOL    HW120309   6.460   5.829   4.336
 6470SOL    HW220310   6.373   5.948   4.266
 6471SOL     OW20311   6.536   5.720   5.298
 6471SOL    HW120312   6.619   5.670   5.272
 6471SOL    HW220313   6.466   5.655   5.329
 6472SOL     OW20314   1.624   6.369   1.604
 6472SOL    HW120315   1.537   6.349   1.559
 6472SOL    HW220316   1.691   6.396   1.535
 6473SOL     OW20317   2.513   0.670   5.324
 6473SOL    HW120318   2.545   0.610   5.251
 6473SOL    HW220319   2.577   0.746   5.336
 6474SOL     OW20320   2.416   3.532   6.217
 6474SOL    HW120321   2.452   3.561   6.306
 6474SOL    HW220322   2.342   3.466   6.231
 6475SOL     OW20323   4.276   5.073   3.904
 6475SOL    HW120324   4.218   5.154   3.913
 6475SOL    HW220325   4.349   5.092   3.838
 6476SOL     OW20326   4.979   4.925   2.334
 6476SOL    HW120327   4.932   5.004   2.372
 6476SOL    HW220328   5.078   4.937   2.343
 6477SOL     OW20329   6.518   6.579   6.877
 6477SOL    HW120330   6.430   6.532   6.878
 6477SOL    HW220331   6.552   6.586   6.783
 6478SOL     OW20332   5.332   6.004   1.477
 6478SOL    HW120333   5.412   6.052   1.440
 6478SOL    HW220334   5.254   6.066   1.479
 6479SOL     OW20335   3.341   5.819   2.363
 6479SOL    HW120336   3.348   5.883   2.287
 6479SOL    HW220337   3.416   5.835   2.427
 6480SOL     OW20338   2.929   1.014   1.550
 6480SOL    HW120339   2.869   1.008   1.629
 6480SOL    HW220340   2.876   1.039   1.469
 6481SOL     OW20341   4.497   0.925   1.239
 6481SOL    HW120342   4.460   0.838   1.271
 6481SOL    HW220343   4.563   0.909   1.166
 6482SOL     OW20344   6.746   6.999   6.543
 6482SOL    HW120345   6.733   7.000   6.643
 6482SOL    HW220346   6.684   0.039   6.501
 6483SOL     OW20347   2.089   5.861   1.863
 6483SOL    HW120348   2.185   5.851   1.888
 6483SOL    HW220349   2.071   5.956   1.836
 6484SOL     OW20350   4.996   6.561   3.054
 6484SOL    HW120351   5.059   6.620   3.104
 6484SOL    HW220352   4.946   6.615   2.987
 6485SOL     OW20353   0.620   2.768   2.996
 6485SOL    HW120354   0.615   2.768   3.096
 6485SOL    HW220355   0.631   2.674   2.963
 6486SOL     OW20356   1.871   2.607   3.490
 6486SOL    HW120357   1.835   2.695   3.522
 6486SOL    HW220358   1.936   2.622   3.416
 6487SOL     OW20359   5.849   4.871   3.363
 6487SOL    HW120360   5.825   4.956   3.316
 6487SOL    HW220361   5.874   4.802   3.295
 6488SOL     OW20362   3.307   4.992   5.248
 6488SOL    HW120363   3.317   5.063   5.178
 6488SOL    HW220364   3.220   5.003   5.295
 6489SOL     OW20365   2.609   1.847   6.750
 6489SOL    HW120366   2.601   1.779   6.823
 6489SOL    HW220367   2.640   1.933   6.789
 6490SOL     OW20368   5.192   1.742   0.887
 6490SOL    HW120369   5.165   1.774   0.796
 6490SOL    HW220370   5.203   1.821   0.948
 6491SOL     OW20371   4.750   0.660   5.629
 6491SOL    HW120372   4.760   0.575   5.682
 6491SOL    HW220373   4.653   0.682   5.620
 6492SOL     OW20374   6.335   5.752   5.673
 6492SOL    HW120375   6.379   5.675   5.720
 6492SOL    HW220376   6.238   5.732   5.660
 6493SOL     OW20377   1.176   6.803   5.428
 6493SOL    HW120378   1.188   6.883   5.487
 6493SOL    HW220379   1.239   6.811   5.350
 6494SOL     OW20380   0.452   1.215   3.124
 6494SOL    HW120381   0.410   1.174   3.205
 6494SOL    HW220382   0.542   1.173   3.108
 6495SOL     OW20383   5.732   4.444   1.912
 6495SOL    HW120384   5.803   4.420   1.978
 6495SOL    HW220385   5.644   4.409   1.944
 6496SOL     OW20386   0.514   6.251   3.474
 6496SOL    HW120387   0.516   6.344   3.440
 6496SOL    HW220388   0.444   6.243   3.545
 6497SOL     OW20389   0.502   6.043   0.405
 6497SOL    HW120390   0.416   6.071   0.448
 6497SOL    HW220391   0.492   6.046   0.305
 6498SOL     OW20392   1.585   4.386   4.003
 6498SOL    HW120393   1.631   4.298   4.012
 6498SOL    HW220394   1.596   4.420   3.910
 6499SOL     OW20395   6.317   1.333   3.501
 6499SOL    HW120396   6.267   1.314   3.586
 6499SOL    HW220397   6.293   1.424   3.468
 6500SOL     OW20398   6.055   4.876   2.832
 6500SOL    HW120399   5.955   4.872   2.831
 6500SOL    HW220400   6.090   4.833   2.749
 6501SOL     OW20401   6.709   3.617   0.562
 6501SOL    HW120402   6.669   3.694   0.612
 6501SOL    HW220403   6.808   3.626   0.560
 6502SOL     OW20404   0.913   5.168   1.246
 6502SOL    HW120405   0.827   5.144   1.200
 6502SOL    HW220406   0.895   5.190   1.342
 6503SOL     OW20407   4.411   6.876   4.337
 6503SOL    HW120408   4.482   6.936   4.375
 6503SOL    HW220409   4.438   6.845   4.246
 6504SOL     OW20410   1.735   1.192   0.982
 6504SOL    HW120411   1.736   1.254   0.904
 6504SOL    HW220412   1.721   1.098   0.949
 6505SOL     OW20413   5.650   5.723   0.531
 6505SOL    HW120414   5.660   5.822   0.542
 6505SOL    HW220415   5.569   5.692   0.579
 6506SOL     OW20416   2.306   1.121   0.853
 6506SOL    HW120417   2.385   1.113   0.791
 6506SOL    HW220418   2.225   1.083   0.808
 6507SOL     OW20419   2.884   0.898   2.322
 6507SOL    HW120420   2.901   0.824   2.256
 6507SOL    HW220421   2.800   0.945   2.298
 6508SOL     OW20422   2.454   1.773   2.062
 6508SOL    HW120423   2.400   1.723   1.994
 6508SOL    HW220424   2.505   1.708   2.118
 6509SOL     OW20425   0.824   3.125   4.203
 6509SOL    HW120426   0.899   3.185   4.177
 6509SOL    HW220427   0.770   3.101   4.122
 6510SOL     OW20428   6.360   4.734   6.295
 6510SOL    HW120429   6.387   4.812   6.238
 6510SOL    HW220430   6.438   4.672   6.304
 6511SOL     OW20431   6.800   6.510   6.114
 6511SOL    HW120432   6.808   6.515   6.213
 6511SOL    HW220433   6.750   6.590   6.081
 6512SOL     OW20434   5.251   6.251   3.875
 6512SOL    HW120435   5.276   6.322   3.809
 6512SOL    HW220436   5.331   6.227   3.930
 6513SOL     OW20437   1.117   6.561   3.486
 6513SOL    HW120438   1.033   6.616   3.488
 6513SOL    HW220439   1.134   6.529   3.393
 6514SOL     OW20440   3.154   0.326   3.467
 6514SOL    HW120441   3.200   0.414   3.457
 6514SOL    HW220442   3.151   0.280   3.378
 6515SOL     OW20443   0.370   0.704   3.261
 6515SOL    HW120444   0.297   0.770   3.245
 6515SOL    HW220445   0.442   0.747   3.315
 6516SOL     OW20446   0.979   1.223   5.570
 6516SOL    HW120447   1.009   1.151   5.508
 6516SOL    HW220448   1.035   1.305   5.557
 6517SOL     OW20449   2.379   2.379   1.084
 6517SOL    HW120450   2.318   2.305   1.111
 6517SOL    HW220451   2.390   2.443   1.161
 6518SOL     OW20452   5.578   6.504   0.791
 6518SOL    HW120453   5.586   6.458   0.880
 6518SOL    HW220454   5.534   6.443   0.726
 6519SOL     OW20455   1.191   1.994   4.370
 6519SOL    HW120456   1.220   1.899   4.355
 6519SOL    HW220457   1.103   2.009   4.325
 6520SOL     OW20458   5.688   5.570   1.446
 6520SOL    HW120459   5.740   5.493   1.483
 6520SOL    HW220460   5.603   5.536   1.406
 6521SOL     OW20461   1.485   2.209   5.317
 6521SOL    HW120462   1.495   2.119   5.357
 6521SOL    HW220463   1.502   2.279   5.386
 6522SOL     OW20464   2.778   5.600   4.541
 6522SOL    HW120465   2.764   5.516   4.488
 6522SOL    HW220466   2.875   5.613   4.557
 6523SOL     OW20467   1.765   2.921   0.204
 6523SOL    HW120468   1.699   2.932   0.129
 6523SOL    HW220469   1.720   2.942   0.290
 6524SOL     OW20470   4.001   3.123   5.466
 6524SOL    HW120471   4.030   3.216   5.446
 6524SOL    HW220472   3.919   3.124   5.522
 6525SOL     OW20473   0.262   2.819   4.457
 6525SOL    HW120474   0.257   2.729   4.501
 6525SOL    HW220475   0.318   2.813   4.375
 6526SOL     OW20476   1.668   5.303   4.308
 6526SOL    HW120477   1.631   5.318   4.216
 6526SOL    HW220478   1.608   5.346   4.375
 6527SOL     OW20479   2.568   1.429   4.079
 6527SOL    HW120480   2.634   1.374   4.027
 6527SOL    HW220481   2.559   1.392   4.171
 6528SOL     OW20482   0.760   0.117   3.211
 6528SOL    HW120483   0.712   0.204   3.224
 6528SOL    HW220484   0.723   0.049   3.273
 6529SOL     OW20485   6.896   2.827   2.281
 6529SOL    HW120486   6.917   2.868   2.192
 6529SOL    HW220487   6.797   2.825   2.294
 6530SOL     OW20488   0.403   1.664   0.590
 6530SOL    HW120489   0.412   1.727   0.513
 6530SOL    HW220490   0.491   1.651   0.634
 6531SOL     OW20491   4.900   2.312   5.025
 6531SOL    HW120492   4.914   2.228   4.974
 6531SOL    HW220493   4.843   2.293   5.105
 6532SOL     OW20494   1.133   2.390   6.869
 6532SOL    HW120495   1.152   2.459   6.799
 6532SOL    HW220496   1.164   2.300   6.838
 6533SOL     OW20497   4.615   0.545   1.319
 6533SOL    HW120498   4.532   0.601   1.316
 6533SOL    HW220499   4.660   0.559   1.407
 6534SOL     OW20500   2.249   3.406   7.012
 6534SOL    HW120501   2.214   3.378   0.076
 6534SOL    HW220502   2.348   3.390   7.009
 6535SOL     OW20503   1.925   3.604   5.401
 6535SOL    HW120504   1.976   3.551   5.333
 6535SOL    HW220505   1.975   3.687   5.423
 6536SOL     OW20506   6.727   2.160   6.859
 6536SOL    HW120507   6.740   2.093   6.786
 6536SOL    HW220508   6.632   2.193   6.857
 6537SOL     OW20509   1.098   0.604   6.613
 6537SOL    HW120510   1.139   0.666   6.545
 6537SOL    HW220511   1.171   0.552   6.657
 6538SOL     OW20512   2.502   2.676   5.887
 6538SOL    HW120513   2.456   2.597   5.846
 6538SOL    HW220514   2.501   2.752   5.822
 6539SOL     OW20515   3.456   1.571   6.352
 6539SOL    HW120516   3.422   1.521   6.432
 6539SOL    HW220517   3.407   1.542   6.271
 6540SOL     OW20518   3.911   1.885   3.847
 6540SOL    HW120519   4.010   1.883   3.832
 6540SOL    HW220520   3.893   1.897   3.945
 6541SOL     OW20521   2.770   2.707   5.360
 6541SOL    HW120522   2.675   2.730   5.336
 6541SOL    HW220523   2.790   2.742   5.452
 6542SOL     OW20524   5.688   4.016   3.034
 6542SOL    HW120525   5.712   3.954   3.108
 6542SOL    HW220526   5.649   4.100   3.073
 6543SOL     OW20527   1.241   6.296   5.928
 6543SOL    HW120528   1.201   6.223   5.983
 6543SOL    HW220529   1.226   6.384   5.972
 6544SOL     OW20530   0.078   5.846   2.587
 6544SOL    HW120531   0.070   5.828   2.489
 6544SOL    HW220532   0.080   5.945   2.603
 6545SOL     OW20533   6.124   3.250   6.495
 6545SOL    HW120534   6.106   3.221   6.401
 6545SOL    HW220535   6.044   3.231   6.552
 6546SOL     OW20536   3.541   4.629   5.797
 6546SOL    HW120537   3.443   4.644   5.790
 6546SOL    HW220538   3.562   4.580   5.882
 6547SOL     OW20539   4.971   0.380   6.402
 6547SOL    HW120540   5.033   0.329   6.342
 6547SOL    HW220541   4.876   0.357   6.379
 6548SOL     OW20542   5.559   3.531   5.491
 6548SOL    HW120543   5.577   3.434   5.507
 6548SOL    HW220544   5.573   3.582   5.575
 6549SOL     OW20545   2.890   2.295   2.655
 6549SOL    HW120546   2.903   2.219   2.591
 6549SOL    HW220547   2.937   2.376   2.621
 6550SOL     OW20548   0.965   5.364   3.111
 6550SOL    HW120549   1.046   5.358   3.171
 6550SOL    HW220550   0.897   5.298   3.142
 6551SOL     OW20551   3.008   5.280   2.234
 6551SOL    HW120552   3.082   5.247   2.293
 6551SOL    HW220553   2.924   5.229   2.254
 6552SOL     OW20554   4.528   5.255   6.946
 6552SOL    HW120555   4.528   5.161   6.981
 6552SOL    HW220556   4.437   5.279   6.915
 6553SOL     OW20557   6.937   3.135   3.174
 6553SOL    HW120558   6.954   3.163   3.079
 6553SOL    HW220559   7.003   3.063   3.199
 6554SOL     OW20560   6.842   3.613   4.512
 6554SOL    HW120561   6.900   3.557   4.571
 6554SOL    HW220562   6.749   3.576   4.513
 6555SOL     OW20563   0.533   1.269   1.513
 6555SOL    HW120564   0.597   1.307   1.579
 6555SOL    HW220565   0.550   1.171   1.503
 6556SOL     OW20566   3.712   0.064   3.682
 6556SOL    HW120567   3.806   0.038   3.660
 6556SOL    HW220568   3.678   0.007   3.757
 6557SOL     OW20569   5.552   6.215   0.372
 6557SOL    HW120570   5.491   6.258   0.305
 6557SOL    HW220571   5.646   6.214   0.336
 6558SOL     OW20572   0.169   6.412   5.698
 6558SOL    HW120573   0.125   6.501   5.704
 6558SOL    HW220574   0.234   6.401   5.773
 6559SOL     OW20575   3.314   3.255   1.073
 6559SOL    HW120576   3.301   3.190   0.997
 6559SOL    HW220577   3.334   3.204   1.157
 6560SOL     OW20578   4.572   1.783   1.199
 6560SOL    HW120579   4.491   1.839   1.216
 6560SOL    HW220580   4.600   1.737   1.283
 6561SOL     OW20581   3.443   3.918   4.288
 6561SOL    HW120582   3.493   3.866   4.357
 6561SOL    HW220583   3.446   3.870   4.200
 6562SOL     OW20584   6.977   4.483   5.253
 6562SOL    HW120585   7.021   4.445   5.334
 6562SOL    HW220586   6.999   4.427   5.174
 6563SOL     OW20587   0.503   5.431   2.585
 6563SOL    HW120588   0.571   5.484   2.636
 6563SOL    HW220589   0.418   5.482   2.579
 6564SOL     OW20590   1.574   5.474   2.801
 6564SOL    HW120591   1.648   5.411   2.777
 6564SOL    HW220592   1.544   5.523   2.720
 6565SOL     OW20593   6.750   3.408   5.376
 6565SOL    HW120594   6.758   3.368   5.286
 6565SOL    HW220595   6.654   3.429   5.395
 6566SOL     OW20596   3.882   1.298   0.947
 6566SOL    HW120597   3.950   1.248   0.893
 6566SOL    HW220598   3.793   1.255   0.936
 6567SOL     OW20599   6.517   2.578   1.018
 6567SOL    HW120600   6.616   2.591   1.029
 6567SOL    HW220601   6.481   2.527   1.095
 6568SOL     OW20602   4.481   3.776   1.131
 6568SOL    HW120603   4.459   3.872   1.151
 6568SOL    HW220604   4.536   3.771   1.048
 6569SOL     OW20605   1.306   4.816   6.171
 6569SOL    HW120606   1.343   4.724   6.175
 6569SOL    HW220607   1.312   4.859   6.262
 6570SOL     OW20608   6.413   3.688   1.797
 6570SOL    HW120609   6.407   3.649   1.705
 6570SOL    HW220610   6.321   3.696   1.836
 6571SOL     OW20611   2.128   6.131   3.659
 6571SOL    HW120612   2.190   6.161   3.732
 6571SOL    HW220613   2.178   6.073   3.595
 6572SOL     OW20614   1.592   4.340   6.276
 6572SOL    HW120615   1.614   4.415   6.338
 6572SOL    HW220616   1.655   4.263   6.293
 6573SOL     OW20617   1.704   1.940   1.818
 6573SOL    HW120618   1.660   2.025   1.850
 6573SOL    HW220619   1.739   1.889   1.897
 6574SOL     OW20620   1.965   4.472   4.483
 6574SOL    HW120621   2.007   4.416   4.555
 6574SOL    HW220622   1.866   4.474   4.496
 6575SOL     OW20623   2.130   1.908   3.080
 6575SOL    HW120624   2.144   1.900   2.981
 6575SOL    HW220625   2.035   1.884   3.101
 6576SOL     OW20626   1.102   6.469   4.125
 6576SOL    HW120627   1.013   6.502   4.157
 6576SOL    HW220628   1.175   6.521   4.169
 6577SOL     OW20629   0.227   3.594   5.287
 6577SOL    HW120630   0.219   3.545   5.374
 6577SOL    HW220631   0.228   3.692   5.304
 6578SOL     OW20632   6.533   5.378   3.452
 6578SOL    HW120633   6.570   5.470   3.460
 6578SOL    HW220634   6.528   5.336   3.542
 6579SOL     OW20635   7.025   4.375   3.707
 6579SOL    HW120636   6.954   4.344   3.770
 6579SOL    HW220637   0.010   4.474   3.716
 6580SOL     OW20638   5.202   2.619   0.313
 6580SOL    HW120639   5.106   2.620   0.342
 6580SOL    HW220640   5.245   2.706   0.336
 6581SOL     OW20641   2.498   2.534   5.611
 6581SOL    HW120642   2.579   2.541   5.669
 6581SOL    HW220643   2.525   2.505   5.519
 6582SOL     OW20644   6.793   0.199   2.407
 6582SOL    HW120645   6.753   0.176   2.319
 6582SOL    HW220646   6.780   0.296   2.426
 6583SOL     OW20647   6.316   1.408   6.423
 6583SOL    HW120648   6.340   1.318   6.387
 6583SOL    HW220649   6.228   1.402   6.471
 6584SOL     OW20650   5.692   2.450   0.326
 6584SOL    HW120651   5.701   2.520   0.256
 6584SOL    HW220652   5.706   2.490   0.416
 6585SOL     OW20653   2.828   1.317   1.727
 6585SOL    HW120654   2.734   1.347   1.743
 6585SOL    HW220655   2.831   1.217   1.725
 6586SOL     OW20656   6.468   1.756   0.158
 6586SOL    HW120657   6.521   1.675   0.183
 6586SOL    HW220658   6.401   1.775   0.230
 6587SOL     OW20659   2.072   6.404   2.167
 6587SOL    HW120660   2.091   6.307   2.149
 6587SOL    HW220661   2.138   6.438   2.234
 6588SOL     OW20662   2.760   2.058   0.105
 6588SOL    HW120663   2.857   2.075   0.121
 6588SOL    HW220664   2.713   2.144   0.090
 6589SOL     OW20665   5.045   1.783   6.339
 6589SOL    HW120666   5.118   1.723   6.307
 6589SOL    HW220667   5.075   1.878   6.332
 6590SOL     OW20668   6.460   1.129   5.601
 6590SOL    HW120669   6.371   1.135   5.556
 6590SOL    HW220670   6.531   1.163   5.539
 6591SOL     OW20671   5.590   0.113   3.039
 6591SOL    HW120672   5.540   0.112   3.126
 6591SOL    HW220673   5.613   0.207   3.015
 6592SOL     OW20674   6.467   5.500   4.936
 6592SOL    HW120675   6.567   5.499   4.938
 6592SOL    HW220676   6.435   5.593   4.958
 6593SOL     OW20677   5.168   0.803   2.714
 6593SOL    HW120678   5.094   0.807   2.647
 6593SOL    HW220679   5.242   0.746   2.679
 6594SOL     OW20680   5.865   1.053   0.062
 6594SOL    HW120681   5.784   1.089   0.107
 6594SOL    HW220682   5.868   1.085   6.993
 6595SOL     OW20683   2.384   2.947   6.979
 6595SOL    HW120684   2.420   3.030   7.022
 6595SOL    HW220685   2.457   2.903   6.926
 6596SOL     OW20686   3.492   6.596   5.210
 6596SOL    HW120687   3.487   6.502   5.245
 6596SOL    HW220688   3.449   6.599   5.119
 6597SOL     OW20689   6.944   4.155   6.683
 6597SOL    HW120690   0.007   4.190   6.652
 6597SOL    HW220691   6.891   4.127   6.603
 6598SOL     OW20692   2.254   5.815   4.806
 6598SOL    HW120693   2.342   5.831   4.851
 6598SOL    HW220694   2.233   5.718   4.808
 6599SOL     OW20695   4.292   3.080   6.364
 6599SOL    HW120696   4.290   3.148   6.438
 6599SOL    HW220697   4.218   3.099   6.299
 6600SOL     OW20698   4.404   5.036   4.620
 6600SOL    HW120699   4.499   5.018   4.643
 6600SOL    HW220700   4.395   5.129   4.584
 6601SOL     OW20701   0.523   0.648   1.449
 6601SOL    HW120702   0.490   0.596   1.528
 6601SOL    HW220703   0.521   0.591   1.368
 6602SOL     OW20704   6.566   1.443   1.550
 6602SOL    HW120705   6.525   1.465   1.638
 6602SOL    HW220706   6.591   1.346   1.548
 6603SOL     OW20707   2.408   1.969   1.608
 6603SOL    HW120708   2.505   1.977   1.627
 6603SOL    HW220709   2.382   1.872   1.609
 6604SOL     OW20710   3.893   5.660   4.209
 6604SOL    HW120711   3.903   5.649   4.308
 6604SOL    HW220712   3.855   5.750   4.189
 6605SOL     OW20713   4.995   6.207   0.352
 6605SOL    HW120714   4.967   6.131   0.293
 6605SOL    HW220715   5.019   6.286   0.295
 6606SOL     OW20716   0.216   1.989   2.918
 6606SOL    HW120717   0.203   1.910   2.857
 6606SOL    HW220718   0.129   2.014   2.959
 6607SOL     OW20719   1.391   3.072   3.108
 6607SOL    HW120720   1.377   3.131   3.028
 6607SOL    HW220721   1.312   3.080   3.169
 6608SOL     OW20722   5.394   5.040   4.717
 6608SOL    HW120723   5.320   5.089   4.763
 6608SOL    HW220724   5.474   5.038   4.776
 6609SOL     OW20725   5.604   1.924   0.277
 6609SOL    HW120726   5.683   1.985   0.282
 6609SOL    HW220727   5.521   1.974   0.301
 6610SOL     OW20728   3.883   1.218   0.640
 6610SOL    HW120729   3.847   1.159   0.567
 6610SOL    HW220730   3.833   1.305   0.640
 6611SOL     OW20731   5.594   3.124   3.153
 6611SOL    HW120732   5.600   3.040   3.099
 6611SOL    HW220733   5.676   3.179   3.138
 6612SOL     OW20734   1.129   5.859   6.562
 6612SOL    HW120735   1.065   5.782   6.556
 6612SOL    HW220736   1.186   5.849   6.644
 6613SOL     OW20737   5.176   4.882   0.909
 6613SOL    HW120738   5.219   4.793   0.921
 6613SOL    HW220739   5.242   4.954   0.930
 6614SOL     OW20740   5.614   4.702   5.593
 6614SOL    HW120741   5.685   4.732   5.529
 6614SOL    HW220742   5.635   4.610   5.626
 6615SOL     OW20743   0.034   3.752   5.164
 6615SOL    HW120744   0.057   3.661   5.199
 6615SOL    HW220745   0.114   3.791   5.117
 6616SOL     OW20746   4.608   0.928   4.220
 6616SOL    HW120747   4.628   0.952   4.125
 6616SOL    HW220748   4.600   0.829   4.229
 6617SOL     OW20749   4.313   6.992   5.000
 6617SOL    HW120750   4.266   6.903   4.999
 6617SOL    HW220751   4.246   0.039   5.008
 6618SOL     OW20752   6.925   5.078   0.897
 6618SOL    HW120753   6.964   5.038   0.980
 6618SOL    HW220754   6.945   5.018   0.819
 6619SOL     OW20755   0.138   6.566   1.616
 6619SOL    HW120756   0.119   6.617   1.699
 6619SOL    HW220757   0.098   6.474   1.623
 6620SOL     OW20758   4.395   3.162   5.605
 6620SOL    HW120759   4.486   3.131   5.631
 6620SOL    HW220760   4.331   3.085   5.611
 6621SOL     OW20761   2.482   3.722   0.316
 6621SOL    HW120762   2.571   3.691   0.350
 6621SOL    HW220763   2.413   3.653   0.335
 6622SOL     OW20764   6.543   5.715   0.915
 6622SOL    HW120765   6.449   5.681   0.912
 6622SOL    HW220766   6.564   5.743   1.009
 6623SOL     OW20767   3.624   4.095   2.418
 6623SOL    HW120768   3.528   4.117   2.439
 6623SOL    HW220769   3.679   4.102   2.501
 6624SOL     OW20770   4.246   4.681   4.215
 6624SOL    HW120771   4.326   4.622   4.203
 6624SOL    HW220772   4.260   4.767   4.166
 6625SOL     OW20773   6.203   6.839   0.218
 6625SOL    HW120774   6.276   6.894   0.259
 6625SOL    HW220775   6.118   6.852   0.269
 6626SOL     OW20776   2.703   4.798   3.683
 6626SOL    HW120777   2.644   4.745   3.745
 6626SOL    HW220778   2.798   4.789   3.712
 6627SOL     OW20779   1.866   6.806   1.591
 6627SOL    HW120780   1.851   6.898   1.626
 6627SOL    HW220781   1.893   6.746   1.666
 6628SOL     OW20782   4.054   5.750   3.716
 6628SOL    HW120783   4.153   5.759   3.723
 6628SOL    HW220784   4.027   5.656   3.734
 6629SOL     OW20785   3.310   4.069   0.229
 6629SOL    HW120786   3.337   3.974   0.211
 6629SOL    HW220787   3.268   4.075   0.320
 6630SOL     OW20788   3.689   1.364   6.556
 6630SOL    HW120789   3.689   1.450   6.506
 6630SOL    HW220790   3.750   1.371   6.635
 6631SOL     OW20791   4.450   0.332   1.344
 6631SOL    HW120792   4.528   0.392   1.323
 6631SOL    HW220793   4.365   0.385   1.340
 6632SOL     OW20794   6.487   2.590   2.421
 6632SOL    HW120795   6.451   2.569   2.330
 6632SOL    HW220796   6.444   2.530   2.489
 6633SOL     OW20797   0.944   6.335   1.931
 6633SOL    HW120798   0.907   6.379   1.849
 6633SOL    HW220799   1.044   6.345   1.933
 6634SOL     OW20800   6.698   2.538   5.730
 6634SOL    HW120801   6.721   2.473   5.657
 6634SOL    HW220802   6.633   2.496   5.793
 6635SOL     OW20803   4.026   4.966   2.887
 6635SOL    HW120804   3.958   4.904   2.924
 6635SOL    HW220805   4.109   4.915   2.865
 6636SOL     OW20806   1.807   3.549   3.928
 6636SOL    HW120807   1.830   3.475   3.991
 6636SOL    HW220808   1.731   3.602   3.966
 6637SOL     OW20809   6.183   2.518   1.534
 6637SOL    HW120810   6.201   2.509   1.631
 6637SOL    HW220811   6.266   2.546   1.486
 6638SOL     OW20812   1.938   0.394   6.601
 6638SOL    HW120813   1.936   0.306   6.648
 6638SOL    HW220814   1.845   0.430   6.595
 6639SOL     OW20815   4.179   5.712   6.119
 6639SOL    HW120816   4.201   5.757   6.032
 6639SOL    HW220817   4.158   5.616   6.102
 6640SOL     OW20818   5.933   3.049   3.407
 6640SOL    HW120819   5.926   3.036   3.308
 6640SOL    HW220820   5.856   3.005   3.452
 6641SOL     OW20821   2.353   5.120   6.671
 6641SOL    HW120822   2.405   5.051   6.622
 6641SOL    HW220823   2.411   5.163   6.741
 6642SOL     OW20824   6.360   6.094   6.537
 6642SOL    HW120825   6.413   6.157   6.480
 6642SOL    HW220826   6.406   6.082   6.625
 6643SOL     OW20827   3.648   5.639   0.183
 6643SOL    HW120828   3.623   5.608   0.274
 6643SOL    HW220829   3.679   5.734   0.187
 6644SOL     OW20830   1.193   3.936   1.771
 6644SOL    HW120831   1.164   3.974   1.859
 6644SOL    HW220832   1.193   4.008   1.702
 6645SOL     OW20833   6.264   5.031   5.474
 6645SOL    HW120834   6.308   5.096   5.412
 6645SOL    HW220835   6.333   4.970   5.512
 6646SOL     OW20836   1.309   5.898   4.050
 6646SOL    HW120837   1.319   5.818   3.990
 6646SOL    HW220838   1.235   5.956   4.015
 6647SOL     OW20839   4.198   1.728   2.230
 6647SOL    HW120840   4.183   1.791   2.154
 6647SOL    HW220841   4.250   1.774   2.302
 6648SOL     OW20842   4.192   5.466   1.613
 6648SOL    HW120843   4.105   5.490   1.656
 6648SOL    HW220844   4.218   5.538   1.548
 6649SOL     OW20845   4.459   1.651   6.092
 6649SOL    HW120846   4.368   1.688   6.073
 6649SOL    HW220847   4.466   1.625   6.188
 6650SOL     OW20848   3.206   0.937   3.952
 6650SOL    HW120849   3.116   0.961   3.916
 6650SOL    HW220850   3.226   0.841   3.931
 6651SOL     OW20851   1.067   1.874   0.642
 6651SOL    HW120852   1.152   1.923   0.663
 6651SOL    HW220853   1.023   1.845   0.727
 6652SOL     OW20854   0.765   5.200   3.186
 6652SOL    HW120855   0.830   5.196   3.262
 6652SOL    HW220856   0.672   5.200   3.222
 6653SOL     OW20857   3.275   3.470   3.567
 6653SOL    HW120858   3.255   3.560   3.528
 6653SOL    HW220859   3.196   3.440   3.621
 6654SOL     OW20860   1.713   3.510   1.461
 6654SOL    HW120861   1.615   3.512   1.439
 6654SOL    HW220862   1.756   3.594   1.427
 6655SOL     OW20863   1.578   0.574   0.341
 6655SOL    HW120864   1.666   0.585   0.387
 6655SOL    HW220865   1.514   0.643   0.375
 6656SOL     OW20866   0.098   2.781   1.952
 6656SOL    HW120867   0.106   2.738   1.862
 6656SOL    HW220868   0.072   2.712   2.019
 6657SOL     OW20869   3.112   4.875   5.510
 6657SOL    HW120870   3.106   4.809   5.435
 6657SOL    HW220871   3.207   4.881   5.540
 6658SOL     OW20872   6.387   6.974   6.330
 6658SOL    HW120873   6.384   6.892   6.388
 6658SOL    HW220874   6.367   6.948   6.235
 6659SOL     OW20875   1.833   2.673   6.844
 6659SOL    HW120876   1.788   2.639   6.927
 6659SOL    HW220877   1.933   2.667   6.856
 6660SOL     OW20878   0.972   6.483   2.727
 6660SOL    HW120879   0.931   6.541   2.656
 6660SOL    HW220880   1.068   6.509   2.739
 6661SOL     OW20881   7.014   6.196   3.863
 6661SOL    HW120882   6.963   6.128   3.810
 6661SOL    HW220883   7.001   6.286   3.822
 6662SOL     OW20884   1.609   3.970   5.934
 6662SOL    HW120885   1.706   3.972   5.957
 6662SOL    HW220886   1.563   4.047   5.978
 6663SOL     OW20887   0.642   4.922   2.375
 6663SOL    HW120888   0.703   4.851   2.340
 6663SOL    HW220889   0.637   4.997   2.309
 6664SOL     OW20890   0.125   1.921   2.315
 6664SOL    HW120891   0.040   1.917   2.262
 6664SOL    HW220892   0.108   1.888   2.408
 6665SOL     OW20893   2.348   0.454   2.014
 6665SOL    HW120894   2.421   0.385   2.004
 6665SOL    HW220895   2.345   0.485   2.108
 6666SOL     OW20896   5.511   1.351   0.440
 6666SOL    HW120897   5.467   1.312   0.521
 6666SOL    HW220898   5.458   1.429   0.408
 6667SOL     OW20899   6.115   5.042   4.588
 6667SOL    HW120900   6.118   5.063   4.686
 6667SOL    HW220901   6.175   5.105   4.539
 6668SOL     OW20902   0.127   6.254   1.210
 6668SOL    HW120903   0.124   6.223   1.305
 6668SOL    HW220904   0.097   6.349   1.205
 6669SOL     OW20905   0.994   5.103   2.878
 6669SOL    HW120906   1.072   5.164   2.892
 6669SOL    HW220907   0.976   5.051   2.962
 6670SOL     OW20908   4.132   4.567   0.171
 6670SOL    HW120909   4.151   4.549   0.075
 6670SOL    HW220910   4.169   4.657   0.196
 6671SOL     OW20911   0.530   2.946   5.119
 6671SOL    HW120912   0.456   2.927   5.184
 6671SOL    HW220913   0.618   2.927   5.163
 6672SOL     OW20914   0.546   0.228   5.478
 6672SOL    HW120915   0.606   0.247   5.400
 6672SOL    HW220916   0.601   0.222   5.561
 6673SOL     OW20917   4.853   5.873   0.998
 6673SOL    HW120918   4.907   5.911   0.923
 6673SOL    HW220919   4.784   5.939   1.026
 6674SOL     OW20920   0.827   7.019   5.687
 6674SOL    HW120921   0.837   0.091   5.705
 6674SOL    HW220922   0.872   6.996   5.601
 6675SOL     OW20923   0.000   6.298   0.059
 6675SOL    HW120924   6.947   6.358   0.068
 6675SOL    HW220925   0.018   6.253   0.147
 6676SOL     OW20926   0.169   1.830   1.009
 6676SOL    HW120927   0.139   1.915   1.054
 6676SOL    HW220928   0.118   1.753   1.047
 6677SOL     OW20929   0.059   4.489   0.224
 6677SOL    HW120930   7.001   4.512   0.273
 6677SOL    HW220931   0.035   4.447   0.136
 6678SOL     OW20932   0.867   3.133   4.488
 6678SOL    HW120933   0.836   3.128   4.393
 6678SOL    HW220934   0.837   3.220   4.528
 6679SOL     OW20935   1.559   0.780   4.810
 6679SOL    HW120936   1.602   0.863   4.775
 6679SOL    HW220937   1.610   0.747   4.889
 6680SOL     OW20938   2.817   0.663   6.561
 6680SOL    HW120939   2.800   0.661   6.463
 6680SOL    HW220940   2.771   0.743   6.601
 6681SOL     OW20941   5.337   5.945   6.830
 6681SOL    HW120942   5.286   5.859   6.834
 6681SOL    HW220943   5.344   5.983   6.922
 6682SOL     OW20944   6.531   5.384   2.025
 6682SOL    HW120945   6.443   5.403   2.068
 6682SOL    HW220946   6.604   5.426   2.078
 6683SOL     OW20947   5.104   1.644   5.092
 6683SOL    HW120948   5.049   1.668   5.012
 6683SOL    HW220949   5.182   1.706   5.100
 6684SOL     OW20950   1.627   1.371   2.796
 6684SOL    HW120951   1.584   1.312   2.727
 6684SOL    HW220952   1.628   1.466   2.763
 6685SOL     OW20953   5.729   2.840   6.675
 6685SOL    HW120954   5.659   2.883   6.732
 6685SOL    HW220955   5.694   2.828   6.582
 6686SOL     OW20956   6.276   3.549   4.382
 6686SOL    HW120957   6.344   3.621   4.399
 6686SOL    HW220958   6.302   3.498   4.300
 6687SOL     OW20959   0.703   0.890   0.130
 6687SOL    HW120960   0.637   0.861   0.061
 6687SOL    HW220961   0.728   0.813   0.188
 6688SOL     OW20962   0.672   5.020   2.725
 6688SOL    HW120963   0.763   4.980   2.711
 6688SOL    HW220964   0.643   5.004   2.819
 6689SOL     OW20965   4.743   4.806   7.021
 6689SOL    HW120966   4.711   4.776   6.932
 6689SOL    HW220967   4.830   4.762   0.017
 6690SOL     OW20968   0.908   1.730   0.853
 6690SOL    HW120969   0.971   1.713   0.929
 6690SOL    HW220970   0.837   1.660   0.852
 6691SOL     OW20971   1.691   5.045   0.830
 6691SOL    HW120972   1.675   4.973   0.899
 6691SOL    HW220973   1.605   5.066   0.784
 6692SOL     OW20974   4.647   4.211   6.129
 6692SOL    HW120975   4.582   4.223   6.204
 6692SOL    HW220976   4.598   4.199   6.043
 6693SOL     OW20977   4.138   3.645   5.741
 6693SOL    HW120978   4.210   3.578   5.723
 6693SOL    HW220979   4.053   3.616   5.697
 6694SOL     OW20980   2.740   6.154   0.202
 6694SOL    HW120981   2.715   6.250   0.189
 6694SOL    HW220982   2.666   6.106   0.249
 6695SOL     OW20983   1.367   1.653   6.733
 6695SOL    HW120984   1.410   1.631   6.821
 6695SOL    HW220985   1.290   1.591   6.718
 6696SOL     OW20986   1.820   2.878   1.412
 6696SOL    HW120987   1.812   2.783   1.381
 6696SOL    HW220988   1.767   2.890   1.496
 6697SOL     OW20989   5.089   3.289   4.124
 6697SOL    HW120990   5.177   3.266   4.166
 6697SOL    HW220991   5.043   3.205   4.093
 6698SOL     OW20992   3.023   4.230   0.145
 6698SOL    HW120993   2.979   4.313   0.110
 6698SOL    HW220994   3.120   4.230   0.121
 6699SOL     OW20995   1.367   3.253   6.543
 6699SOL    HW120996   1.271   3.267   6.566
 6699SOL    HW220997   1.376   3.233   6.445
 6700SOL     OW20998   0.219   6.352   6.208
 6700SOL    HW120999   0.267   6.421   6.262
 6700SOL    HW221000   0.159   6.397   6.142
 6701SOL     OW21001   0.521   2.742   1.217
 6701SOL    HW121002   0.500   2.647   1.198
 6701SOL    HW221003   0.500   2.763   1.312
 6702SOL     OW21004   1.578   3.338   0.447
 6702SOL    HW121005   1.482   3.313   0.440
 6702SOL    HW221006   1.588   3.437   0.442
 6703SOL     OW21007   0.205   2.439   6.593
 6703SOL    HW121008   0.106   2.454   6.589
 6703SOL    HW221009   0.225   2.342   6.581
 6704SOL     OW21010   4.770   2.843   3.130
 6704SOL    HW121011   4.860   2.802   3.116
 6704SOL    HW221012   4.701   2.787   3.084
 6705SOL     OW21013   5.877   1.176   1.339
 6705SOL    HW121014   5.859   1.226   1.424
 6705SOL    HW221015   5.971   1.193   1.309
 6706SOL     OW21016   1.154   5.817   0.053
 6706SOL    HW121017   1.219   5.806   0.129
 6706SOL    HW221018   1.170   5.745   7.011
 6707SOL     OW21019   0.825   5.323   2.516
 6707SOL    HW121020   0.789   5.283   2.600
 6707SOL    HW221021   0.753   5.326   2.446
 6708SOL     OW21022   1.823   6.187   1.236
 6708SOL    HW121023   1.725   6.167   1.247
 6708SOL    HW221024   1.870   6.168   1.322
 6709SOL     OW21025   5.404   1.772   3.182
 6709SOL    HW121026   5.470   1.701   3.207
 6709SOL    HW221027   5.325   1.730   3.138
 6710SOL     OW21028   1.618   1.826   0.590
 6710SOL    HW121029   1.579   1.736   0.614
 6710SOL    HW221030   1.672   1.817   0.507
 6711SOL     OW21031   5.350   3.534   6.821
 6711SOL    HW121032   5.335   3.555   6.724
 6711SOL    HW221033   5.291   3.459   6.849
 6712SOL     OW21034   3.633   6.407   1.287
 6712SOL    HW121035   3.577   6.454   1.219
 6712SOL    HW221036   3.589   6.412   1.377
 6713SOL     OW21037   1.466   1.810   3.185
 6713SOL    HW121038   1.445   1.714   3.203
 6713SOL    HW221039   1.553   1.834   3.228
 6714SOL     OW21040   6.588   0.565   4.716
 6714SOL    HW121041   6.626   0.565   4.809
 6714SOL    HW221042   6.508   0.625   4.713
 6715SOL     OW21043   6.211   2.301   0.603
 6715SOL    HW121044   6.202   2.251   0.517
 6715SOL    HW221045   6.170   2.391   0.594
 6716SOL     OW21046   3.147   6.088   0.897
 6716SOL    HW121047   3.222   6.088   0.963
 6716SOL    HW221048   3.087   6.166   0.915
 6717SOL     OW21049   3.978   0.834   6.815
 6717SOL    HW121050   3.899   0.806   6.760
 6717SOL    HW221051   3.991   0.933   6.808
 6718SOL     OW21052   3.824   6.984   0.090
 6718SOL    HW121053   3.788   0.004   0.171
 6718SOL    HW221054   3.924   6.996   0.087
 6719SOL     OW21055   0.785   1.696   5.017
 6719SOL    HW121056   0.872   1.743   5.001
 6719SOL    HW221057   0.751   1.718   5.109
 6720SOL     OW21058   1.568   4.638   1.213
 6720SOL    HW121059   1.573   4.702   1.289
 6720SOL    HW221060   1.474   4.603   1.205
 6721SOL     OW21061   0.224   6.067   2.799
 6721SOL    HW121062   0.309   6.015   2.794
 6721SOL    HW221063   0.245   6.165   2.799
 6722SOL     OW21064   4.699   4.977   6.765
 6722SOL    HW121065   4.767   4.978   6.839
 6722SOL    HW221066   4.620   4.923   6.793
 6723SOL     OW21067   4.466   0.723   2.799
 6723SOL    HW121068   4.506   0.814   2.804
 6723SOL    HW221069   4.539   0.654   2.797
 6724SOL     OW21070   3.515   4.300   5.431
 6724SOL    HW121071   3.467   4.214   5.445
 6724SOL    HW221072   3.544   4.337   5.519
 6725SOL     OW21073   7.011   5.215   1.232
 6725SOL    HW121074   6.965   5.240   1.317
 6725SOL    HW221075   0.004   5.298   1.179
 6726SOL     OW21076   2.393   2.916   1.792
 6726SOL    HW121077   2.442   2.855   1.730
 6726SOL    HW221078   2.409   3.011   1.766
 6727SOL     OW21079   3.386   3.938   0.687
 6727SOL    HW121080   3.327   3.980   0.618
 6727SOL    HW221081   3.365   3.841   0.694
 6728SOL     OW21082   4.505   1.844   4.677
 6728SOL    HW121083   4.524   1.808   4.769
 6728SOL    HW221084   4.555   1.789   4.610
 6729SOL     OW21085   4.572   6.300   3.380
 6729SOL    HW121086   4.603   6.206   3.397
 6729SOL    HW221087   4.634   6.344   3.315
 6730SOL     OW21088   1.135   0.434   2.182
 6730SOL    HW121089   1.090   0.442   2.271
 6730SOL    HW221090   1.180   0.520   2.159
 6731SOL     OW21091   1.948   4.112   2.190
 6731SOL    HW121092   1.911   4.023   2.214
 6731SOL    HW221093   1.875   4.171   2.157
 6732SOL     OW21094   2.808   5.670   0.400
 6732SOL    HW121095   2.746   5.620   0.340
 6732SOL    HW221096   2.899   5.630   0.394
 6733SOL     OW21097   5.879   5.995   4.772
 6733SOL    HW121098   5.827   6.080   4.782
 6733SOL    HW221099   5.824   5.918   4.803
 6734SOL     OW21100   2.440   3.615   5.950
 6734SOL    HW121101   2.445   3.577   6.042
 6734SOL    HW221102   2.361   3.578   5.902
 6735SOL     OW21103   0.947   6.550   6.581
 6735SOL    HW121104   0.998   6.464   6.586
 6735SOL    HW221105   0.899   6.555   6.493
 6736SOL     OW21106   2.437   4.381   2.289
 6736SOL    HW121107   2.510   4.373   2.357
 6736SOL    HW221108   2.444   4.470   2.243
 6737SOL     OW21109   1.951   6.886   0.752
 6737SOL    HW121110   1.855   6.898   0.776
 6737SOL    HW221111   1.979   6.959   0.690
 6738SOL     OW21112   5.061   1.512   1.203
 6738SOL    HW121113   5.045   1.414   1.199
 6738SOL    HW221114   5.045   1.553   1.113
 6739SOL     OW21115   4.219   6.704   5.555
 6739SOL    HW121116   4.124   6.734   5.543
 6739SOL    HW221117   4.248   6.652   5.475
 6740SOL     OW21118   5.758   2.603   5.865
 6740SOL    HW121119   5.666   2.626   5.898
 6740SOL    HW221120   5.812   2.566   5.941
 6741SOL     OW21121   0.289   0.192   6.275
 6741SOL    HW121122   0.208   0.152   6.231
 6741SOL    HW221123   0.260   0.250   6.351
 6742SOL     OW21124   6.310   5.848   4.782
 6742SOL    HW121125   6.257   5.933   4.775
 6742SOL    HW221126   6.337   5.834   4.877
 6743SOL     OW21127   5.667   2.259   1.607
 6743SOL    HW121128   5.759   2.219   1.609
 6743SOL    HW221129   5.609   2.207   1.545
 6744SOL     OW21130   4.621   6.616   4.273
 6744SOL    HW121131   4.675   6.569   4.203
 6744SOL    HW221132   4.574   6.549   4.330
 6745SOL     OW21133   0.898   3.155   2.851
 6745SOL    HW121134   0.859   3.230   2.904
 6745SOL    HW221135   0.994   3.173   2.832
 6746SOL     OW21136   6.290   1.160   0.608
 6746SOL    HW121137   6.311   1.094   0.680
 6746SOL    HW221138   6.196   1.192   0.617
 6747SOL     OW21139   4.399   5.608   7.013
 6747SOL    HW121140   4.382   5.556   0.070
 6747SOL    HW221141   4.497   5.606   6.991
 6748SOL     OW21142   0.016   6.528   2.061
 6748SOL    HW121143   6.961   6.565   2.109
 6748SOL    HW221144   0.029   6.578   1.976
 6749SOL     OW21145   2.884   5.733   1.358
 6749SOL    HW121146   2.974   5.766   1.388
 6749SOL    HW221147   2.824   5.811   1.341
 6750SOL     OW21148   2.111   3.022   5.127
 6750SOL    HW121149   2.113   3.033   5.226
 6750SOL    HW221150   2.205   3.014   5.092
 6751SOL     OW21151   4.100   1.994   6.216
 6751SOL    HW121152   4.134   2.006   6.309
 6751SOL    HW221153   4.001   2.004   6.215
 6752SOL     OW21154   7.011   1.847   0.182
 6752SOL    HW121155   6.924   1.894   0.165
 6752SOL    HW221156   0.061   1.903   0.146
 6753SOL     OW21157   6.538   1.379   0.062
 6753SOL    HW121158   6.606   1.355   7.018
 6753SOL    HW221159   6.450   1.397   0.019
 6754SOL     OW21160   4.575   0.967   6.558
 6754SOL    HW121161   4.491   0.916   6.540
 6754SOL    HW221162   4.615   0.996   6.471
 6755SOL     OW21163   5.390   1.979   3.713
 6755SOL    HW121164   5.374   1.924   3.631
 6755SOL    HW221165   5.303   1.996   3.760
 6756SOL     OW21166   4.655   4.263   3.526
 6756SOL    HW121167   4.699   4.176   3.549
 6756SOL    HW221168   4.607   4.298   3.606
 6757SOL     OW21169   6.069   4.641   1.226
 6757SOL    HW121170   6.144   4.667   1.164
 6757SOL    HW221171   5.995   4.708   1.217
 6758SOL     OW21172   6.523   1.674   3.059
 6758SOL    HW121173   6.564   1.705   3.145
 6758SOL    HW221174   6.465   1.595   3.077
 6759SOL     OW21175   1.402   5.411   3.118
 6759SOL    HW121176   1.449   5.494   3.089
 6759SOL    HW221177   1.468   5.345   3.152
 6760SOL     OW21178   6.813   4.064   5.057
 6760SOL    HW121179   6.831   4.162   5.054
 6760SOL    HW221180   6.810   4.034   5.152
 6761SOL     OW21181   6.155   2.583   6.273
 6761SOL    HW121182   6.131   2.640   6.352
 6761SOL    HW221183   6.072   2.553   6.227
 6762SOL     OW21184   0.165   4.109   3.694
 6762SOL    HW121185   0.074   4.138   3.723
 6762SOL    HW221186   0.209   4.059   3.768
 6763SOL     OW21187   5.963   6.906   5.014
 6763SOL    HW121188   6.032   6.916   4.943
 6763SOL    HW221189   5.993   6.954   5.097
 6764SOL     OW21190   1.610   3.541   6.950
 6764SOL    HW121191   1.541   3.545   7.023
 6764SOL    HW221192   1.570   3.497   6.869
 6765SOL     OW21193   4.736   4.949   2.478
 6765SOL    HW121194   4.793   4.868   2.471
 6765SOL    HW221195   4.733   4.980   2.573
 6766SOL     OW21196   2.259   2.302   6.184
 6766SOL    HW121197   2.349   2.264   6.161
 6766SOL    HW221198   2.225   2.355   6.107
 6767SOL     OW21199   0.402   2.846   5.901
 6767SOL    HW121200   0.348   2.770   5.866
 6767SOL    HW221201   0.406   2.919   5.832
 6768SOL     OW21202   6.713   0.779   6.150
 6768SOL    HW121203   6.729   0.875   6.174
 6768SOL    HW221204   6.631   0.746   6.198
 6769SOL     OW21205   0.923   2.384   5.860
 6769SOL    HW121206   0.876   2.301   5.830
 6769SOL    HW221207   1.012   2.390   5.816
 6770SOL     OW21208   0.041   1.726   3.837
 6770SOL    HW121209   0.046   1.768   3.928
 6770SOL    HW221210   6.975   1.688   3.823
 6771SOL     OW21211   6.208   1.763   2.651
 6771SOL    HW121212   6.162   1.848   2.628
 6771SOL    HW221213   6.174   1.728   2.739
 6772SOL     OW21214   0.745   0.755   1.983
 6772SOL    HW121215   0.767   0.657   1.986
 6772SOL    HW221216   0.681   0.772   1.908
 6773SOL     OW21217   1.430   0.974   2.868
 6773SOL    HW121218   1.377   1.018   2.796
 6773SOL    HW221219   1.423   1.027   2.952
 6774SOL     OW21220   4.159   1.285   5.226
 6774SOL    HW121221   4.182   1.190   5.207
 6774SOL    HW221222   4.166   1.339   5.143
 6775SOL     OW21223   1.440   2.012   4.454
 6775SOL    HW121224   1.344   2.005   4.426
 6775SOL    HW221225   1.499   2.003   4.374
 6776SOL     OW21226   3.416   3.751   3.655
 6776SOL    HW121227   3.512   3.760   3.629
 6776SOL    HW221228   3.386   3.834   3.702
 6777SOL     OW21229   0.401   6.840   6.356
 6777SOL    HW121230   0.478   6.903   6.358
 6777SOL    HW221231   0.319   6.886   6.390
 6778SOL     OW21232   6.532   5.988   2.139
 6778SOL    HW121233   6.561   6.046   2.063
 6778SOL    HW221234   6.464   6.037   2.193
 6779SOL     OW21235   4.970   4.818   6.622
 6779SOL    HW121236   4.937   4.877   6.696
 6779SOL    HW221237   5.002   4.732   6.660
 6780SOL     OW21238   4.833   1.175   2.519
 6780SOL    HW121239   4.803   1.212   2.431
 6780SOL    HW221240   4.767   1.108   2.551
 6781SOL     OW21241   6.056   3.093   2.862
 6781SOL    HW121242   6.015   3.180   2.836
 6781SOL    HW221243   6.037   3.074   2.958
 6782SOL     OW21244   0.015   1.537   2.858
 6782SOL    HW121245   0.062   1.464   2.808
 6782SOL    HW221246   6.979   1.496   2.925
 6783SOL     OW21247   0.430   6.619   6.634
 6783SOL    HW121248   0.349   6.594   6.581
 6783SOL    HW221249   0.511   6.614   6.576
 6784SOL     OW21250   1.214   4.972   0.302
 6784SOL    HW121251   1.198   4.900   0.234
 6784SOL    HW221252   1.252   5.053   0.257
 6785SOL     OW21253   5.259   4.610   1.995
 6785SOL    HW121254   5.277   4.616   2.093
 6785SOL    HW221255   5.205   4.689   1.966
 6786SOL     OW21256   6.569   1.709   5.688
 6786SOL    HW121257   6.514   1.709   5.771
 6786SOL    HW221258   6.560   1.798   5.642
 6787SOL     OW21259   4.072   2.324   1.289
 6787SOL    HW121260   4.033   2.404   1.243
 6787SOL    HW221261   4.051   2.241   1.236
 6788SOL     OW21262   1.355   4.049   0.853
 6788SOL    HW121263   1.337   3.995   0.935
 6788SOL    HW221264   1.288   4.123   0.845
 6789SOL     OW21265   5.953   3.453   2.282
 6789SOL    HW121266   5.945   3.552   2.266
 6789SOL    HW221267   5.914   3.404   2.204
 6790SOL     OW21268   0.121   5.518   0.667
 6790SOL    HW121269   0.111   5.429   0.711
 6790SOL    HW221270   0.048   5.579   0.699
 6791SOL     OW21271   2.131   6.518   3.425
 6791SOL    HW121272   2.131   6.518   3.525
 6791SOL    HW221273   2.172   6.433   3.392
 6792SOL     OW21274   3.401   6.112   6.848
 6792SOL    HW121275   3.349   6.135   6.767
 6792SOL    HW221276   3.467   6.039   6.826
 6793SOL     OW21277   2.548   4.278   6.742
 6793SOL    HW121278   2.637   4.278   6.787
 6793SOL    HW221279   2.495   4.198   6.772
 6794SOL     OW21280   4.827   2.407   4.291
 6794SOL    HW121281   4.736   2.368   4.278
 6794SOL    HW221282   4.835   2.492   4.239
 6795SOL     OW21283   0.477   0.976   2.065
 6795SOL    HW121284   0.403   1.041   2.083
 6795SOL    HW221285   0.565   1.017   2.090
 6796SOL     OW21286   6.810   3.201   2.042
 6796SOL    HW121287   6.867   3.122   2.063
 6796SOL    HW221288   6.766   3.187   1.953
 6797SOL     OW21289   1.779   3.866   1.056
 6797SOL    HW121290   1.708   3.796   1.061
 6797SOL    HW221291   1.737   3.956   1.051
 6798SOL     OW21292   4.762   1.662   1.772
 6798SOL    HW121293   4.691   1.593   1.783
 6798SOL    HW221294   4.843   1.621   1.732
 6799SOL     OW21295   5.425   6.730   3.096
 6799SOL    HW121296   5.495   6.796   3.065
 6799SOL    HW221297   5.420   6.654   3.031
 6800SOL     OW21298   6.692   2.610   1.991
 6800SOL    HW121299   6.641   2.561   1.921
 6800SOL    HW221300   6.688   2.708   1.974
 6801SOL     OW21301   1.844   5.279   5.273
 6801SOL    HW121302   1.820   5.262   5.178
 6801SOL    HW221303   1.943   5.274   5.284
 6802SOL     OW21304   2.676   4.439   1.698
 6802SOL    HW121305   2.577   4.439   1.709
 6802SOL    HW221306   2.719   4.478   1.779
 6803SOL     OW21307   6.012   5.177   6.568
 6803SOL    HW121308   5.982   5.262   6.611
 6803SOL    HW221309   5.970   5.099   6.614
 6804SOL     OW21310   3.400   4.937   1.925
 6804SOL    HW121311   3.476   4.874   1.938
 6804SOL    HW221312   3.319   4.903   1.973
 6805SOL     OW21313   0.554   4.215   3.445
 6805SOL    HW121314   0.537   4.303   3.489
 6805SOL    HW221315   0.468   4.178   3.410
 6806SOL     OW21316   6.122   3.835   1.882
 6806SOL    HW121317   6.048   3.885   1.927
 6806SOL    HW221318   6.090   3.801   1.793
 6807SOL     OW21319   3.841   3.243   2.499
 6807SOL    HW121320   3.808   3.205   2.585
 6807SOL    HW221321   3.768   3.241   2.430
 6808SOL     OW21322   3.684   6.070   3.335
 6808SOL    HW121323   3.656   6.137   3.266
 6808SOL    HW221324   3.780   6.046   3.321
 6809SOL     OW21325   5.718   2.533   0.575
 6809SOL    HW121326   5.651   2.478   0.625
 6809SOL    HW221327   5.692   2.630   0.580
 6810SOL     OW21328   2.791   0.037   4.428
 6810SOL    HW121329   2.699   0.048   4.390
 6810SOL    HW221330   2.844   7.003   4.370
 6811SOL     OW21331   6.173   1.499   1.522
 6811SOL    HW121332   6.122   1.429   1.571
 6811SOL    HW221333   6.189   1.577   1.583
 6812SOL     OW21334   3.197   4.044   5.610
 6812SOL    HW121335   3.214   4.040   5.709
 6812SOL    HW221336   3.117   4.102   5.592
 6813SOL     OW21337   0.209   3.438   1.968
 6813SOL    HW121338   0.140   3.489   1.918
 6813SOL    HW221339   0.183   3.341   1.973
 6814SOL     OW21340   4.093   2.363   1.726
 6814SOL    HW121341   3.998   2.334   1.726
 6814SOL    HW221342   4.099   2.461   1.711
 6815SOL     OW21343   0.921   5.645   0.128
 6815SOL    HW121344   0.886   5.635   0.222
 6815SOL    HW221345   0.988   5.719   0.125
 6816SOL     OW21346   5.609   6.315   4.360
 6816SOL    HW121347   5.639   6.388   4.422
 6816SOL    HW221348   5.523   6.343   4.315
 6817SOL     OW21349   5.778   0.618   1.741
 6817SOL    HW121350   5.822   0.534   1.771
 6817SOL    HW221351   5.766   0.616   1.642
 6818SOL     OW21352   6.954   0.054   5.488
 6818SOL    HW121353   6.998   7.017   5.553
 6818SOL    HW221354   6.922   0.135   5.537
 6819SOL     OW21355   5.611   3.673   0.386
 6819SOL    HW121356   5.578   3.697   0.295
 6819SOL    HW221357   5.710   3.688   0.390
 6820SOL     OW21358   2.241   3.728   1.346
 6820SOL    HW121359   2.219   3.809   1.291
 6820SOL    HW221360   2.318   3.680   1.305
 6821SOL     OW21361   2.676   3.222   6.052
 6821SOL    HW121362   2.759   3.236   5.999
 6821SOL    HW221363   2.601   3.197   5.991
 6822SOL     OW21364   6.559   4.459   4.812
 6822SOL    HW121365   6.476   4.459   4.868
 6822SOL    HW221366   6.620   4.531   4.842
 6823SOL     OW21367   6.795   3.030   5.684
 6823SOL    HW121368   6.714   3.070   5.641
 6823SOL    HW221369   6.776   2.937   5.712
 6824SOL     OW21370   0.576   0.230   3.603
 6824SOL    HW121371   0.568   0.330   3.610
 6824SOL    HW221372   0.671   0.203   3.618
 6825SOL     OW21373   4.473   4.624   1.641
 6825SOL    HW121374   4.412   4.622   1.562
 6825SOL    HW221375   4.515   4.534   1.654
 6826SOL     OW21376   5.945   0.927   3.789
 6826SOL    HW121377   5.905   0.840   3.818
 6826SOL    HW221378   6.015   0.955   3.855
 6827SOL     OW21379   5.330   5.290   5.186
 6827SOL    HW121380   5.282   5.357   5.130
 6827SOL    HW221381   5.264   5.224   5.223
 6828SOL     OW21382   2.556   2.516   2.905
 6828SOL    HW121383   2.604   2.435   2.868
 6828SOL    HW221384   2.597   2.599   2.866
 6829SOL     OW21385   5.180   6.743   3.785
 6829SOL    HW121386   5.169   6.723   3.882
 6829SOL    HW221387   5.104   6.703   3.734
 6830SOL     OW21388   3.798   6.455   2.334
 6830SOL    HW121389   3.802   6.386   2.262
 6830SOL    HW221390   3.751   6.537   2.299
 6831SOL     OW21391   2.306   1.113   0.093
 6831SOL    HW121392   2.234   1.183   0.099
 6831SOL    HW221393   2.393   1.153   0.123
 6832SOL     OW21394   3.489   3.548   0.293
 6832SOL    HW121395   3.523   3.481   0.226
 6832SOL    HW221396   3.550   3.549   0.372
 6833SOL     OW21397   4.677   5.365   0.159
 6833SOL    HW121398   4.773   5.340   0.171
 6833SOL    HW221399   4.634   5.303   0.093
 6834SOL     OW21400   6.333   5.586   5.412
 6834SOL    HW121401   6.337   5.487   5.425
 6834SOL    HW221402   6.297   5.628   5.495
 6835SOL     OW21403   3.728   0.094   2.908
 6835SOL    HW121404   3.634   0.068   2.931
 6835SOL    HW221405   3.729   0.145   2.822
 6836SOL     OW21406   0.706   4.528   6.623
 6836SOL    HW121407   0.621   4.577   6.637
 6836SOL    HW221408   0.699   4.470   6.541
 6837SOL     OW21409   6.538   2.324   1.570
 6837SOL    HW121410   6.483   2.407   1.575
 6837SOL    HW221411   6.498   2.254   1.629
 6838SOL     OW21412   1.876   4.331   6.972
 6838SOL    HW121413   1.821   4.405   6.935
 6838SOL    HW221414   1.929   4.288   6.898
 6839SOL     OW21415   5.756   2.357   5.544
 6839SOL    HW121416   5.674   2.414   5.544
 6839SOL    HW221417   5.749   2.288   5.616
 6840SOL     OW21418   3.533   6.979   4.645
 6840SOL    HW121419   3.510   6.883   4.628
 6840SOL    HW221420   3.493   0.010   4.573
 6841SOL     OW21421   4.354   6.429   0.672
 6841SOL    HW121422   4.377   6.441   0.769
 6841SOL    HW221423   4.404   6.495   0.617
 6842SOL     OW21424   0.839   3.272   3.445
 6842SOL    HW121425   0.829   3.364   3.406
 6842SOL    HW221426   0.782   3.264   3.526
 6843SOL     OW21427   4.814   2.845   1.789
 6843SOL    HW121428   4.766   2.889   1.865
 6843SOL    HW221429   4.913   2.854   1.802
 6844SOL     OW21430   3.452   6.684   4.608
 6844SOL    HW121431   3.432   6.695   4.511
 6844SOL    HW221432   3.524   6.615   4.621
 6845SOL     OW21433   3.688   3.663   0.031
 6845SOL    HW121434   3.652   3.621   0.114
 6845SOL    HW221435   3.648   3.618   6.977
 6846SOL     OW21436   3.974   3.094   3.974
 6846SOL    HW121437   3.929   3.047   4.050
 6846SOL    HW221438   3.926   3.072   3.889
 6847SOL     OW21439   5.351   3.142   2.455
 6847SOL    HW121440   5.324   3.092   2.373
 6847SOL    HW221441   5.438   3.190   2.438
 6848SOL     OW21442   0.701   6.149   4.794
 6848SOL    HW121443   0.761   6.228   4.779
 6848SOL    HW221444   0.704   6.122   4.890
 6849SOL     OW21445   3.267   0.180   4.791
 6849SOL    HW121446   3.260   0.260   4.851
 6849SOL    HW221447   3.246   0.207   4.697
 6850SOL     OW21448   6.485   3.919   1.609
 6850SOL    HW121449   6.405   3.978   1.611
 6850SOL    HW221450   6.460   3.827   1.641
 6851SOL     OW21451   1.592   6.070   6.924
 6851SOL    HW121452   1.517   6.025   6.874
 6851SOL    HW221453   1.679   6.032   6.893
 6852SOL     OW21454   5.955   5.098   2.086
 6852SOL    HW121455   5.914   5.067   2.000
 6852SOL    HW221456   6.045   5.056   2.097
 6853SOL     OW21457   6.595   4.197   4.707
 6853SOL    HW121458   6.674   4.142   4.734
 6853SOL    HW221459   6.601   4.287   4.750
 6854SOL     OW21460   6.269   1.071   6.880
 6854SOL    HW121461   6.220   0.987   6.854
 6854SOL    HW221462   6.226   1.111   6.961
 6855SOL     OW21463   3.157   6.889   1.783
 6855SOL    HW121464   3.220   6.903   1.859
 6855SOL    HW221465   3.125   6.978   1.749
 6856SOL     OW21466   0.517   6.037   5.665
 6856SOL    HW121467   0.564   6.040   5.577
 6856SOL    HW221468   0.483   5.944   5.681
 6857SOL     OW21469   5.025   0.474   6.822
 6857SOL    HW121470   5.098   0.533   6.789
 6857SOL    HW221471   5.065   0.396   6.870
 6858SOL     OW21472   3.410   2.891   6.690
 6858SOL    HW121473   3.376   2.940   6.770
 6858SOL    HW221474   3.344   2.900   6.615
 6859SOL     OW21475   4.249   0.808   0.202
 6859SOL    HW121476   4.342   0.829   0.171
 6859SOL    HW221477   4.243   0.823   0.301
 6860SOL     OW21478   4.935   3.374   6.912
 6860SOL    HW121479   4.889   3.448   6.863
 6860SOL    HW221480   5.028   3.362   6.876
 6861SOL     OW21481   5.856   3.466   0.645
 6861SOL    HW121482   5.954   3.485   0.649
 6861SOL    HW221483   5.824   3.439   0.736
 6862SOL     OW21484   2.530   4.740   4.644
 6862SOL    HW121485   2.589   4.792   4.705
 6862SOL    HW221486   2.466   4.801   4.599
 6863SOL     OW21487   1.269   3.242   3.789
 6863SOL    HW121488   1.299   3.223   3.695
 6863SOL    HW221489   1.349   3.252   3.848
 6864SOL     OW21490   3.848   5.430   6.249
 6864SOL    HW121491   3.948   5.424   6.250
 6864SOL    HW221492   3.818   5.484   6.171
 6865SOL     OW21493   0.583   3.032   4.294
 6865SOL    HW121494   0.672   3.075   4.280
 6865SOL    HW221495   0.580   2.990   4.385
 6866SOL     OW21496   0.806   3.945   2.653
 6866SOL    HW121497   0.804   4.045   2.662
 6866SOL    HW221498   0.728   3.906   2.702
 6867SOL     OW21499   2.195   5.467   3.504
 6867SOL    HW121500   2.123   5.533   3.523
 6867SOL    HW221501   2.232   5.432   3.589
 6868SOL     OW21502   2.108   5.569   4.889
 6868SOL    HW121503   2.127   5.600   4.982
 6868SOL    HW221504   2.031   5.505   4.890
 6869SOL     OW21505   0.214   3.249   5.146
 6869SOL    HW121506   0.266   3.165   5.159
 6869SOL    HW221507   0.270   3.315   5.096
 6870SOL     OW21508   5.286   3.500   3.272
 6870SOL    HW121509   5.195   3.526   3.238
 6870SOL    HW221510   5.349   3.490   3.196
 6871SOL     OW21511   4.879   5.782   1.398
 6871SOL    HW121512   4.921   5.827   1.477
 6871SOL    HW221513   4.790   5.822   1.380
 6872SOL     OW21514   3.461   4.418   1.050
 6872SOL    HW121515   3.363   4.437   1.048
 6872SOL    HW221516   3.511   4.498   1.017
 6873SOL     OW21517   5.792   4.735   4.755
 6873SOL    HW121518   5.865   4.716   4.821
 6873SOL    HW221519   5.703   4.723   4.799
 6874SOL     OW21520   0.744   1.867   5.850
 6874SOL    HW121521   0.691   1.854   5.934
 6874SOL    HW221522   0.724   1.793   5.786
 6875SOL     OW21523   4.047   0.570   4.675
 6875SOL    HW121524   4.099   0.485   4.667
 6875SOL    HW221525   3.972   0.557   4.740
 6876SOL     OW21526   3.387   6.034   4.917
 6876SOL    HW121527   3.297   6.070   4.891
 6876SOL    HW221528   3.457   6.072   4.856
 6877SOL     OW21529   1.639   3.388   6.380
 6877SOL    HW121530   1.614   3.292   6.368
 6877SOL    HW221531   1.651   3.408   6.477
 6878SOL     OW21532   1.333   1.362   4.672
 6878SOL    HW121533   1.373   1.275   4.700
 6878SOL    HW221534   1.286   1.403   4.750
 6879SOL     OW21535   6.619   0.756   5.169
 6879SOL    HW121536   6.547   0.793   5.226
 6879SOL    HW221537   6.657   0.828   5.111
 6880SOL     OW21538   1.040   4.155   5.023
 6880SOL    HW121539   0.973   4.127   5.092
 6880SOL    HW221540   1.014   4.118   4.934
 6881SOL     OW21541   5.305   5.744   1.497
 6881SOL    HW121542   5.359   5.721   1.578
 6881SOL    HW221543   5.329   5.837   1.467
 6882SOL     OW21544   2.297   5.914   5.628
 6882SOL    HW121545   2.326   5.915   5.532
 6882SOL    HW221546   2.332   5.996   5.674
 6883SOL     OW21547   3.101   6.175   2.126
 6883SOL    HW121548   3.201   6.170   2.125
 6883SOL    HW221549   3.063   6.116   2.055
 6884SOL     OW21550   1.762   4.781   2.268
 6884SOL    HW121551   1.842   4.778   2.328
 6884SOL    HW221552   1.703   4.857   2.295
 6885SOL     OW21553   4.211   4.829   4.949
 6885SOL    HW121554   4.125   4.820   4.899
 6885SOL    HW221555   4.245   4.738   4.972
 6886SOL     OW21556   5.412   1.159   1.540
 6886SOL    HW121557   5.326   1.132   1.496
 6886SOL    HW221558   5.455   1.078   1.580
 6887SOL     OW21559   6.180   1.101   5.129
 6887SOL    HW121560   6.251   1.034   5.109
 6887SOL    HW221561   6.184   1.127   5.226
 6888SOL     OW21562   5.774   0.147   4.101
 6888SOL    HW121563   5.742   0.206   4.175
 6888SOL    HW221564   5.705   0.079   4.080
 6889SOL     OW21565   1.878   3.961   6.489
 6889SOL    HW121566   1.873   3.878   6.544
 6889SOL    HW221567   1.954   3.953   6.424
 6890SOL     OW21568   2.128   0.326   1.372
 6890SOL    HW121569   2.150   0.249   1.313
 6890SOL    HW221570   2.146   0.411   1.324
 6891SOL     OW21571   4.596   5.434   6.025
 6891SOL    HW121572   4.554   5.508   6.078
 6891SOL    HW221573   4.592   5.349   6.078
 6892SOL     OW21574   3.510   1.700   4.625
 6892SOL    HW121575   3.421   1.725   4.587
 6892SOL    HW221576   3.532   1.607   4.597
 6893SOL     OW21577   4.637   6.978   1.305
 6893SOL    HW121578   4.615   7.001   1.210
 6893SOL    HW221579   4.730   6.942   1.311
 6894SOL     OW21580   5.532   4.603   6.509
 6894SOL    HW121581   5.554   4.666   6.584
 6894SOL    HW221582   5.495   4.518   6.547
 6895SOL     OW21583   4.330   5.360   5.629
 6895SOL    HW121584   4.402   5.310   5.677
 6895SOL    HW221585   4.347   5.458   5.636
 6896SOL     OW21586   4.766   1.564   2.627
 6896SOL    HW121587   4.675   1.532   2.653
 6896SOL    HW221588   4.769   1.582   2.528
 6897SOL     OW21589   3.880   0.455   1.275
 6897SOL    HW121590   3.819   0.533   1.268
 6897SOL    HW221591   3.880   0.404   1.189
 6898SOL     OW21592   4.136   1.313   2.569
 6898SOL    HW121593   4.156   1.356   2.657
 6898SOL    HW221594   4.211   1.330   2.505
 6899SOL     OW21595   5.630   6.032   5.912
 6899SOL    HW121596   5.708   6.012   5.971
 6899SOL    HW221597   5.576   6.106   5.953
 6900SOL     OW21598   4.334   0.381   6.450
 6900SOL    HW121599   4.330   0.403   6.353
 6900SOL    HW221600   4.370   0.460   6.500
 6901SOL     OW21601   2.029   0.967   0.403
 6901SOL    HW121602   2.009   0.874   0.432
 6901SOL    HW221603   1.987   1.032   0.466
 6902SOL     OW21604   6.917   5.523   2.663
 6902SOL    HW121605   6.861   5.444   2.641
 6902SOL    HW221606   6.859   5.604   2.673
 6903SOL     OW21607   5.022   4.409   0.310
 6903SOL    HW121608   4.941   4.367   0.351
 6903SOL    HW221609   5.103   4.356   0.333
 6904SOL     OW21610   0.608   0.569   2.795
 6904SOL    HW121611   0.640   0.492   2.740
 6904SOL    HW221612   0.509   0.561   2.810
 6905SOL     OW21613   3.374   5.466   1.075
 6905SOL    HW121614   3.355   5.371   1.054
 6905SOL    HW221615   3.383   5.519   0.990
 6906SOL     OW21616   5.985   5.746   3.346
 6906SOL    HW121617   6.056   5.809   3.377
 6906SOL    HW221618   5.947   5.778   3.259
 6907SOL     OW21619   3.646   0.407   1.418
 6907SOL    HW121620   3.746   0.406   1.414
 6907SOL    HW221621   3.615   0.499   1.443
 6908SOL     OW21622   5.415   6.922   6.935
 6908SOL    HW121623   5.513   6.924   6.915
 6908SOL    HW221624   5.365   6.966   6.861
 6909SOL     OW21625   2.281   2.180   0.221
 6909SOL    HW121626   2.317   2.236   0.146
 6909SOL    HW221627   2.355   2.126   0.261
 6910SOL     OW21628   5.488   1.459   1.022
 6910SOL    HW121629   5.425   1.486   0.949
 6910SOL    HW221630   5.437   1.408   1.092
 6911SOL     OW21631   4.568   0.306   4.807
 6911SOL    HW121632   4.583   0.268   4.898
 6911SOL    HW221633   4.516   0.391   4.815
 6912SOL     OW21634   4.246   4.866   1.976
 6912SOL    HW121635   4.330   4.921   1.968
 6912SOL    HW221636   4.204   4.855   1.887
 6913SOL     OW21637   4.650   5.846   5.279
 6913SOL    HW121638   4.683   5.760   5.241
 6913SOL    HW221639   4.727   5.910   5.288
 6914SOL     OW21640   6.539   4.690   0.042
 6914SOL    HW121641   6.448   4.648   0.043
 6914SOL    HW221642   6.603   4.630   7.019
 6915SOL     OW21643   0.318   6.673   0.645
 6915SOL    HW121644   0.235   6.691   0.593
 6915SOL    HW221645   0.313   6.719   0.733
 6916SOL     OW21646   6.221   0.584   5.645
 6916SOL    HW121647   6.185   0.530   5.569
 6916SOL    HW221648   6.209   0.534   5.731
 6917SOL     OW21649   4.425   6.902   5.589
 6917SOL    HW121650   4.385   6.989   5.619
 6917SOL    HW221651   4.361   6.828   5.608
 6918SOL     OW21652   2.208   2.413   3.477
 6918SOL    HW121653   2.192   2.461   3.563
 6918SOL    HW221654   2.305   2.414   3.455
 6919SOL     OW21655   1.287   5.724   3.819
 6919SOL    HW121656   1.217   5.652   3.816
 6919SOL    HW221657   1.246   5.810   3.788
 6920SOL     OW21658   5.595   5.892   4.258
 6920SOL    HW121659   5.520   5.833   4.287
 6920SOL    HW221660   5.655   5.912   4.335
 6921SOL     OW21661   1.393   5.511   3.517
 6921SOL    HW121662   1.353   5.485   3.605
 6921SOL    HW221663   1.321   5.512   3.447
 6922SOL     OW21664   2.159   6.722   0.910
 6922SOL    HW121665   2.223   6.796   0.929
 6922SOL    HW221666   2.120   6.734   0.819
 6923SOL     OW21667   4.738   5.697   3.379
 6923SOL    HW121668   4.678   5.757   3.433
 6923SOL    HW221669   4.782   5.632   3.441
 6924SOL     OW21670   6.106   5.771   2.012
 6924SOL    HW121671   6.188   5.722   1.982
 6924SOL    HW221672   6.064   5.817   1.934
 6925SOL     OW21673   4.957   5.198   2.410
 6925SOL    HW121674   4.934   5.271   2.345
 6925SOL    HW221675   4.910   5.215   2.497
 6926SOL     OW21676   2.536   3.791   5.552
 6926SOL    HW121677   2.592   3.862   5.508
 6926SOL    HW221678   2.551   3.793   5.651
 6927SOL     OW21679   3.982   3.849   0.718
 6927SOL    HW121680   4.012   3.857   0.813
 6927SOL    HW221681   3.891   3.807   0.716
 6928SOL     OW21682   6.910   0.627   6.740
 6928SOL    HW121683   6.920   0.590   6.833
 6928SOL    HW221684   6.826   0.681   6.735
 6929SOL     OW21685   3.134   5.398   1.916
 6929SOL    HW121686   3.159   5.468   1.983
 6929SOL    HW221687   3.199   5.322   1.921
 6930SOL     OW21688   0.085   0.376   3.085
 6930SOL    HW121689   0.070   0.474   3.090
 6930SOL    HW221690   0.022   0.336   3.018
 6931SOL     OW21691   2.458   0.110   0.431
 6931SOL    HW121692   2.385   0.146   0.374
 6931SOL    HW221693   2.522   0.057   0.374
 6932SOL     OW21694   2.425   2.544   0.680
 6932SOL    HW121695   2.389   2.462   0.635
 6932SOL    HW221696   2.362   2.574   0.751
 6933SOL     OW21697   2.319   6.148   4.952
 6933SOL    HW121698   2.259   6.089   4.899
 6933SOL    HW221699   2.411   6.148   4.911
 6934SOL     OW21700   5.461   5.100   6.700
 6934SOL    HW121701   5.556   5.080   6.725
 6934SOL    HW221702   5.454   5.196   6.671
 6935SOL     OW21703   4.370   5.739   3.129
 6935SOL    HW121704   4.279   5.780   3.138
 6935SOL    HW221705   4.435   5.789   3.185
 6936SOL     OW21706   0.606   4.376   0.785
 6936SOL    HW121707   0.626   4.467   0.821
 6936SOL    HW221708   0.558   4.385   0.698
 6937SOL     OW21709   4.868   6.140   5.787
 6937SOL    HW121710   4.797   6.209   5.771
 6937SOL    HW221711   4.881   6.087   5.703
 6938SOL     OW21712   5.904   2.881   5.249
 6938SOL    HW121713   5.878   2.971   5.283
 6938SOL    HW221714   5.933   2.889   5.154
 6939SOL     OW21715   6.497   4.837   1.486
 6939SOL    HW121716   6.582   4.802   1.526
 6939SOL    HW221717   6.462   4.912   1.542
 6940SOL     OW21718   4.368   0.624   4.658
 6940SOL    HW121719   4.400   0.617   4.753
 6940SOL    HW221720   4.284   0.677   4.655
 6941SOL     OW21721   3.734   2.926   4.648
 6941SOL    HW121722   3.780   2.904   4.734
 6941SOL    HW221723   3.635   2.919   4.660
 6942SOL     OW21724   6.034   1.586   0.007
 6942SOL    HW121725   5.998   1.680   0.010
 6942SOL    HW221726   6.021   1.543   0.096
 6943SOL     OW21727   6.132   5.525   6.449
 6943SOL    HW121728   6.141   5.610   6.500
 6943SOL    HW221729   6.140   5.447   6.512
 6944SOL     OW21730   1.178   6.428   0.484
 6944SOL    HW121731   1.217   6.465   0.400
 6944SOL    HW221732   1.246   6.370   0.529
 6945SOL     OW21733   4.812   1.910   6.236
 6945SOL    HW121734   4.771   1.957   6.315
 6945SOL    HW221735   4.891   1.856   6.267
 6946SOL     OW21736   6.379   4.042   3.572
 6946SOL    HW121737   6.351   4.137   3.586
 6946SOL    HW221738   6.471   4.040   3.532
 6947SOL     OW21739   3.799   6.840   1.113
 6947SOL    HW121740   3.732   6.902   1.152
 6947SOL    HW221741   3.843   6.787   1.185
 6948SOL     OW21742   3.538   2.588   5.636
 6948SOL    HW121743   3.464   2.520   5.636
 6948SOL    HW221744   3.527   2.649   5.557
 6949SOL     OW21745   5.004   0.845   2.463
 6949SOL    HW121746   4.935   0.835   2.392
 6949SOL    HW221747   5.050   0.933   2.453
 6950SOL     OW21748   3.398   1.326   3.095
 6950SOL    HW121749   3.454   1.379   3.031
 6950SOL    HW221750   3.351   1.389   3.157
 6951SOL     OW21751   5.080   4.863   5.507
 6951SOL    HW121752   5.160   4.914   5.476
 6951SOL    HW221753   5.024   4.839   5.428
 6952SOL     OW21754   0.189   3.864   5.853
 6952SOL    HW121755   0.241   3.923   5.915
 6952SOL    HW221756   0.246   3.839   5.775
 6953SOL     OW21757   4.958   2.449   4.637
 6953SOL    HW121758   4.934   2.527   4.579
 6953SOL    HW221759   4.887   2.379   4.628
 6954SOL     OW21760   6.977   4.339   1.958
 6954SOL    HW121761   0.025   4.275   1.979
 6954SOL    HW221762   6.984   4.418   2.019
 6955SOL     OW21763   6.534   0.401   3.236
 6955SOL    HW121764   6.582   0.399   3.324
 6955SOL    HW221765   6.588   0.351   3.169
 6956SOL     OW21766   2.605   3.991   1.027
 6956SOL    HW121767   2.533   4.018   0.962
 6956SOL    HW221768   2.567   3.927   1.094
 6957SOL     OW21769   0.650   4.621   0.152
 6957SOL    HW121770   0.597   4.558   0.209
 6957SOL    HW221771   0.659   4.583   0.060
 6958SOL     OW21772   2.473   4.128   5.965
 6958SOL    HW121773   2.437   4.115   6.057
 6958SOL    HW221774   2.484   4.038   5.921
 6959SOL     OW21775   3.909   1.327   4.716
 6959SOL    HW121776   3.916   1.273   4.800
 6959SOL    HW221777   3.935   1.422   4.736
 6960SOL     OW21778   0.578   5.446   0.024
 6960SOL    HW121779   0.618   5.524   0.072
 6960SOL    HW221780   0.514   5.479   6.980
 6961SOL     OW21781   6.534   1.537   3.629
 6961SOL    HW121782   6.555   1.526   3.532
 6961SOL    HW221783   6.581   1.466   3.681
 6962SOL     OW21784   3.786   3.965   1.083
 6962SOL    HW121785   3.773   4.064   1.077
 6962SOL    HW221786   3.751   3.922   1.000
 6963SOL     OW21787   6.177   5.855   2.281
 6963SOL    HW121788   6.182   5.800   2.365
 6963SOL    HW221789   6.139   5.799   2.207
 6964SOL     OW21790   3.109   5.810   5.899
 6964SOL    HW121791   3.106   5.836   5.996
 6964SOL    HW221792   3.059   5.878   5.845
 6965SOL     OW21793   6.085   1.602   5.562
 6965SOL    HW121794   6.015   1.652   5.511
 6965SOL    HW221795   6.063   1.604   5.659
 6966SOL     OW21796   5.219   2.211   3.888
 6966SOL    HW121797   5.231   2.134   3.951
 6966SOL    HW221798   5.280   2.286   3.915
 6967SOL     OW21799   2.549   2.513   6.085
 6967SOL    HW121800   2.547   2.588   6.018
 6967SOL    HW221801   2.520   2.548   6.174
 6968SOL     OW21802   4.196   0.171   3.916
 6968SOL    HW121803   4.286   0.128   3.924
 6968SOL    HW221804   4.126   0.101   3.910
 6969SOL     OW21805   3.306   3.474   0.871
 6969SOL    HW121806   3.326   3.387   0.917
 6969SOL    HW221807   3.207   3.486   0.865
 6970SOL     OW21808   4.775   4.310   0.743
 6970SOL    HW121809   4.786   4.386   0.679
 6970SOL    HW221810   4.856   4.252   0.742
 6971SOL     OW21811   6.313   1.548   2.513
 6971SOL    HW121812   6.401   1.583   2.480
 6971SOL    HW221813   6.271   1.615   2.574
 6972SOL     OW21814   5.456   4.885   4.275
 6972SOL    HW121815   5.510   4.926   4.349
 6972SOL    HW221816   5.513   4.821   4.224
 6973SOL     OW21817   1.369   4.424   4.178
 6973SOL    HW121818   1.397   4.516   4.150
 6973SOL    HW221819   1.435   4.357   4.145
 6974SOL     OW21820   3.690   4.096   5.426
 6974SOL    HW121821   3.618   4.039   5.467
 6974SOL    HW221822   3.649   4.180   5.390
 6975SOL     OW21823   3.156   6.945   5.966
 6975SOL    HW121824   3.125   6.885   6.040
 6975SOL    HW221825   3.183   0.007   6.004
 6976SOL     OW21826   1.354   6.112   0.358
 6976SOL    HW121827   1.440   6.123   0.309
 6976SOL    HW221828   1.279   6.107   0.292
 6977SOL     OW21829   4.841   2.767   2.119
 6977SOL    HW121830   4.807   2.851   2.076
 6977SOL    HW221831   4.774   2.736   2.187
 6978SOL     OW21832   4.455   2.180   3.908
 6978SOL    HW121833   4.509   2.261   3.886
 6978SOL    HW221834   4.363   2.190   3.870
 6979SOL     OW21835   0.359   4.015   3.872
 6979SOL    HW121836   0.406   3.964   3.944
 6979SOL    HW221837   0.421   4.028   3.795
 6980SOL     OW21838   4.705   1.421   4.629
 6980SOL    HW121839   4.617   1.396   4.589
 6980SOL    HW221840   4.745   1.341   4.673
 6981SOL     OW21841   3.037   3.586   6.737
 6981SOL    HW121842   3.056   3.511   6.801
 6981SOL    HW221843   2.940   3.586   6.714
 6982SOL     OW21844   0.483   0.028   5.154
 6982SOL    HW121845   0.429   0.110   5.137
 6982SOL    HW221846   0.432   6.974   5.121
 6983SOL     OW21847   6.259   1.112   2.745
 6983SOL    HW121848   6.217   1.135   2.833
 6983SOL    HW221849   6.245   1.187   2.681
 6984SOL     OW21850   1.826   1.356   5.962
 6984SOL    HW121851   1.820   1.272   6.016
 6984SOL    HW221852   1.875   1.426   6.014
 6985SOL     OW21853   4.983   0.094   4.037
 6985SOL    HW121854   4.932   0.180   4.028
 6985SOL    HW221855   5.054   0.105   4.107
 6986SOL     OW21856   1.664   6.714   5.590
 6986SOL    HW121857   1.756   6.727   5.627
 6986SOL    HW221858   1.670   6.657   5.508
 6987SOL     OW21859   6.907   3.128   6.610
 6987SOL    HW121860   6.913   3.137   6.510
 6987SOL    HW221861   6.962   3.199   6.653
 6988SOL     OW21862   5.728   1.694   5.937
 6988SOL    HW121863   5.639   1.653   5.920
 6988SOL    HW221864   5.799   1.626   5.925
 6989SOL     OW21865   2.122   2.999   3.474
 6989SOL    HW121866   2.029   3.017   3.505
 6989SOL    HW221867   2.130   3.021   3.377
 6990SOL     OW21868   3.877   3.511   0.867
 6990SOL    HW121869   3.954   3.448   0.860
 6990SOL    HW221870   3.889   3.570   0.947
 6991SOL     OW21871   4.043   4.689   5.298
 6991SOL    HW121872   3.953   4.730   5.308
 6991SOL    HW221873   4.039   4.592   5.323
 6992SOL     OW21874   6.418   6.850   4.481
 6992SOL    HW121875   6.331   6.804   4.466
 6992SOL    HW221876   6.453   6.884   4.393
 6993SOL     OW21877   0.420   6.906   3.160
 6993SOL    HW121878   0.344   6.847   3.189
 6993SOL    HW221879   0.383   6.985   3.112
 6994SOL     OW21880   1.299   2.609   0.061
 6994SOL    HW121881   1.249   2.641   7.006
 6994SOL    HW221882   1.254   2.644   0.143
 6995SOL     OW21883   0.806   5.356   4.271
 6995SOL    HW121884   0.873   5.334   4.200
 6995SOL    HW221885   0.768   5.446   4.254
 6996SOL     OW21886   1.877   0.159   6.233
 6996SOL    HW121887   1.784   0.183   6.205
 6996SOL    HW221888   1.881   0.062   6.256
 6997SOL     OW21889   4.607   5.270   4.517
 6997SOL    HW121890   4.658   5.355   4.500
 6997SOL    HW221891   4.602   5.217   4.433
 6998SOL     OW21892   2.837   1.949   2.794
 6998SOL    HW121893   2.852   2.046   2.776
 6998SOL    HW221894   2.744   1.924   2.767
 6999SOL     OW21895   5.603   2.295   0.119
 6999SOL    HW121896   5.517   2.270   0.165
 6999SOL    HW221897   5.654   2.358   0.177
 7000SOL     OW21898   6.758   0.220   1.647
 7000SOL    HW121899   6.818   0.272   1.709
 7000SOL    HW221900   6.686   0.280   1.613
 7001SOL     OW21901   3.284   1.443   6.535
 7001SOL    HW121902   3.277   1.452   6.634
 7001SOL    HW221903   3.221   1.506   6.491
 7002SOL     OW21904   2.166   4.923   2.241
 7002SOL    HW121905   2.138   5.012   2.205
 7002SOL    HW221906   2.150   4.853   2.172
 7003SOL     OW21907   1.882   6.433   5.832
 7003SOL    HW121908   1.787   6.460   5.819
 7003SOL    HW221909   1.893   6.337   5.808
 7004SOL     OW21910   1.501   4.073   7.025
 7004SOL    HW121911   1.482   3.996   6.964
 7004SOL    HW221912   1.596   4.071   0.027
 7005SOL     OW21913   6.774   6.876   5.763
 7005SOL    HW121914   6.864   6.907   5.732
 7005SOL    HW221915   6.782   6.837   5.854
 7006SOL     OW21916   4.555   4.704   3.817
 7006SOL    HW121917   4.538   4.699   3.916
 7006SOL    HW221918   4.638   4.653   3.795
 7007SOL     OW21919   4.598   5.180   2.478
 7007SOL    HW121920   4.622   5.100   2.424
 7007SOL    HW221921   4.626   5.165   2.573
 7008SOL     OW21922   1.235   5.376   4.021
 7008SOL    HW121923   1.288   5.292   4.034
 7008SOL    HW221924   1.281   5.452   4.068
 7009SOL     OW21925   6.707   3.812   2.028
 7009SOL    HW121926   6.707   3.865   1.943
 7009SOL    HW221927   6.800   3.808   2.064
 7010SOL     OW21928   5.361   4.784   6.420
 7010SOL    HW121929   5.400   4.713   6.478
 7010SOL    HW221930   5.307   4.741   6.347
 7011SOL     OW21931   0.836   0.931   5.168
 7011SOL    HW121932   0.765   0.979   5.219
 7011SOL    HW221933   0.884   0.995   5.109
 7012SOL     OW21934   1.285   0.955   1.697
 7012SOL    HW121935   1.200   0.990   1.736
 7012SOL    HW221936   1.325   0.887   1.759
 7013SOL     OW21937   6.831   1.892   1.720
 7013SOL    HW121938   6.915   1.946   1.727
 7013SOL    HW221939   6.827   1.828   1.797
 7014SOL     OW21940   2.468   5.128   0.841
 7014SOL    HW121941   2.422   5.146   0.754
 7014SOL    HW221942   2.511   5.212   0.874
 7015SOL     OW21943   4.816   1.890   2.945
 7015SOL    HW121944   4.819   1.975   2.893
 7015SOL    HW221945   4.813   1.911   3.042
 7016SOL     OW21946   4.337   4.306   1.571
 7016SOL    HW121947   4.336   4.234   1.641
 7016SOL    HW221948   4.293   4.272   1.488
 7017SOL     OW21949   5.165   1.447   5.522
 7017SOL    HW121950   5.222   1.529   5.518
 7017SOL    HW221951   5.070   1.473   5.537
 7018SOL     OW21952   0.422   3.177   3.302
 7018SOL    HW121953   0.409   3.233   3.220
 7018SOL    HW221954   0.333   3.157   3.343
 7019SOL     OW21955   1.334   6.025   1.195
 7019SOL    HW121956   1.301   5.931   1.210
 7019SOL    HW221957   1.256   6.086   1.180
 7020SOL     OW21958   0.424   5.661   6.929
 7020SOL    HW121959   0.396   5.756   6.912
 7020SOL    HW221960   0.345   5.601   6.918
 7021SOL     OW21961   3.712   6.823   6.063
 7021SOL    HW121962   3.750   6.915   6.055
 7021SOL    HW221963   3.669   6.796   5.977
 7022SOL     OW21964   4.542   5.316   5.787
 7022SOL    HW121965   4.563   5.368   5.870
 7022SOL    HW221966   4.620   5.260   5.762
 7023SOL     OW21967   4.993   4.327   2.757
 7023SOL    HW121968   4.936   4.406   2.733
 7023SOL    HW221969   4.935   4.253   2.790
 7024SOL     OW21970   6.030   6.802   1.179
 7024SOL    HW121971   6.117   6.842   1.148
 7024SOL    HW221972   6.041   6.766   1.271
 7025SOL     OW21973   2.511   0.413   0.389
 7025SOL    HW121974   2.434   0.464   0.350
 7025SOL    HW221975   2.481   0.321   0.414
 7026SOL     OW21976   3.894   2.011   1.250
 7026SOL    HW121977   3.809   2.058   1.276
 7026SOL    HW221978   3.896   1.920   1.292
 7027SOL     OW21979   5.846   6.003   4.090
 7027SOL    HW121980   5.919   6.021   4.024
 7027SOL    HW221981   5.759   6.032   4.051
 7028SOL     OW21982   2.988   0.670   4.726
 7028SOL    HW121983   2.986   0.752   4.783
 7028SOL    HW221984   2.989   0.695   4.630
 7029SOL     OW21985   4.279   1.524   4.497
 7029SOL    HW121986   4.337   1.575   4.432
 7029SOL    HW221987   4.329   1.444   4.530
 7030SOL     OW21988   1.930   3.300   4.045
 7030SOL    HW121989   2.016   3.295   3.994
 7030SOL    HW221990   1.860   3.248   3.996
 7031SOL     OW21991   1.478   1.028   4.319
 7031SOL    HW121992   1.382   1.001   4.320
 7031SOL    HW221993   1.534   0.950   4.291
 7032SOL     OW21994   6.214   2.465   3.752
 7032SOL    HW121995   6.125   2.423   3.771
 7032SOL    HW221996   6.283   2.393   3.743
 7033SOL     OW21997   0.982   0.278   5.685
 7033SOL    HW121998   1.044   0.287   5.607
 7033SOL    HW221999   0.895   0.325   5.664
 7034SOL     OW22000   0.506   5.147   3.268
 7034SOL    HW122001   0.466   5.227   3.313
 7034SOL    HW222002   0.433   5.086   3.239
 7035SOL     OW22003   6.564   4.965   1.946
 7035SOL    HW122004   6.588   4.875   1.910
 7035SOL    HW222005   6.507   5.013   1.879
 7036SOL     OW22006   5.883   4.909   0.844
 7036SOL    HW122007   5.838   4.998   0.842
 7036SOL    HW222008   5.885   4.871   0.752
 7037SOL     OW22009   1.537   0.375   6.465
 7037SOL    HW122010   1.583   0.430   6.534
 7037SOL    HW222011   1.527   0.281   6.499
 7038SOL     OW22012   2.092   3.059   4.282
 7038SOL    HW122013   2.037   3.003   4.344
 7038SOL    HW222014   2.117   3.144   4.327
 7039SOL     OW22015   3.249   2.289   6.531
 7039SOL    HW122016   3.320   2.264   6.597
 7039SOL    HW222017   3.178   2.341   6.577
 7040SOL     OW22018   5.353   2.746   6.494
 7040SOL    HW122019   5.316   2.823   6.442
 7040SOL    HW222020   5.300   2.735   6.578
 7041SOL     OW22021   2.173   1.707   3.749
 7041SOL    HW122022   2.171   1.775   3.822
 7041SOL    HW222023   2.264   1.707   3.706
 7042SOL     OW22024   1.394   0.728   6.614
 7042SOL    HW122025   1.489   0.726   6.583
 7042SOL    HW222026   1.370   0.639   6.654
 7043SOL     OW22027   1.849   2.197   2.120
 7043SOL    HW122028   1.765   2.154   2.088
 7043SOL    HW222029   1.878   2.154   2.206
 7044SOL     OW22030   6.732   6.446   1.905
 7044SOL    HW122031   6.744   6.473   2.000
 7044SOL    HW222032   6.796   6.371   1.884
 7045SOL     OW22033   6.671   4.912   7.012
 7045SOL    HW122034   6.598   4.847   0.007
 7045SOL    HW222035   6.679   4.978   0.062
 7046SOL     OW22036   3.332   1.414   3.881
 7046SOL    HW122037   3.386   1.398   3.965
 7046SOL    HW222038   3.384   1.380   3.802
 7047SOL     OW22039   1.598   0.105   2.915
 7047SOL    HW122040   1.693   0.100   2.946
 7047SOL    HW222041   1.596   0.139   2.821
 7048SOL     OW22042   6.754   5.747   0.137
 7048SOL    HW122043   6.819   5.769   0.210
 7048SOL    HW222044   6.801   5.703   0.061
 7049SOL     OW22045   2.022   0.939   6.670
 7049SOL    HW122046   2.084   1.004   6.626
 7049SOL    HW222047   2.027   0.951   6.769
 7050SOL     OW22048   4.024   4.002   5.321
 7050SOL    HW122049   3.987   3.916   5.287
 7050SOL    HW222050   3.971   4.033   5.400
 7051SOL     OW22051   6.591   6.737   3.111
 7051SOL    HW122052   6.645   6.781   3.183
 7051SOL    HW222053   6.558   6.807   3.047
 7052SOL     OW22054   6.834   0.300   5.580
 7052SOL    HW122055   6.916   0.350   5.608
 7052SOL    HW222056   6.810   0.326   5.486
 7053SOL     OW22057   6.551   4.268   5.812
 7053SOL    HW122058   6.591   4.225   5.893
 7053SOL    HW222059   6.614   4.336   5.775
 7054SOL     OW22060   6.165   1.723   1.662
 7054SOL    HW122061   6.196   1.817   1.674
 7054SOL    HW222062   6.078   1.722   1.613
 7055SOL     OW22063   4.513   1.547   4.296
 7055SOL    HW122064   4.437   1.533   4.233
 7055SOL    HW222065   4.590   1.487   4.269
 7056SOL     OW22066   4.399   5.408   4.122
 7056SOL    HW122067   4.344   5.434   4.043
 7056SOL    HW222068   4.340   5.405   4.204
 7057SOL     OW22069   6.128   5.733   3.108
 7057SOL    HW122070   6.094   5.640   3.094
 7057SOL    HW222071   6.186   5.736   3.189
 7058SOL     OW22072   6.888   4.435   4.609
 7058SOL    HW122073   6.855   4.473   4.523
 7058SOL    HW222074   6.988   4.429   4.606
 7059SOL     OW22075   1.906   1.439   2.733
 7059SOL    HW122076   1.949   1.455   2.822
 7059SOL    HW222077   1.820   1.391   2.746
 7060SOL     OW22078   2.978   6.621   0.998
 7060SOL    HW122079   2.964   6.581   1.088
 7060SOL    HW222080   3.036   6.560   0.943
 7061SOL     OW22081   0.082   0.666   3.056
 7061SOL    HW122082   0.071   0.738   3.126
 7061SOL    HW222083   0.058   0.703   2.967
 7062SOL     OW22084   6.153   1.212   5.382
 7062SOL    HW122085   6.144   1.130   5.438
 7062SOL    HW222086   6.211   1.278   5.429
 7063SOL     OW22087   1.910   6.834   2.576
 7063SOL    HW122088   1.894   6.911   2.515
 7063SOL    HW222089   1.978   6.773   2.536
 7064SOL     OW22090   4.010   2.612   0.356
 7064SOL    HW122091   4.060   2.694   0.385
 7064SOL    HW222092   3.913   2.634   0.345
 7065SOL     OW22093   3.301   3.431   2.155
 7065SOL    HW122094   3.237   3.441   2.231
 7065SOL    HW222095   3.271   3.357   2.096
 7066SOL     OW22096   2.659   5.280   1.294
 7066SOL    HW122097   2.684   5.377   1.286
 7066SOL    HW222098   2.722   5.236   1.358
 7067SOL     OW22099   0.557   4.282   4.357
 7067SOL    HW122100   0.529   4.189   4.382
 7067SOL    HW222101   0.492   4.347   4.398
 7068SOL     OW22102   0.284   0.294   2.716
 7068SOL    HW122103   0.350   0.296   2.641
 7068SOL    HW222104   0.302   0.369   2.779
 7069SOL     OW22105   1.683   4.941   5.213
 7069SOL    HW122106   1.625   4.956   5.293
 7069SOL    HW222107   1.692   5.026   5.162
 7070SOL     OW22108   5.684   5.267   3.469
 7070SOL    HW122109   5.760   5.331   3.471
 7070SOL    HW222110   5.600   5.316   3.447
 7071SOL     OW22111   1.980   6.822   5.364
 7071SOL    HW122112   2.050   6.751   5.351
 7071SOL    HW222113   1.890   6.785   5.341
 7072SOL     OW22114   0.666   0.218   6.898
 7072SOL    HW122115   0.643   0.205   6.995
 7072SOL    HW222116   0.705   0.134   6.861
 7073SOL     OW22117   2.008   1.921   6.158
 7073SOL    HW122118   1.973   2.012   6.179
 7073SOL    HW222119   2.015   1.910   6.059
 7074SOL     OW22120   3.602   1.310   0.093
 7074SOL    HW122121   3.580   1.212   0.093
 7074SOL    HW222122   3.696   1.322   0.124
 7075SOL     OW22123   0.796   5.990   2.366
 7075SOL    HW122124   0.733   6.049   2.418
 7075SOL    HW222125   0.843   6.044   2.296
 7076SOL     OW22126   3.709   1.665   5.882
 7076SOL    HW122127   3.784   1.630   5.827
 7076SOL    HW222128   3.698   1.608   5.964
 7077SOL     OW22129   1.690   5.096   6.632
 7077SOL    HW122130   1.759   5.025   6.622
 7077SOL    HW222131   1.729   5.175   6.679
 7078SOL     OW22132   6.475   0.738   2.191
 7078SOL    HW122133   6.405   0.796   2.232
 7078SOL    HW222134   6.452   0.721   2.095
 7079SOL     OW22135   5.440   5.942   5.129
 7079SOL    HW122136   5.405   6.029   5.164
 7079SOL    HW222137   5.512   5.959   5.062
 7080SOL     OW22138   5.813   0.560   4.094
 7080SOL    HW122139   5.774   0.487   4.150
 7080SOL    HW222140   5.841   0.636   4.154
 7081SOL     OW22141   4.664   0.601   5.063
 7081SOL    HW122142   4.697   0.687   5.102
 7081SOL    HW222143   4.732   0.530   5.078
 7082SOL     OW22144   5.830   1.136   0.368
 7082SOL    HW122145   5.927   1.153   0.354
 7082SOL    HW222146   5.777   1.173   0.292
 7083SOL     OW22147   3.492   0.617   5.673
 7083SOL    HW122148   3.579   0.590   5.632
 7083SOL    HW222149   3.488   0.583   5.768
 7084SOL     OW22150   6.043   5.743   0.315
 7084SOL    HW122151   5.984   5.749   0.234
 7084SOL    HW222152   6.110   5.817   0.312
 7085SOL     OW22153   4.019   1.632   1.243
 7085SOL    HW122154   3.974   1.620   1.154
 7085SOL    HW222155   4.117   1.621   1.232
 7086SOL     OW22156   1.422   1.069   6.178
 7086SOL    HW122157   1.389   1.073   6.083
 7086SOL    HW222158   1.398   1.154   6.225
 7087SOL     OW22159   2.352   2.753   4.973
 7087SOL    HW122160   2.333   2.845   5.009
 7087SOL    HW222161   2.387   2.760   4.880
 7088SOL     OW22162   0.401   2.263   5.380
 7088SOL    HW122163   0.383   2.319   5.299
 7088SOL    HW222164   0.481   2.298   5.428
 7089SOL     OW22165   3.066   2.042   1.427
 7089SOL    HW122166   3.083   2.141   1.436
 7089SOL    HW222167   3.040   2.005   1.516
 7090SOL     OW22168   2.089   2.330   5.658
 7090SOL    HW122169   2.075   2.284   5.570
 7090SOL    HW222170   2.121   2.423   5.643
 7091SOL     OW22171   6.911   6.410   0.770
 7091SOL    HW122172   6.829   6.354   0.782
 7091SOL    HW222173   6.948   6.396   0.678
 7092SOL     OW22174   2.763   2.286   0.751
 7092SOL    HW122175   2.707   2.367   0.734
 7092SOL    HW222176   2.752   2.258   0.846
 7093SOL     OW22177   4.212   3.166   6.069
 7093SOL    HW122178   4.136   3.216   6.028
 7093SOL    HW222179   4.245   3.097   6.004
 7094SOL     OW22180   6.290   0.938   5.830
 7094SOL    HW122181   6.365   0.885   5.790
 7094SOL    HW222182   6.297   1.033   5.800
 7095SOL     OW22183   0.355   4.187   0.722
 7095SOL    HW122184   0.374   4.247   0.800
 7095SOL    HW222185   0.257   4.181   0.707
 7096SOL     OW22186   4.777   0.003   2.627
 7096SOL    HW122187   4.845   0.075   2.616
 7096SOL    HW222188   4.819   6.940   2.606
 7097SOL     OW22189   1.725   1.435   1.701
 7097SOL    HW122190   1.652   1.492   1.663
 7097SOL    HW222191   1.799   1.494   1.734
 7098SOL     OW22192   1.018   0.656   6.204
 7098SOL    HW122193   1.088   0.614   6.147
 7098SOL    HW222194   0.934   0.601   6.200
 7099SOL     OW22195   0.043   0.953   5.451
 7099SOL    HW122196   0.108   0.956   5.527
 7099SOL    HW222197   0.024   0.858   5.428
 7100SOL     OW22198   5.519   1.792   1.381
 7100SOL    HW122199   5.449   1.779   1.451
 7100SOL    HW222200   5.594   1.726   1.396
 7101SOL     OW22201   1.590   0.545   3.876
 7101SOL    HW122202   1.534   0.469   3.842
 7101SOL    HW222203   1.650   0.513   3.949
 7102SOL     OW22204   4.890   3.085   0.421
 7102SOL    HW122205   4.868   2.993   0.389
 7102SOL    HW222206   4.863   3.152   0.352
 7103SOL     OW22207   2.956   0.038   5.821
 7103SOL    HW122208   2.931   0.115   5.880
 7103SOL    HW222209   3.038   7.020   5.858
 7104SOL     OW22210   0.587   2.505   1.789
 7104SOL    HW122211   0.571   2.406   1.796
 7104SOL    HW222212   0.616   2.540   1.878
 7105SOL     OW22213   2.111   3.728   5.623
 7105SOL    HW122214   2.160   3.813   5.645
 7105SOL    HW222215   2.161   3.650   5.661
 7106SOL     OW22216   3.086   2.758   5.268
 7106SOL    HW122217   2.999   2.718   5.295
 7106SOL    HW222218   3.161   2.696   5.292
 7107SOL     OW22219   1.749   1.410   0.798
 7107SOL    HW122220   1.676   1.461   0.753
 7107SOL    HW222221   1.826   1.399   0.735
 7108SOL     OW22222   4.486   6.569   1.670
 7108SOL    HW122223   4.390   6.551   1.691
 7108SOL    HW222224   4.492   6.623   1.587
 7109SOL     OW22225   4.014   6.073   6.486
 7109SOL    HW122226   4.003   6.016   6.567
 7109SOL    HW222227   4.105   6.058   6.446
 7110SOL     OW22228   3.243   4.978   4.322
 7110SOL    HW122229   3.334   5.017   4.312
 7110SOL    HW222230   3.185   5.008   4.246
 7111SOL     OW22231   1.643   2.791   3.525
 7111SOL    HW122232   1.615   2.740   3.607
 7111SOL    HW222233   1.562   2.823   3.476
 7112SOL     OW22234   1.716   6.560   2.886
 7112SOL    HW122235   1.671   6.649   2.885
 7112SOL    HW222236   1.814   6.572   2.867
 7113SOL     OW22237   3.681   3.225   5.249
 7113SOL    HW122238   3.620   3.276   5.189
 7113SOL    HW222239   3.756   3.186   5.196
 7114SOL     OW22240   3.776   6.664   0.665
 7114SOL    HW122241   3.779   6.654   0.764
 7114SOL    HW222242   3.694   6.620   0.629
 7115SOL     OW22243   3.999   2.002   1.710
 7115SOL    HW122244   4.021   2.094   1.677
 7115SOL    HW222245   4.061   1.936   1.669
 7116SOL     OW22246   6.039   4.032   3.039
 7116SOL    HW122247   5.944   4.033   3.071
 7116SOL    HW222248   6.040   4.025   2.939
 7117SOL     OW22249   6.115   6.781   2.648
 7117SOL    HW122250   6.157   6.823   2.729
 7117SOL    HW222251   6.179   6.785   2.571
 7118SOL     OW22252   6.951   3.122   2.770
 7118SOL    HW122253   6.869   3.070   2.748
 7118SOL    HW222254   7.013   3.065   2.824
 7119SOL     OW22255   1.120   2.193   2.762
 7119SOL    HW122256   1.117   2.226   2.857
 7119SOL    HW222257   1.213   2.202   2.727
 7120SOL     OW22258   4.836   6.100   2.795
 7120SOL    HW122259   4.921   6.101   2.847
 7120SOL    HW222260   4.833   6.180   2.734
 7121SOL     OW22261   2.448   6.533   1.223
 7121SOL    HW122262   2.398   6.520   1.309
 7121SOL    HW222263   2.545   6.512   1.238
 7122SOL     OW22264   6.848   6.522   0.211
 7122SOL    HW122265   6.838   6.565   0.121
 7122SOL    HW222266   6.789   6.442   0.217
 7123SOL     OW22267   2.698   5.710   0.640
 7123SOL    HW122268   2.704   5.708   0.541
 7123SOL    HW222269   2.790   5.722   0.679
 7124SOL     OW22270   6.952   6.245   6.680
 7124SOL    HW122271   0.019   6.261   6.648
 7124SOL    HW222272   6.947   6.156   6.725
 7125SOL     OW22273   0.150   6.436   3.564
 7125SOL    HW122274   0.109   6.524   3.587
 7125SOL    HW222275   0.223   6.415   3.630
 7126SOL     OW22276   1.877   4.291   1.046
 7126SOL    HW122277   1.917   4.305   1.137
 7126SOL    HW222278   1.944   4.247   0.986
 7127SOL     OW22279   2.655   0.498   4.588
 7127SOL    HW122280   2.687   0.591   4.571
 7127SOL    HW222281   2.731   0.434   4.578
 7128SOL     OW22282   3.066   3.757   1.716
 7128SOL    HW122283   3.138   3.821   1.688
 7128SOL    HW222284   3.012   3.798   1.789
 7129SOL     OW22285   2.538   1.921   1.126
 7129SOL    HW122286   2.471   1.985   1.163
 7129SOL    HW222287   2.517   1.900   1.031
 7130SOL     OW22288   2.335   0.524   2.999
 7130SOL    HW122289   2.242   0.492   2.984
 7130SOL    HW222290   2.374   0.476   3.078
 7131SOL     OW22291   3.084   1.460   3.791
 7131SOL    HW122292   3.061   1.554   3.766
 7131SOL    HW222293   3.181   1.453   3.812
 7132SOL     OW22294   3.095   4.022   1.896
 7132SOL    HW122295   3.048   4.110   1.891
 7132SOL    HW222296   3.162   4.017   1.822
 7133SOL     OW22297   5.782   4.227   2.404
 7133SOL    HW122298   5.854   4.205   2.339
 7133SOL    HW222299   5.781   4.160   2.479
 7134SOL     OW22300   5.544   4.860   2.701
 7134SOL    HW122301   5.474   4.793   2.674
 7134SOL    HW222302   5.535   4.942   2.644
 7135SOL     OW22303   0.399   2.178   5.822
 7135SOL    HW122304   0.326   2.199   5.886
 7135SOL    HW222305   0.470   2.248   5.827
 7136SOL     OW22306   1.973   2.006   6.640
 7136SOL    HW122307   1.922   2.080   6.685
 7136SOL    HW222308   2.015   2.041   6.556
 7137SOL     OW22309   4.950   1.934   5.176
 7137SOL    HW122310   4.969   1.993   5.097
 7137SOL    HW222311   4.958   1.987   5.260
 7138SOL     OW22312   2.119   2.646   6.898
 7138SOL    HW122313   2.130   2.719   6.831
 7138SOL    HW222314   2.194   2.649   6.963
 7139SOL     OW22315   2.741   1.555   0.422
 7139SOL    HW122316   2.745   1.654   0.409
 7139SOL    HW222317   2.825   1.513   0.388
 7140SOL     OW22318   6.909   3.967   4.814
 7140SOL    HW122319   6.871   4.004   4.899
 7140SOL    HW222320   6.841   3.910   4.769
 7141SOL     OW22321   1.018   6.924   1.714
 7141SOL    HW122322   0.940   6.865   1.733
 7141SOL    HW222323   1.098   6.868   1.694
 7142SOL     OW22324   3.588   6.461   3.555
 7142SOL    HW122325   3.490   6.480   3.547
 7142SOL    HW222326   3.603   6.381   3.613
 7143SOL     OW22327   2.488   2.141   3.970
 7143SOL    HW122328   2.428   2.065   3.992
 7143SOL    HW222329   2.581   2.107   3.953
 7144SOL     OW22330   1.347   3.195   3.525
 7144SOL    HW122331   1.343   3.293   3.503
 7144SOL    HW222332   1.256   3.155   3.512
 7145SOL     OW22333   4.134   5.840   5.853
 7145SOL    HW122334   4.089   5.761   5.811
 7145SOL    HW222335   4.155   5.908   5.784
 7146SOL     OW22336   3.278   5.174   1.986
 7146SOL    HW122337   3.331   5.098   1.947
 7146SOL    HW222338   3.231   5.142   2.068
 7147SOL     OW22339   0.070   0.904   3.549
 7147SOL    HW122340   0.049   0.972   3.479
 7147SOL    HW222341   0.088   0.950   3.636
 7148SOL     OW22342   7.024   1.632   0.857
 7148SOL    HW122343   0.052   1.581   0.789
 7148SOL    HW222344   7.011   1.576   0.938
 7149SOL     OW22345   0.518   0.597   4.638
 7149SOL    HW122346   0.432   0.594   4.689
 7149SOL    HW222347   0.595   0.593   4.702
 7150SOL     OW22348   6.180   3.508   6.401
 7150SOL    HW122349   6.188   3.452   6.484
 7150SOL    HW222350   6.083   3.532   6.387
 7151SOL     OW22351   2.482   6.731   0.681
 7151SOL    HW122352   2.500   6.829   0.692
 7151SOL    HW222353   2.385   6.713   0.696
 7152SOL     OW22354   1.038   2.487   4.409
 7152SOL    HW122355   1.125   2.491   4.459
 7152SOL    HW222356   0.980   2.416   4.448
 7153SOL     OW22357   4.083   1.837   2.845
 7153SOL    HW122358   4.100   1.757   2.902
 7153SOL    HW222359   4.114   1.818   2.752
 7154SOL     OW22360   3.744   6.450   5.038
 7154SOL    HW122361   3.728   6.510   5.116
 7154SOL    HW222362   3.657   6.408   5.010
 7155SOL     OW22363   2.601   1.734   3.105
 7155SOL    HW122364   2.625   1.656   3.162
 7155SOL    HW222365   2.542   1.796   3.156
 7156SOL     OW22366   1.901   5.738   5.581
 7156SOL    HW122367   1.919   5.648   5.540
 7156SOL    HW222368   1.858   5.726   5.670
 7157SOL     OW22369   5.176   4.057   0.719
 7157SOL    HW122370   5.234   3.995   0.666
 7157SOL    HW222371   5.182   4.149   0.681
 7158SOL     OW22372   4.596   0.044   3.685
 7158SOL    HW122373   4.689   0.008   3.675
 7158SOL    HW222374   4.533   7.015   3.631
 7159SOL     OW22375   0.645   5.252   0.252
 7159SOL    HW122376   0.695   5.176   0.210
 7159SOL    HW222377   0.596   5.303   0.182
 7160SOL     OW22378   6.466   0.751   1.476
 7160SOL    HW122379   6.403   0.736   1.552
 7160SOL    HW222380   6.514   0.666   1.456
 7161SOL     OW22381   3.902   4.002   4.527
 7161SOL    HW122382   3.961   4.079   4.503
 7161SOL    HW222383   3.856   4.021   4.614
 7162SOL     OW22384   3.557   4.962   4.265
 7162SOL    HW122385   3.565   4.951   4.364
 7162SOL    HW222386   3.572   5.057   4.240
 7163SOL     OW22387   1.225   6.335   3.325
 7163SOL    HW122388   1.170   6.290   3.255
 7163SOL    HW222389   1.321   6.333   3.299
 7164SOL     OW22390   2.282   2.036   4.555
 7164SOL    HW122391   2.351   2.103   4.582
 7164SOL    HW222392   2.311   1.944   4.581
 7165SOL     OW22393   5.038   6.091   2.007
 7165SOL    HW122394   4.959   6.050   1.961
 7165SOL    HW222395   5.070   6.171   1.956
 7166SOL     OW22396   4.115   6.013   2.138
 7166SOL    HW122397   4.175   5.984   2.212
 7166SOL    HW222398   4.021   5.983   2.157
 7167SOL     OW22399   5.139   3.392   6.619
 7167SOL    HW122400   5.103   3.477   6.581
 7167SOL    HW222401   5.211   3.357   6.560
 7168SOL     OW22402   0.977   1.828   4.052
 7168SOL    HW122403   1.043   1.759   4.082
 7168SOL    HW222404   1.018   1.919   4.063
 7169SOL     OW22405   2.073   2.830   6.662
 7169SOL    HW122406   1.983   2.788   6.674
 7169SOL    HW222407   2.083   2.906   6.726
 7170SOL     OW22408   5.620   4.403   3.641
 7170SOL    HW122409   5.522   4.401   3.661
 7170SOL    HW222410   5.649   4.499   3.631
 7171SOL     OW22411   4.179   3.297   5.229
 7171SOL    HW122412   4.106   3.255   5.176
 7171SOL    HW222413   4.139   3.348   5.306
 7172SOL     OW22414   0.382   6.866   1.752
 7172SOL    HW122415   0.464   6.832   1.705
 7172SOL    HW222416   0.382   6.833   1.846
 7173SOL     OW22417   6.303   6.506   4.394
 7173SOL    HW122418   6.361   6.512   4.475
 7173SOL    HW222419   6.254   6.592   4.382
 7174SOL     OW22420   0.732   6.190   6.187
 7174SOL    HW122421   0.792   6.209   6.265
 7174SOL    HW222422   0.783   6.204   6.102
 7175SOL     OW22423   6.146   3.753   5.926
 7175SOL    HW122424   6.213   3.679   5.930
 7175SOL    HW222425   6.181   3.832   5.977
 7176SOL     OW22426   0.319   3.282   1.623
 7176SOL    HW122427   0.325   3.376   1.657
 7176SOL    HW222428   0.301   3.220   1.700
 7177SOL     OW22429   0.987   5.236   1.946
 7177SOL    HW122430   0.926   5.158   1.963
 7177SOL    HW222431   1.026   5.267   2.032
 7178SOL     OW22432   6.494   1.187   6.744
 7178SOL    HW122433   6.409   1.164   6.792
 7178SOL    HW222434   6.504   1.127   6.664
 7179SOL     OW22435   1.792   4.521   6.102
 7179SOL    HW122436   1.811   4.609   6.059
 7179SOL    HW222437   1.696   4.498   6.087
 7180SOL     OW22438   0.175   6.629   2.820
 7180SOL    HW122439   0.214   6.711   2.777
 7180SOL    HW222440   0.157   6.648   2.916
 7181SOL     OW22441   5.783   6.291   2.467
 7181SOL    HW122442   5.865   6.334   2.506
 7181SOL    HW222443   5.754   6.216   2.526
 7182SOL     OW22444   4.329   3.430   5.693
 7182SOL    HW122445   4.323   3.337   5.656
 7182SOL    HW222446   4.400   3.481   5.645
 7183SOL     OW22447   1.619   3.448   3.582
 7183SOL    HW122448   1.688   3.520   3.575
 7183SOL    HW222449   1.544   3.479   3.641
 7184SOL     OW22450   2.489   5.733   3.564
 7184SOL    HW122451   2.490   5.683   3.478
 7184SOL    HW222452   2.512   5.671   3.639
 7185SOL     OW22453   4.116   2.861   7.018
 7185SOL    HW122454   4.168   2.779   0.014
 7185SOL    HW222455   4.168   2.942   0.022
 7186SOL     OW22456   0.702   6.734   4.942
 7186SOL    HW122457   0.776   6.720   5.007
 7186SOL    HW222458   0.618   6.691   4.977
 7187SOL     OW22459   1.363   5.335   0.832
 7187SOL    HW122460   1.363   5.323   0.931
 7187SOL    HW222461   1.451   5.373   0.804
 7188SOL     OW22462   5.147   7.011   1.893
 7188SOL    HW122463   5.132   0.028   1.982
 7188SOL    HW222464   5.230   0.021   1.852
 7189SOL     OW22465   6.210   0.821   5.282
 7189SOL    HW122466   6.218   0.726   5.310
 7189SOL    HW222467   6.265   0.836   5.199
 7190SOL     OW22468   4.329   4.957   2.747
 7190SOL    HW122469   4.290   4.866   2.755
 7190SOL    HW222470   4.263   5.018   2.704
 7191SOL     OW22471   0.912   3.037   1.681
 7191SOL    HW122472   0.906   2.952   1.627
 7191SOL    HW222473   0.834   3.042   1.743
 7192SOL     OW22474   3.629   4.468   6.643
 7192SOL    HW122475   3.653   4.486   6.739
 7192SOL    HW222476   3.603   4.372   6.633
 7193SOL     OW22477   5.386   1.576   4.386
 7193SOL    HW122478   5.390   1.664   4.339
 7193SOL    HW222479   5.355   1.589   4.480
 7194SOL     OW22480   3.147   1.790   1.344
 7194SOL    HW122481   3.110   1.877   1.376
 7194SOL    HW222482   3.245   1.800   1.325
 7195SOL     OW22483   0.325   6.436   2.014
 7195SOL    HW122484   0.238   6.464   1.972
 7195SOL    HW222485   0.356   6.506   2.078
 7196SOL     OW22486   3.664   3.512   1.233
 7196SOL    HW122487   3.650   3.455   1.152
 7196SOL    HW222488   3.695   3.456   1.309
 7197SOL     OW22489   1.220   1.227   4.167
 7197SOL    HW122490   1.243   1.144   4.117
 7197SOL    HW222491   1.230   1.306   4.107
 7198SOL     OW22492   0.093   6.749   6.088
 7198SOL    HW122493   0.067   6.753   5.992
 7198SOL    HW222494   0.128   6.657   6.110
 7199SOL     OW22495   5.743   6.044   2.606
 7199SOL    HW122496   5.742   6.023   2.704
 7199SOL    HW222497   5.788   5.970   2.556
 7200SOL     OW22498   2.111   2.105   2.026
 7200SOL    HW122499   2.021   2.127   2.064
 7200SOL    HW222500   2.158   2.190   2.001
 7201SOL     OW22501   2.093   4.904   3.515
 7201SOL    HW122502   2.131   4.841   3.583
 7201SOL    HW222503   2.124   4.997   3.535
 7202SOL     OW22504   3.257   0.196   5.760
 7202SOL    HW122505   3.299   0.107   5.742
 7202SOL    HW222506   3.326   0.260   5.793
 7203SOL     OW22507   5.879   0.274   0.083
 7203SOL    HW122508   5.870   0.292   7.011
 7203SOL    HW222509   5.944   0.200   0.098
 7204SOL     OW22510   6.245   2.080   3.238
 7204SOL    HW122511   6.149   2.085   3.264
 7204SOL    HW222512   6.285   1.995   3.270
 7205SOL     OW22513   1.664   4.515   1.494
 7205SOL    HW122514   1.583   4.468   1.459
 7205SOL    HW222515   1.652   4.614   1.482
 7206SOL     OW22516   6.029   1.269   1.654
 7206SOL    HW122517   5.934   1.274   1.623
 7206SOL    HW222518   6.031   1.263   1.754
 7207SOL     OW22519   4.238   6.764   1.540
 7207SOL    HW122520   4.160   6.814   1.577
 7207SOL    HW222521   4.207   6.702   1.468
 7208SOL     OW22522   2.878   0.582   5.165
 7208SOL    HW122523   2.853   0.576   5.261
 7208SOL    HW222524   2.931   0.666   5.149
 7209SOL     OW22525   2.913   3.599   4.431
 7209SOL    HW122526   2.861   3.619   4.514
 7209SOL    HW222527   2.937   3.685   4.386
 7210SOL     OW22528   4.444   0.059   3.948
 7210SOL    HW122529   4.520   0.084   3.887
 7210SOL    HW222530   4.469   7.004   4.001
 7211SOL     OW22531   0.926   4.817   2.171
 7211SOL    HW122532   0.969   4.887   2.228
 7211SOL    HW222533   0.870   4.758   2.229
 7212SOL     OW22534   4.984   6.304   3.106
 7212SOL    HW122535   5.035   6.305   3.192
 7212SOL    HW222536   5.007   6.385   3.052
 7213SOL     OW22537   5.152   6.335   4.968
 7213SOL    HW122538   5.145   6.322   5.067
 7213SOL    HW222539   5.124   6.251   4.921
 7214SOL     OW22540   0.934   4.688   5.587
 7214SOL    HW122541   0.834   4.688   5.593
 7214SOL    HW222542   0.972   4.709   5.677
 7215SOL     OW22543   1.101   3.053   1.951
 7215SOL    HW122544   1.017   3.045   1.897
 7215SOL    HW222545   1.175   3.006   1.904
 7216SOL     OW22546   3.187   2.045   2.330
 7216SOL    HW122547   3.088   2.051   2.343
 7216SOL    HW222548   3.209   2.069   2.235
 7217SOL     OW22549   0.669   3.164   2.106
 7217SOL    HW122550   0.592   3.227   2.092
 7217SOL    HW222551   0.637   3.084   2.156
 7218SOL     OW22552   6.145   2.589   5.011
 7218SOL    HW122553   6.074   2.612   4.944
 7218SOL    HW222554   6.212   2.663   5.016
 7219SOL     OW22555   3.233   0.999   1.215
 7219SOL    HW122556   3.175   1.072   1.251
 7219SOL    HW222557   3.279   0.952   1.290
 7220SOL     OW22558   6.824   1.753   2.964
 7220SOL    HW122559   6.764   1.781   3.039
 7220SOL    HW222560   6.840   1.655   2.970
 7221SOL     OW22561   6.478   4.166   5.371
 7221SOL    HW122562   6.540   4.092   5.395
 7221SOL    HW222563   6.386   4.129   5.356
 7222SOL     OW22564   6.961   6.975   3.702
 7222SOL    HW122565   6.989   0.010   3.775
 7222SOL    HW222566   6.915   0.002   3.630
 7223SOL     OW22567   4.873   0.626   4.816
 7223SOL    HW122568   4.789   0.625   4.870
 7223SOL    HW222569   4.897   0.721   4.795
 7224SOL     OW22570   5.883   1.292   3.369
 7224SOL    HW122571   5.953   1.223   3.349
 7224SOL    HW222572   5.793   1.251   3.357
 7225SOL     OW22573   2.681   0.391   1.672
 7225SOL    HW122574   2.681   0.479   1.719
 7225SOL    HW222575   2.602   0.386   1.611
 7226SOL     OW22576   6.265   6.711   5.008
 7226SOL    HW122577   6.278   6.804   5.040
 7226SOL    HW222578   6.197   6.710   4.935
 7227SOL     OW22579   6.977   2.473   5.798
 7227SOL    HW122580   6.892   2.525   5.788
 7227SOL    HW222581   6.980   2.431   5.889
 7228SOL     OW22582   2.170   0.835   3.427
 7228SOL    HW122583   2.120   0.909   3.381
 7228SOL    HW222584   2.230   0.790   3.361
 7229SOL     OW22585   0.293   0.187   3.407
 7229SOL    HW122586   0.378   0.133   3.408
 7229SOL    HW222587   0.310   0.274   3.361
 7230SOL     OW22588   6.338   5.706   1.311
 7230SOL    HW122589   6.253   5.659   1.338
 7230SOL    HW222590   6.399   5.641   1.267
 7231SOL     OW22591   5.713   0.905   0.456
 7231SOL    HW122592   5.774   0.835   0.418
 7231SOL    HW222593   5.744   0.995   0.427
 7232SOL     OW22594   4.048   3.923   0.968
 7232SOL    HW122595   3.955   3.927   1.005
 7232SOL    HW222596   4.097   4.007   0.991
 7233SOL     OW22597   1.055   2.141   5.373
 7233SOL    HW122598   1.077   2.163   5.468
 7233SOL    HW222599   1.139   2.139   5.318
 7234SOL     OW22600   4.729   2.067   3.652
 7234SOL    HW122601   4.647   2.013   3.636
 7234SOL    HW222602   4.790   2.017   3.713
 7235SOL     OW22603   5.967   2.979   4.550
 7235SOL    HW122604   6.034   2.995   4.478
 7235SOL    HW222605   5.875   2.982   4.511
 7236SOL     OW22606   1.880   1.679   3.115
 7236SOL    HW122607   1.945   1.621   3.066
 7236SOL    HW222608   1.837   1.743   3.050
 7237SOL     OW22609   5.586   4.987   4.491
 7237SOL    HW122610   5.675   5.023   4.517
 7237SOL    HW222611   5.538   4.955   4.573
 7238SOL     OW22612   1.676   0.421   1.423
 7238SOL    HW122613   1.600   0.359   1.443
 7238SOL    HW222614   1.709   0.461   1.508
 7239SOL     OW22615   3.937   1.278   1.764
 7239SOL    HW122616   3.867   1.337   1.803
 7239SOL    HW222617   4.023   1.290   1.814
 7240SOL     OW22618   3.043   3.259   2.136
 7240SOL    HW122619   3.052   3.308   2.223
 7240SOL    HW222620   3.032   3.325   2.062
 7241SOL     OW22621   4.227   6.764   4.544
 7241SOL    HW122622   4.299   6.805   4.488
 7241SOL    HW222623   4.253   6.671   4.569
 7242SOL     OW22624   6.269   5.953   0.840
 7242SOL    HW122625   6.338   5.992   0.901
 7242SOL    HW222626   6.304   5.870   0.798
 7243SOL     OW22627   0.290   5.723   0.747
 7243SOL    HW122628   0.246   5.641   0.709
 7243SOL    HW222629   0.389   5.717   0.733
 7244SOL     OW22630   5.008   2.008   0.878
 7244SOL    HW122631   5.098   2.038   0.846
 7244SOL    HW222632   4.979   1.928   0.826
 7245SOL     OW22633   6.219   2.179   4.326
 7245SOL    HW122634   6.295   2.170   4.261
 7245SOL    HW222635   6.133   2.169   4.277
 7246SOL     OW22636   0.868   6.108   5.564
 7246SOL    HW122637   0.915   6.191   5.593
 7246SOL    HW222638   0.869   6.102   5.464
 7247SOL     OW22639   3.588   5.428   4.249
 7247SOL    HW122640   3.506   5.371   4.248
 7247SOL    HW222641   3.667   5.372   4.223
 7248SOL     OW22642   3.062   0.796   4.431
 7248SOL    HW122643   3.139   0.739   4.403
 7248SOL    HW222644   3.064   0.883   4.380
 7249SOL     OW22645   4.768   3.517   5.754
 7249SOL    HW122646   4.771   3.597   5.814
 7249SOL    HW222647   4.689   3.523   5.693
 7250SOL     OW22648   2.769   3.639   6.718
 7250SOL    HW122649   2.777   3.714   6.784
 7250SOL    HW222650   2.684   3.650   6.666
 7251SOL     OW22651   5.905   1.147   5.080
 7251SOL    HW122652   5.885   1.212   5.007
 7251SOL    HW222653   6.001   1.118   5.073
 7252SOL     OW22654   4.481   3.700   5.301
 7252SOL    HW122655   4.568   3.651   5.292
 7252SOL    HW222656   4.418   3.669   5.230
 7253SOL     OW22657   5.225   4.872   0.445
 7253SOL    HW122658   5.246   4.805   0.374
 7253SOL    HW222659   5.136   4.851   0.486
 7254SOL     OW22660   5.232   6.696   4.909
 7254SOL    HW122661   5.209   6.612   4.862
 7254SOL    HW222662   5.201   6.775   4.855
 7255SOL     OW22663   3.910   3.033   3.174
 7255SOL    HW122664   3.811   3.025   3.172
 7255SOL    HW222665   3.949   2.987   3.094
 7256SOL     OW22666   3.254   5.659   4.019
 7256SOL    HW122667   3.347   5.697   4.016
 7256SOL    HW222668   3.200   5.698   3.944
 7257SOL     OW22669   6.202   4.731   2.129
 7257SOL    HW122670   6.108   4.701   2.113
 7257SOL    HW222671   6.243   4.763   2.043
 7258SOL     OW22672   2.619   0.477   5.559
 7258SOL    HW122673   2.537   0.496   5.612
 7258SOL    HW222674   2.639   0.379   5.563
 7259SOL     OW22675   3.583   4.486   6.026
 7259SOL    HW122676   3.660   4.455   6.082
 7259SOL    HW222677   3.497   4.456   6.067
 7260SOL     OW22678   4.871   2.477   2.919
 7260SOL    HW122679   4.857   2.458   3.016
 7260SOL    HW222680   4.816   2.413   2.865
 7261SOL     OW22681   2.501   4.921   1.028
 7261SOL    HW122682   2.509   4.993   0.960
 7261SOL    HW222683   2.585   4.867   1.029
 7262SOL     OW22684   6.346   0.939   4.509
 7262SOL    HW122685   6.337   0.863   4.445
 7262SOL    HW222686   6.440   0.972   4.509
 7263SOL     OW22687   5.265   5.319   1.562
 7263SOL    HW122688   5.342   5.351   1.508
 7263SOL    HW222689   5.191   5.387   1.557
 7264SOL     OW22690   0.563   6.472   4.390
 7264SOL    HW122691   0.662   6.476   4.403
 7264SOL    HW222692   0.543   6.450   4.294
 7265SOL     OW22693   4.469   3.376   6.694
 7265SOL    HW122694   4.557   3.409   6.660
 7265SOL    HW222695   4.478   3.281   6.723
 7266SOL     OW22696   4.031   1.530   2.114
 7266SOL    HW122697   4.091   1.571   2.182
 7266SOL    HW222698   4.052   1.567   2.023
 7267SOL     OW22699   5.477   2.416   4.505
 7267SOL    HW122700   5.487   2.336   4.564
 7267SOL    HW222701   5.496   2.391   4.410
 7268SOL     OW22702   4.176   0.193   0.253
 7268SOL    HW122703   4.233   0.188   0.335
 7268SOL    HW222704   4.169   0.288   0.223
 7269SOL     OW22705   1.266   0.578   1.757
 7269SOL    HW122706   1.238   0.504   1.696
 7269SOL    HW222707   1.187   0.634   1.780
 7270SOL     OW22708   3.268   2.085   1.839
 7270SOL    HW122709   3.350   2.036   1.807
 7270SOL    HW222710   3.194   2.071   1.773
 7271SOL     OW22711   5.827   5.471   4.017
 7271SOL    HW122712   5.829   5.499   3.921
 7271SOL    HW222713   5.806   5.550   4.074
 7272SOL     OW22714   5.865   1.880   1.366
 7272SOL    HW122715   5.791   1.912   1.306
 7272SOL    HW222716   5.937   1.837   1.310
 7273SOL     OW22717   5.499   5.624   5.061
 7273SOL    HW122718   5.410   5.581   5.076
 7273SOL    HW222719   5.527   5.611   4.966
 7274SOL     OW22720   5.526   4.816   3.858
 7274SOL    HW122721   5.451   4.767   3.903
 7274SOL    HW222722   5.542   4.903   3.905
 7275SOL     OW22723   5.882   6.763   1.895
 7275SOL    HW122724   5.881   6.698   1.971
 7275SOL    HW222725   5.820   6.838   1.915
 7276SOL     OW22726   3.983   1.970   3.172
 7276SOL    HW122727   3.923   1.912   3.117
 7276SOL    HW222728   4.078   1.949   3.150
 7277SOL     OW22729   6.324   2.128   3.976
 7277SOL    HW122730   6.380   2.079   4.043
 7277SOL    HW222731   6.261   2.065   3.932
 7278SOL     OW22732   4.208   1.744   3.432
 7278SOL    HW122733   4.230   1.829   3.479
 7278SOL    HW222734   4.113   1.745   3.403
 7279SOL     OW22735   3.388   3.479   1.705
 7279SOL    HW122736   3.289   3.471   1.692
 7279SOL    HW222737   3.407   3.556   1.766
 7280SOL     OW22738   6.500   1.591   5.454
 7280SOL    HW122739   6.582   1.570   5.401
 7280SOL    HW222740   6.524   1.648   5.532
 7281SOL     OW22741   3.616   6.232   3.130
 7281SOL    HW122742   3.649   6.266   3.042
 7281SOL    HW222743   3.519   6.210   3.123
 7282SOL     OW22744   0.343   3.446   1.033
 7282SOL    HW122745   0.371   3.461   1.128
 7282SOL    HW222746   0.243   3.442   1.029
 7283SOL     OW22747   3.373   6.043   2.661
 7283SOL    HW122748   3.295   6.008   2.608
 7283SOL    HW222749   3.341   6.116   2.722
 7284SOL     OW22750   0.487   0.308   2.978
 7284SOL    HW122751   0.409   0.365   2.953
 7284SOL    HW222752   0.524   0.339   3.066
 7285SOL     OW22753   5.179   2.551   2.137
 7285SOL    HW122754   5.192   2.493   2.217
 7285SOL    HW222755   5.131   2.499   2.066
 7286SOL     OW22756   6.791   1.149   4.002
 7286SOL    HW122757   6.814   1.092   4.081
 7286SOL    HW222758   6.860   1.221   3.993
 7287SOL     OW22759   3.296   1.791   4.519
 7287SOL    HW122760   3.203   1.760   4.538
 7287SOL    HW222761   3.295   1.890   4.502
 7288SOL     OW22762   2.977   2.012   1.704
 7288SOL    HW122763   2.985   1.941   1.774
 7288SOL    HW222764   2.882   2.044   1.699
 7289SOL     OW22765   6.809   2.294   1.553
 7289SOL    HW122766   6.843   2.375   1.504
 7289SOL    HW222767   6.710   2.292   1.550
 7290SOL     OW22768   3.605   2.094   4.592
 7290SOL    HW122769   3.573   2.188   4.597
 7290SOL    HW222770   3.559   2.039   4.661
 7291SOL     OW22771   1.120   1.015   0.465
 7291SOL    HW122772   1.118   1.115   0.464
 7291SOL    HW222773   1.027   0.979   0.471
 7292SOL     OW22774   4.040   1.266   2.237
 7292SOL    HW122775   3.960   1.211   2.210
 7292SOL    HW222776   4.023   1.362   2.217
 7293SOL     OW22777   6.350   1.004   4.076
 7293SOL    HW122778   6.404   1.044   4.149
 7293SOL    HW222779   6.335   0.907   4.095
 7294SOL     OW22780   3.445   0.082   2.916
 7294SOL    HW122781   3.445   7.009   2.904
 7294SOL    HW222782   3.418   0.105   3.009
 7295SOL     OW22783   5.045   3.748   1.589
 7295SOL    HW122784   5.058   3.846   1.571
 7295SOL    HW222785   4.973   3.713   1.529
 7296SOL     OW22786   3.361   6.618   2.437
 7296SOL    HW122787   3.316   6.544   2.487
 7296SOL    HW222788   3.350   6.604   2.339
 7297SOL     OW22789   3.836   0.153   0.799
 7297SOL    HW122790   3.746   0.191   0.776
 7297SOL    HW222791   3.905   0.189   0.735
 7298SOL     OW22792   4.220   5.140   1.470
 7298SOL    HW122793   4.127   5.124   1.501
 7298SOL    HW222794   4.281   5.072   1.511
 7299SOL     OW22795   0.398   3.433   0.210
 7299SOL    HW122796   0.347   3.502   0.262
 7299SOL    HW222797   0.341   3.352   0.197
 7300SOL     OW22798   0.911   3.999   1.346
 7300SOL    HW122799   0.880   4.062   1.417
 7300SOL    HW222800   0.891   3.905   1.374
 7301SOL     OW22801   4.386   1.817   0.390
 7301SOL    HW122802   4.287   1.805   0.389
 7301SOL    HW222803   4.425   1.785   0.304
 7302SOL     OW22804   5.860   1.715   6.256
 7302SOL    HW122805   5.931   1.684   6.193
 7302SOL    HW222806   5.868   1.814   6.268
 7303SOL     OW22807   3.427   2.007   1.340
 7303SOL    HW122808   3.500   1.947   1.371
 7303SOL    HW222809   3.415   2.081   1.406
 7304SOL     OW22810   2.211   6.906   0.471
 7304SOL    HW122811   2.299   6.900   0.424
 7304SOL    HW222812   2.191   6.820   0.516
 7305SOL     OW22813   6.780   6.770   6.311
 7305SOL    HW122814   6.811   6.844   6.372
 7305SOL    HW222815   6.818   6.683   6.343
 7306SOL     OW22816   1.630   3.613   0.512
 7306SOL    HW122817   1.679   3.560   0.582
 7306SOL    HW222818   1.555   3.663   0.554
 7307SOL     OW22819   3.474   6.467   1.866
 7307SOL    HW122820   3.519   6.539   1.919
 7307SOL    HW222821   3.379   6.492   1.850
 7308SOL     OW22822   3.855   1.560   2.991
 7308SOL    HW122823   3.932   1.532   3.050
 7308SOL    HW222824   3.821   1.480   2.942
 7309SOL     OW22825   1.983   4.663   4.167
 7309SOL    HW122826   1.887   4.649   4.142
 7309SOL    HW222827   1.989   4.734   4.238
 7310SOL     OW22828   2.863   2.946   6.877
 7310SOL    HW122829   2.832   2.920   6.968
 7310SOL    HW222830   2.950   2.900   6.856
 7311SOL     OW22831   1.210   6.522   6.042
 7311SOL    HW122832   1.252   6.597   5.991
 7311SOL    HW222833   1.248   6.519   6.134
 7312SOL     OW22834   6.425   2.011   4.763
 7312SOL    HW122835   6.364   1.938   4.730
 7312SOL    HW222836   6.494   2.031   4.693
 7313SOL     OW22837   3.506   1.054   2.753
 7313SOL    HW122838   3.588   1.015   2.796
 7313SOL    HW222839   3.533   1.105   2.671
 7314SOL     OW22840   2.235   5.696   5.138
 7314SOL    HW122841   2.304   5.637   5.097
 7314SOL    HW222842   2.275   5.786   5.156
 7315SOL     OW22843   2.437   5.698   2.612
 7315SOL    HW122844   2.424   5.774   2.548
 7315SOL    HW222845   2.535   5.688   2.632
 7316SOL     OW22846   3.936   0.995   1.825
 7316SOL    HW122847   3.934   1.067   1.754
 7316SOL    HW222848   3.858   0.934   1.812
 7317SOL     OW22849   6.362   1.828   1.339
 7317SOL    HW122850   6.436   1.763   1.356
 7317SOL    HW222851   6.335   1.825   1.243
 7318SOL     OW22852   5.268   6.287   1.218
 7318SOL    HW122853   5.329   6.236   1.157
 7318SOL    HW222854   5.173   6.261   1.201
 7319SOL     OW22855   4.436   6.024   5.959
 7319SOL    HW122856   4.340   6.030   5.986
 7319SOL    HW222857   4.448   5.950   5.894
 7320SOL     OW22858   1.142   3.071   6.966
 7320SOL    HW122859   1.096   3.112   6.887
 7320SOL    HW222860   1.151   2.973   6.952
 7321SOL     OW22861   2.176   2.586   5.598
 7321SOL    HW122862   2.235   2.643   5.655
 7321SOL    HW222863   2.195   2.604   5.501
 7322SOL     OW22864   1.984   1.801   4.369
 7322SOL    HW122865   1.957   1.705   4.379
 7322SOL    HW222866   1.945   1.838   4.285
 7323SOL     OW22867   2.311   2.115   1.158
 7323SOL    HW122868   2.281   2.022   1.134
 7323SOL    HW222869   2.299   2.130   1.256
 7324SOL     OW22870   4.837   3.760   4.499
 7324SOL    HW122871   4.817   3.666   4.473
 7324SOL    HW222872   4.872   3.762   4.593
 7325SOL     OW22873   3.595   1.145   6.195
 7325SOL    HW122874   3.672   1.087   6.220
 7325SOL    HW222875   3.625   1.214   6.128
 7326SOL     OW22876   3.543   6.453   0.717
 7326SOL    HW122877   3.633   6.409   0.705
 7326SOL    HW222878   3.521   6.506   0.635
 7327SOL     OW22879   1.653   4.159   3.190
 7327SOL    HW122880   1.695   4.248   3.176
 7327SOL    HW222881   1.724   4.090   3.204
 7328SOL     OW22882   4.797   5.146   6.548
 7328SOL    HW122883   4.783   5.101   6.636
 7328SOL    HW222884   4.895   5.145   6.525
 7329SOL     OW22885   2.594   3.958   0.121
 7329SOL    HW122886   2.502   3.981   0.153
 7329SOL    HW222887   2.651   3.932   0.198
 7330SOL     OW22888   2.368   3.277   0.811
 7330SOL    HW122889   2.290   3.331   0.841
 7330SOL    HW222890   2.452   3.318   0.845
 7331SOL     OW22891   4.990   1.103   2.158
 7331SOL    HW122892   5.067   1.050   2.194
 7331SOL    HW222893   5.017   1.146   2.072
 7332SOL     OW22894   2.672   6.862   5.439
 7332SOL    HW122895   2.711   6.907   5.358
 7332SOL    HW222896   2.655   6.766   5.418
 7333SOL     OW22897   6.374   1.025   1.346
 7333SOL    HW122898   6.434   0.950   1.375
 7333SOL    HW222899   6.343   1.075   1.427
 7334SOL     OW22900   1.246   4.593   4.572
 7334SOL    HW122901   1.160   4.545   4.588
 7334SOL    HW222902   1.230   4.692   4.572
 7335SOL     OW22903   0.451   2.870   2.809
 7335SOL    HW122904   0.477   2.804   2.738
 7335SOL    HW222905   0.483   2.837   2.898
 7336SOL     OW22906   2.418   0.465   0.965
 7336SOL    HW122907   2.442   0.518   0.884
 7336SOL    HW222908   2.460   0.507   1.046
 7337SOL     OW22909   3.614   1.464   2.879
 7337SOL    HW122910   3.612   1.387   2.816
 7337SOL    HW222911   3.550   1.534   2.848
 7338SOL     OW22912   5.240   3.573   0.197
 7338SOL    HW122913   5.250   3.661   0.244
 7338SOL    HW222914   5.165   3.580   0.131
 7339SOL     OW22915   6.845   6.838   4.076
 7339SOL    HW122916   6.833   6.744   4.108
 7339SOL    HW222917   6.770   6.861   4.013
 7340SOL     OW22918   2.878   6.501   0.299
 7340SOL    HW122919   2.829   6.577   0.341
 7340SOL    HW222920   2.965   6.533   0.262
 7341SOL     OW22921   6.241   5.599   3.752
 7341SOL    HW122922   6.297   5.554   3.822
 7341SOL    HW222923   6.273   5.693   3.739
 7342SOL     OW22924   0.514   5.466   0.635
 7342SOL    HW122925   0.474   5.494   0.548
 7342SOL    HW222926   0.441   5.435   0.697
 7343SOL     OW22927   6.884   2.610   2.845
 7343SOL    HW122928   6.815   2.586   2.776
 7343SOL    HW222929   6.950   2.535   2.853
 7344SOL     OW22930   1.965   1.244   6.407
 7344SOL    HW122931   2.035   1.173   6.414
 7344SOL    HW222932   1.907   1.227   6.328
 7345SOL     OW22933   1.753   0.048   6.702
 7345SOL    HW122934   1.821   0.075   6.634
 7345SOL    HW222935   1.791   7.002   6.761
 7346SOL     OW22936   3.429   5.228   3.887
 7346SOL    HW122937   3.504   5.228   3.821
 7346SOL    HW222938   3.368   5.305   3.869
 7347SOL     OW22939   6.100   2.933   3.614
 7347SOL    HW122940   6.077   2.842   3.650
 7347SOL    HW222941   6.053   2.947   3.527
 7348SOL     OW22942   5.757   0.768   6.183
 7348SOL    HW122943   5.663   0.798   6.168
 7348SOL    HW222944   5.811   0.786   6.102
 7349SOL     OW22945   3.885   1.821   1.422
 7349SOL    HW122946   3.907   1.747   1.359
 7349SOL    HW222947   3.962   1.835   1.485
 7350SOL     OW22948   1.923   1.070   3.185
 7350SOL    HW122949   1.854   1.121   3.134
 7350SOL    HW222950   2.010   1.074   3.137
 7351SOL     OW22951   4.897   4.517   0.579
 7351SOL    HW122952   4.956   4.575   0.522
 7351SOL    HW222953   4.850   4.573   0.646
 7352SOL     OW22954   6.809   1.231   3.241
 7352SOL    HW122955   6.739   1.268   3.180
 7352SOL    HW222956   6.792   1.263   3.334
 7353SOL     OW22957   5.314   1.690   5.473
 7353SOL    HW122958   5.384   1.634   5.428
 7353SOL    HW222959   5.358   1.751   5.539
 7354SOL     OW22960   5.452   4.307   5.067
 7354SOL    HW122961   5.391   4.259   5.004
 7354SOL    HW222962   5.428   4.404   5.069
 7355SOL     OW22963   6.659   5.914   0.439
 7355SOL    HW122964   6.752   5.930   0.407
 7355SOL    HW222965   6.661   5.869   0.528
 7356SOL     OW22966   6.988   1.467   5.802
 7356SOL    HW122967   6.913   1.491   5.741
 7356SOL    HW222968   0.038   1.531   5.788
 7357SOL     OW22969   0.722   1.540   0.811
 7357SOL    HW122970   0.709   1.609   0.740
 7357SOL    HW222971   0.654   1.554   0.884
 7358SOL     OW22972   3.528   1.253   3.727
 7358SOL    HW122973   3.533   1.203   3.641
 7358SOL    HW222974   3.474   1.201   3.793
 7359SOL     OW22975   2.949   3.850   4.322
 7359SOL    HW122976   2.868   3.908   4.333
 7359SOL    HW222977   3.006   3.886   4.248
 7360SOL     OW22978   0.789   4.342   6.409
 7360SOL    HW122979   0.843   4.308   6.332
 7360SOL    HW222980   0.843   4.408   6.462
 7361SOL     OW22981   4.662   6.633   1.231
 7361SOL    HW122982   4.562   6.643   1.228
 7361SOL    HW222983   4.685   6.544   1.270
 7362SOL     OW22984   1.504   5.439   6.617
 7362SOL    HW122985   1.407   5.464   6.615
 7362SOL    HW222986   1.524   5.377   6.542
 7363SOL     OW22987   4.406   2.046   6.301
 7363SOL    HW122988   4.373   2.073   6.211
 7363SOL    HW222989   4.501   2.015   6.293
 7364SOL     OW22990   5.001   6.894   0.918
 7364SOL    HW122991   5.080   6.863   0.864
 7364SOL    HW222992   4.944   6.815   0.942
 7365SOL     OW22993   4.143   6.951   1.087
 7365SOL    HW122994   4.223   6.909   1.129
 7365SOL    HW222995   4.112   6.895   1.010
 7366SOL     OW22996   2.003   0.276   0.430
 7366SOL    HW122997   1.989   0.192   0.483
 7366SOL    HW222998   1.978   0.355   0.485
 7367SOL     OW22999   4.382   2.878   6.764
 7367SOL    HW123000   4.463   2.820   6.775
 7367SOL    HW223001   4.300   2.821   6.758
 7368SOL     OW23002   3.127   3.099   4.620
 7368SOL    HW123003   3.146   3.171   4.554
 7368SOL    HW223004   3.038   3.115   4.662
 7369SOL     OW23005   6.234   0.636   6.657
 7369SOL    HW123006   6.212   0.543   6.629
 7369SOL    HW223007   6.333   0.648   6.660
 7370SOL     OW23008   0.489   6.041   0.685
 7370SOL    HW123009   0.528   5.963   0.637
 7370SOL    HW223010   0.404   6.013   0.731
 7371SOL     OW23011   1.618   5.036   4.264
 7371SOL    HW123012   1.583   5.126   4.290
 7371SOL    HW223013   1.717   5.033   4.281
 7372SOL     OW23014   3.253   0.409   4.938
 7372SOL    HW123015   3.218   0.386   5.029
 7372SOL    HW223016   3.328   0.475   4.947
 7373SOL     OW23017   3.486   0.703   1.213
 7373SOL    HW123018   3.471   0.769   1.139
 7373SOL    HW223019   3.401   0.656   1.234
 7374SOL     OW23020   2.182   3.646   6.914
 7374SOL    HW123021   2.198   3.701   6.996
 7374SOL    HW223022   2.180   3.550   6.938
 7375SOL     OW23023   2.881   6.157   3.658
 7375SOL    HW123024   2.870   6.235   3.595
 7375SOL    HW223025   2.848   6.182   3.749
 7376SOL     OW23026   3.211   3.906   6.615
 7376SOL    HW123027   3.263   3.991   6.625
 7376SOL    HW223028   3.154   3.912   6.533
 7377SOL     OW23029   6.579   6.032   1.853
 7377SOL    HW123030   6.520   5.956   1.829
 7377SOL    HW223031   6.668   6.020   1.810
 7378SOL     OW23032   0.705   2.067   5.553
 7378SOL    HW123033   0.610   2.039   5.564
 7378SOL    HW223034   0.766   1.989   5.565
 7379SOL     OW23035   4.318   0.319   0.463
 7379SOL    HW123036   4.362   0.247   0.517
 7379SOL    HW223037   4.269   0.381   0.524
 7380SOL     OW23038   6.611   2.508   6.529
 7380SOL    HW123039   6.585   2.574   6.459
 7380SOL    HW223040   6.627   2.554   6.615
 7381SOL     OW23041   5.381   2.067   0.041
 7381SOL    HW123042   5.402   2.032   6.976
 7381SOL    HW223043   5.361   1.991   0.102
 7382SOL     OW23044   0.983   5.317   4.065
 7382SOL    HW123045   1.074   5.354   4.045
 7382SOL    HW223046   0.941   5.283   3.981
 7383SOL     OW23047   1.852   4.002   2.578
 7383SOL    HW123048   1.805   3.977   2.662
 7383SOL    HW223049   1.840   4.100   2.560
 7384SOL     OW23050   5.998   1.816   0.966
 7384SOL    HW123051   5.954   1.886   0.908
 7384SOL    HW223052   5.928   1.753   0.999
 7385SOL     OW23053   5.292   0.368   2.118
 7385SOL    HW123054   5.228   0.329   2.052
 7385SOL    HW223055   5.382   0.327   2.105
 7386SOL     OW23056   6.713   1.533   6.077
 7386SOL    HW123057   6.661   1.453   6.047
 7386SOL    HW223058   6.809   1.507   6.089
 7387SOL     OW23059   4.988   5.899   3.162
 7387SOL    HW123060   5.065   5.847   3.200
 7387SOL    HW223061   5.021   5.959   3.090
 7388SOL     OW23062   5.227   3.748   5.119
 7388SOL    HW123063   5.147   3.767   5.063
 7388SOL    HW223064   5.260   3.656   5.100
 7389SOL     OW23065   0.987   3.153   5.005
 7389SOL    HW123066   0.950   3.110   4.922
 7389SOL    HW223067   1.086   3.145   5.004
 7390SOL     OW23068   4.680   0.122   0.236
 7390SOL    HW123069   4.683   0.219   0.211
 7390SOL    HW223070   4.681   0.066   0.153
 7391SOL     OW23071   0.312   5.259   0.036
 7391SOL    HW123072   0.371   5.178   0.043
 7391SOL    HW223073   0.301   5.300   0.126
 7392SOL     OW23074   2.190   4.723   2.071
 7392SOL    HW123075   2.108   4.668   2.057
 7392SOL    HW223076   2.242   4.727   1.986
 7393SOL     OW23077   1.023   3.869   0.022
 7393SOL    HW123078   1.008   3.919   0.108
 7393SOL    HW223079   1.086   3.794   0.037
 7394SOL     OW23080   2.374   3.257   6.638
 7394SOL    HW123081   2.412   3.175   6.597
 7394SOL    HW223082   2.275   3.258   6.626
 7395SOL     OW23083   2.700   1.008   0.038
 7395SOL    HW123084   2.736   1.032   6.974
 7395SOL    HW223085   2.606   0.974   0.029
 7396SOL     OW23086   6.869   6.977   2.606
 7396SOL    HW123087   6.809   6.911   2.650
 7396SOL    HW223088   6.828   7.007   2.520
 7397SOL     OW23089   6.253   4.008   4.461
 7397SOL    HW123090   6.298   4.032   4.375
 7397SOL    HW223091   6.322   3.975   4.526
 7398SOL     OW23092   4.363   6.443   2.948
 7398SOL    HW123093   4.269   6.473   2.964
 7398SOL    HW223094   4.390   6.378   3.020
 7399SOL     OW23095   4.986   5.179   3.844
 7399SOL    HW123096   5.006   5.235   3.924
 7399SOL    HW223097   5.045   5.098   3.844
 7400SOL     OW23098   3.004   3.995   6.765
 7400SOL    HW123099   2.930   3.953   6.712
 7400SOL    HW223100   3.090   3.951   6.742
 7401SOL     OW23101   5.976   3.242   4.199
 7401SOL    HW123102   5.937   3.182   4.269
 7401SOL    HW223103   5.979   3.193   4.112
 7402SOL     OW23104   1.888   6.151   4.536
 7402SOL    HW123105   1.939   6.225   4.580
 7402SOL    HW223106   1.946   6.070   4.530
 7403SOL     OW23107   2.418   3.173   1.734
 7403SOL    HW123108   2.401   3.269   1.757
 7403SOL    HW223109   2.362   3.148   1.654
 7404SOL     OW23110   1.300   2.514   3.029
 7404SOL    HW123111   1.224   2.449   3.033
 7404SOL    HW223112   1.386   2.464   3.018
 7405SOL     OW23113   3.480   5.071   6.104
 7405SOL    HW123114   3.483   5.027   6.014
 7405SOL    HW223115   3.572   5.102   6.129
 7406SOL     OW23116   0.466   5.978   2.737
 7406SOL    HW123117   0.472   5.886   2.700
 7406SOL    HW223118   0.535   5.989   2.809
 7407SOL     OW23119   3.242   1.602   5.716
 7407SOL    HW123120   3.280   1.516   5.684
 7407SOL    HW223121   3.314   1.659   5.755
 7408SOL     OW23122   1.181   3.571   5.274
 7408SOL    HW123123   1.200   3.512   5.196
 7408SOL    HW223124   1.267   3.606   5.311
 7409SOL     OW23125   2.611   6.655   4.555
 7409SOL    HW123126   2.570   6.695   4.637
 7409SOL    HW223127   2.550   6.586   4.517
 7410SOL     OW23128   5.040   5.809   5.912
 7410SOL    HW123129   4.973   5.789   5.840
 7410SOL    HW223130   5.032   5.740   5.985
 7411SOL     OW23131   5.641   3.950   5.653
 7411SOL    HW123132   5.660   3.935   5.556
 7411SOL    HW223133   5.619   4.046   5.668
 7412SOL     OW23134   1.732   1.374   0.128
 7412SOL    HW123135   1.679   1.319   0.193
 7412SOL    HW223136   1.694   1.363   0.036
 7413SOL     OW23137   0.020   3.754   4.081
 7413SOL    HW123138   0.009   3.686   4.008
 7413SOL    HW223139   6.961   3.760   4.134
 7414SOL     OW23140   0.299   5.325   1.614
 7414SOL    HW123141   0.301   5.354   1.518
 7414SOL    HW223142   0.363   5.249   1.626
 7415SOL     OW23143   3.230   1.445   2.772
 7415SOL    HW123144   3.222   1.441   2.672
 7415SOL    HW223145   3.300   1.512   2.797
 7416SOL     OW23146   6.599   7.009   3.385
 7416SOL    HW123147   6.539   7.001   3.465
 7416SOL    HW223148   6.545   0.012   3.306
 7417SOL     OW23149   0.303   4.911   0.821
 7417SOL    HW123150   0.298   5.011   0.815
 7417SOL    HW223151   0.210   4.874   0.825
 7418SOL     OW23152   1.170   3.621   0.170
 7418SOL    HW123153   1.105   3.549   0.144
 7418SOL    HW223154   1.152   3.649   0.264
 7419SOL     OW23155   6.197   2.534   5.659
 7419SOL    HW123156   6.101   2.557   5.642
 7419SOL    HW223157   6.237   2.601   5.722
 7420SOL     OW23158   6.606   5.688   1.947
 7420SOL    HW123159   6.640   5.759   2.009
 7420SOL    HW223160   6.680   5.656   1.888
 7421SOL     OW23161   4.092   1.669   1.888
 7421SOL    HW123162   4.094   1.763   1.923
 7421SOL    HW223163   4.003   1.651   1.846
 7422SOL     OW23164   0.838   1.728   1.282
 7422SOL    HW123165   0.922   1.778   1.300
 7422SOL    HW223166   0.860   1.633   1.260
 7423SOL     OW23167   2.463   4.104   0.569
 7423SOL    HW123168   2.372   4.141   0.587
 7423SOL    HW223169   2.531   4.176   0.583
 7424SOL     OW23170   4.878   0.568   3.833
 7424SOL    HW123171   4.957   0.576   3.894
 7424SOL    HW223172   4.907   0.524   3.748
 7425SOL     OW23173   3.295   0.025   4.150
 7425SOL    HW123174   3.388   0.035   4.117
 7425SOL    HW223175   3.235   0.087   4.099
 7426SOL     OW23176   0.125   0.778   6.659
 7426SOL    HW123177   0.149   0.862   6.706
 7426SOL    HW223178   0.029   0.755   6.679
 7427SOL     OW23179   5.663   5.042   4.846
 7427SOL    HW123180   5.669   4.997   4.936
 7427SOL    HW223181   5.722   4.994   4.782
 7428SOL     OW23182   4.688   0.912   5.377
 7428SOL    HW123183   4.640   0.849   5.437
 7428SOL    HW223184   4.721   0.990   5.430
 7429SOL     OW23185   6.333   6.173   3.587
 7429SOL    HW123186   6.398   6.140   3.654
 7429SOL    HW223187   6.366   6.154   3.495
 7430SOL     OW23188   0.763   4.164   4.157
 7430SOL    HW123189   0.832   4.225   4.118
 7430SOL    HW223190   0.707   4.214   4.223
 7431SOL     OW23191   0.234   3.712   2.676
 7431SOL    HW123192   0.274   3.803   2.690
 7431SOL    HW223193   0.134   3.718   2.686
 7432SOL     OW23194   1.692   6.361   5.342
 7432SOL    HW123195   1.629   6.436   5.359
 7432SOL    HW223196   1.641   6.275   5.335
 7433SOL     OW23197   0.211   0.107   0.977
 7433SOL    HW123198   0.129   0.085   0.923
 7433SOL    HW223199   0.188   0.177   1.045
 7434SOL     OW23200   4.575   6.558   0.033
 7434SOL    HW123201   4.480   6.577   0.060
 7434SOL    HW223202   4.624   6.644   0.022
 7435SOL     OW23203   1.711   5.170   0.356
 7435SOL    HW123204   1.710   5.081   0.402
 7435SOL    HW223205   1.743   5.241   0.419
 7436SOL     OW23206   4.542   3.717   6.820
 7436SOL    HW123207   4.547   3.794   6.884
 7436SOL    HW223208   4.455   3.722   6.771
 7437SOL     OW23209   0.104   6.387   4.993
 7437SOL    HW123210   0.036   6.317   5.020
 7437SOL    HW223211   0.160   6.351   4.919
 7438SOL     OW23212   5.658   3.915   0.744
 7438SOL    HW123213   5.649   3.939   0.841
 7438SOL    HW223214   5.656   3.815   0.734
 7439SOL     OW23215   1.390   6.811   3.106
 7439SOL    HW123216   1.428   6.824   3.014
 7439SOL    HW223217   1.368   6.901   3.145
 7440SOL     OW23218   0.469   1.143   3.966
 7440SOL    HW123219   0.391   1.206   3.968
 7440SOL    HW223220   0.460   1.082   3.887
 7441SOL     OW23221   6.149   0.012   3.774
 7441SOL    HW123222   6.085   6.997   3.708
 7441SOL    HW223223   6.185   6.967   3.834
 7442SOL     OW23224   1.646   0.738   6.467
 7442SOL    HW123225   1.741   0.764   6.486
 7442SOL    HW223226   1.634   0.724   6.369
 7443SOL     OW23227   0.087   2.109   1.979
 7443SOL    HW123228   0.133   2.169   2.044
 7443SOL    HW223229   0.023   2.162   1.923
 7444SOL     OW23230   0.544   2.704   4.904
 7444SOL    HW123231   0.577   2.794   4.875
 7444SOL    HW223232   0.449   2.711   4.933
 7445SOL     OW23233   6.005   2.825   1.694
 7445SOL    HW123234   5.967   2.774   1.617
 7445SOL    HW223235   6.104   2.817   1.693
 7446SOL     OW23236   5.519   3.498   3.080
 7446SOL    HW123237   5.585   3.469   3.010
 7446SOL    HW223238   5.567   3.541   3.156
 7447SOL     OW23239   0.663   3.809   6.414
 7447SOL    HW123240   0.651   3.809   6.315
 7447SOL    HW223241   0.642   3.901   6.449
 7448SOL     OW23242   0.597   0.775   6.043
 7448SOL    HW123243   0.662   0.818   6.106
 7448SOL    HW223244   0.512   0.755   6.091
 7449SOL     OW23245   4.085   0.186   1.894
 7449SOL    HW123246   4.174   0.146   1.874
 7449SOL    HW223247   4.048   0.228   1.812
 7450SOL     OW23248   3.481   1.781   1.556
 7450SOL    HW123249   3.548   1.855   1.558
 7450SOL    HW223250   3.396   1.811   1.599
 7451SOL     OW23251   0.934   0.585   2.578
 7451SOL    HW123252   1.012   0.617   2.524
 7451SOL    HW223253   0.871   0.660   2.594
 7452SOL     OW23254   1.632   5.703   3.362
 7452SOL    HW123255   1.595   5.718   3.453
 7452SOL    HW223256   1.671   5.611   3.356
 7453SOL     OW23257   6.562   4.795   5.128
 7453SOL    HW123258   6.583   4.745   5.212
 7453SOL    HW223259   6.478   4.847   5.141
 7454SOL     OW23260   1.549   2.950   0.054
 7454SOL    HW123261   1.514   2.950   0.148
 7454SOL    HW223262   1.495   3.013   7.024
 7455SOL     OW23263   4.504   0.202   0.659
 7455SOL    HW123264   4.532   0.257   0.737
 7455SOL    HW223265   4.585   0.161   0.616
 7456SOL     OW23266   1.177   4.148   6.303
 7456SOL    HW123267   1.266   4.115   6.334
 7456SOL    HW223268   1.138   4.083   6.238
 7457SOL     OW23269   0.045   6.474   6.039
 7457SOL    HW123270   0.028   6.387   5.992
 7457SOL    HW223271   6.984   6.512   6.072
 7458SOL     OW23272   2.867   0.490   1.144
 7458SOL    HW123273   2.892   0.549   1.067
 7458SOL    HW223274   2.869   0.543   1.229
 7459SOL     OW23275   3.610   5.971   4.208
 7459SOL    HW123276   3.573   5.880   4.191
 7459SOL    HW223277   3.614   6.022   4.122
 7460SOL     OW23278   0.713   5.218   6.944
 7460SOL    HW123279   0.720   5.317   6.953
 7460SOL    HW223280   0.653   5.195   6.867
 7461SOL     OW23281   4.254   0.656   4.298
 7461SOL    HW123282   4.274   0.636   4.203
 7461SOL    HW223283   4.166   0.615   4.323
 7462SOL     OW23284   2.416   1.866   3.983
 7462SOL    HW123285   2.431   1.838   4.078
 7462SOL    HW223286   2.495   1.839   3.927
 7463SOL     OW23287   3.847   4.051   2.243
 7463SOL    HW123288   3.763   4.074   2.292
 7463SOL    HW223289   3.907   4.130   2.240
 7464SOL     OW23290   4.751   6.085   6.916
 7464SOL    HW123291   4.676   6.151   6.914
 7464SOL    HW223292   4.827   6.123   6.969
 7465SOL     OW23293   3.865   0.575   2.965
 7465SOL    HW123294   3.962   0.552   2.971
 7465SOL    HW223295   3.826   0.580   3.058
 7466SOL     OW23296   6.188   7.009   0.584
 7466SOL    HW123297   6.164   0.047   0.657
 7466SOL    HW223298   6.285   7.018   0.562
 7467SOL     OW23299   4.808   2.443   0.777
 7467SOL    HW123300   4.806   2.488   0.866
 7467SOL    HW223301   4.788   2.345   0.788
 7468SOL     OW23302   5.479   4.223   4.386
 7468SOL    HW123303   5.478   4.150   4.317
 7468SOL    HW223304   5.559   4.281   4.372
 7469SOL     OW23305   5.070   1.509   2.027
 7469SOL    HW123306   5.036   1.415   2.017
 7469SOL    HW223307   5.117   1.537   1.944
 7470SOL     OW23308   0.157   2.967   3.379
 7470SOL    HW123309   0.248   2.934   3.405
 7470SOL    HW223310   0.100   2.976   3.460
 7471SOL     OW23311   6.438   5.182   5.324
 7471SOL    HW123312   6.418   5.152   5.231
 7471SOL    HW223313   6.531   5.219   5.328
 7472SOL     OW23314   4.068   5.233   2.965
 7472SOL    HW123315   4.074   5.136   2.940
 7472SOL    HW223316   4.123   5.288   2.902
 7473SOL     OW23317   1.311   2.797   5.794
 7473SOL    HW123318   1.219   2.769   5.766
 7473SOL    HW223319   1.313   2.897   5.806
 7474SOL     OW23320   2.960   1.429   2.635
 7474SOL    HW123321   2.866   1.463   2.646
 7474SOL    HW223322   3.017   1.466   2.708
 7475SOL     OW23323   4.581   0.588   6.391
 7475SOL    HW123324   4.558   0.580   6.488
 7475SOL    HW223325   4.668   0.637   6.381
 7476SOL     OW23326   2.294   6.930   5.078
 7476SOL    HW123327   2.349   6.847   5.090
 7476SOL    HW223328   2.354   7.010   5.079
 7477SOL     OW23329   5.079   3.885   4.467
 7477SOL    HW123330   4.986   3.855   4.486
 7477SOL    HW223331   5.077   3.973   4.420
 7478SOL     OW23332   0.728   4.593   1.754
 7478SOL    HW123333   0.667   4.662   1.717
 7478SOL    HW223334   0.823   4.623   1.744
 7479SOL     OW23335   3.738   0.716   4.847
 7479SOL    HW123336   3.793   0.638   4.877
 7479SOL    HW223337   3.682   0.748   4.923
 7480SOL     OW23338   6.116   5.375   0.383
 7480SOL    HW123339   6.048   5.402   0.450
 7480SOL    HW223340   6.072   5.357   0.295
 7481SOL     OW23341   6.123   6.406   0.261
 7481SOL    HW123342   6.065   6.430   0.338
 7481SOL    HW223343   6.212   6.374   0.295
 7482SOL     OW23344   4.902   7.004   4.624
 7482SOL    HW123345   5.001   7.001   4.610
 7482SOL    HW223346   4.871   0.073   4.618
 7483SOL     OW23347   3.518   0.429   6.883
 7483SOL    HW123348   3.507   0.385   6.794
 7483SOL    HW223349   3.615   0.434   6.906
 7484SOL     OW23350   3.403   0.019   1.603
 7484SOL    HW123351   3.468   0.039   1.529
 7484SOL    HW223352   3.335   0.091   1.609
 7485SOL     OW23353   0.928   6.549   5.003
 7485SOL    HW123354   0.955   6.611   5.076
 7485SOL    HW223355   0.881   6.470   5.041
 7486SOL     OW23356   1.253   2.188   5.214
 7486SOL    HW123357   1.337   2.219   5.258
 7486SOL    HW223358   1.233   2.247   5.135
 7487SOL     OW23359   3.308   4.926   3.173
 7487SOL    HW123360   3.237   4.865   3.205
 7487SOL    HW223361   3.292   4.948   3.076
 7488SOL     OW23362   4.253   1.032   5.151
 7488SOL    HW123363   4.306   0.976   5.087
 7488SOL    HW223364   4.169   0.984   5.176
 7489SOL     OW23365   6.937   3.541   3.931
 7489SOL    HW123366   6.880   3.594   3.869
 7489SOL    HW223367   6.970   3.459   3.885
 7490SOL     OW23368   5.632   6.878   2.982
 7490SOL    HW123369   5.611   6.976   2.991
 7490SOL    HW223370   5.697   6.865   2.907
 7491SOL     OW23371   0.438   0.276   0.661
 7491SOL    HW123372   0.451   0.190   0.711
 7491SOL    HW223373   0.357   0.323   0.694
 7492SOL     OW23374   2.861   2.021   3.312
 7492SOL    HW123375   2.858   1.972   3.224
 7492SOL    HW223376   2.830   1.960   3.385
 7493SOL     OW23377   4.971   4.904   6.354
 7493SOL    HW123378   4.912   4.830   6.320
 7493SOL    HW223379   4.994   4.887   6.450
 7494SOL     OW23380   5.109   1.849   1.733
 7494SOL    HW123381   5.133   1.775   1.796
 7494SOL    HW223382   5.068   1.925   1.784
 7495SOL     OW23383   1.111   1.800   2.674
 7495SOL    HW123384   1.193   1.847   2.708
 7495SOL    HW223385   1.030   1.842   2.714
 7496SOL     OW23386   0.374   5.792   5.709
 7496SOL    HW123387   0.359   5.759   5.802
 7496SOL    HW223388   0.288   5.792   5.659
 7497SOL     OW23389   1.828   5.119   2.494
 7497SOL    HW123390   1.736   5.100   2.529
 7497SOL    HW223391   1.883   5.037   2.500
 7498SOL     OW23392   5.647   2.108   4.444
 7498SOL    HW123393   5.583   2.113   4.521
 7498SOL    HW223394   5.733   2.150   4.471
 7499SOL     OW23395   3.613   5.253   3.703
 7499SOL    HW123396   3.700   5.203   3.700
 7499SOL    HW223397   3.621   5.336   3.647
 7500SOL     OW23398   4.719   3.916   1.788
 7500SOL    HW123399   4.629   3.952   1.762
 7500SOL    HW223400   4.757   3.972   1.862
 7501SOL     OW23401   0.832   4.619   4.169
 7501SOL    HW123402   0.892   4.556   4.218
 7501SOL    HW223403   0.747   4.572   4.145
 7502SOL     OW23404   1.450   2.333   3.798
 7502SOL    HW123405   1.523   2.305   3.860
 7502SOL    HW223406   1.370   2.362   3.851
 7503SOL     OW23407   2.580   2.525   6.951
 7503SOL    HW123408   2.660   2.585   6.941
 7503SOL    HW223409   2.517   2.564   7.017
 7504SOL     OW23410   4.320   5.759   4.232
 7504SOL    HW123411   4.322   5.856   4.256
 7504SOL    HW223412   4.253   5.744   4.160
 7505SOL     OW23413   2.058   1.272   4.331
 7505SOL    HW123414   2.066   1.272   4.431
 7505SOL    HW223415   2.149   1.259   4.291
 7506SOL     OW23416   4.345   0.993   3.196
 7506SOL    HW123417   4.410   1.040   3.256
 7506SOL    HW223418   4.391   0.917   3.150
 7507SOL     OW23419   2.068   0.169   5.416
 7507SOL    HW123420   2.086   0.094   5.479
 7507SOL    HW223421   2.143   0.178   5.351
 7508SOL     OW23422   5.280   5.524   3.110
 7508SOL    HW123423   5.314   5.432   3.128
 7508SOL    HW223424   5.234   5.526   3.021
 7509SOL     OW23425   3.975   4.297   6.139
 7509SOL    HW123426   4.037   4.226   6.174
 7509SOL    HW223427   3.991   4.309   6.041
 7510SOL     OW23428   3.729   3.652   4.763
 7510SOL    HW123429   3.768   3.617   4.678
 7510SOL    HW223430   3.803   3.691   4.819
 7511SOL     OW23431   1.421   1.817   2.626
 7511SOL    HW123432   1.369   1.792   2.544
 7511SOL    HW223433   1.365   1.876   2.684
 7512SOL     OW23434   2.084   3.195   2.413
 7512SOL    HW123435   2.134   3.279   2.392
 7512SOL    HW223436   1.996   3.196   2.365
 7513SOL     OW23437   1.609   3.104   6.460
 7513SOL    HW123438   1.529   3.120   6.403
 7513SOL    HW223439   1.625   3.006   6.467
 7514SOL     OW23440   3.339   5.525   3.382
 7514SOL    HW123441   3.286   5.476   3.450
 7514SOL    HW223442   3.426   5.478   3.367
 7515SOL     OW23443   0.378   4.587   2.865
 7515SOL    HW123444   0.286   4.600   2.827
 7515SOL    HW223445   0.441   4.564   2.790
 7516SOL     OW23446   2.113   2.940   1.454
 7516SOL    HW123447   2.109   2.846   1.422
 7516SOL    HW223448   2.020   2.974   1.471
 7517SOL     OW23449   0.453   5.082   1.743
 7517SOL    HW123450   0.397   5.017   1.794
 7517SOL    HW223451   0.510   5.134   1.807
 7518SOL     OW23452   5.134   4.138   2.977
 7518SOL    HW123453   5.074   4.122   3.055
 7518SOL    HW223454   5.134   4.235   2.955
 7519SOL     OW23455   2.055   6.853   4.419
 7519SOL    HW123456   1.975   6.837   4.477
 7519SOL    HW223457   2.026   6.853   4.323
 7520SOL     OW23458   2.521   6.728   3.836
 7520SOL    HW123459   2.542   6.741   3.933
 7520SOL    HW223460   2.499   6.632   3.819
 7521SOL     OW23461   4.684   3.307   5.474
 7521SOL    HW123462   4.745   3.385   5.462
 7521SOL    HW223463   4.599   3.324   5.424
 7522SOL     OW23464   1.873   0.021   2.440
 7522SOL    HW123465   1.810   0.098   2.439
 7522SOL    HW223466   1.935   0.028   2.362
 7523SOL     OW23467   6.494   6.364   6.149
 7523SOL    HW123468   6.421   6.348   6.081
 7523SOL    HW223469   6.478   6.451   6.195
 7524SOL     OW23470   6.544   1.155   4.536
 7524SOL    HW123471   6.529   1.249   4.567
 7524SOL    HW223472   6.635   1.125   4.564
 7525SOL     OW23473   0.764   0.357   0.763
 7525SOL    HW123474   0.785   0.405   0.848
 7525SOL    HW223475   0.702   0.280   0.782
 7526SOL     OW23476   3.781   3.271   5.607
 7526SOL    HW123477   3.690   3.230   5.603
 7526SOL    HW223478   3.773   3.370   5.617
 7527SOL     OW23479   3.800   6.358   2.063
 7527SOL    HW123480   3.837   6.431   2.006
 7527SOL    HW223481   3.752   6.291   2.006
 7528SOL     OW23482   5.958   3.176   6.876
 7528SOL    HW123483   5.892   3.142   6.943
 7528SOL    HW223484   6.047   3.135   6.892
 7529SOL     OW23485   2.182   0.082   4.465
 7529SOL    HW123486   2.230   0.067   4.551
 7529SOL    HW223487   2.156   7.019   4.426
 7530SOL     OW23488   6.830   2.839   2.983
 7530SOL    HW123489   6.872   2.853   3.073
 7530SOL    HW223490   6.837   2.742   2.958
 7531SOL     OW23491   2.363   1.505   4.393
 7531SOL    HW123492   2.289   1.570   4.374
 7531SOL    HW223493   2.381   1.451   4.311
 7532SOL     OW23494   4.739   4.692   1.790
 7532SOL    HW123495   4.663   4.658   1.845
 7532SOL    HW223496   4.825   4.657   1.828
 7533SOL     OW23497   3.482   0.807   4.751
 7533SOL    HW123498   3.493   0.900   4.786
 7533SOL    HW223499   3.570   0.761   4.749
 7534SOL     OW23500   4.873   6.941   3.840
 7534SOL    HW123501   4.876   0.007   3.881
 7534SOL    HW223502   4.932   6.939   3.759
 7535SOL     OW23503   2.947   4.762   0.479
 7535SOL    HW123504   2.962   4.800   0.388
 7535SOL    HW223505   2.918   4.667   0.471
 7536SOL     OW23506   4.603   5.780   6.006
 7536SOL    HW123507   4.603   5.880   5.999
 7536SOL    HW223508   4.604   5.740   5.915
 7537SOL     OW23509   1.889   4.866   5.382
 7537SOL    HW123510   1.883   4.773   5.418
 7537SOL    HW223511   1.802   4.890   5.339
 7538SOL     OW23512   3.489   4.090   5.107
 7538SOL    HW123513   3.450   4.068   5.197
 7538SOL    HW223514   3.522   4.184   5.107
 7539SOL     OW23515   0.858   2.348   4.927
 7539SOL    HW123516   0.828   2.288   5.001
 7539SOL    HW223517   0.949   2.320   4.897
 7540SOL     OW23518   2.215   1.204   0.458
 7540SOL    HW123519   2.231   1.303   0.461
 7540SOL    HW223520   2.119   1.185   0.477
 7541SOL     OW23521   6.880   2.518   5.416
 7541SOL    HW123522   6.877   2.493   5.319
 7541SOL    HW223523   6.944   2.458   5.464
 7542SOL     OW23524   1.701   0.381   5.439
 7542SOL    HW123525   1.797   0.384   5.470
 7542SOL    HW223526   1.698   0.382   5.339
 7543SOL     OW23527   2.755   2.653   0.525
 7543SOL    HW123528   2.684   2.722   0.540
 7543SOL    HW223529   2.784   2.616   0.614
 7544SOL     OW23530   1.573   2.046   2.514
 7544SOL    HW123531   1.537   2.086   2.430
 7544SOL    HW223532   1.503   1.986   2.555
 7545SOL     OW23533   3.990   0.414   3.447
 7545SOL    HW123534   4.009   0.475   3.370
 7545SOL    HW223535   3.955   0.467   3.524
 7546SOL     OW23536   5.480   0.260   5.480
 7546SOL    HW123537   5.430   0.201   5.416
 7546SOL    HW223538   5.547   0.315   5.430
 7547SOL     OW23539   2.889   0.484   0.257
 7547SOL    HW123540   2.855   0.408   0.312
 7547SOL    HW223541   2.811   0.532   0.217
 7548SOL     OW23542   1.840   3.156   1.365
 7548SOL    HW123543   1.829   3.057   1.377
 7548SOL    HW223544   1.799   3.203   1.443
 7549SOL     OW23545   5.533   0.440   2.488
 7549SOL    HW123546   5.485   0.519   2.450
 7549SOL    HW223547   5.469   0.364   2.500
 7550SOL     OW23548   1.059   5.629   0.428
 7550SOL    HW123549   1.132   5.635   0.496
 7550SOL    HW223550   1.035   5.721   0.396
 7551SOL     OW23551   5.390   3.585   6.524
 7551SOL    HW123552   5.460   3.534   6.474
 7551SOL    HW223553   5.338   3.641   6.460
 7552SOL     OW23554   3.791   5.663   3.948
 7552SOL    HW123555   3.839   5.606   3.882
 7552SOL    HW223556   3.781   5.613   4.034
 7553SOL     OW23557   4.086   4.008   6.093
 7553SOL    HW123558   4.089   3.982   6.189
 7553SOL    HW223559   3.990   4.013   6.063
 7554SOL     OW23560   7.019   1.495   1.128
 7554SOL    HW123561   0.082   1.512   1.171
 7554SOL    HW223562   6.947   1.501   1.197
 7555SOL     OW23563   1.665   6.008   5.852
 7555SOL    HW123564   1.571   5.974   5.843
 7555SOL    HW223565   1.719   5.941   5.902
 7556SOL     OW23566   6.638   4.066   3.902
 7556SOL    HW123567   6.639   4.068   4.002
 7556SOL    HW223568   6.552   4.105   3.869
 7557SOL     OW23569   4.061   3.887   0.460
 7557SOL    HW123570   4.022   3.812   0.405
 7557SOL    HW223571   4.036   3.874   0.556
 7558SOL     OW23572   1.828   2.927   3.291
 7558SOL    HW123573   1.885   2.848   3.267
 7558SOL    HW223574   1.851   2.958   3.383
 7559SOL     OW23575   0.612   4.908   6.830
 7559SOL    HW123576   0.688   4.881   6.888
 7559SOL    HW223577   0.529   4.917   6.886
 7560SOL     OW23578   4.428   0.522   5.369
 7560SOL    HW123579   4.399   0.430   5.396
 7560SOL    HW223580   4.525   0.520   5.345
 7561SOL     OW23581   0.434   4.188   0.241
 7561SOL    HW123582   0.457   4.145   0.328
 7561SOL    HW223583   0.360   4.137   0.197
 7562SOL     OW23584   4.686   6.395   4.726
 7562SOL    HW123585   4.676   6.359   4.819
 7562SOL    HW223586   4.669   6.494   4.727
 7563SOL     OW23587   2.530   1.088   4.121
 7563SOL    HW123588   2.587   1.154   4.072
 7563SOL    HW223589   2.477   1.035   4.055
 7564SOL     OW23590   6.134   5.664   4.235
 7564SOL    HW123591   6.102   5.569   4.231
 7564SOL    HW223592   6.055   5.726   4.228
 7565SOL     OW23593   4.671   5.581   6.944
 7565SOL    HW123594   4.716   5.669   6.959
 7565SOL    HW223595   4.740   5.510   6.932
 7566SOL     OW23596   1.439   5.764   4.401
 7566SOL    HW123597   1.470   5.783   4.494
 7566SOL    HW223598   1.350   5.809   4.386
 7567SOL     OW23599   2.241   3.079   0.418
 7567SOL    HW123600   2.173   3.059   0.346
 7567SOL    HW223601   2.258   3.177   0.421
 7568SOL     OW23602   3.739   4.924   2.739
 7568SOL    HW123603   3.831   4.913   2.701
 7568SOL    HW223604   3.689   4.992   2.686
 7569SOL     OW23605   3.864   7.003   2.231
 7569SOL    HW123606   3.927   0.048   2.264
 7569SOL    HW223607   3.894   6.970   2.142
 7570SOL     OW23608   5.837   4.972   4.596
 7570SOL    HW123609   5.928   5.012   4.584
 7570SOL    HW223610   5.846   4.878   4.631
 7571SOL     OW23611   6.000   3.789   0.645
 7571SOL    HW123612   6.079   3.838   0.607
 7571SOL    HW223613   6.030   3.729   0.719
 7572SOL     OW23614   6.849   1.480   3.042
 7572SOL    HW123615   6.784   1.423   3.093
 7572SOL    HW223616   6.917   1.518   3.106
 7573SOL     OW23617   3.545   5.176   5.033
 7573SOL    HW123618   3.599   5.242   4.982
 7573SOL    HW223619   3.566   5.083   5.002
 7574SOL     OW23620   4.711   6.315   2.087
 7574SOL    HW123621   4.701   6.323   2.187
 7574SOL    HW223622   4.797   6.357   2.060
 7575SOL     OW23623   5.084   2.883   4.933
 7575SOL    HW123624   5.033   2.957   4.978
 7575SOL    HW223625   5.070   2.798   4.983
 7576SOL     OW23626   0.004   3.540   1.794
 7576SOL    HW123627   0.006   3.492   1.706
 7576SOL    HW223628   6.936   3.540   1.830
 7577SOL     OW23629   4.662   1.666   4.529
 7577SOL    HW123630   4.608   1.629   4.454
 7577SOL    HW223631   4.691   1.592   4.589
 7578SOL     OW23632   2.426   5.519   5.058
 7578SOL    HW123633   2.502   5.556   5.004
 7578SOL    HW223634   2.398   5.431   5.020
 7579SOL     OW23635   4.433   2.470   3.967
 7579SOL    HW123636   4.400   2.476   3.873
 7579SOL    HW223637   4.362   2.428   4.024
 7580SOL     OW23638   1.978   3.478   2.039
 7580SOL    HW123639   2.071   3.514   2.048
 7580SOL    HW223640   1.928   3.532   1.971
 7581SOL     OW23641   5.143   0.731   0.859
 7581SOL    HW123642   5.242   0.714   0.864
 7581SOL    HW223643   5.124   0.795   0.785
 7582SOL     OW23644   3.571   2.261   1.078
 7582SOL    HW123645   3.664   2.298   1.081
 7582SOL    HW223646   3.514   2.316   1.017
 7583SOL     OW23647   6.765   4.256   3.172
 7583SOL    HW123648   6.816   4.170   3.163
 7583SOL    HW223649   6.702   4.266   3.096
 7584SOL     OW23650   2.310   1.655   1.831
 7584SOL    HW123651   2.249   1.659   1.753
 7584SOL    HW223652   2.403   1.637   1.800
 7585SOL     OW23653   2.185   4.368   6.664
 7585SOL    HW123654   2.155   4.459   6.635
 7585SOL    HW223655   2.232   4.323   6.588
 7586SOL     OW23656   1.540   2.210   3.145
 7586SOL    HW123657   1.637   2.225   3.162
 7586SOL    HW223658   1.500   2.291   3.102
 7587SOL     OW23659   2.457   1.505   5.682
 7587SOL    HW123660   2.522   1.446   5.633
 7587SOL    HW223661   2.468   1.599   5.651
 7588SOL     OW23662   0.586   4.363   1.623
 7588SOL    HW123663   0.637   4.443   1.653
 7588SOL    HW223664   0.585   4.294   1.696
 7589SOL     OW23665   5.150   6.241   6.390
 7589SOL    HW123666   5.129   6.231   6.487
 7589SOL    HW223667   5.098   6.174   6.337
 7590SOL     OW23668   1.480   0.892   5.825
 7590SOL    HW123669   1.446   0.980   5.857
 7590SOL    HW223670   1.419   0.819   5.857
 7591SOL     OW23671   6.241   5.837   6.748
 7591SOL    HW123672   6.225   5.842   6.649
 7591SOL    HW223673   6.243   5.930   6.785
 7592SOL     OW23674   4.591   5.217   6.172
 7592SOL    HW123675   4.555   5.150   6.108
 7592SOL    HW223676   4.633   5.170   6.249
 7593SOL     OW23677   5.718   3.998   0.417
 7593SOL    HW123678   5.728   4.042   0.506
 7593SOL    HW223679   5.747   3.903   0.422
 7594SOL     OW23680   1.007   6.993   3.861
 7594SOL    HW123681   1.075   6.948   3.803
 7594SOL    HW223682   1.052   0.006   3.941
 7595SOL     OW23683   6.400   2.862   6.515
 7595SOL    HW123684   6.405   2.800   6.593
 7595SOL    HW223685   6.367   2.952   6.546
 7596SOL     OW23686   4.693   5.407   2.378
 7596SOL    HW123687   4.663   5.433   2.286
 7596SOL    HW223688   4.655   5.318   2.402
 7597SOL     OW23689   2.440   5.855   1.543
 7597SOL    HW123690   2.408   5.941   1.583
 7597SOL    HW223691   2.366   5.813   1.490
 7598SOL     OW23692   6.521   1.153   2.563
 7598SOL    HW123693   6.462   1.127   2.486
 7598SOL    HW223694   6.519   1.252   2.575
 7599SOL     OW23695   5.819   2.758   1.914
 7599SOL    HW123696   5.728   2.743   1.873
 7599SOL    HW223697   5.889   2.752   1.843
 7600SOL     OW23698   2.329   2.370   2.981
 7600SOL    HW123699   2.320   2.323   3.068
 7600SOL    HW223700   2.426   2.390   2.964
 7601SOL     OW23701   2.320   0.703   5.517
 7601SOL    HW123702   2.354   0.646   5.592
 7601SOL    HW223703   2.391   0.712   5.448
 7602SOL     OW23704   2.105   3.300   5.315
 7602SOL    HW123705   2.204   3.298   5.301
 7602SOL    HW223706   2.061   3.343   5.237
 7603SOL     OW23707   6.632   1.212   2.214
 7603SOL    HW123708   6.659   1.165   2.130
 7603SOL    HW223709   6.699   1.193   2.286
 7604SOL     OW23710   5.128   5.684   6.777
 7604SOL    HW123711   5.199   5.659   6.711
 7604SOL    HW223712   5.055   5.616   6.775
 7605SOL     OW23713   5.953   3.649   6.425
 7605SOL    HW123714   5.923   3.706   6.349
 7605SOL    HW223715   5.904   3.561   6.422
 7606SOL     OW23716   5.594   1.936   3.884
 7606SOL    HW123717   5.595   1.848   3.930
 7606SOL    HW223718   5.520   1.938   3.817
 7607SOL     OW23719   4.931   0.006   5.932
 7607SOL    HW123720   4.914   0.099   5.901
 7607SOL    HW223721   4.871   7.011   6.010
 7608SOL     OW23722   3.464   3.450   4.723
 7608SOL    HW123723   3.403   3.373   4.742
 7608SOL    HW223724   3.434   3.497   4.640
 7609SOL     OW23725   1.597   3.140   3.268
 7609SOL    HW123726   1.536   3.092   3.206
 7609SOL    HW223727   1.683   3.089   3.277
 7610SOL     OW23728   5.810   0.522   2.028
 7610SOL    HW123729   5.809   0.617   1.997
 7610SOL    HW223730   5.750   0.513   2.108
 7611SOL     OW23731   2.134   2.043   1.750
 7611SOL    HW123732   2.155   1.954   1.710
 7611SOL    HW223733   2.083   2.031   1.835
 7612SOL     OW23734   4.324   2.021   2.873
 7612SOL    HW123735   4.254   1.963   2.831
 7612SOL    HW223736   4.393   2.045   2.805
 7613SOL     OW23737   5.628   0.579   2.728
 7613SOL    HW123738   5.601   0.576   2.632
 7613SOL    HW223739   5.552   0.613   2.784
 7614SOL     OW23740   4.235   0.860   0.471
 7614SOL    HW123741   4.218   0.955   0.500
 7614SOL    HW223742   4.331   0.837   0.486
 7615SOL     OW23743   3.728   4.797   5.909
 7615SOL    HW123744   3.761   4.782   6.002
 7615SOL    HW223745   3.670   4.720   5.881
 7616SOL     OW23746   0.192   5.117   2.951
 7616SOL    HW123747   0.253   5.165   2.888
 7616SOL    HW223748   0.109   5.171   2.964
 7617SOL     OW23749   3.237   5.952   3.050
 7617SOL    HW123750   3.231   5.881   3.120
 7617SOL    HW223751   3.180   5.927   2.972
 7618SOL     OW23752   2.239   1.930   0.510
 7618SOL    HW123753   2.252   1.889   0.420
 7618SOL    HW223754   2.160   1.991   0.507
 7619SOL     OW23755   6.017   3.209   6.252
 7619SOL    HW123756   6.054   3.205   6.159
 7619SOL    HW223757   5.978   3.120   6.276
 7620SOL     OW23758   2.905   5.998   1.513
 7620SOL    HW123759   2.905   5.970   1.609
 7620SOL    HW223760   2.997   6.026   1.486
 7621SOL     OW23761   2.007   2.302   0.578
 7621SOL    HW123762   2.017   2.393   0.538
 7621SOL    HW223763   1.972   2.310   0.671
 7622SOL     OW23764   4.421   2.111   1.531
 7622SOL    HW123765   4.325   2.136   1.542
 7622SOL    HW223766   4.460   2.162   1.455
 7623SOL     OW23767   6.190   6.273   5.124
 7623SOL    HW123768   6.227   6.254   5.215
 7623SOL    HW223769   6.242   6.221   5.056
 7624SOL     OW23770   0.039   0.745   4.561
 7624SOL    HW123771   0.091   0.794   4.491
 7624SOL    HW223772   0.049   0.646   4.546
 7625SOL     OW23773   3.438   5.712   0.822
 7625SOL    HW123774   3.533   5.741   0.828
 7625SOL    HW223775   3.411   5.702   0.726
 7626SOL     OW23776   2.648   4.247   5.425
 7626SOL    HW123777   2.641   4.332   5.373
 7626SOL    HW223778   2.677   4.267   5.519
 7627SOL     OW23779   0.013   0.897   0.679
 7627SOL    HW123780   0.026   0.906   0.580
 7627SOL    HW223781   0.101   0.883   0.723
 7628SOL     OW23782   4.899   1.640   1.438
 7628SOL    HW123783   4.950   1.595   1.512
 7628SOL    HW223784   4.924   1.599   1.351
 7629SOL     OW23785   6.216   5.913   3.450
 7629SOL    HW123786   6.221   6.012   3.437
 7629SOL    HW223787   6.283   5.868   3.391
 7630SOL     OW23788   6.546   1.470   2.066
 7630SOL    HW123789   6.519   1.390   2.119
 7630SOL    HW223790   6.621   1.517   2.113
 7631SOL     OW23791   1.266   0.797   3.604
 7631SOL    HW123792   1.220   0.731   3.662
 7631SOL    HW223793   1.345   0.835   3.652
 7632SOL     OW23794   4.093   0.368   5.251
 7632SOL    HW123795   4.011   0.322   5.220
 7632SOL    HW223796   4.099   0.362   5.351
 7633SOL     OW23797   5.813   3.968   6.698
 7633SOL    HW123798   5.803   4.058   6.655
 7633SOL    HW223799   5.740   3.908   6.665
 7634SOL     OW23800   1.035   2.405   2.277
 7634SOL    HW123801   0.938   2.426   2.290
 7634SOL    HW223802   1.047   2.305   2.277
 7635SOL     OW23803   2.752   5.077   6.072
 7635SOL    HW123804   2.738   5.013   6.148
 7635SOL    HW223805   2.707   5.164   6.093
 7636SOL     OW23806   1.542   0.210   3.301
 7636SOL    HW123807   1.615   0.175   3.361
 7636SOL    HW223808   1.456   0.214   3.352
 7637SOL     OW23809   2.809   6.220   3.920
 7637SOL    HW123810   2.811   6.320   3.921
 7637SOL    HW223811   2.897   6.185   3.952
 7638SOL     OW23812   4.207   4.768   1.727
 7638SOL    HW123813   4.278   4.798   1.663
 7638SOL    HW223814   4.191   4.670   1.715
 7639SOL     OW23815   0.469   1.888   4.365
 7639SOL    HW123816   0.462   1.819   4.437
 7639SOL    HW223817   0.461   1.844   4.276
 7640SOL     OW23818   2.526   3.038   5.775
 7640SOL    HW123819   2.503   2.986   5.692
 7640SOL    HW223820   2.508   3.135   5.759
 7641SOL     OW23821   6.173   3.177   3.250
 7641SOL    HW123822   6.102   3.173   3.180
 7641SOL    HW223823   6.212   3.086   3.264
 7642SOL     OW23824   1.617   1.634   2.760
 7642SOL    HW123825   1.687   1.692   2.803
 7642SOL    HW223826   1.570   1.686   2.689
 7643SOL     OW23827   5.724   3.628   3.496
 7643SOL    HW123828   5.627   3.639   3.474
 7643SOL    HW223829   5.734   3.614   3.594
 7644SOL     OW23830   6.454   3.532   3.910
 7644SOL    HW123831   6.415   3.553   3.821
 7644SOL    HW223832   6.438   3.436   3.932
 7645SOL     OW23833   3.337   2.748   0.315
 7645SOL    HW123834   3.276   2.669   0.316
 7645SOL    HW223835   3.372   2.763   0.408
 7646SOL     OW23836   0.978   0.091   1.922
 7646SOL    HW123837   0.941   0.145   1.847
 7646SOL    HW223838   0.973   7.020   1.899
 7647SOL     OW23839   2.253   4.774   0.180
 7647SOL    HW123840   2.308   4.817   0.251
 7647SOL    HW223841   2.296   4.688   0.152
 7648SOL     OW23842   3.016   1.209   3.713
 7648SOL    HW123843   3.034   1.293   3.764
 7648SOL    HW223844   3.103   1.168   3.686
 7649SOL     OW23845   3.014   1.609   1.152
 7649SOL    HW123846   3.012   1.651   1.243
 7649SOL    HW223847   3.041   1.678   1.084
 7650SOL     OW23848   6.305   4.851   0.577
 7650SOL    HW123849   6.305   4.762   0.621
 7650SOL    HW223850   6.232   4.908   0.614
 7651SOL     OW23851   5.514   2.062   6.101
 7651SOL    HW123852   5.414   2.066   6.095
 7651SOL    HW223853   5.554   2.117   6.028
 7652SOL     OW23854   1.122   3.394   2.958
 7652SOL    HW123855   1.212   3.370   2.994
 7652SOL    HW223856   1.073   3.450   3.025
 7653SOL     OW23857   4.626   2.506   2.130
 7653SOL    HW123858   4.613   2.545   2.038
 7653SOL    HW223859   4.630   2.580   2.197
 7654SOL     OW23860   5.258   3.931   4.732
 7654SOL    HW123861   5.217   3.902   4.645
 7654SOL    HW223862   5.306   4.017   4.719
 7655SOL     OW23863   5.306   4.988   5.403
 7655SOL    HW123864   5.400   5.021   5.401
 7655SOL    HW223865   5.244   5.061   5.378
 7656SOL     OW23866   0.890   0.422   4.895
 7656SOL    HW123867   0.905   0.324   4.888
 7656SOL    HW223868   0.964   0.470   4.848
 7657SOL     OW23869   4.251   1.995   3.637
 7657SOL    HW123870   4.178   2.041   3.587
 7657SOL    HW223871   4.219   1.969   3.728
 7658SOL     OW23872   4.214   0.373   5.930
 7658SOL    HW123873   4.288   0.420   5.881
 7658SOL    HW223874   4.132   0.371   5.872
 7659SOL     OW23875   5.458   6.032   6.477
 7659SOL    HW123876   5.511   5.986   6.405
 7659SOL    HW223877   5.511   6.032   6.562
 7660SOL     OW23878   5.490   5.058   3.659
 7660SOL    HW123879   5.505   4.983   3.723
 7660SOL    HW223880   5.510   5.027   3.566
 7661SOL     OW23881   6.175   3.403   4.591
 7661SOL    HW123882   6.192   3.453   4.506
 7661SOL    HW223883   6.120   3.461   4.652
 7662SOL     OW23884   6.160   5.480   3.492
 7662SOL    HW123885   6.206   5.504   3.406
 7662SOL    HW223886   6.208   5.523   3.568
 7663SOL     OW23887   0.282   6.218   0.479
 7663SOL    HW123888   0.305   6.293   0.417
 7663SOL    HW223889   0.218   6.252   0.548
 7664SOL     OW23890   3.421   5.547   5.184
 7664SOL    HW123891   3.343   5.610   5.186
 7664SOL    HW223892   3.493   5.587   5.127
 7665SOL     OW23893   2.500   5.601   3.797
 7665SOL    HW123894   2.421   5.655   3.826
 7665SOL    HW223895   2.540   5.556   3.877
 7666SOL     OW23896   2.034   0.697   2.129
 7666SOL    HW123897   2.054   0.629   2.200
 7666SOL    HW223898   2.054   0.659   2.039
 7667SOL     OW23899   5.890   6.819   5.536
 7667SOL    HW123900   5.825   6.772   5.595
 7667SOL    HW223901   5.840   6.872   5.467
 7668SOL     OW23902   2.908   3.988   1.673
 7668SOL    HW123903   2.848   4.064   1.698
 7668SOL    HW223904   3.003   4.015   1.689
 7669SOL     OW23905   4.406   6.362   4.853
 7669SOL    HW123906   4.479   6.317   4.904
 7669SOL    HW223907   4.317   6.337   4.891
 7670SOL     OW23908   1.429   5.723   0.499
 7670SOL    HW123909   1.495   5.757   0.565
 7670SOL    HW223910   1.431   5.623   0.498
 7671SOL     OW23911   5.284   2.065   4.767
 7671SOL    HW123912   5.251   2.106   4.853
 7671SOL    HW223913   5.333   1.981   4.787
 7672SOL     OW23914   6.229   0.288   1.845
 7672SOL    HW123915   6.220   0.377   1.890
 7672SOL    HW223916   6.222   0.216   1.913
 7673SOL     OW23917   0.413   3.753   0.289
 7673SOL    HW123918   0.475   3.711   0.222
 7673SOL    HW223919   0.452   3.743   0.380
 7674SOL     OW23920   6.072   0.417   5.487
 7674SOL    HW123921   6.020   0.334   5.471
 7674SOL    HW223922   6.013   0.497   5.474
 7675SOL     OW23923   5.096   6.976   3.126
 7675SOL    HW123924   5.132   0.005   3.051
 7675SOL    HW223925   5.088   0.006   3.208
 7676SOL     OW23926   1.198   0.553   1.232
 7676SOL    HW123927   1.187   0.584   1.138
 7676SOL    HW223928   1.285   0.586   1.268
 7677SOL     OW23929   1.413   2.767   3.001
 7677SOL    HW123930   1.368   2.835   3.059
 7677SOL    HW223931   1.371   2.678   3.014
 7678SOL     OW23932   5.275   6.725   5.961
 7678SOL    HW123933   5.252   6.634   5.995
 7678SOL    HW223934   5.318   6.718   5.871
 7679SOL     OW23935   1.303   5.285   4.310
 7679SOL    HW123936   1.370   5.306   4.381
 7679SOL    HW223937   1.283   5.368   4.258
 7680SOL     OW23938   5.148   0.793   6.982
 7680SOL    HW123939   5.141   0.710   0.010
 7680SOL    HW223940   5.180   0.868   0.014
 7681SOL     OW23941   2.895   2.395   6.494
 7681SOL    HW123942   2.798   2.405   6.518
 7681SOL    HW223943   2.907   2.411   6.396
 7682SOL     OW23944   2.889   0.096   0.571
 7682SOL    HW123945   2.881   0.003   0.608
 7682SOL    HW223946   2.983   0.111   0.539
 7683SOL     OW23947   6.889   2.655   3.481
 7683SOL    HW123948   6.865   2.581   3.543
 7683SOL    HW223949   6.805   2.693   3.442
 7684SOL     OW23950   3.959   2.075   5.820
 7684SOL    HW123951   3.948   2.093   5.722
 7684SOL    HW223952   3.907   2.143   5.872
 7685SOL     OW23953   4.118   3.856   1.246
 7685SOL    HW123954   4.110   3.894   1.154
 7685SOL    HW223955   4.054   3.903   1.307
 7686SOL     OW23956   3.125   1.014   3.364
 7686SOL    HW123957   3.083   1.102   3.339
 7686SOL    HW223958   3.159   0.969   3.281
 7687SOL     OW23959   4.533   4.261   5.826
 7687SOL    HW123960   4.458   4.268   5.891
 7687SOL    HW223961   4.497   4.249   5.733
 7688SOL     OW23962   6.352   0.551   3.359
 7688SOL    HW123963   6.422   0.499   3.310
 7688SOL    HW223964   6.333   0.508   3.446
 7689SOL     OW23965   3.527   6.132   4.695
 7689SOL    HW123966   3.436   6.114   4.657
 7689SOL    HW223967   3.597   6.103   4.630
 7690SOL     OW23968   0.587   5.338   2.359
 7690SOL    HW123969   0.547   5.362   2.448
 7690SOL    HW223970   0.590   5.420   2.301
 7691SOL     OW23971   6.324   3.851   5.725
 7691SOL    HW123972   6.273   3.902   5.656
 7691SOL    HW223973   6.262   3.788   5.772
 7692SOL     OW23974   1.777   6.597   1.121
 7692SOL    HW123975   1.795   6.694   1.106
 7692SOL    HW223976   1.761   6.581   1.219
 7693SOL     OW23977   5.544   1.614   0.556
 7693SOL    HW123978   5.573   1.568   0.640
 7693SOL    HW223979   5.510   1.706   0.578
 7694SOL     OW23980   5.551   5.004   3.394
 7694SOL    HW123981   5.561   5.102   3.411
 7694SOL    HW223982   5.637   4.957   3.414
 7695SOL     OW23983   4.784   0.352   6.694
 7695SOL    HW123984   4.706   0.357   6.757
 7695SOL    HW223985   4.859   0.408   6.731
 7696SOL     OW23986   1.244   4.100   5.652
 7696SOL    HW123987   1.300   4.175   5.616
 7696SOL    HW223988   1.275   4.013   5.612
 7697SOL     OW23989   4.685   1.179   2.116
 7697SOL    HW123990   4.682   1.200   2.018
 7697SOL    HW223991   4.760   1.230   2.159
 7698SOL     OW23992   6.901   2.715   5.667
 7698SOL    HW123993   6.892   2.744   5.572
 7698SOL    HW223994   6.823   2.658   5.692
 7699SOL     OW23995   3.207   4.100   0.526
 7699SOL    HW123996   3.227   4.197   0.511
 7699SOL    HW223997   3.110   4.089   0.547
 7700SOL     OW23998   5.455   6.490   4.167
 7700SOL    HW123999   5.534   6.477   4.108
 7700SOL    HW224000   5.399   6.407   4.166
 7701SOL     OW24001   6.786   2.192   5.381
 7701SOL    HW124002   6.707   2.150   5.337
 7701SOL    HW224003   6.840   2.121   5.427
 7702SOL     OW24004   1.838   6.491   6.680
 7702SOL    HW124005   1.773   6.532   6.617
 7702SOL    HW224006   1.867   6.560   6.747
 7703SOL     OW24007   0.548   2.439   5.723
 7703SOL    HW124008   0.578   2.397   5.637
 7703SOL    HW224009   0.625   2.486   5.765
 7704SOL     OW24010   2.415   4.039   1.436
 7704SOL    HW124011   2.452   4.127   1.406
 7704SOL    HW224012   2.446   3.967   1.374
 7705SOL     OW24013   3.784   4.077   4.799
 7705SOL    HW124014   3.688   4.104   4.793
 7705SOL    HW224015   3.821   4.105   4.887
 7706SOL     OW24016   6.428   0.754   5.688
 7706SOL    HW124017   6.494   0.771   5.615
 7706SOL    HW224018   6.359   0.688   5.656
 7707SOL     OW24019   6.945   5.987   6.776
 7707SOL    HW124020   6.849   5.959   6.778
 7707SOL    HW224021   6.990   5.959   6.861
 7708SOL     OW24022   4.815   1.288   5.165
 7708SOL    HW124023   4.886   1.357   5.181
 7708SOL    HW224024   4.793   1.243   5.251
 7709SOL     OW24025   3.850   2.269   1.674
 7709SOL    HW124026   3.798   2.304   1.751
 7709SOL    HW224027   3.790   2.215   1.615
 7710SOL     OW24028   2.726   2.064   6.826
 7710SOL    HW124029   2.791   2.124   6.779
 7710SOL    HW224030   2.756   2.049   6.920
 7711SOL     OW24031   4.448   5.610   4.649
 7711SOL    HW124032   4.506   5.646   4.575
 7711SOL    HW224033   4.498   5.541   4.700
 7712SOL     OW24034   5.055   4.600   6.767
 7712SOL    HW124035   5.069   4.591   6.866
 7712SOL    HW224036   5.117   4.539   6.719
 7713SOL     OW24037   0.267   5.845   6.210
 7713SOL    HW124038   0.299   5.939   6.222
 7713SOL    HW224039   0.221   5.814   6.293
 7714SOL     OW24040   5.070   4.130   4.741
 7714SOL    HW124041   4.980   4.156   4.778
 7714SOL    HW224042   5.059   4.050   4.682
 7715SOL     OW24043   3.873   2.007   1.961
 7715SOL    HW124044   3.925   2.017   1.876
 7715SOL    HW224045   3.815   2.086   1.975
 7716SOL     OW24046   4.243   2.319   4.427
 7716SOL    HW124047   4.299   2.351   4.351
 7716SOL    HW224048   4.299   2.315   4.510
 7717SOL     OW24049   3.141   0.239   6.495
 7717SOL    HW124050   3.147   0.258   6.593
 7717SOL    HW224051   3.046   0.240   6.466
 7718SOL     OW24052   2.604   6.278   4.074
 7718SOL    HW124053   2.548   6.211   4.124
 7718SOL    HW224054   2.679   6.231   4.028
 7719SOL     OW24055   6.111   2.689   5.430
 7719SOL    HW124056   6.015   2.675   5.406
 7719SOL    HW224057   6.149   2.604   5.466
 7720SOL     OW24058   6.188   6.111   2.036
 7720SOL    HW124059   6.092   6.093   2.012
 7720SOL    HW224060   6.238   6.025   2.038
 7721SOL     OW24061   0.906   4.381   2.881
 7721SOL    HW124062   1.000   4.394   2.850
 7721SOL    HW224063   0.854   4.465   2.864
 7722SOL     OW24064   1.074   6.117   4.336
 7722SOL    HW124065   1.009   6.121   4.412
 7722SOL    HW224066   1.026   6.138   4.250
 7723SOL     OW24067   6.744   1.757   0.411
 7723SOL    HW124068   6.793   1.676   0.443
 7723SOL    HW224069   6.677   1.731   0.342
 7724SOL     OW24070   2.598   6.311   6.853
 7724SOL    HW124071   2.620   6.215   6.866
 7724SOL    HW224072   2.499   6.324   6.861
 7725SOL     OW24073   4.911   3.458   4.630
 7725SOL    HW124074   4.992   3.451   4.572
 7725SOL    HW224075   4.913   3.544   4.680
 7726SOL     OW24076   5.149   4.712   3.092
 7726SOL    HW124077   5.072   4.663   3.133
 7726SOL    HW224078   5.183   4.781   3.156
 7727SOL     OW24079   5.525   3.282   2.277
 7727SOL    HW124080   5.471   3.328   2.206
 7727SOL    HW224081   5.556   3.350   2.344
 7728SOL     OW24082   2.016   2.725   2.891
 7728SOL    HW124083   2.112   2.701   2.880
 7728SOL    HW224084   2.000   2.819   2.862
 7729SOL     OW24085   5.148   2.359   6.700
 7729SOL    HW124086   5.206   2.314   6.633
 7729SOL    HW224087   5.172   2.327   6.792
 7730SOL     OW24088   4.785   0.201   2.122
 7730SOL    HW124089   4.733   0.159   2.197
 7730SOL    HW224090   4.883   0.186   2.137
 7731SOL     OW24091   0.070   1.661   4.295
 7731SOL    HW124092   0.018   1.653   4.210
 7731SOL    HW224093   0.010   1.645   4.373
 7732SOL     OW24094   4.184   4.926   0.804
 7732SOL    HW124095   4.137   4.987   0.868
 7732SOL    HW224096   4.231   4.981   0.735
 7733SOL     OW24097   2.971   6.235   0.399
 7733SOL    HW124098   2.918   6.278   0.326
 7733SOL    HW224099   2.927   6.149   0.426
 7734SOL     OW24100   1.568   2.939   2.136
 7734SOL    HW124101   1.496   2.895   2.190
 7734SOL    HW224102   1.657   2.905   2.167
 7735SOL     OW24103   5.328   4.642   0.868
 7735SOL    HW124104   5.338   4.560   0.813
 7735SOL    HW224105   5.360   4.623   0.961
 7736SOL     OW24106   6.009   4.446   6.450
 7736SOL    HW124107   5.989   4.496   6.366
 7736SOL    HW224108   5.950   4.479   6.524
 7737SOL     OW24109   4.514   2.799   0.358
 7737SOL    HW124110   4.462   2.730   0.407
 7737SOL    HW224111   4.451   2.860   0.309
 7738SOL     OW24112   2.271   4.998   7.018
 7738SOL    HW124113   2.248   4.930   0.062
 7738SOL    HW224114   2.189   5.019   6.964
 7739SOL     OW24115   5.306   3.861   2.624
 7739SOL    HW124116   5.325   3.904   2.536
 7739SOL    HW224117   5.287   3.931   2.692
 7740SOL     OW24118   0.352   6.250   3.742
 7740SOL    HW124119   0.306   6.309   3.808
 7740SOL    HW224120   0.297   6.168   3.726
 7741SOL     OW24121   3.154   5.499   4.348
 7741SOL    HW124122   3.081   5.435   4.371
 7741SOL    HW224123   3.198   5.470   4.263
 7742SOL     OW24124   6.989   0.782   4.184
 7742SOL    HW124125   6.969   0.804   4.089
 7742SOL    HW224126   6.971   0.686   4.202
 7743SOL     OW24127   4.912   3.128   2.206
 7743SOL    HW124128   4.880   3.095   2.117
 7743SOL    HW224129   4.876   3.071   2.279
 7744SOL     OW24130   0.287   6.317   4.786
 7744SOL    HW124131   0.349   6.239   4.779
 7744SOL    HW224132   0.330   6.398   4.746
 7745SOL     OW24133   5.112   3.433   5.487
 7745SOL    HW124134   5.177   3.471   5.421
 7745SOL    HW224135   5.161   3.406   5.569
 7746SOL     OW24136   2.089   0.539   6.780
 7746SOL    HW124137   2.030   0.534   6.699
 7746SOL    HW224138   2.033   0.553   6.861
 7747SOL     OW24139   4.767   5.281   0.434
 7747SOL    HW124140   4.837   5.273   0.363
 7747SOL    HW224141   4.783   5.210   0.504
 7748SOL     OW24142   2.273   4.234   6.450
 7748SOL    HW124143   2.260   4.212   6.353
 7748SOL    HW224144   2.315   4.156   6.497
 7749SOL     OW24145   5.945   2.957   6.377
 7749SOL    HW124146   5.964   3.010   6.459
 7749SOL    HW224147   5.992   2.868   6.383
 7750SOL     OW24148   4.472   5.416   2.689
 7750SOL    HW124149   4.566   5.449   2.691
 7750SOL    HW224150   4.452   5.379   2.598
 7751SOL     OW24151   0.736   2.796   1.041
 7751SOL    HW124152   0.652   2.776   1.091
 7751SOL    HW224153   0.805   2.830   1.105
 7752SOL     OW24154   3.989   1.189   3.174
 7752SOL    HW124155   4.001   1.091   3.191
 7752SOL    HW224156   3.982   1.205   3.076
 7753SOL     OW24157   3.753   0.874   5.275
 7753SOL    HW124158   3.774   0.806   5.204
 7753SOL    HW224159   3.727   0.828   5.359
 7754SOL     OW24160   5.085   5.534   1.525
 7754SOL    HW124161   5.008   5.521   1.462
 7754SOL    HW224162   5.134   5.618   1.500
 7755SOL     OW24163   0.127   4.619   5.641
 7755SOL    HW124164   0.088   4.711   5.639
 7755SOL    HW224165   0.083   4.563   5.571
 7756SOL     OW24166   2.198   4.193   2.288
 7756SOL    HW124167   2.111   4.156   2.253
 7756SOL    HW224168   2.250   4.233   2.213
 7757SOL     OW24169   0.004   4.171   0.264
 7757SOL    HW124170   0.015   4.260   0.308
 7757SOL    HW224171   6.949   4.173   0.205
 7758SOL     OW24172   0.771   1.091   5.811
 7758SOL    HW124173   0.826   1.013   5.780
 7758SOL    HW224174   0.687   1.096   5.758
 7759SOL     OW24175   3.616   1.498   2.336
 7759SOL    HW124176   3.652   1.517   2.427
 7759SOL    HW224177   3.692   1.477   2.273
 7760SOL     OW24178   4.803   2.998   0.112
 7760SOL    HW124179   4.723   3.054   0.093
 7760SOL    HW224180   4.878   3.023   0.051
 7761SOL     OW24181   5.405   5.280   3.113
 7761SOL    HW124182   5.411   5.182   3.099
 7761SOL    HW224183   5.493   5.323   3.092
 7762SOL     OW24184   4.770   2.127   1.750
 7762SOL    HW124185   4.712   2.208   1.745
 7762SOL    HW224186   4.866   2.154   1.745
 7763SOL     OW24187   2.090   0.550   3.281
 7763SOL    HW124188   2.108   0.473   3.342
 7763SOL    HW224189   2.023   0.611   3.324
 7764SOL     OW24190   3.871   5.127   5.645
 7764SOL    HW124191   3.939   5.104   5.576
 7764SOL    HW224192   3.827   5.213   5.621
 7765SOL     OW24193   5.408   4.127   4.626
 7765SOL    HW124194   5.419   4.152   4.530
 7765SOL    HW224195   5.445   4.199   4.684
 7766SOL     OW24196   6.565   2.116   6.433
 7766SOL    HW124197   6.499   2.087   6.503
 7766SOL    HW224198   6.525   2.103   6.342
 7767SOL     OW24199   4.141   0.414   3.813
 7767SOL    HW124200   4.150   0.406   3.713
 7767SOL    HW224201   4.173   0.330   3.856
 7768SOL     OW24202   3.007   5.701   4.152
 7768SOL    HW124203   2.993   5.619   4.206
 7768SOL    HW224204   3.102   5.704   4.119
 7769SOL     OW24205   3.343   2.655   6.933
 7769SOL    HW124206   3.382   2.707   6.858
 7769SOL    HW224207   3.343   2.558   6.910
 7770SOL     OW24208   1.006   3.678   3.466
 7770SOL    HW124209   1.100   3.647   3.455
 7770SOL    HW224210   0.992   3.763   3.415
 7771SOL     OW24211   1.067   3.867   5.261
 7771SOL    HW124212   1.123   3.850   5.343
 7771SOL    HW224213   1.032   3.960   5.264
 7772SOL     OW24214   5.422   5.939   1.744
 7772SOL    HW124215   5.399   5.845   1.769
 7772SOL    HW224216   5.380   5.962   1.657
 7773SOL     OW24217   2.671   0.121   6.568
 7773SOL    HW124218   2.622   0.077   6.644
 7773SOL    HW224219   2.694   0.215   6.593
 7774SOL     OW24220   5.118   1.298   3.050
 7774SOL    HW124221   5.041   1.361   3.049
 7774SOL    HW224222   5.104   1.231   3.124
 7775SOL     OW24223   3.369   1.554   0.765
 7775SOL    HW124224   3.326   1.635   0.726
 7775SOL    HW224225   3.306   1.510   0.830
 7776SOL     OW24226   3.458   1.090   3.967
 7776SOL    HW124227   3.394   1.013   3.964
 7776SOL    HW224228   3.496   1.098   4.059
 7777SOL     OW24229   5.197   4.941   3.206
 7777SOL    HW124230   5.211   4.937   3.305
 7777SOL    HW224231   5.121   5.001   3.185
 7778SOL     OW24232   1.521   4.109   2.293
 7778SOL    HW124233   1.558   4.200   2.274
 7778SOL    HW224234   1.465   4.111   2.375
 7779SOL     OW24235   3.189   6.835   2.162
 7779SOL    HW124236   3.242   6.769   2.215
 7779SOL    HW224237   3.107   6.790   2.126
 7780SOL     OW24238   6.661   5.482   3.892
 7780SOL    HW124239   6.567   5.452   3.877
 7780SOL    HW224240   6.661   5.564   3.950
 7781SOL     OW24241   2.322   2.611   0.919
 7781SOL    HW124242   2.223   2.612   0.931
 7781SOL    HW224243   2.358   2.521   0.946
 7782SOL     OW24244   5.768   3.607   4.313
 7782SOL    HW124245   5.859   3.573   4.288
 7782SOL    HW224246   5.779   3.692   4.364
 7783SOL     OW24247   1.325   6.261   4.192
 7783SOL    HW124248   1.259   6.296   4.258
 7783SOL    HW224249   1.279   6.239   4.106
 7784SOL     OW24250   1.646   2.676   3.108
 7784SOL    HW124251   1.572   2.652   3.045
 7784SOL    HW224252   1.684   2.765   3.083
 7785SOL     OW24253   6.682   6.432   2.687
 7785SOL    HW124254   6.772   6.475   2.687
 7785SOL    HW224255   6.616   6.494   2.646
 7786SOL     OW24256   5.210   1.065   6.563
 7786SOL    HW124257   5.263   1.062   6.648
 7786SOL    HW224258   5.260   1.119   6.495
 7787SOL     OW24259   1.276   2.990   0.992
 7787SOL    HW124260   1.308   2.925   0.922
 7787SOL    HW224261   1.338   2.986   1.071
 7788SOL     OW24262   0.837   3.989   2.140
 7788SOL    HW124263   0.838   4.083   2.173
 7788SOL    HW224264   0.767   3.937   2.189
 7789SOL     OW24265   3.357   0.790   5.862
 7789SOL    HW124266   3.334   0.859   5.931
 7789SOL    HW224267   3.375   0.835   5.775
 7790SOL     OW24268   4.102   5.080   4.274
 7790SOL    HW124269   4.037   5.010   4.302
 7790SOL    HW224270   4.065   5.170   4.296
 7791SOL     OW24271   2.558   6.318   1.853
 7791SOL    HW124272   2.636   6.340   1.911
 7791SOL    HW224273   2.477   6.306   1.910
 7792SOL     OW24274   1.396   0.939   2.232
 7792SOL    HW124275   1.460   0.925   2.157
 7792SOL    HW224276   1.357   0.852   2.260
 7793SOL     OW24277   4.923   1.738   0.866
 7793SOL    HW124278   4.898   1.776   0.955
 7793SOL    HW224279   5.020   1.715   0.865
 7794SOL     OW24280   1.210   0.790   2.872
 7794SOL    HW124281   1.187   0.862   2.807
 7794SOL    HW224282   1.298   0.810   2.915
 7795SOL     OW24283   3.967   3.647   1.093
 7795SOL    HW124284   3.984   3.576   1.162
 7795SOL    HW224285   4.001   3.735   1.127
 7796SOL     OW24286   4.230   1.571   0.482
 7796SOL    HW124287   4.192   1.608   0.568
 7796SOL    HW224288   4.299   1.634   0.447
 7797SOL     OW24289   1.349   6.205   2.956
 7797SOL    HW124290   1.438   6.250   2.961
 7797SOL    HW224291   1.278   6.274   2.944
 7798SOL     OW24292   1.708   3.454   1.115
 7798SOL    HW124293   1.683   3.366   1.154
 7798SOL    HW224294   1.806   3.470   1.129
 7799SOL     OW24295   2.281   6.255   3.871
 7799SOL    HW124296   2.282   6.193   3.949
 7799SOL    HW224297   2.362   6.314   3.873
 7800SOL     OW24298   1.328   1.190   2.357
 7800SOL    HW124299   1.338   1.102   2.311
 7800SOL    HW224300   1.405   1.204   2.420
 7801SOL     OW24301   1.922   2.119   1.150
 7801SOL    HW124302   1.837   2.167   1.128
 7801SOL    HW224303   1.933   2.041   1.088
 7802SOL     OW24304   6.081   4.843   4.121
 7802SOL    HW124305   6.020   4.810   4.194
 7802SOL    HW224306   6.028   4.858   4.038
 7803SOL     OW24307   3.076   2.588   6.238
 7803SOL    HW124308   3.003   2.521   6.247
 7803SOL    HW224309   3.084   2.617   6.142
 7804SOL     OW24310   2.769   1.728   5.388
 7804SOL    HW124311   2.750   1.735   5.291
 7804SOL    HW224312   2.788   1.820   5.425
 7805SOL     OW24313   5.555   2.999   6.830
 7805SOL    HW124314   5.629   3.056   6.866
 7805SOL    HW224315   5.474   3.056   6.814
 7806SOL     OW24316   6.277   1.944   5.313
 7806SOL    HW124317   6.279   1.844   5.315
 7806SOL    HW224318   6.204   1.977   5.374
 7807SOL     OW24319   1.774   5.450   5.935
 7807SOL    HW124320   1.769   5.359   5.893
 7807SOL    HW224321   1.833   5.446   6.016
 7808SOL     OW24322   0.057   3.237   4.237
 7808SOL    HW124323   0.139   3.285   4.207
 7808SOL    HW224324   7.002   3.291   4.212
 7809SOL     OW24325   4.447   6.862   2.668
 7809SOL    HW124326   4.482   6.951   2.698
 7809SOL    HW224327   4.351   6.854   2.695
 7810SOL     OW24328   2.036   6.779   5.817
 7810SOL    HW124329   2.022   6.859   5.758
 7810SOL    HW224330   2.107   6.721   5.777
 7811SOL     OW24331   1.188   5.806   3.129
 7811SOL    HW124332   1.229   5.795   3.038
 7811SOL    HW224333   1.249   5.860   3.187
 7812SOL     OW24334   3.066   1.167   5.707
 7812SOL    HW124335   3.113   1.106   5.643
 7812SOL    HW224336   3.032   1.247   5.658
 7813SOL     OW24337   5.647   1.306   0.882
 7813SOL    HW124338   5.585   1.358   0.941
 7813SOL    HW224339   5.691   1.368   0.817
 7814SOL     OW24340   6.498   2.614   1.664
 7814SOL    HW124341   6.488   2.642   1.568
 7814SOL    HW224342   6.590   2.639   1.696
 7815SOL     OW24343   4.408   5.163   3.619
 7815SOL    HW124344   4.495   5.116   3.634
 7815SOL    HW224345   4.362   5.123   3.540
 7816SOL     OW24346   1.156   1.415   5.114
 7816SOL    HW124347   1.180   1.417   5.016
 7816SOL    HW224348   1.154   1.508   5.149
 7817SOL     OW24349   4.119   1.469   6.343
 7817SOL    HW124350   4.164   1.400   6.286
 7817SOL    HW224351   4.177   1.550   6.347
 7818SOL     OW24352   5.645   1.078   3.030
 7818SOL    HW124353   5.719   1.013   3.046
 7818SOL    HW224354   5.576   1.069   3.102
 7819SOL     OW24355   2.344   2.818   4.453
 7819SOL    HW124356   2.344   2.905   4.501
 7819SOL    HW224357   2.271   2.817   4.384
 7820SOL     OW24358   1.763   1.182   5.748
 7820SOL    HW124359   1.752   1.253   5.817
 7820SOL    HW224360   1.676   1.167   5.701
 7821SOL     OW24361   3.778   5.863   0.148
 7821SOL    HW124362   3.823   5.908   0.225
 7821SOL    HW224363   3.804   5.909   0.063
 7822SOL     OW24364   0.981   1.331   4.564
 7822SOL    HW124365   1.075   1.363   4.550
 7822SOL    HW224366   0.918   1.409   4.559
 7823SOL     OW24367   2.838   3.077   5.830
 7823SOL    HW124368   2.739   3.059   5.832
 7823SOL    HW224369   2.879   3.045   5.915
 7824SOL     OW24370   6.009   4.002   2.750
 7824SOL    HW124371   6.048   4.087   2.714
 7824SOL    HW224372   6.026   3.927   2.685
 7825SOL     OW24373   3.519   2.892   3.016
 7825SOL    HW124374   3.543   2.812   2.961
 7825SOL    HW224375   3.476   2.861   3.101
 7826SOL     OW24376   6.527   6.929   0.938
 7826SOL    HW124377   6.591   6.852   0.943
 7826SOL    HW224378   6.484   6.931   0.848
 7827SOL     OW24379   4.539   3.479   0.469
 7827SOL    HW124380   4.466   3.547   0.475
 7827SOL    HW224381   4.583   3.484   0.380
 7828SOL     OW24382   1.207   6.448   0.772
 7828SOL    HW124383   1.253   6.360   0.759
 7828SOL    HW224384   1.252   6.518   0.717
 7829SOL     OW24385   3.580   3.915   2.769
 7829SOL    HW124386   3.546   3.987   2.830
 7829SOL    HW224387   3.661   3.948   2.720
 7830SOL     OW24388   6.643   3.981   0.572
 7830SOL    HW124389   6.722   4.033   0.605
 7830SOL    HW224390   6.604   4.027   0.492
 7831SOL     OW24391   2.002   2.045   0.505
 7831SOL    HW124392   1.978   2.062   0.409
 7831SOL    HW224393   2.004   2.131   0.554
 7832SOL     OW24394   3.434   2.847   6.091
 7832SOL    HW124395   3.376   2.898   6.027
 7832SOL    HW224396   3.446   2.754   6.057
 7833SOL     OW24397   6.785   6.787   1.972
 7833SOL    HW124398   6.770   6.695   1.934
 7833SOL    HW224399   6.754   6.856   1.906
 7834SOL     OW24400   5.524   1.124   1.271
 7834SOL    HW124401   5.525   1.210   1.221
 7834SOL    HW224402   5.516   1.142   1.369
 7835SOL     OW24403   2.249   1.763   4.320
 7835SOL    HW124404   2.303   1.781   4.402
 7835SOL    HW224405   2.153   1.750   4.346
 7836SOL     OW24406   2.250   0.775   6.916
 7836SOL    HW124407   2.234   0.713   6.839
 7836SOL    HW224408   2.182   0.848   6.915
 7837SOL     OW24409   5.888   5.855   2.461
 7837SOL    HW124410   5.868   5.764   2.499
 7837SOL    HW224411   5.893   5.848   2.362
 7838SOL     OW24412   3.532   5.711   3.936
 7838SOL    HW124413   3.623   5.670   3.929
 7838SOL    HW224414   3.506   5.751   3.847
 7839SOL     OW24415   6.691   4.974   3.303
 7839SOL    HW124416   6.633   5.031   3.245
 7839SOL    HW224417   6.665   4.878   3.293
 7840SOL     OW24418   4.527   2.963   5.789
 7840SOL    HW124419   4.566   2.924   5.873
 7840SOL    HW224420   4.597   2.964   5.717
 7841SOL     OW24421   1.174   2.366   5.718
 7841SOL    HW124422   1.121   2.417   5.650
 7841SOL    HW224423   1.205   2.429   5.790
 7842SOL     OW24424   2.370   0.996   2.935
 7842SOL    HW124425   2.347   0.914   2.883
 7842SOL    HW224426   2.335   0.986   3.029
 7843SOL     OW24427   0.064   2.511   2.128
 7843SOL    HW124428   0.071   2.481   2.223
 7843SOL    HW224429   0.146   2.485   2.078
 7844SOL     OW24430   4.404   2.451   3.665
 7844SOL    HW124431   4.325   2.395   3.690
 7844SOL    HW224432   4.488   2.400   3.687
 7845SOL     OW24433   0.188   0.844   4.347
 7845SOL    HW124434   0.234   0.760   4.375
 7845SOL    HW224435   0.107   0.821   4.292
 7846SOL     OW24436   4.510   0.473   2.413
 7846SOL    HW124437   4.446   0.529   2.467
 7846SOL    HW224438   4.588   0.448   2.470
 7847SOL     OW24439   0.341   0.001   6.919
 7847SOL    HW124440   0.334   0.096   6.891
 7847SOL    HW224441   0.437   7.004   6.937
 7848SOL     OW24442   3.731   3.930   1.562
 7848SOL    HW124443   3.784   3.905   1.643
 7848SOL    HW224444   3.713   3.848   1.507
 7849SOL     OW24445   5.265   4.237   4.891
 7849SOL    HW124446   5.194   4.188   4.842
 7849SOL    HW224447   5.312   4.300   4.829
 7850SOL     OW24448   0.523   2.949   4.554
 7850SOL    HW124449   0.427   2.923   4.556
 7850SOL    HW224450   0.580   2.866   4.555
 7851SOL     OW24451   3.740   6.623   0.925
 7851SOL    HW124452   3.763   6.691   0.995
 7851SOL    HW224453   3.657   6.574   0.952
 7852SOL     OW24454   2.845   0.130   0.174
 7852SOL    HW124455   2.802   0.167   0.256
 7852SOL    HW224456   2.821   0.186   0.095
 7853SOL     OW24457   2.011   2.055   0.226
 7853SOL    HW124458   2.092   2.075   0.170
 7853SOL    HW224459   1.932   2.102   0.188
 7854SOL     OW24460   4.080   3.872   4.259
 7854SOL    HW124461   4.143   3.939   4.219
 7854SOL    HW224462   3.988   3.911   4.262
 7855SOL     OW24463   2.836   0.319   4.499
 7855SOL    HW124464   2.818   0.221   4.484
 7855SOL    HW224465   2.931   0.338   4.478
 7856SOL     OW24466   2.956   3.175   7.016
 7856SOL    HW124467   2.926   3.268   6.994
 7856SOL    HW224468   2.919   3.111   6.947
 7857SOL     OW24469   0.432   3.061   4.901
 7857SOL    HW124470   0.456   3.007   4.981
 7857SOL    HW224471   0.515   3.087   4.852
 7858SOL     OW24472   5.171   3.333   2.916
 7858SOL    HW124473   5.138   3.250   2.870
 7858SOL    HW224474   5.199   3.400   2.847
 7859SOL     OW24475   0.346   6.970   0.822
 7859SOL    HW124476   0.291   6.977   0.738
 7859SOL    HW224477   0.300   7.020   0.896
 7860SOL     OW24478   4.912   6.391   1.076
 7860SOL    HW124479   4.997   6.425   1.037
 7860SOL    HW224480   4.930   6.308   1.129
 7861SOL     OW24481   5.865   3.735   0.383
 7861SOL    HW124482   5.901   3.746   0.476
 7861SOL    HW224483   5.931   3.683   0.329
 7862SOL     OW24484   3.018   4.646   1.659
 7862SOL    HW124485   2.979   4.584   1.727
 7862SOL    HW224486   3.057   4.725   1.706
 7863SOL     OW24487   4.363   6.170   2.649
 7863SOL    HW124488   4.423   6.109   2.598
 7863SOL    HW224489   4.381   6.160   2.747
 7864SOL     OW24490   1.181   5.559   5.407
 7864SOL    HW124491   1.147   5.569   5.501
 7864SOL    HW224492   1.133   5.623   5.347
 7865SOL     OW24493   4.519   0.590   3.313
 7865SOL    HW124494   4.529   0.672   3.257
 7865SOL    HW224495   4.515   0.617   3.410
 7866SOL     OW24496   2.636   2.149   5.902
 7866SOL    HW124497   2.690   2.066   5.885
 7866SOL    HW224498   2.676   2.226   5.851
 7867SOL     OW24499   5.975   3.700   1.338
 7867SOL    HW124500   5.907   3.628   1.349
 7867SOL    HW224501   5.932   3.781   1.299
 7868SOL     OW24502   4.449   0.009   0.372
 7868SOL    HW124503   4.431   6.948   0.326
 7868SOL    HW224504   4.526   0.055   0.327
 7869SOL     OW24505   6.167   1.785   4.207
 7869SOL    HW124506   6.073   1.807   4.181
 7869SOL    HW224507   6.223   1.772   4.125
 7870SOL     OW24508   6.422   0.539   3.036
 7870SOL    HW124509   6.465   0.493   3.114
 7870SOL    HW224510   6.334   0.496   3.016
 7871SOL     OW24511   5.341   3.218   4.289
 7871SOL    HW124512   5.411   3.151   4.265
 7871SOL    HW224513   5.382   3.294   4.339
 7872SOL     OW24514   7.014   4.503   4.202
 7872SOL    HW124515   0.067   4.442   4.196
 7872SOL    HW224516   6.936   4.452   4.237
 7873SOL     OW24517   7.007   5.528   4.356
 7873SOL    HW124518   0.035   5.609   4.378
 7873SOL    HW224519   6.933   5.518   4.422
 7874SOL     OW24520   6.051   0.073   0.087
 7874SOL    HW124521   6.139   0.120   0.094
 7874SOL    HW224522   6.040   0.011   0.164
 7875SOL     OW24523   4.897   3.526   0.386
 7875SOL    HW124524   4.950   3.447   0.354
 7875SOL    HW224525   4.829   3.550   0.318
 7876SOL     OW24526   0.599   1.716   4.825
 7876SOL    HW124527   0.664   1.708   4.902
 7876SOL    HW224528   0.650   1.716   4.739
 7877SOL     OW24529   5.958   3.811   2.450
 7877SOL    HW124530   5.992   3.772   2.365
 7877SOL    HW224531   5.869   3.770   2.472
 7878SOL     OW24532   3.585   4.051   1.285
 7878SOL    HW124533   3.513   4.007   1.339
 7878SOL    HW224534   3.564   4.043   1.188
 7879SOL     OW24535   6.792   1.070   5.114
 7879SOL    HW124536   6.780   1.092   5.017
 7879SOL    HW224537   6.886   1.040   5.130
 7880SOL     OW24538   1.578   6.123   6.500
 7880SOL    HW124539   1.529   6.075   6.573
 7880SOL    HW224540   1.625   6.057   6.441
 7881SOL     OW24541   0.992   5.417   4.746
 7881SOL    HW124542   1.026   5.333   4.788
 7881SOL    HW224543   0.916   5.395   4.685
 7882SOL     OW24544   1.618   4.783   1.447
 7882SOL    HW124545   1.525   4.816   1.464
 7882SOL    HW224546   1.680   4.820   1.515
 7883SOL     OW24547   3.282   1.787   2.250
 7883SOL    HW124548   3.261   1.883   2.269
 7883SOL    HW224549   3.291   1.774   2.152
 7884SOL     OW24550   0.975   2.803   4.759
 7884SOL    HW124551   0.967   2.722   4.700
 7884SOL    HW224552   0.984   2.773   4.854
 7885SOL     OW24553   6.250   5.533   2.236
 7885SOL    HW124554   6.191   5.502   2.311
 7885SOL    HW224555   6.288   5.622   2.258
 7886SOL     OW24556   3.989   4.853   2.600
 7886SOL    HW124557   3.969   4.812   2.511
 7886SOL    HW224558   4.073   4.813   2.638
 7887SOL     OW24559   0.669   3.380   0.750
 7887SOL    HW124560   0.696   3.326   0.670
 7887SOL    HW224561   0.724   3.353   0.829
 7888SOL     OW24562   6.692   1.529   5.277
 7888SOL    HW124563   6.636   1.544   5.195
 7888SOL    HW224564   6.752   1.607   5.291
 7889SOL     OW24565   5.315   5.368   0.398
 7889SOL    HW124566   5.291   5.350   0.303
 7889SOL    HW224567   5.238   5.345   0.457
 7890SOL     OW24568   2.281   2.847   3.053
 7890SOL    HW124569   2.258   2.933   3.008
 7890SOL    HW224570   2.268   2.771   2.989
 7891SOL     OW24571   6.499   1.434   4.558
 7891SOL    HW124572   6.422   1.477   4.608
 7891SOL    HW224573   6.491   1.455   4.461
 7892SOL     OW24574   1.288   2.077   4.806
 7892SOL    HW124575   1.309   1.990   4.850
 7892SOL    HW224576   1.371   2.112   4.760
 7893SOL     OW24577   5.843   6.391   1.194
 7893SOL    HW124578   5.847   6.452   1.115
 7893SOL    HW224579   5.914   6.418   1.260
 7894SOL     OW24580   3.144   0.823   6.198
 7894SOL    HW124581   3.115   0.891   6.265
 7894SOL    HW224582   3.067   0.762   6.177
 7895SOL     OW24583   6.129   6.329   3.258
 7895SOL    HW124584   6.151   6.384   3.339
 7895SOL    HW224585   6.050   6.271   3.278
 7896SOL     OW24586   2.483   1.839   0.508
 7896SOL    HW124587   2.395   1.885   0.503
 7896SOL    HW224588   2.469   1.742   0.529
 7897SOL     OW24589   4.796   1.206   1.307
 7897SOL    HW124590   4.785   1.143   1.230
 7897SOL    HW224591   4.734   1.283   1.296
 7898SOL     OW24592   4.696   6.377   3.146
 7898SOL    HW124593   4.650   6.301   3.101
 7898SOL    HW224594   4.795   6.370   3.132
 7899SOL     OW24595   6.131   4.276   2.944
 7899SOL    HW124596   6.119   4.197   3.004
 7899SOL    HW224597   6.044   4.300   2.902
 7900SOL     OW24598   0.172   3.590   0.361
 7900SOL    HW124599   0.100   3.603   0.292
 7900SOL    HW224600   0.213   3.678   0.384
 7901SOL     OW24601   0.248   2.322   0.168
 7901SOL    HW124602   0.211   2.359   0.253
 7901SOL    HW224603   0.337   2.279   0.185
 7902SOL     OW24604   1.817   0.213   0.992
 7902SOL    HW124605   1.749   0.208   0.919
 7902SOL    HW224606   1.773   0.196   1.080
 7903SOL     OW24607   3.136   2.054   5.409
 7903SOL    HW124608   3.155   1.983   5.477
 7903SOL    HW224609   3.219   2.108   5.395
 7904SOL     OW24610   4.916   3.271   2.645
 7904SOL    HW124611   4.901   3.363   2.682
 7904SOL    HW224612   4.979   3.277   2.567
 7905SOL     OW24613   6.231   2.045   1.455
 7905SOL    HW124614   6.260   1.955   1.423
 7905SOL    HW224615   6.206   2.040   1.552
 7906SOL     OW24616   0.482   5.526   6.588
 7906SOL    HW124617   0.503   5.587   6.665
 7906SOL    HW224618   0.421   5.454   6.618
 7907SOL     OW24619   5.915   6.185   3.323
 7907SOL    HW124620   5.865   6.129   3.389
 7907SOL    HW224621   5.887   6.280   3.333
 7908SOL     OW24622   2.081   0.348   6.217
 7908SOL    HW124623   1.996   0.299   6.236
 7908SOL    HW224624   2.104   0.339   6.121
 7909SOL     OW24625   6.813   3.211   1.572
 7909SOL    HW124626   6.867   3.252   1.499
 7909SOL    HW224627   6.779   3.122   1.542
 7910SOL     OW24628   1.766   4.756   4.997
 7910SOL    HW124629   1.725   4.810   5.070
 7910SOL    HW224630   1.832   4.692   5.035
 7911SOL     OW24631   5.873   4.577   5.890
 7911SOL    HW124632   5.775   4.575   5.870
 7911SOL    HW224633   5.901   4.489   5.928
 7912SOL     OW24634   5.829   5.912   0.831
 7912SOL    HW124635   5.897   5.889   0.762
 7912SOL    HW224636   5.835   6.010   0.852
 7913SOL     OW24637   1.472   4.936   6.765
 7913SOL    HW124638   1.525   4.864   6.810
 7913SOL    HW224639   1.531   4.986   6.702
 7914SOL     OW24640   1.088   6.948   4.673
 7914SOL    HW124641   1.056   6.952   4.767
 7914SOL    HW224642   1.129   0.011   4.648
 7915SOL     OW24643   2.788   5.097   2.223
 7915SOL    HW124644   2.745   5.163   2.285
 7915SOL    HW224645   2.733   5.014   2.220
 7916SOL     OW24646   1.157   0.331   3.742
 7916SOL    HW124647   1.178   0.429   3.752
 7916SOL    HW224648   1.210   0.279   3.809
 7917SOL     OW24649   4.876   2.108   2.778
 7917SOL    HW124650   4.973   2.130   2.775
 7917SOL    HW224651   4.829   2.154   2.703
 7918SOL     OW24652   1.628   3.189   2.660
 7918SOL    HW124653   1.721   3.223   2.676
 7918SOL    HW224654   1.616   3.102   2.707
 7919SOL     OW24655   0.909   6.821   5.140
 7919SOL    HW124656   0.980   6.889   5.121
 7919SOL    HW224657   0.826   6.868   5.169
 7920SOL     OW24658   5.141   0.111   1.024
 7920SOL    HW124659   5.072   0.049   1.062
 7920SOL    HW224660   5.191   0.063   0.952
 7921SOL     OW24661   5.295   3.022   0.643
 7921SOL    HW124662   5.265   3.086   0.571
 7921SOL    HW224663   5.218   2.963   0.668
 7922SOL     OW24664   2.500   0.305   2.598
 7922SOL    HW124665   2.497   0.274   2.504
 7922SOL    HW224666   2.407   0.327   2.629
 7923SOL     OW24667   4.461   0.817   0.616
 7923SOL    HW124668   4.480   0.774   0.705
 7923SOL    HW224669   4.423   0.908   0.631
 7924SOL     OW24670   5.902   6.074   0.212
 7924SOL    HW124671   5.928   5.992   0.163
 7924SOL    HW224672   5.914   6.060   0.310
 7925SOL     OW24673   1.409   4.572   6.234
 7925SOL    HW124674   1.454   4.491   6.197
 7925SOL    HW224675   1.310   4.555   6.241
 7926SOL     OW24676   5.297   5.763   5.246
 7926SOL    HW124677   5.371   5.811   5.200
 7926SOL    HW224678   5.306   5.773   5.345
 7927SOL     OW24679   4.752   0.032   3.354
 7927SOL    HW124680   4.672   7.003   3.378
 7927SOL    HW224681   4.775   0.017   3.258
 7928SOL     OW24682   5.893   2.244   4.004
 7928SOL    HW124683   5.810   2.298   3.987
 7928SOL    HW224684   5.882   2.193   4.089
 7929SOL     OW24685   4.862   4.253   5.796
 7929SOL    HW124686   4.765   4.276   5.803
 7929SOL    HW224687   4.916   4.336   5.809
 7930SOL     OW24688   4.199   5.815   0.077
 7930SOL    HW124689   4.156   5.762   0.150
 7930SOL    HW224690   4.298   5.816   0.089
 7931SOL     OW24691   5.084   1.344   0.702
 7931SOL    HW124692   5.020   1.413   0.668
 7931SOL    HW224693   5.162   1.337   0.639
 7932SOL     OW24694   1.227   3.685   1.182
 7932SOL    HW124695   1.196   3.601   1.137
 7932SOL    HW224696   1.185   3.691   1.273
 7933SOL     OW24697   1.127   1.828   0.339
 7933SOL    HW124698   1.113   1.805   0.435
 7933SOL    HW224699   1.087   1.918   0.321
 7934SOL     OW24700   6.912   5.395   0.862
 7934SOL    HW124701   6.871   5.432   0.779
 7934SOL    HW224702   6.866   5.310   0.888
 7935SOL     OW24703   6.562   3.106   3.055
 7935SOL    HW124704   6.474   3.060   3.062
 7935SOL    HW224705   6.630   3.058   3.109
 7936SOL     OW24706   2.471   6.495   3.141
 7936SOL    HW124707   2.415   6.425   3.097
 7936SOL    HW224708   2.524   6.454   3.215
 7937SOL     OW24709   4.288   1.279   1.234
 7937SOL    HW124710   4.269   1.375   1.217
 7937SOL    HW224711   4.382   1.269   1.265
 7938SOL     OW24712   2.341   6.931   3.245
 7938SOL    HW124713   2.251   6.901   3.277
 7938SOL    HW224714   2.383   6.858   3.191
 7939SOL     OW24715   1.887   0.561   2.579
 7939SOL    HW124716   1.865   0.629   2.648
 7939SOL    HW224717   1.806   0.544   2.522
 7940SOL     OW24718   6.292   1.690   5.305
 7940SOL    HW124719   6.378   1.662   5.348
 7940SOL    HW224720   6.260   1.616   5.246
 7941SOL     OW24721   3.398   6.945   0.822
 7941SOL    HW124722   3.400   6.845   0.826
 7941SOL    HW224723   3.434   6.983   0.907
 7942SOL     OW24724   1.234   4.298   0.794
 7942SOL    HW124725   1.333   4.313   0.802
 7942SOL    HW224726   1.194   4.367   0.734
 7943SOL     OW24727   1.514   5.910   6.670
 7943SOL    HW124728   1.563   5.845   6.612
 7943SOL    HW224729   1.426   5.870   6.696
 7944SOL     OW24730   1.727   1.733   1.390
 7944SOL    HW124731   1.661   1.674   1.437
 7944SOL    HW224732   1.813   1.684   1.378
 7945SOL     OW24733   6.603   3.183   2.795
 7945SOL    HW124734   6.661   3.107   2.766
 7945SOL    HW224735   6.594   3.182   2.895
 7946SOL     OW24736   4.212   1.284   6.155
 7946SOL    HW124737   4.303   1.265   6.118
 7946SOL    HW224738   4.143   1.262   6.087
 7947SOL     OW24739   0.085   3.325   6.012
 7947SOL    HW124740   0.137   3.336   6.096
 7947SOL    HW224741   0.145   3.341   5.933
 7948SOL     OW24742   1.241   5.952   0.547
 7948SOL    HW124743   1.290   5.865   0.551
 7948SOL    HW224744   1.291   6.016   0.488
 7949SOL     OW24745   2.855   5.692   5.664
 7949SOL    HW124746   2.871   5.620   5.596
 7949SOL    HW224747   2.898   5.777   5.633
 7950SOL     OW24748   6.693   4.032   5.460
 7950SOL    HW124749   6.758   3.958   5.441
 7950SOL    HW224750   6.656   4.021   5.552
 7951SOL     OW24751   4.012   0.144   2.812
 7951SOL    HW124752   3.934   0.135   2.749
 7951SOL    HW224753   4.025   0.057   2.861
 7952SOL     OW24754   6.531   3.224   5.090
 7952SOL    HW124755   6.615   3.269   5.061
 7952SOL    HW224756   6.454   3.260   5.037
 7953SOL     OW24757   1.943   6.944   0.415
 7953SOL    HW124758   2.034   6.947   0.457
 7953SOL    HW224759   1.879   6.999   0.470
 7954SOL     OW24760   3.354   2.955   0.147
 7954SOL    HW124761   3.443   3.000   0.163
 7954SOL    HW224762   3.351   2.869   0.198
 7955SOL     OW24763   0.472   1.282   6.701
 7955SOL    HW124764   0.504   1.295   6.607
 7955SOL    HW224765   0.480   1.185   6.726
 7956SOL     OW24766   0.489   0.292   0.383
 7956SOL    HW124767   0.481   0.391   0.371
 7956SOL    HW224768   0.470   0.269   0.479
 7957SOL     OW24769   5.354   1.341   5.838
 7957SOL    HW124770   5.274   1.316   5.784
 7957SOL    HW224771   5.369   1.272   5.910
 7958SOL     OW24772   4.586   2.215   0.138
 7958SOL    HW124773   4.683   2.189   0.131
 7958SOL    HW224774   4.572   2.303   0.092
 7959SOL     OW24775   4.963   3.011   6.877
 7959SOL    HW124776   4.969   3.107   6.850
 7959SOL    HW224777   4.943   2.955   6.796
 7960SOL     OW24778   1.060   1.818   4.997
 7960SOL    HW124779   1.086   1.790   4.905
 7960SOL    HW224780   1.086   1.914   5.011
 7961SOL     OW24781   5.991   0.225   0.550
 7961SOL    HW124782   5.965   0.226   0.647
 7961SOL    HW224783   5.931   0.162   0.500
 7962SOL     OW24784   6.020   6.445   4.601
 7962SOL    HW124785   6.030   6.487   4.691
 7962SOL    HW224786   5.935   6.477   4.559
 7963SOL     OW24787   5.888   6.020   3.103
 7963SOL    HW124788   5.908   6.058   3.013
 7963SOL    HW224789   5.893   6.093   3.172
 7964SOL     OW24790   6.744   3.555   1.492
 7964SOL    HW124791   6.687   3.508   1.425
 7964SOL    HW224792   6.773   3.489   1.562
 7965SOL     OW24793   5.047   1.622   6.588
 7965SOL    HW124794   5.044   1.678   6.505
 7965SOL    HW224795   5.038   1.526   6.564
 7966SOL     OW24796   6.076   3.327   5.196
 7966SOL    HW124797   5.982   3.340   5.164
 7966SOL    HW224798   6.105   3.234   5.176
 7967SOL     OW24799   1.689   4.505   0.964
 7967SOL    HW124800   1.751   4.453   1.023
 7967SOL    HW224801   1.635   4.568   1.020
 7968SOL     OW24802   2.139   2.564   3.724
 7968SOL    HW124803   2.130   2.653   3.680
 7968SOL    HW224804   2.048   2.526   3.742
 7969SOL     OW24805   3.285   4.693   6.104
 7969SOL    HW124806   3.273   4.766   6.172
 7969SOL    HW224807   3.293   4.605   6.150
 7970SOL     OW24808   6.270   2.990   3.814
 7970SOL    HW124809   6.299   3.086   3.811
 7970SOL    HW224810   6.211   2.971   3.735
 7971SOL     OW24811   3.335   0.792   6.611
 7971SOL    HW124812   3.376   0.752   6.528
 7971SOL    HW224813   3.236   0.786   6.604
 7972SOL     OW24814   4.036   3.705   4.489
 7972SOL    HW124815   4.008   3.779   4.550
 7972SOL    HW224816   4.068   3.744   4.402
 7973SOL     OW24817   6.815   5.113   1.900
 7973SOL    HW124818   6.800   5.209   1.875
 7973SOL    HW224819   6.732   5.061   1.885
 7974SOL     OW24820   0.587   3.571   5.040
 7974SOL    HW124821   0.670   3.547   5.090
 7974SOL    HW224822   0.593   3.536   4.947
 7975SOL     OW24823   4.245   0.001   6.894
 7975SOL    HW124824   4.333   0.046   6.911
 7975SOL    HW224825   4.261   6.932   6.867
 7976SOL     OW24826   0.790   0.652   0.269
 7976SOL    HW124827   0.783   0.581   0.200
 7976SOL    HW224828   0.759   0.617   0.357
 7977SOL     OW24829   5.053   5.436   2.562
 7977SOL    HW124830   5.031   5.356   2.506
 7977SOL    HW224831   4.982   5.505   2.551
 7978SOL     OW24832   0.180   3.974   1.596
 7978SOL    HW124833   0.223   4.063   1.580
 7978SOL    HW224834   0.154   3.934   1.508
 7979SOL     OW24835   2.798   2.447   5.289
 7979SOL    HW124836   2.802   2.543   5.319
 7979SOL    HW224837   2.708   2.409   5.311
 7980SOL     OW24838   3.491   5.337   1.870
 7980SOL    HW124839   3.433   5.283   1.931
 7980SOL    HW224840   3.533   5.277   1.802
 7981SOL     OW24841   1.378   3.363   4.533
 7981SOL    HW124842   1.397   3.430   4.605
 7981SOL    HW224843   1.423   3.277   4.556
 7982SOL     OW24844   6.920   0.767   0.102
 7982SOL    HW124845   6.912   0.776   0.201
 7982SOL    HW224846   6.847   0.819   0.058
 7983SOL     OW24847   3.555   1.058   1.799
 7983SOL    HW124848   3.592   1.149   1.819
 7983SOL    HW224849   3.482   1.065   1.731
 7984SOL     OW24850   6.546   2.498   3.026
 7984SOL    HW124851   6.589   2.455   2.946
 7984SOL    HW224852   6.597   2.580   3.051
 7985SOL     OW24853   2.894   3.340   5.588
 7985SOL    HW124854   2.835   3.265   5.618
 7985SOL    HW224855   2.867   3.368   5.496
 7986SOL     OW24856   3.662   0.926   3.745
 7986SOL    HW124857   3.724   0.953   3.818
 7986SOL    HW224858   3.623   1.008   3.702
 7987SOL     OW24859   1.084   3.102   6.279
 7987SOL    HW124860   1.099   3.058   6.368
 7987SOL    HW224861   0.988   3.124   6.268
 7988SOL     OW24862   6.227   0.558   1.306
 7988SOL    HW124863   6.218   0.510   1.218
 7988SOL    HW224864   6.176   0.644   1.301
 7989SOL     OW24865   0.500   4.759   1.684
 7989SOL    HW124866   0.534   4.853   1.688
 7989SOL    HW224867   0.439   4.749   1.605
 7990SOL     OW24868   4.415   5.017   5.013
 7990SOL    HW124869   4.363   5.024   5.098
 7990SOL    HW224870   4.360   4.971   4.943
 7991SOL     OW24871   5.486   0.584   4.522
 7991SOL    HW124872   5.527   0.493   4.522
 7991SOL    HW224873   5.494   0.623   4.430
 7992SOL     OW24874   1.977   0.766   0.108
 7992SOL    HW124875   1.972   0.676   0.065
 7992SOL    HW224876   2.016   0.831   0.043
 7993SOL     OW24877   6.588   6.398   0.690
 7993SOL    HW124878   6.512   6.353   0.738
 7993SOL    HW224879   6.614   6.480   0.741
 7994SOL     OW24880   0.456   0.931   4.650
 7994SOL    HW124881   0.484   0.975   4.564
 7994SOL    HW224882   0.484   0.835   4.648
 7995SOL     OW24883   0.496   5.841   1.425
 7995SOL    HW124884   0.563   5.767   1.438
 7995SOL    HW224885   0.404   5.804   1.431
 7996SOL     OW24886   1.979   6.698   3.840
 7996SOL    HW124887   1.940   6.737   3.757
 7996SOL    HW224888   1.914   6.633   3.880
 7997SOL     OW24889   2.342   1.621   5.960
 7997SOL    HW124890   2.293   1.647   6.043
 7997SOL    HW224891   2.285   1.559   5.906
 7998SOL     OW24892   1.876   0.836   1.116
 7998SOL    HW124893   1.962   0.786   1.123
 7998SOL    HW224894   1.865   0.894   1.197
 7999SOL     OW24895   0.286   0.496   2.900
 7999SOL    HW124896   0.308   0.593   2.906
 7999SOL    HW224897   0.216   0.473   2.967
 8000SOL     OW24898   4.083   5.919   0.771
 8000SOL    HW124899   4.059   5.924   0.675
 8000SOL    HW224900   4.148   5.845   0.786
 8001SOL     OW24901   4.876   4.290   1.727
 8001SOL    HW124902   4.930   4.374   1.735
 8001SOL    HW224903   4.779   4.314   1.724
 8002SOL     OW24904   1.135   0.581   4.807
 8002SOL    HW124905   1.190   0.575   4.723
 8002SOL    HW224906   1.146   0.672   4.847
 8003SOL     OW24907   2.533   5.376   3.309
 8003SOL    HW124908   2.495   5.287   3.282
 8003SOL    HW224909   2.596   5.362   3.386
 8004SOL     OW24910   2.171   3.280   3.857
 8004SOL    HW124911   2.173   3.299   3.759
 8004SOL    HW224912   2.201   3.361   3.907
 8005SOL     OW24913   2.680   0.058   4.102
 8005SOL    HW124914   2.651   6.991   4.078
 8005SOL    HW224915   2.620   0.094   4.172
 8006SOL     OW24916   4.864   5.431   6.075
 8006SOL    HW124917   4.877   5.499   6.147
 8006SOL    HW224918   4.769   5.433   6.043
 8007SOL     OW24919   6.982   0.369   0.764
 8007SOL    HW124920   6.953   0.286   0.810
 8007SOL    HW224921   6.921   0.388   0.687
 8008SOL     OW24922   4.687   4.738   1.012
 8008SOL    HW124923   4.600   4.709   0.971
 8008SOL    HW224924   4.725   4.662   1.064
 8009SOL     OW24925   6.701   1.138   1.766
 8009SOL    HW124926   6.735   1.164   1.676
 8009SOL    HW224927   6.758   1.178   1.837
 8010SOL     OW24928   3.413   0.539   5.968
 8010SOL    HW124929   3.390   0.634   5.949
 8010SOL    HW224930   3.380   0.514   6.059
 8011SOL     OW24931   3.846   2.139   2.591
 8011SOL    HW124932   3.748   2.158   2.588
 8011SOL    HW224933   3.892   2.191   2.519
 8012SOL     OW24934   6.395   0.771   4.752
 8012SOL    HW124935   6.305   0.729   4.764
 8012SOL    HW224936   6.387   0.851   4.692
 8013SOL     OW24937   3.827   0.199   3.162
 8013SOL    HW124938   3.807   0.171   3.069
 8013SOL    HW224939   3.846   0.119   3.218
 8014SOL     OW24940   2.460   2.598   3.432
 8014SOL    HW124941   2.539   2.572   3.377
 8014SOL    HW224942   2.404   2.663   3.381
 8015SOL     OW24943   3.180   5.958   4.606
 8015SOL    HW124944   3.081   5.950   4.590
 8015SOL    HW224945   3.219   6.022   4.540
 8016SOL     OW24946   3.276   2.865   5.587
 8016SOL    HW124947   3.237   2.773   5.589
 8016SOL    HW224948   3.203   2.932   5.603
 8017SOL     OW24949   6.186   6.406   1.033
 8017SOL    HW124950   6.231   6.388   1.121
 8017SOL    HW224951   6.178   6.505   1.021
 8018SOL     OW24952   2.837   3.749   0.906
 8018SOL    HW124953   2.926   3.717   0.876
 8018SOL    HW224954   2.829   3.847   0.892
 8019SOL     OW24955   2.354   3.582   0.593
 8019SOL    HW124956   2.307   3.630   0.667
 8019SOL    HW224957   2.452   3.603   0.596
 8020SOL     OW24958   0.243   0.265   6.843
 8020SOL    HW124959   0.293   0.278   6.928
 8020SOL    HW224960   0.231   0.354   6.798
 8021SOL     OW24961   1.064   3.155   0.605
 8021SOL    HW124962   1.066   3.152   0.705
 8021SOL    HW224963   0.995   3.091   0.571
 8022SOL     OW24964   4.201   0.070   2.361
 8022SOL    HW124965   4.180   0.059   2.458
 8022SOL    HW224966   4.285   0.124   2.351
 8023SOL     OW24967   4.101   5.093   2.212
 8023SOL    HW124968   4.050   5.012   2.240
 8023SOL    HW224969   4.192   5.091   2.253
 8024SOL     OW24970   2.510   1.095   6.486
 8024SOL    HW124971   2.578   1.153   6.441
 8024SOL    HW224972   2.542   1.001   6.487
 8025SOL     OW24973   1.097   6.551   1.432
 8025SOL    HW124974   1.083   6.623   1.363
 8025SOL    HW224975   1.017   6.491   1.434
 8026SOL     OW24976   0.885   6.760   6.321
 8026SOL    HW124977   0.972   6.785   6.279
 8026SOL    HW224978   0.882   6.794   6.414
 8027SOL     OW24979   4.445   0.132   6.587
 8027SOL    HW124980   4.403   0.221   6.566
 8027SOL    HW224981   4.399   0.060   6.536
 8028SOL     OW24982   3.669   5.943   6.316
 8028SOL    HW124983   3.690   6.040   6.307
 8028SOL    HW224984   3.752   5.889   6.298
 8029SOL     OW24985   0.729   6.895   1.849
 8029SOL    HW124986   0.729   6.881   1.948
 8029SOL    HW224987   0.705   6.990   1.829
 8030SOL     OW24988   0.700   4.025   1.181
 8030SOL    HW124989   0.743   4.087   1.116
 8030SOL    HW224990   0.771   3.975   1.231
 8031SOL     OW24991   6.701   0.155   2.790
 8031SOL    HW124992   6.685   0.233   2.729
 8031SOL    HW224993   6.783   0.107   2.761
 8032SOL     OW24994   0.208   3.154   0.682
 8032SOL    HW124995   0.282   3.171   0.746
 8032SOL    HW224996   0.195   3.234   0.623
 8033SOL     OW24997   3.439   4.515   1.357
 8033SOL    HW124998   3.463   4.599   1.309
 8033SOL    HW224999   3.424   4.535   1.454
 8034SOL     OW25000   0.840   0.489   5.564
 8034SOL    HW125001   0.798   0.552   5.498
 8034SOL    HW225002   0.854   0.537   5.651
 8035SOL     OW25003   5.982   6.996   4.528
 8035SOL    HW125004   5.892   6.952   4.534
 8035SOL    HW225005   6.031   6.981   4.614
 8036SOL     OW25006   4.751   4.082   3.818
 8036SOL    HW125007   4.771   4.037   3.731
 8036SOL    HW225008   4.776   4.022   3.893
 8037SOL     OW25009   2.652   1.723   6.344
 8037SOL    HW125010   2.660   1.667   6.261
 8037SOL    HW225011   2.727   1.701   6.407
 8038SOL     OW25012   6.345   5.693   1.906
 8038SOL    HW125013   6.441   5.713   1.922
 8038SOL    HW225014   6.329   5.682   1.807
 8039SOL     OW25015   1.995   2.663   4.879
 8039SOL    HW125016   2.042   2.621   4.956
 8039SOL    HW225017   1.972   2.758   4.901
 8040SOL     OW25018   0.942   6.485   6.084
 8040SOL    HW125019   0.929   6.401   6.031
 8040SOL    HW225020   1.033   6.522   6.066
 8041SOL     OW25021   3.034   1.398   2.941
 8041SOL    HW125022   3.118   1.422   2.893
 8041SOL    HW225023   3.037   1.302   2.969
 8042SOL     OW25024   3.838   3.986   5.981
 8042SOL    HW125025   3.823   4.085   5.970
 8042SOL    HW225026   3.771   3.948   6.044
 8043SOL     OW25027   5.132   4.892   0.004
 8043SOL    HW125028   5.123   4.956   6.954
 8043SOL    HW225029   5.111   4.938   0.090
 8044SOL     OW25030   1.257   3.029   1.428
 8044SOL    HW125031   1.338   3.035   1.369
 8044SOL    HW225032   1.229   3.121   1.455
 8045SOL     OW25033   6.118   3.434   5.466
 8045SOL    HW125034   6.107   3.404   5.371
 8045SOL    HW225035   6.142   3.532   5.467
 8046SOL     OW25036   0.170   4.008   0.973
 8046SOL    HW125037   0.261   4.033   1.005
 8046SOL    HW225038   0.143   3.921   1.015
 8047SOL     OW25039   3.227   6.626   6.651
 8047SOL    HW125040   3.158   6.699   6.646
 8047SOL    HW225041   3.183   6.540   6.675
 8048SOL     OW25042   4.041   1.808   6.687
 8048SOL    HW125043   3.975   1.831   6.758
 8048SOL    HW225044   4.010   1.727   6.637
 8049SOL     OW25045   2.037   1.146   0.988
 8049SOL    HW125046   2.039   1.070   0.923
 8049SOL    HW225047   1.942   1.173   1.004
 8050SOL     OW25048   0.025   5.682   6.043
 8050SOL    HW125049   0.032   5.583   6.051
 8050SOL    HW225050   0.091   5.725   6.104
 8051SOL     OW25051   4.558   6.487   2.757
 8051SOL    HW125052   4.482   6.441   2.803
 8051SOL    HW225053   4.632   6.421   2.741
 8052SOL     OW25054   3.259   1.460   3.293
 8052SOL    HW125055   3.188   1.517   3.251
 8052SOL    HW225056   3.224   1.420   3.378
 8053SOL     OW25057   0.838   2.458   6.116
 8053SOL    HW125058   0.851   2.455   6.017
 8053SOL    HW225059   0.756   2.512   6.137
 8054SOL     OW25060   5.074   3.762   5.339
 8054SOL    HW125061   5.107   3.830   5.404
 8054SOL    HW225062   5.138   3.756   5.262
 8055SOL     OW25063   6.501   0.079   6.911
 8055SOL    HW125064   6.496   0.033   6.999
 8055SOL    HW225065   6.458   0.169   6.917
 8056SOL     OW25066   2.601   1.804   3.738
 8056SOL    HW125067   2.664   1.860   3.685
 8056SOL    HW225068   2.651   1.728   3.780
 8057SOL     OW25069   3.110   2.080   2.069
 8057SOL    HW125070   3.164   2.067   1.986
 8057SOL    HW225071   3.064   2.168   2.066
 8058SOL     OW25072   3.711   6.200   1.541
 8058SOL    HW125073   3.663   6.287   1.533
 8058SOL    HW225074   3.696   6.162   1.632
 8059SOL     OW25075   3.988   3.051   5.833
 8059SOL    HW125076   3.963   3.082   5.925
 8059SOL    HW225077   3.976   3.126   5.769
 8060SOL     OW25078   0.590   0.805   5.766
 8060SOL    HW125079   0.674   0.821   5.714
 8060SOL    HW225080   0.605   0.825   5.862
 8061SOL     OW25081   0.012   0.907   1.861
 8061SOL    HW125082   0.046   1.001   1.868
 8061SOL    HW225083   0.056   0.862   1.784
 8062SOL     OW25084   4.497   5.066   5.960
 8062SOL    HW125085   4.425   5.120   5.916
 8062SOL    HW225086   4.569   5.046   5.894
 8063SOL     OW25087   2.283   4.538   2.897
 8063SOL    HW125088   2.327   4.563   2.983
 8063SOL    HW225089   2.267   4.621   2.843
 8064SOL     OW25090   0.136   2.915   0.795
 8064SOL    HW125091   0.174   2.990   0.741
 8064SOL    HW225092   0.157   2.930   0.892
 8065SOL     OW25093   4.668   0.208   6.480
 8065SOL    HW125094   4.717   0.245   6.559
 8065SOL    HW225095   4.578   0.176   6.508
 8066SOL     OW25096   0.160   0.550   6.039
 8066SOL    HW125097   0.127   0.476   5.979
 8066SOL    HW225098   0.082   0.601   6.074
 8067SOL     OW25099   5.116   0.706   4.429
 8067SOL    HW125100   5.180   0.756   4.370
 8067SOL    HW225101   5.163   0.678   4.512
 8068SOL     OW25102   6.669   4.033   1.763
 8068SOL    HW125103   6.762   4.019   1.729
 8068SOL    HW225104   6.604   3.989   1.701
 8069SOL     OW25105   1.513   2.553   2.220
 8069SOL    HW125106   1.436   2.571   2.281
 8069SOL    HW225107   1.576   2.488   2.263
 8070SOL     OW25108   4.930   3.572   1.155
 8070SOL    HW125109   4.838   3.562   1.118
 8070SOL    HW225110   4.995   3.520   1.098
 8071SOL     OW25111   2.900   0.428   5.781
 8071SOL    HW125112   2.836   0.502   5.758
 8071SOL    HW225113   2.974   0.426   5.713
 8072SOL     OW25114   2.146   2.256   5.909
 8072SOL    HW125115   2.183   2.163   5.910
 8072SOL    HW225116   2.121   2.281   5.816
 8073SOL     OW25117   5.577   0.390   6.270
 8073SOL    HW125118   5.595   0.299   6.232
 8073SOL    HW225119   5.517   0.381   6.350
 8074SOL     OW25120   6.484   0.689   0.582
 8074SOL    HW125121   6.434   0.628   0.643
 8074SOL    HW225122   6.579   0.697   0.612
 8075SOL     OW25123   0.487   0.490   1.226
 8075SOL    HW125124   0.519   0.522   1.137
 8075SOL    HW225125   0.389   0.472   1.223
 8076SOL     OW25126   6.602   6.237   0.463
 8076SOL    HW125127   6.601   6.299   0.541
 8076SOL    HW225128   6.681   6.176   0.470
 8077SOL     OW25129   5.782   4.191   1.222
 8077SOL    HW125130   5.812   4.130   1.295
 8077SOL    HW225131   5.850   4.262   1.207
 8078SOL     OW25132   6.411   1.211   1.750
 8078SOL    HW125133   6.371   1.268   1.821
 8078SOL    HW225134   6.509   1.200   1.768
 8079SOL     OW25135   0.533   0.785   6.923
 8079SOL    HW125136   0.532   0.722   6.845
 8079SOL    HW225137   0.530   0.879   6.889
 8080SOL     OW25138   1.554   3.863   3.617
 8080SOL    HW125139   1.619   3.915   3.562
 8080SOL    HW225140   1.486   3.925   3.656
 8081SOL     OW25141   6.262   0.251   5.660
 8081SOL    HW125142   6.191   0.305   5.613
 8081SOL    HW225143   6.244   0.251   5.758
 8082SOL     OW25144   4.356   2.270   4.672
 8082SOL    HW125145   4.328   2.180   4.638
 8082SOL    HW225146   4.319   2.284   4.764
 8083SOL     OW25147   6.645   2.751   4.399
 8083SOL    HW125148   6.739   2.764   4.369
 8083SOL    HW225149   6.583   2.804   4.341
 8084SOL     OW25150   5.414   1.636   6.592
 8084SOL    HW125151   5.481   1.645   6.666
 8084SOL    HW225152   5.342   1.704   6.604
 8085SOL     OW25153   1.502   6.063   4.424
 8085SOL    HW125154   1.470   6.136   4.364
 8085SOL    HW225155   1.495   5.975   4.377
 8086SOL     OW25156   0.075   2.385   2.390
 8086SOL    HW125157   0.121   2.368   2.477
 8086SOL    HW225158   7.013   2.429   2.407
 8087SOL     OW25159   6.821   1.007   6.638
 8087SOL    HW125160   6.885   0.955   6.582
 8087SOL    HW225161   6.870   1.045   6.717
 8088SOL     OW25162   0.452   6.783   5.385
 8088SOL    HW125163   0.380   6.778   5.316
 8088SOL    HW225164   0.448   6.872   5.430
 8089SOL     OW25165   6.704   1.765   6.925
 8089SOL    HW125166   6.608   1.736   6.933
 8089SOL    HW225167   6.727   1.827   7.000
 8090SOL     OW25168   4.492   2.440   5.151
 8090SOL    HW125169   4.406   2.462   5.106
 8090SOL    HW225170   4.556   2.516   5.139
 8091SOL     OW25171   0.277   3.858   4.717
 8091SOL    HW125172   0.370   3.827   4.695
 8091SOL    HW225173   0.211   3.804   4.665
 8092SOL     OW25174   4.961   0.308   5.924
 8092SOL    HW125175   4.920   0.375   5.986
 8092SOL    HW225176   5.054   0.286   5.955
 8093SOL     OW25177   2.876   6.413   3.535
 8093SOL    HW125178   2.937   6.412   3.614
 8093SOL    HW225179   2.929   6.431   3.452
 8094SOL     OW25180   2.105   3.842   4.253
 8094SOL    HW125181   2.169   3.911   4.287
 8094SOL    HW225182   2.119   3.830   4.155
 8095SOL     OW25183   1.207   5.239   5.104
 8095SOL    HW125184   1.254   5.327   5.112
 8095SOL    HW225185   1.163   5.216   5.190
 8096SOL     OW25186   0.650   5.140   1.166
 8096SOL    HW125187   0.646   5.215   1.100
 8096SOL    HW225188   0.596   5.063   1.132
 8097SOL     OW25189   4.810   6.346   6.759
 8097SOL    HW125190   4.757   6.276   6.711
 8097SOL    HW225191   4.830   6.316   6.852
 8098SOL     OW25192   2.514   6.060   4.753
 8098SOL    HW125193   2.453   6.007   4.694
 8098SOL    HW225194   2.596   6.006   4.773
 8099SOL     OW25195   2.329   4.252   2.546
 8099SOL    HW125196   2.329   4.181   2.616
 8099SOL    HW225197   2.325   4.209   2.455
 8100SOL     OW25198   0.071   0.111   0.352
 8100SOL    HW125199   0.049   0.208   0.365
 8100SOL    HW225200   0.116   0.099   0.263
 8101SOL     OW25201   1.921   5.623   0.590
 8101SOL    HW125202   1.959   5.694   0.649
 8101SOL    HW225203   1.952   5.637   0.496
 8102SOL     OW25204   0.830   4.585   4.550
 8102SOL    HW125205   0.753   4.534   4.589
 8102SOL    HW225206   0.914   4.532   4.558
 8103SOL     OW25207   4.411   0.739   1.637
 8103SOL    HW125208   4.462   0.819   1.670
 8103SOL    HW225209   4.385   0.682   1.715
 8104SOL     OW25210   1.196   5.375   6.617
 8104SOL    HW125211   1.158   5.342   6.531
 8104SOL    HW225212   1.177   5.310   6.689
 8105SOL     OW25213   6.949   6.749   3.136
 8105SOL    HW125214   6.895   6.803   3.200
 8105SOL    HW225215   6.979   6.665   3.181
 8106SOL     OW25216   2.799   6.840   6.185
 8106SOL    HW125217   2.757   6.847   6.094
 8106SOL    HW225218   2.773   6.753   6.227
 8107SOL     OW25219   0.892   6.743   0.300
 8107SOL    HW125220   0.902   6.795   0.215
 8107SOL    HW225221   0.967   6.766   0.363
 8108SOL     OW25222   1.545   1.472   0.585
 8108SOL    HW125223   1.541   1.495   0.488
 8108SOL    HW225224   1.462   1.423   0.611
 8109SOL     OW25225   6.880   3.474   2.205
 8109SOL    HW125226   6.793   3.450   2.247
 8109SOL    HW225227   6.880   3.446   2.109
 8110SOL     OW25228   4.339   4.412   0.543
 8110SOL    HW125229   4.275   4.460   0.604
 8110SOL    HW225230   4.290   4.382   0.461
 8111SOL     OW25231   6.114   1.542   2.276
 8111SOL    HW125232   6.173   1.618   2.249
 8111SOL    HW225233   6.148   1.502   2.361
 8112SOL     OW25234   1.792   5.267   6.342
 8112SOL    HW125235   1.857   5.251   6.268
 8112SOL    HW225236   1.814   5.353   6.387
 8113SOL     OW25237   5.063   5.160   6.522
 8113SOL    HW125238   5.145   5.105   6.508
 8113SOL    HW225239   5.085   5.256   6.508
 8114SOL     OW25240   2.117   3.561   2.744
 8114SOL    HW125241   2.070   3.649   2.740
 8114SOL    HW225242   2.113   3.517   2.654
 8115SOL     OW25243   2.190   1.706   6.178
 8115SOL    HW125244   2.228   1.696   6.270
 8115SOL    HW225245   2.127   1.784   6.176
 8116SOL     OW25246   4.109   3.215   2.303
 8116SOL    HW125247   4.193   3.163   2.283
 8116SOL    HW225248   4.031   3.170   2.261
 8117SOL     OW25249   1.532   6.884   4.101
 8117SOL    HW125250   1.515   6.973   4.059
 8117SOL    HW225251   1.616   6.845   4.064
 8118SOL     OW25252   6.646   2.681   6.735
 8118SOL    HW125253   6.687   2.753   6.679
 8118SOL    HW225254   6.709   2.655   6.808
 8119SOL     OW25255   5.119   5.714   6.369
 8119SOL    HW125256   5.217   5.729   6.355
 8119SOL    HW225257   5.106   5.635   6.429
 8120SOL     OW25258   2.252   6.342   2.852
 8120SOL    HW125259   2.233   6.357   2.949
 8120SOL    HW225260   2.172   6.367   2.799
 8121SOL     OW25261   1.907   2.610   2.661
 8121SOL    HW125262   1.853   2.531   2.689
 8121SOL    HW225263   1.946   2.654   2.742
 8122SOL     OW25264   0.832   4.568   1.355
 8122SOL    HW125265   0.893   4.629   1.305
 8122SOL    HW225266   0.849   4.576   1.453
 8123SOL     OW25267   7.003   1.908   6.610
 8123SOL    HW125268   6.994   1.920   6.511
 8123SOL    HW225269   6.915   1.925   6.654
 8124SOL     OW25270   6.445   6.331   5.579
 8124SOL    HW125271   6.449   6.420   5.624
 8124SOL    HW225272   6.523   6.275   5.608
 8125SOL     OW25273   0.788   5.617   1.658
 8125SOL    HW125274   0.803   5.545   1.726
 8125SOL    HW225275   0.713   5.676   1.687
 8126SOL     OW25276   3.366   5.570   4.859
 8126SOL    HW125277   3.367   5.472   4.879
 8126SOL    HW225278   3.375   5.584   4.761
 8127SOL     OW25279   3.832   1.729   6.249
 8127SOL    HW125280   3.811   1.662   6.320
 8127SOL    HW225281   3.855   1.681   6.164
 8128SOL     OW25282   3.362   3.496   1.169
 8128SOL    HW125283   3.457   3.513   1.194
 8128SOL    HW225284   3.354   3.406   1.126
 8129SOL     OW25285   0.530   2.436   3.495
 8129SOL    HW125286   0.558   2.377   3.571
 8129SOL    HW225287   0.605   2.499   3.473
 8130SOL     OW25288   6.679   6.293   6.808
 8130SOL    HW125289   6.757   6.285   6.746
 8130SOL    HW225290   6.669   6.388   6.838
 8131SOL     OW25291   1.345   2.155   1.037
 8131SOL    HW125292   1.277   2.082   1.047
 8131SOL    HW225293   1.417   2.125   0.974
 8132SOL     OW25294   6.310   1.560   4.750
 8132SOL    HW125295   6.365   1.531   4.828
 8132SOL    HW225296   6.314   1.659   4.741
 8133SOL     OW25297   3.717   5.373   1.605
 8133SOL    HW125298   3.709   5.277   1.579
 8133SOL    HW225299   3.634   5.422   1.580
 8134SOL     OW25300   5.960   2.246   6.165
 8134SOL    HW125301   5.995   2.163   6.122
 8134SOL    HW225302   6.036   2.296   6.206
 8135SOL     OW25303   2.173   6.623   1.979
 8135SOL    HW125304   2.267   6.657   1.990
 8135SOL    HW225305   2.160   6.543   2.038
 8136SOL     OW25306   4.513   4.437   2.358
 8136SOL    HW125307   4.486   4.502   2.287
 8136SOL    HW225308   4.549   4.354   2.316
 8137SOL     OW25309   4.630   1.403   6.087
 8137SOL    HW125310   4.580   1.489   6.102
 8137SOL    HW225311   4.701   1.418   6.018
 8138SOL     OW25312   5.392   0.871   2.121
 8138SOL    HW125313   5.342   0.936   2.179
 8138SOL    HW225314   5.448   0.811   2.178
 8139SOL     OW25315   0.651   1.357   3.978
 8139SOL    HW125316   0.574   1.293   3.988
 8139SOL    HW225317   0.651   1.396   3.886
 8140SOL     OW25318   5.353   2.866   3.152
 8140SOL    HW125319   5.376   2.822   3.239
 8140SOL    HW225320   5.342   2.964   3.166
 8141SOL     OW25321   6.154   3.705   3.946
 8141SOL    HW125322   6.110   3.635   3.888
 8141SOL    HW225323   6.189   3.778   3.888
 8142SOL     OW25324   0.086   6.582   0.076
 8142SOL    HW125325   0.120   6.508   0.017
 8142SOL    HW225326   0.057   6.659   0.020
 8143SOL     OW25327   6.503   2.784   5.367
 8143SOL    HW125328   6.418   2.812   5.324
 8143SOL    HW225329   6.569   2.859   5.365
 8144SOL     OW25330   4.996   6.221   6.955
 8144SOL    HW125331   5.011   6.236   0.027
 8144SOL    HW225332   5.069   6.265   6.903
 8145SOL     OW25333   4.397   6.468   3.504
 8145SOL    HW125334   4.384   6.528   3.425
 8145SOL    HW225335   4.471   6.404   3.485
 8146SOL     OW25336   3.466   1.764   4.292
 8146SOL    HW125337   3.515   1.836   4.340
 8146SOL    HW225338   3.383   1.740   4.341
 8147SOL     OW25339   5.413   1.133   3.229
 8147SOL    HW125340   5.364   1.217   3.253
 8147SOL    HW225341   5.383   1.059   3.288
 8148SOL     OW25342   0.055   4.256   2.794
 8148SOL    HW125343   7.003   4.312   2.822
 8148SOL    HW225344   0.120   4.249   2.870
 8149SOL     OW25345   3.312   5.485   3.784
 8149SOL    HW125346   3.402   5.496   3.740
 8149SOL    HW225347   3.311   5.535   3.870
 8150SOL     OW25348   1.170   6.627   1.004
 8150SOL    HW125349   1.265   6.598   1.012
 8150SOL    HW225350   1.129   6.585   0.923
 8151SOL     OW25351   0.495   1.272   4.581
 8151SOL    HW125352   0.452   1.200   4.527
 8151SOL    HW225353   0.474   1.257   4.678
 8152SOL     OW25354   0.802   0.496   3.424
 8152SOL    HW125355   0.867   0.500   3.348
 8152SOL    HW225356   0.791   0.401   3.455
 8153SOL     OW25357   2.057   6.498   0.226
 8153SOL    HW125358   2.131   6.519   0.163
 8153SOL    HW225359   2.046   6.574   0.290
 8154SOL     OW25360   1.996   6.595   2.914
 8154SOL    HW125361   2.089   6.631   2.921
 8154SOL    HW225362   1.980   6.529   2.987
 8155SOL     OW25363   2.987   3.581   4.784
 8155SOL    HW125364   3.078   3.568   4.744
 8155SOL    HW225365   2.987   3.663   4.841
 8156SOL     OW25366   0.005   0.484   5.630
 8156SOL    HW125367   6.978   0.568   5.635
 8156SOL    HW225368   0.098   0.504   5.602
 8157SOL     OW25369   5.845   1.991   6.653
 8157SOL    HW125370   5.825   1.894   6.668
 8157SOL    HW225371   5.944   2.005   6.658
 8158SOL     OW25372   1.040   5.464   2.429
 8158SOL    HW125373   0.954   5.425   2.463
 8158SOL    HW225374   1.030   5.486   2.332
 8159SOL     OW25375   0.573   5.736   0.716
 8159SOL    HW125376   0.648   5.765   0.776
 8159SOL    HW225377   0.584   5.639   0.695
 8160SOL     OW25378   4.393   1.741   1.830
 8160SOL    HW125379   4.438   1.736   1.919
 8160SOL    HW225380   4.300   1.706   1.837
 8161SOL     OW25381   4.095   3.205   1.253
 8161SOL    HW125382   4.042   3.120   1.258
 8161SOL    HW225383   4.178   3.189   1.200
 8162SOL     OW25384   5.981   0.831   1.705
 8162SOL    HW125385   5.901   0.808   1.760
 8162SOL    HW225386   5.951   0.858   1.613
 8163SOL     OW25387   1.952   3.168   5.541
 8163SOL    HW125388   2.002   3.219   5.471
 8163SOL    HW225389   1.875   3.222   5.574
 8164SOL     OW25390   4.613   3.648   1.677
 8164SOL    HW125391   4.658   3.737   1.663
 8164SOL    HW225392   4.680   3.582   1.709
 8165SOL     OW25393   2.034   4.607   1.661
 8165SOL    HW125394   2.046   4.542   1.736
 8165SOL    HW225395   2.068   4.697   1.689
 8166SOL     OW25396   3.847   6.775   1.492
 8166SOL    HW125397   3.753   6.744   1.506
 8166SOL    HW225398   3.887   6.727   1.414
 8167SOL     OW25399   5.468   2.700   4.604
 8167SOL    HW125400   5.380   2.714   4.648
 8167SOL    HW225401   5.466   2.614   4.552
 8168SOL     OW25402   2.653   2.152   2.641
 8168SOL    HW125403   2.623   2.177   2.549
 8168SOL    HW225404   2.702   2.229   2.682
 8169SOL     OW25405   5.361   3.943   4.990
 8169SOL    HW125406   5.314   3.886   5.058
 8169SOL    HW225407   5.306   3.947   4.907
 8170SOL     OW25408   1.854   5.024   4.032
 8170SOL    HW125409   1.840   5.118   4.002
 8170SOL    HW225410   1.881   4.967   3.954
 8171SOL     OW25411   1.464   1.058   6.653
 8171SOL    HW125412   1.371   1.073   6.686
 8171SOL    HW225413   1.462   1.006   6.567
 8172SOL     OW25414   0.276   5.938   1.192
 8172SOL    HW125415   0.281   5.850   1.239
 8172SOL    HW225416   0.272   6.011   1.261
 8173SOL     OW25417   5.853   3.272   0.453
 8173SOL    HW125418   5.769   3.253   0.402
 8173SOL    HW225419   5.833   3.332   0.530
 8174SOL     OW25420   5.352   6.303   2.432
 8174SOL    HW125421   5.348   6.205   2.450
 8174SOL    HW225422   5.432   6.323   2.374
 8175SOL     OW25423   2.008   2.562   4.006
 8175SOL    HW125424   2.045   2.651   3.979
 8175SOL    HW225425   1.909   2.562   3.990
 8176SOL     OW25426   3.911   5.780   3.497
 8176SOL    HW125427   3.945   5.705   3.441
 8176SOL    HW225428   3.955   5.778   3.587
 8177SOL     OW25429   1.680   6.345   6.138
 8177SOL    HW125430   1.678   6.343   6.038
 8177SOL    HW225431   1.605   6.290   6.174
 8178SOL     OW25432   2.395   6.604   5.888
 8178SOL    HW125433   2.459   6.530   5.867
 8178SOL    HW225434   2.430   6.659   5.963
 8179SOL     OW25435   3.888   0.341   0.348
 8179SOL    HW125436   3.797   0.368   0.318
 8179SOL    HW225437   3.956   0.379   0.286
 8180SOL     OW25438   5.023   4.541   5.229
 8180SOL    HW125439   4.955   4.476   5.264
 8180SOL    HW225440   5.028   4.533   5.130
 8181SOL     OW25441   2.632   2.458   2.310
 8181SOL    HW125442   2.691   2.377   2.309
 8181SOL    HW225443   2.654   2.516   2.232
 8182SOL     OW25444   5.368   2.760   5.787
 8182SOL    HW125445   5.383   2.734   5.691
 8182SOL    HW225446   5.278   2.802   5.797
 8183SOL     OW25447   2.118   3.046   3.190
 8183SOL    HW125448   2.157   2.969   3.141
 8183SOL    HW225449   2.058   3.098   3.130
 8184SOL     OW25450   6.081   5.852   4.494
 8184SOL    HW125451   6.115   5.900   4.575
 8184SOL    HW225452   6.067   5.918   4.420
 8185SOL     OW25453   1.161   2.334   3.322
 8185SOL    HW125454   1.137   2.415   3.375
 8185SOL    HW225455   1.260   2.321   3.324
 8186SOL     OW25456   4.341   4.058   6.644
 8186SOL    HW125457   4.311   4.002   6.722
 8186SOL    HW225458   4.275   4.132   6.629
 8187SOL     OW25459   2.104   1.836   5.883
 8187SOL    HW125460   2.139   1.753   5.840
 8187SOL    HW225461   2.040   1.882   5.821
 8188SOL     OW25462   4.838   2.954   2.410
 8188SOL    HW125463   4.835   2.881   2.479
 8188SOL    HW225464   4.864   3.040   2.454
 8189SOL     OW25465   6.799   5.150   2.758
 8189SOL    HW125466   6.747   5.235   2.763
 8189SOL    HW225467   6.875   5.152   2.823
 8190SOL     OW25468   6.404   3.497   2.438
 8190SOL    HW125469   6.389   3.596   2.427
 8190SOL    HW225470   6.395   3.473   2.534
 8191SOL     OW25471   6.188   5.220   1.479
 8191SOL    HW125472   6.136   5.208   1.564
 8191SOL    HW225473   6.176   5.139   1.422
 8192SOL     OW25474   1.327   2.420   0.925
 8192SOL    HW125475   1.348   2.392   0.832
 8192SOL    HW225476   1.344   2.343   0.987
 8193SOL     OW25477   3.901   6.801   5.544
 8193SOL    HW125478   3.834   6.854   5.595
 8193SOL    HW225479   3.919   6.846   5.456
 8194SOL     OW25480   1.838   1.071   2.683
 8194SOL    HW125481   1.836   1.117   2.595
 8194SOL    HW225482   1.904   1.116   2.743
 8195SOL     OW25483   5.643   1.610   1.668
 8195SOL    HW125484   5.559   1.604   1.723
 8195SOL    HW225485   5.662   1.706   1.648
 8196SOL     OW25486   1.726   1.000   0.559
 8196SOL    HW125487   1.666   0.931   0.519
 8196SOL    HW225488   1.672   1.067   0.610
 8197SOL     OW25489   0.637   6.965   0.829
 8197SOL    HW125490   0.548   6.943   0.788
 8197SOL    HW225491   0.632   0.027   0.875
 8198SOL     OW25492   3.480   0.627   2.932
 8198SOL    HW125493   3.425   0.707   2.908
 8198SOL    HW225494   3.569   0.634   2.887
 8199SOL     OW25495   5.619   4.776   1.208
 8199SOL    HW125496   5.648   4.729   1.124
 8199SOL    HW225497   5.672   4.741   1.285
 8200SOL     OW25498   4.180   3.618   1.860
 8200SOL    HW125499   4.242   3.561   1.806
 8200SOL    HW225500   4.193   3.714   1.836
 8201SOL     OW25501   0.743   1.368   5.309
 8201SOL    HW125502   0.812   1.434   5.339
 8201SOL    HW225503   0.686   1.409   5.239
 8202SOL     OW25504   1.677   3.484   4.777
 8202SOL    HW125505   1.689   3.391   4.812
 8202SOL    HW225506   1.738   3.499   4.699
 8203SOL     OW25507   6.253   4.430   6.760
 8203SOL    HW125508   6.266   4.362   6.688
 8203SOL    HW225509   6.262   4.522   6.721
 8204SOL     OW25510   3.567   0.282   0.664
 8204SOL    HW125511   3.505   0.359   0.657
 8204SOL    HW225512   3.532   0.205   0.611
 8205SOL     OW25513   4.422   6.678   3.323
 8205SOL    HW125514   4.339   6.664   3.270
 8205SOL    HW225515   4.502   6.667   3.263
 8206SOL     OW25516   3.678   1.831   4.788
 8206SOL    HW125517   3.624   1.781   4.720
 8206SOL    HW225518   3.774   1.832   4.761
 8207SOL     OW25519   3.033   6.143   6.933
 8207SOL    HW125520   3.090   6.061   6.931
 8207SOL    HW225521   3.008   6.169   6.839
 8208SOL     OW25522   2.071   5.882   0.434
 8208SOL    HW125523   2.096   5.803   0.378
 8208SOL    HW225524   2.150   5.910   0.488
 8209SOL     OW25525   0.668   5.291   5.610
 8209SOL    HW125526   0.625   5.308   5.521
 8209SOL    HW225527   0.671   5.377   5.662
 8210SOL     OW25528   2.579   1.161   0.746
 8210SOL    HW125529   2.552   1.171   0.650
 8210SOL    HW225530   2.660   1.103   0.752
 8211SOL     OW25531   3.504   4.135   3.507
 8211SOL    HW125532   3.604   4.141   3.510
 8211SOL    HW225533   3.473   4.076   3.582
 8212SOL     OW25534   4.446   4.843   6.518
 8212SOL    HW125535   4.425   4.754   6.559
 8212SOL    HW225536   4.545   4.860   6.526
 8213SOL     OW25537   4.589   4.350   1.669
 8213SOL    HW125538   4.550   4.309   1.752
 8213SOL    HW225539   4.521   4.346   1.595
 8214SOL     OW25540   3.871   5.522   3.738
 8214SOL    HW125541   3.915   5.433   3.725
 8214SOL    HW225542   3.784   5.524   3.690
 8215SOL     OW25543   2.756   6.323   6.305
 8215SOL    HW125544   2.711   6.354   6.389
 8215SOL    HW225545   2.777   6.226   6.312
 8216SOL     OW25546   4.968   5.534   0.807
 8216SOL    HW125547   4.927   5.443   0.815
 8216SOL    HW225548   4.912   5.600   0.857
 8217SOL     OW25549   3.323   6.536   3.543
 8217SOL    HW125550   3.258   6.461   3.546
 8217SOL    HW225551   3.288   6.609   3.485
 8218SOL     OW25552   1.817   6.751   4.262
 8218SOL    HW125553   1.843   6.788   4.173
 8218SOL    HW225554   1.727   6.709   4.257
 8219SOL     OW25555   3.695   3.347   3.285
 8219SOL    HW125556   3.641   3.268   3.257
 8219SOL    HW225557   3.788   3.338   3.250
 8220SOL     OW25558   4.454   4.137   5.592
 8220SOL    HW125559   4.361   4.170   5.581
 8220SOL    HW225560   4.470   4.060   5.530
 8221SOL     OW25561   6.663   3.768   4.065
 8221SOL    HW125562   6.693   3.702   3.996
 8221SOL    HW225563   6.728   3.769   4.141
 8222SOL     OW25564   5.469   2.399   6.109
 8222SOL    HW125565   5.542   2.384   6.176
 8222SOL    HW225566   5.380   2.385   6.152
 8223SOL     OW25567   1.184   6.239   5.666
 8223SOL    HW125568   1.212   6.285   5.751
 8223SOL    HW225569   1.090   6.263   5.645
 8224SOL     OW25570   5.845   1.078   5.977
 8224SOL    HW125571   5.766   1.077   5.915
 8224SOL    HW225572   5.822   1.127   6.061
 8225SOL     OW25573   6.021   2.640   0.084
 8225SOL    HW125574   6.068   2.652   7.023
 8225SOL    HW225575   6.072   2.576   0.141
 8226SOL     OW25576   3.928   1.136   6.886
 8226SOL    HW125577   3.970   1.115   6.974
 8226SOL    HW225578   3.831   1.110   6.889
 8227SOL     OW25579   5.231   3.432   2.603
 8227SOL    HW125580   5.250   3.366   2.530
 8227SOL    HW225581   5.158   3.494   2.574
 8228SOL     OW25582   3.168   1.220   4.679
 8228SOL    HW125583   3.192   1.123   4.683
 8228SOL    HW225584   3.093   1.233   4.614
 8229SOL     OW25585   4.129   4.766   1.029
 8229SOL    HW125586   4.146   4.801   0.936
 8229SOL    HW225587   4.137   4.666   1.028
 8230SOL     OW25588   6.132   0.708   6.052
 8230SOL    HW125589   6.059   0.765   6.013
 8230SOL    HW225590   6.210   0.766   6.076
 8231SOL     OW25591   3.297   1.746   1.974
 8231SOL    HW125592   3.207   1.707   1.959
 8231SOL    HW225593   3.363   1.672   1.994
 8232SOL     OW25594   4.113   6.581   3.539
 8232SOL    HW125595   4.111   6.513   3.465
 8232SOL    HW225596   4.174   6.549   3.612
 8233SOL     OW25597   2.582   1.390   6.414
 8233SOL    HW125598   2.553   1.384   6.510
 8233SOL    HW225599   2.502   1.406   6.356
 8234SOL     OW25600   1.110   2.759   6.900
 8234SOL    HW125601   1.173   2.777   6.824
 8234SOL    HW225602   1.018   2.747   6.865
 8235SOL     OW25603   0.450   6.691   1.343
 8235SOL    HW125604   0.423   6.602   1.306
 8235SOL    HW225605   0.471   6.682   1.440
 8236SOL     OW25606   0.930   0.214   1.035
 8236SOL    HW125607   0.996   0.236   0.964
 8236SOL    HW225608   0.978   0.186   1.118
 8237SOL     OW25609   4.223   5.312   5.376
 8237SOL    HW125610   4.125   5.333   5.377
 8237SOL    HW225611   4.261   5.324   5.467
 8238SOL     OW25612   6.563   5.344   0.235
 8238SOL    HW125613   6.499   5.334   0.311
 8238SOL    HW225614   6.592   5.440   0.229
 8239SOL     OW25615   4.887   2.046   4.897
 8239SOL    HW125616   4.911   1.951   4.915
 8239SOL    HW225617   4.795   2.051   4.859
 8240SOL     OW25618   3.577   3.607   5.075
 8240SOL    HW125619   3.544   3.527   5.125
 8240SOL    HW225620   3.505   3.677   5.074
 8241SOL     OW25621   1.199   2.916   5.439
 8241SOL    HW125622   1.177   2.923   5.342
 8241SOL    HW225623   1.290   2.877   5.450
 8242SOL     OW25624   0.328   2.636   3.512
 8242SOL    HW125625   0.281   2.634   3.424
 8242SOL    HW225626   0.405   2.571   3.509
 8243SOL     OW25627   1.227   6.123   3.496
 8243SOL    HW125628   1.305   6.104   3.557
 8243SOL    HW225629   1.241   6.210   3.450
 8244SOL     OW25630   5.758   1.116   3.764
 8244SOL    HW125631   5.826   1.043   3.766
 8244SOL    HW225632   5.702   1.108   3.681
 8245SOL     OW25633   5.513   3.609   2.103
 8245SOL    HW125634   5.450   3.532   2.089
 8245SOL    HW225635   5.473   3.692   2.064
 8246SOL     OW25636   1.976   4.476   6.476
 8246SOL    HW125637   2.011   4.382   6.469
 8246SOL    HW225638   1.876   4.475   6.482
 8247SOL     OW25639   2.265   4.680   3.629
 8247SOL    HW125640   2.271   4.708   3.725
 8247SOL    HW225641   2.224   4.590   3.623
 8248SOL     OW25642   6.982   6.167   2.757
 8248SOL    HW125643   0.042   6.117   2.769
 8248SOL    HW225644   6.983   6.249   2.814
 8249SOL     OW25645   3.014   0.520   6.110
 8249SOL    HW125646   3.058   0.543   6.197
 8249SOL    HW225647   3.021   0.422   6.095
 8250SOL     OW25648   1.304   1.572   0.257
 8250SOL    HW125649   1.401   1.557   0.274
 8250SOL    HW225650   1.274   1.656   0.303
 8251SOL     OW25651   1.304   2.189   6.243
 8251SOL    HW125652   1.257   2.101   6.252
 8251SOL    HW225653   1.344   2.196   6.151
 8252SOL     OW25654   0.498   1.999   7.025
 8252SOL    HW125655   0.456   1.909   7.008
 8252SOL    HW225656   0.566   2.018   6.954
 8253SOL     OW25657   6.242   4.769   6.009
 8253SOL    HW125658   6.242   4.770   5.909
 8253SOL    HW225659   6.168   4.827   6.043
 8254SOL     OW25660   5.240   4.920   6.739
 8254SOL    HW125661   5.170   4.885   6.676
 8254SOL    HW225662   5.287   4.997   6.696
 8255SOL     OW25663   1.665   7.004   5.921
 8255SOL    HW125664   1.594   0.019   5.978
 8255SOL    HW225665   1.711   6.931   5.972
 8256SOL     OW25666   1.250   5.787   2.851
 8256SOL    HW125667   1.189   5.823   2.780
 8256SOL    HW225668   1.240   5.688   2.856
 8257SOL     OW25669   4.785   3.986   3.565
 8257SOL    HW125670   4.730   3.903   3.565
 8257SOL    HW225671   4.877   3.965   3.530
 8258SOL     OW25672   0.488   3.845   4.016
 8258SOL    HW125673   0.562   3.870   4.077
 8258SOL    HW225674   0.416   3.799   4.068
 8259SOL     OW25675   5.560   2.759   4.078
 8259SOL    HW125676   5.466   2.747   4.111
 8259SOL    HW225677   5.593   2.849   4.104
 8260SOL     OW25678   4.721   2.074   6.441
 8260SOL    HW125679   4.752   2.002   6.503
 8260SOL    HW225680   4.641   2.119   6.480
 8261SOL     OW25681   5.823   2.167   2.926
 8261SOL    HW125682   5.780   2.243   2.877
 8261SOL    HW225683   5.886   2.204   2.995
 8262SOL     OW25684   4.833   3.653   1.974
 8262SOL    HW125685   4.796   3.571   1.930
 8262SOL    HW225686   4.774   3.731   1.953
 8263SOL     OW25687   6.281   1.456   6.962
 8263SOL    HW125688   6.203   1.503   7.005
 8263SOL    HW225689   6.248   1.391   6.894
 8264SOL     OW25690   3.179   0.936   1.508
 8264SOL    HW125691   3.244   1.006   1.536
 8264SOL    HW225692   3.086   0.967   1.528
 8265SOL     OW25693   4.435   5.794   0.347
 8265SOL    HW125694   4.520   5.819   0.301
 8265SOL    HW225695   4.392   5.718   0.297
 8266SOL     OW25696   4.827   2.356   3.142
 8266SOL    HW125697   4.732   2.381   3.161
 8266SOL    HW225698   4.881   2.361   3.227
 8267SOL     OW25699   1.944   3.212   3.013
 8267SOL    HW125700   2.015   3.276   2.983
 8267SOL    HW225701   1.892   3.252   3.088
 8268SOL     OW25702   2.518   5.216   1.619
 8268SOL    HW125703   2.571   5.219   1.704
 8268SOL    HW225704   2.514   5.307   1.578
 8269SOL     OW25705   6.751   1.340   4.408
 8269SOL    HW125706   6.681   1.282   4.367
 8269SOL    HW225707   6.835   1.287   4.422
 8270SOL     OW25708   3.563   4.538   0.331
 8270SOL    HW125709   3.497   4.537   0.256
 8270SOL    HW225710   3.650   4.574   0.298
 8271SOL     OW25711   3.210   6.939   5.329
 8271SOL    HW125712   3.162   6.916   5.244
 8271SOL    HW225713   3.178   6.879   5.403
 8272SOL     OW25714   0.948   0.541   2.023
 8272SOL    HW125715   0.992   0.572   1.939
 8272SOL    HW225716   1.014   0.489   2.078
 8273SOL     OW25717   4.564   6.817   5.810
 8273SOL    HW125718   4.520   6.839   5.723
 8273SOL    HW225719   4.663   6.818   5.800
 8274SOL     OW25720   5.451   6.730   3.745
 8274SOL    HW125721   5.460   6.822   3.706
 8274SOL    HW225722   5.354   6.712   3.766
 8275SOL     OW25723   4.836   0.896   4.668
 8275SOL    HW125724   4.740   0.890   4.696
 8275SOL    HW225725   4.852   0.833   4.592
 8276SOL     OW25726   5.799   2.653   0.905
 8276SOL    HW125727   5.829   2.742   0.873
 8276SOL    HW225728   5.839   2.635   0.995
 8277SOL     OW25729   1.540   0.198   1.577
 8277SOL    HW125730   1.567   0.112   1.620
 8277SOL    HW225731   1.465   0.239   1.628
 8278SOL     OW25732   1.453   0.688   1.322
 8278SOL    HW125733   1.532   0.652   1.273
 8278SOL    HW225734   1.453   0.788   1.318
 8279SOL     OW25735   5.766   5.098   5.572
 8279SOL    HW125736   5.853   5.053   5.554
 8279SOL    HW225737   5.740   5.082   5.668
 8280SOL     OW25738   6.028   4.095   6.872
 8280SOL    HW125739   5.965   4.050   6.808
 8280SOL    HW225740   6.111   4.041   6.880
 8281SOL     OW25741   3.256   4.818   6.625
 8281SOL    HW125742   3.212   4.904   6.597
 8281SOL    HW225743   3.346   4.811   6.581
 8282SOL     OW25744   4.064   2.866   1.055
 8282SOL    HW125745   3.985   2.927   1.049
 8282SOL    HW225746   4.051   2.788   0.993
 8283SOL     OW25747   0.884   1.042   3.298
 8283SOL    HW125748   0.981   1.020   3.296
 8283SOL    HW225749   0.830   0.958   3.288
 8284SOL     OW25750   5.029   2.095   1.874
 8284SOL    HW125751   4.997   2.060   1.963
 8284SOL    HW225752   5.007   2.192   1.867
 8285SOL     OW25753   0.560   4.832   0.359
 8285SOL    HW125754   0.580   4.757   0.296
 8285SOL    HW225755   0.640   4.892   0.365
 8286SOL     OW25756   6.589   1.774   6.523
 8286SOL    HW125757   6.631   1.695   6.478
 8286SOL    HW225758   6.525   1.818   6.460
 8287SOL     OW25759   0.310   0.412   3.252
 8287SOL    HW125760   0.330   0.509   3.258
 8287SOL    HW225761   0.227   0.398   3.198
 8288SOL     OW25762   2.972   0.199   2.420
 8288SOL    HW125763   3.051   0.138   2.423
 8288SOL    HW225764   2.935   0.211   2.512
 8289SOL     OW25765   5.997   6.964   0.343
 8289SOL    HW125766   6.043   6.992   0.427
 8289SOL    HW225767   5.898   6.960   0.359
 8290SOL     OW25768   5.094   2.796   2.091
 8290SOL    HW125769   5.143   2.711   2.111
 8290SOL    HW225770   5.000   2.788   2.125
 8291SOL     OW25771   5.171   5.788   5.605
 8291SOL    HW125772   5.080   5.798   5.644
 8291SOL    HW225773   5.231   5.744   5.671
 8292SOL     OW25774   6.934   3.919   5.351
 8292SOL    HW125775   6.972   3.882   5.266
 8292SOL    HW225776   6.967   3.866   5.429
 8293SOL     OW25777   2.673   5.609   4.256
 8293SOL    HW125778   2.602   5.599   4.326
 8293SOL    HW225779   2.711   5.702   4.260
 8294SOL     OW25780   6.821   3.352   6.314
 8294SOL    HW125781   6.870   3.432   6.349
 8294SOL    HW225782   6.887   3.285   6.279
 8295SOL     OW25783   4.281   5.313   1.907
 8295SOL    HW125784   4.242   5.404   1.895
 8295SOL    HW225785   4.212   5.244   1.888
 8296SOL     OW25786   3.803   0.314   2.416
 8296SOL    HW125787   3.877   0.376   2.441
 8296SOL    HW225788   3.787   0.320   2.317
 8297SOL     OW25789   5.438   4.422   1.941
 8297SOL    HW125790   5.376   4.501   1.939
 8297SOL    HW225791   5.415   4.360   1.867
 8298SOL     OW25792   6.990   6.835   0.961
 8298SOL    HW125793   6.977   6.844   1.059
 8298SOL    HW225794   0.003   6.920   0.924
 8299SOL     OW25795   0.990   2.720   6.309
 8299SOL    HW125796   1.069   2.756   6.359
 8299SOL    HW225797   1.022   2.664   6.233
 8300SOL     OW25798   5.092   5.639   3.734
 8300SOL    HW125799   5.167   5.704   3.746
 8300SOL    HW225800   5.129   5.548   3.717
 8301SOL     OW25801   6.549   5.600   0.292
 8301SOL    HW125802   6.479   5.641   0.351
 8301SOL    HW225803   6.593   5.672   0.238
 8302SOL     OW25804   3.793   6.575   5.934
 8302SOL    HW125805   3.751   6.662   5.911
 8302SOL    HW225806   3.722   6.504   5.938
 8303SOL     OW25807   1.380   5.211   3.664
 8303SOL    HW125808   1.466   5.214   3.714
 8303SOL    HW225809   1.316   5.276   3.705
 8304SOL     OW25810   5.634   2.872   3.534
 8304SOL    HW125811   5.600   2.907   3.622
 8304SOL    HW225812   5.569   2.895   3.462
 8305SOL     OW25813   4.634   6.863   5.429
 8305SOL    HW125814   4.615   6.874   5.332
 8305SOL    HW225815   4.553   6.889   5.482
 8306SOL     OW25816   4.948   1.110   4.014
 8306SOL    HW125817   5.033   1.131   3.964
 8306SOL    HW225818   4.882   1.183   3.999
 8307SOL     OW25819   0.005   4.965   4.082
 8307SOL    HW125820   7.013   4.885   4.140
 8307SOL    HW225821   6.946   4.993   4.037
 8308SOL     OW25822   2.021   5.274   0.222
 8308SOL    HW125823   2.000   5.263   0.124
 8308SOL    HW225824   2.041   5.185   0.262
 8309SOL     OW25825   6.578   4.765   2.735
 8309SOL    HW125826   6.494   4.760   2.682
 8309SOL    HW225827   6.557   4.756   2.832
 8310SOL     OW25828   1.673   6.097   3.168
 8310SOL    HW125829   1.625   6.027   3.116
 8310SOL    HW225830   1.764   6.065   3.191
 8311SOL     OW25831   5.087   6.183   1.557
 8311SOL    HW125832   5.001   6.175   1.608
 8311SOL    HW225833   5.131   6.269   1.580
 8312SOL     OW25834   6.383   1.488   0.477
 8312SOL    HW125835   6.406   1.463   0.571
 8312SOL    HW225836   6.333   1.413   0.434
 8313SOL     OW25837   4.783   2.525   6.361
 8313SOL    HW125838   4.834   2.589   6.302
 8313SOL    HW225839   4.803   2.431   6.333
 8314SOL     OW25840   4.855   5.534   4.075
 8314SOL    HW125841   4.796   5.458   4.046
 8314SOL    HW225842   4.859   5.602   4.003
 8315SOL     OW25843   3.062   2.613   6.642
 8315SOL    HW125844   3.011   2.553   6.580
 8315SOL    HW225845   3.142   2.649   6.595
 8316SOL     OW25846   1.663   1.374   4.686
 8316SOL    HW125847   1.706   1.464   4.690
 8316SOL    HW225848   1.648   1.348   4.591
 8317SOL     OW25849   1.347   1.899   5.904
 8317SOL    HW125850   1.257   1.893   5.861
 8317SOL    HW225851   1.417   1.915   5.835
 8318SOL     OW25852   4.489   6.393   5.224
 8318SOL    HW125853   4.516   6.472   5.170
 8318SOL    HW225854   4.568   6.332   5.236
 8319SOL     OW25855   2.782   5.842   6.696
 8319SOL    HW125856   2.705   5.845   6.633
 8319SOL    HW225857   2.788   5.929   6.746
 8320SOL     OW25858   3.794   5.071   5.908
 8320SOL    HW125859   3.791   4.973   5.924
 8320SOL    HW225860   3.816   5.089   5.812
 8321SOL     OW25861   0.586   0.645   1.004
 8321SOL    HW125862   0.538   0.627   0.919
 8321SOL    HW225863   0.677   0.604   1.000
 8322SOL     OW25864   1.911   1.060   1.574
 8322SOL    HW125865   1.965   0.979   1.596
 8322SOL    HW225866   1.964   1.120   1.515
 8323SOL     OW25867   5.727   5.175   7.012
 8323SOL    HW125868   5.683   5.262   6.987
 8323SOL    HW225869   5.797   5.192   0.055
 8324SOL     OW25870   5.733   6.367   6.206
 8324SOL    HW125871   5.660   6.401   6.265
 8324SOL    HW225872   5.787   6.444   6.173
 8325SOL     OW25873   1.327   6.533   4.832
 8325SOL    HW125874   1.320   6.630   4.807
 8325SOL    HW225875   1.355   6.480   4.752
 8326SOL     OW25876   2.211   1.904   6.764
 8326SOL    HW125877   2.233   1.811   6.734
 8326SOL    HW225878   2.123   1.932   6.726
 8327SOL     OW25879   0.759   6.347   5.048
 8327SOL    HW125880   0.705   6.368   5.130
 8327SOL    HW225881   0.707   6.374   4.967
 8328SOL     OW25882   1.694   6.970   0.800
 8328SOL    HW125883   1.649   0.022   0.845
 8328SOL    HW225884   1.636   6.889   0.808
 8329SOL     OW25885   1.611   2.488   4.903
 8329SOL    HW125886   1.665   2.455   4.826
 8329SOL    HW225887   1.672   2.528   4.972
 8330SOL     OW25888   3.117   0.125   0.193
 8330SOL    HW125889   3.017   0.117   0.183
 8330SOL    HW225890   3.147   0.065   0.267
 8331SOL     OW25891   2.119   2.270   6.399
 8331SOL    HW125892   2.080   2.360   6.415
 8331SOL    HW225893   2.167   2.268   6.312
 8332SOL     OW25894   5.565   3.812   1.104
 8332SOL    HW125895   5.520   3.867   1.034
 8332SOL    HW225896   5.555   3.857   1.193
 8333SOL     OW25897   3.347   4.413   6.175
 8333SOL    HW125898   3.329   4.339   6.241
 8333SOL    HW225899   3.283   4.405   6.099
 8334SOL     OW25900   3.309   2.589   5.323
 8334SOL    HW125901   3.260   2.513   5.281
 8334SOL    HW225902   3.408   2.575   5.313
 8335SOL     OW25903   5.489   3.803   6.304
 8335SOL    HW125904   5.532   3.713   6.295
 8335SOL    HW225905   5.546   3.862   6.360
 8336SOL     OW25906   1.110   4.496   3.757
 8336SOL    HW125907   1.194   4.474   3.808
 8336SOL    HW225908   1.095   4.428   3.686
 8337SOL     OW25909   6.522   0.584   4.059
 8337SOL    HW125910   6.470   0.669   4.072
 8337SOL    HW225911   6.458   0.509   4.039
 8338SOL     OW25912   2.266   5.894   1.037
 8338SOL    HW125913   2.171   5.864   1.031
 8338SOL    HW225914   2.269   5.992   1.055
 8339SOL     OW25915   6.563   0.451   2.180
 8339SOL    HW125916   6.565   0.400   2.265
 8339SOL    HW225917   6.489   0.519   2.183
 8340SOL     OW25918   5.978   2.450   6.862
 8340SOL    HW125919   5.966   2.358   6.898
 8340SOL    HW225920   6.058   2.492   6.904
 8341SOL     OW25921   3.578   0.283   1.143
 8341SOL    HW125922   3.541   0.339   1.217
 8341SOL    HW225923   3.677   0.296   1.138
 8342SOL     OW25924   4.664   1.272   0.919
 8342SOL    HW125925   4.578   1.239   0.956
 8342SOL    HW225926   4.722   1.195   0.895
 8343SOL     OW25927   5.105   5.750   2.867
 8343SOL    HW125928   5.132   5.657   2.841
 8343SOL    HW225929   5.080   5.751   2.964
 8344SOL     OW25930   2.613   4.545   6.077
 8344SOL    HW125931   2.579   4.624   6.026
 8344SOL    HW225932   2.568   4.541   6.166
 8345SOL     OW25933   6.162   0.260   3.898
 8345SOL    HW125934   6.072   0.303   3.893
 8345SOL    HW225935   6.160   0.172   3.852
 8346SOL     OW25936   5.831   3.958   3.784
 8346SOL    HW125937   5.922   4.000   3.784
 8346SOL    HW225938   5.761   4.029   3.772
 8347SOL     OW25939   1.348   1.814   6.391
 8347SOL    HW125940   1.345   1.715   6.381
 8347SOL    HW225941   1.441   1.847   6.375
 8348SOL     OW25942   3.250   5.799   1.006
 8348SOL    HW125943   3.247   5.899   0.999
 8348SOL    HW225944   3.297   5.762   0.926
 8349SOL     OW25945   4.478   5.623   1.323
 8349SOL    HW125946   4.507   5.592   1.233
 8349SOL    HW225947   4.549   5.604   1.390
 8350SOL     OW25948   1.913   0.528   7.008
 8350SOL    HW125949   1.919   0.442   0.034
 8350SOL    HW225950   1.817   0.552   6.995
 8351SOL     OW25951   0.009   2.851   3.178
 8351SOL    HW125952   0.048   2.885   3.264
 8351SOL    HW225953   0.083   2.836   3.112
 8352SOL     OW25954   3.009   6.451   6.354
 8352SOL    HW125955   2.934   6.420   6.295
 8352SOL    HW225956   2.973   6.511   6.425
 8353SOL     OW25957   0.552   5.751   2.590
 8353SOL    HW125958   0.604   5.778   2.509
 8353SOL    HW225959   0.613   5.715   2.660
 8354SOL     OW25960   4.626   2.317   3.717
 8354SOL    HW125961   4.682   2.321   3.800
 8354SOL    HW225962   4.656   2.240   3.660
 8355SOL     OW25963   3.092   5.383   6.250
 8355SOL    HW125964   3.075   5.298   6.200
 8355SOL    HW225965   3.177   5.424   6.218
 8356SOL     OW25966   3.023   3.839   1.254
 8356SOL    HW125967   3.034   3.767   1.185
 8356SOL    HW225968   2.950   3.814   1.317
 8357SOL     OW25969   2.856   6.729   4.835
 8357SOL    HW125970   2.826   6.711   4.929
 8357SOL    HW225971   2.913   6.654   4.802
 8358SOL     OW25972   0.179   0.082   4.737
 8358SOL    HW125973   0.194   0.169   4.784
 8358SOL    HW225974   0.267   0.042   4.713
 8359SOL     OW25975   5.071   1.798   5.397
 8359SOL    HW125976   5.140   1.726   5.403
 8359SOL    HW225977   5.047   1.812   5.301
 8360SOL     OW25978   3.308   0.227   1.846
 8360SOL    HW125979   3.273   0.228   1.753
 8360SOL    HW225980   3.301   0.134   1.883
 8361SOL     OW25981   5.146   1.213   0.393
 8361SOL    HW125982   5.093   1.290   0.359
 8361SOL    HW225983   5.084   1.139   0.418
 8362SOL     OW25984   0.997   4.393   1.236
 8362SOL    HW125985   0.984   4.340   1.152
 8362SOL    HW225986   0.922   4.458   1.246
 8363SOL     OW25987   1.566   2.086   1.278
 8363SOL    HW125988   1.575   1.991   1.309
 8363SOL    HW225989   1.482   2.126   1.315
 8364SOL     OW25990   0.203   1.811   3.622
 8364SOL    HW125991   0.152   1.771   3.698
 8364SOL    HW225992   0.230   1.738   3.558
 8365SOL     OW25993   1.933   2.421   1.417
 8365SOL    HW125994   1.968   2.327   1.413
 8365SOL    HW225995   1.978   2.470   1.492
 8366SOL     OW25996   5.229   5.604   1.964
 8366SOL    HW125997   5.175   5.541   2.020
 8366SOL    HW225998   5.285   5.662   2.023
 8367SOL     OW25999   1.907   4.067   3.249
 8367SOL    HW126000   1.881   4.161   3.271
 8367SOL    HW226001   2.001   4.065   3.215
 8368SOL     OW26002   0.045   3.740   6.061
 8368SOL    HW126003   0.097   3.675   6.116
 8368SOL    HW226004   0.101   3.772   5.984
 8369SOL     OW26005   1.281   0.213   0.111
 8369SOL    HW126006   1.315   0.191   0.203
 8369SOL    HW226007   1.336   0.167   0.042
 8370SOL     OW26008   3.262   3.194   0.367
 8370SOL    HW126009   3.228   3.148   0.285
 8370SOL    HW226010   3.227   3.147   0.448
 8371SOL     OW26011   2.741   3.883   5.718
 8371SOL    HW126012   2.777   3.973   5.744
 8371SOL    HW226013   2.781   3.813   5.777
 8372SOL     OW26014   1.481   0.266   2.244
 8372SOL    HW126015   1.393   0.239   2.205
 8372SOL    HW226016   1.544   0.290   2.170
 8373SOL     OW26017   5.345   1.315   4.001
 8373SOL    HW126018   5.436   1.300   3.961
 8373SOL    HW226019   5.280   1.249   3.961
 8374SOL     OW26020   0.971   1.775   3.376
 8374SOL    HW126021   1.060   1.817   3.391
 8374SOL    HW226022   0.934   1.743   3.464
 8375SOL     OW26023   1.459   2.434   5.171
 8375SOL    HW126024   1.511   2.439   5.086
 8375SOL    HW226025   1.491   2.356   5.225
 8376SOL     OW26026   0.921   2.052   4.313
 8376SOL    HW126027   0.845   2.053   4.248
 8376SOL    HW226028   0.912   2.128   4.377
 8377SOL     OW26029   3.187   5.405   1.263
 8377SOL    HW126030   3.115   5.337   1.246
 8377SOL    HW226031   3.232   5.428   1.176
 8378SOL     OW26032   4.092   5.217   4.616
 8378SOL    HW126033   4.187   5.246   4.608
 8378SOL    HW226034   4.050   5.261   4.695
 8379SOL     OW26035   5.975   2.457   2.065
 8379SOL    HW126036   6.038   2.534   2.069
 8379SOL    HW226037   5.921   2.462   1.981
 8380SOL     OW26038   1.039   5.845   2.283
 8380SOL    HW126039   0.962   5.829   2.345
 8380SOL    HW226040   1.108   5.901   2.329
 8381SOL     OW26041   1.353   2.293   2.666
 8381SOL    HW126042   1.420   2.339   2.725
 8381SOL    HW226043   1.374   2.312   2.570
 8382SOL     OW26044   0.878   6.514   1.713
 8382SOL    HW126045   0.889   6.435   1.654
 8382SOL    HW226046   0.961   6.570   1.710
 8383SOL     OW26047   2.441   6.910   5.599
 8383SOL    HW126048   2.505   6.943   5.529
 8383SOL    HW226049   2.442   6.972   5.677
 8384SOL     OW26050   0.114   3.485   3.505
 8384SOL    HW126051   0.057   3.409   3.534
 8384SOL    HW226052   0.151   3.466   3.414
 8385SOL     OW26053   4.472   2.303   1.972
 8385SOL    HW126054   4.487   2.384   2.027
 8385SOL    HW226055   4.515   2.314   1.883
 8386SOL     OW26056   0.345   5.573   1.746
 8386SOL    HW126057   0.334   5.485   1.699
 8386SOL    HW226058   0.263   5.629   1.731
 8387SOL     OW26059   0.585   1.988   3.705
 8387SOL    HW126060   0.671   1.970   3.752
 8387SOL    HW226061   0.579   1.931   3.623
 8388SOL     OW26062   3.920   5.518   1.717
 8388SOL    HW126063   3.832   5.485   1.683
 8388SOL    HW226064   3.918   5.521   1.817
 8389SOL     OW26065   1.290   2.840   4.353
 8389SOL    HW126066   1.362   2.784   4.312
 8389SOL    HW226067   1.291   2.931   4.310
 8390SOL     OW26068   2.896   0.346   6.388
 8390SOL    HW126069   2.880   0.251   6.361
 8390SOL    HW226070   2.813   0.399   6.370
 8391SOL     OW26071   4.497   6.193   1.118
 8391SOL    HW126072   4.466   6.183   1.023
 8391SOL    HW226073   4.436   6.255   1.167
 8392SOL     OW26074   4.022   5.377   0.658
 8392SOL    HW126075   4.020   5.393   0.559
 8392SOL    HW226076   4.099   5.317   0.680
 8393SOL     OW26077   0.877   5.833   1.898
 8393SOL    HW126078   0.963   5.884   1.897
 8393SOL    HW226079   0.829   5.848   1.812
 8394SOL     OW26080   1.666   1.175   3.443
 8394SOL    HW126081   1.635   1.169   3.538
 8394SOL    HW226082   1.652   1.268   3.409
 8395SOL     OW26083   1.731   5.979   6.307
 8395SOL    HW126084   1.653   5.944   6.255
 8395SOL    HW226085   1.791   6.033   6.247
 8396SOL     OW26086   4.066   2.438   0.885
 8396SOL    HW126087   4.075   2.536   0.865
 8396SOL    HW226088   4.156   2.400   0.903
 8397SOL     OW26089   1.270   4.565   3.281
 8397SOL    HW126090   1.180   4.610   3.286
 8397SOL    HW226091   1.315   4.569   3.370
 8398SOL     OW26092   5.806   1.716   6.706
 8398SOL    HW126093   5.887   1.662   6.731
 8398SOL    HW226094   5.732   1.696   6.771
 8399SOL     OW26095   5.577   6.455   5.385
 8399SOL    HW126096   5.647   6.461   5.314
 8399SOL    HW226097   5.523   6.538   5.387
 8400SOL     OW26098   6.021   6.528   4.000
 8400SOL    HW126099   5.948   6.501   4.062
 8400SOL    HW226100   6.099   6.467   4.010
 8401SOL     OW26101   2.834   3.619   5.218
 8401SOL    HW126102   2.793   3.681   5.151
 8401SOL    HW226103   2.883   3.672   5.287
 8402SOL     OW26104   5.007   0.660   5.183
 8402SOL    HW126105   4.939   0.731   5.166
 8402SOL    HW226106   5.011   0.639   5.281
 8403SOL     OW26107   0.597   2.799   5.542
 8403SOL    HW126108   0.634   2.736   5.610
 8403SOL    HW226109   0.669   2.862   5.512
 8404SOL     OW26110   4.854   5.268   5.771
 8404SOL    HW126111   4.924   5.247   5.840
 8404SOL    HW226112   4.878   5.224   5.685
 8405SOL     OW26113   1.744   2.581   5.490
 8405SOL    HW126114   1.797   2.640   5.551
 8405SOL    HW226115   1.708   2.503   5.542
 8406SOL     OW26116   5.718   3.301   1.753
 8406SOL    HW126117   5.706   3.399   1.736
 8406SOL    HW226118   5.784   3.264   1.687
 8407SOL     OW26119   5.138   3.695   2.813
 8407SOL    HW126120   5.186   3.692   2.725
 8407SOL    HW226121   5.204   3.682   2.887
 8408SOL     OW26122   4.847   3.881   4.000
 8408SOL    HW126123   4.832   3.887   4.098
 8408SOL    HW226124   4.946   3.878   3.981
 8409SOL     OW26125   1.671   1.673   3.591
 8409SOL    HW126126   1.743   1.603   3.590
 8409SOL    HW226127   1.651   1.699   3.685
 8410SOL     OW26128   2.004   4.864   2.452
 8410SOL    HW126129   1.980   4.767   2.443
 8410SOL    HW226130   2.053   4.894   2.370
 8411SOL     OW26131   1.820   3.301   3.241
 8411SOL    HW126132   1.730   3.262   3.221
 8411SOL    HW226133   1.823   3.396   3.208
 8412SOL     OW26134   6.375   3.009   2.297
 8412SOL    HW126135   6.288   3.056   2.313
 8412SOL    HW226136   6.418   3.045   2.214
 8413SOL     OW26137   2.208   5.021   1.017
 8413SOL    HW126138   2.299   4.982   1.023
 8413SOL    HW226139   2.209   5.114   1.056
 8414SOL     OW26140   5.820   0.713   3.871
 8414SOL    HW126141   5.826   0.653   3.791
 8414SOL    HW226142   5.803   0.657   3.953
 8415SOL     OW26143   6.904   4.762   1.039
 8415SOL    HW126144   6.980   4.697   1.044
 8415SOL    HW226145   6.919   4.836   1.104
 8416SOL     OW26146   4.396   4.540   2.598
 8416SOL    HW126147   4.451   4.495   2.528
 8416SOL    HW226148   4.437   4.628   2.622
 8417SOL     OW26149   1.395   5.396   0.055
 8417SOL    HW126150   1.489   5.386   0.087
 8417SOL    HW226151   1.349   5.467   0.108
 8418SOL     OW26152   5.665   5.655   2.793
 8418SOL    HW126153   5.745   5.714   2.783
 8418SOL    HW226154   5.609   5.660   2.710
 8419SOL     OW26155   4.322   0.992   4.034
 8419SOL    HW126156   4.349   1.083   4.066
 8419SOL    HW226157   4.357   0.923   4.097
 8420SOL     OW26158   4.282   2.035   5.639
 8420SOL    HW126159   4.337   2.013   5.558
 8420SOL    HW226160   4.185   2.018   5.619
 8421SOL     OW26161   0.385   1.225   1.121
 8421SOL    HW126162   0.437   1.141   1.106
 8421SOL    HW226163   0.432   1.282   1.189
 8422SOL     OW26164   2.933   0.313   1.833
 8422SOL    HW126165   2.845   0.357   1.814
 8422SOL    HW226166   2.952   0.318   1.931
 8423SOL     OW26167   2.493   3.603   1.243
 8423SOL    HW126168   2.566   3.590   1.176
 8423SOL    HW226169   2.419   3.539   1.224
 8424SOL     OW26170   2.831   2.390   1.479
 8424SOL    HW126171   2.782   2.393   1.566
 8424SOL    HW226172   2.793   2.459   1.417
 8425SOL     OW26173   0.486   4.487   5.957
 8425SOL    HW126174   0.472   4.525   5.866
 8425SOL    HW226175   0.415   4.522   6.019
 8426SOL     OW26176   3.589   3.124   2.430
 8426SOL    HW126177   3.574   3.145   2.333
 8426SOL    HW226178   3.632   3.034   2.439
 8427SOL     OW26179   1.844   2.225   0.078
 8427SOL    HW126180   1.810   2.264   7.018
 8427SOL    HW226181   1.907   2.290   0.121
 8428SOL     OW26182   6.384   3.739   0.638
 8428SOL    HW126183   6.387   3.790   0.724
 8428SOL    HW226184   6.323   3.660   0.648
 8429SOL     OW26185   1.934   6.442   3.136
 8429SOL    HW126186   1.901   6.520   3.189
 8429SOL    HW226187   1.917   6.358   3.187
 8430SOL     OW26188   4.357   5.291   2.890
 8430SOL    HW126189   4.410   5.334   2.817
 8430SOL    HW226190   4.412   5.218   2.932
 8431SOL     OW26191   3.076   3.436   2.336
 8431SOL    HW126192   3.034   3.522   2.368
 8431SOL    HW226193   3.058   3.364   2.403
 8432SOL     OW26194   4.635   6.208   6.617
 8432SOL    HW126195   4.593   6.155   6.691
 8432SOL    HW226196   4.564   6.252   6.562
 8433SOL     OW26197   0.173   1.307   3.463
 8433SOL    HW126198   0.232   1.276   3.537
 8433SOL    HW226199   0.160   1.233   3.397
 8434SOL     OW26200   5.679   6.999   6.824
 8434SOL    HW126201   5.666   0.031   6.744
 8434SOL    HW226202   5.777   6.992   6.845
 8435SOL     OW26203   4.746   2.532   1.028
 8435SOL    HW126204   4.761   2.440   1.063
 8435SOL    HW226205   4.792   2.598   1.089
 8436SOL     OW26206   2.990   4.303   1.688
 8436SOL    HW126207   2.952   4.358   1.763
 8436SOL    HW226208   3.011   4.364   1.611
 8437SOL     OW26209   0.072   2.062   1.150
 8437SOL    HW126210   7.007   2.084   1.186
 8437SOL    HW226211   0.142   2.100   1.211
 8438SOL     OW26212   2.182   5.299   1.085
 8438SOL    HW126213   2.272   5.335   1.108
 8438SOL    HW226214   2.119   5.374   1.067
 8439SOL     OW26215   5.095   0.833   1.590
 8439SOL    HW126216   5.147   0.833   1.676
 8439SOL    HW226217   5.103   0.744   1.545
 8440SOL     OW26218   1.102   3.111   4.028
 8440SOL    HW126219   1.164   3.165   3.970
 8440SOL    HW226220   1.116   3.137   4.124
 8441SOL     OW26221   4.489   5.928   1.546
 8441SOL    HW126222   4.484   5.884   1.635
 8441SOL    HW226223   4.397   5.947   1.512
 8442SOL     OW26224   2.611   2.477   0.845
 8442SOL    HW126225   2.546   2.508   0.775
 8442SOL    HW226226   2.701   2.517   0.826
 8443SOL     OW26227   6.891   1.655   1.396
 8443SOL    HW126228   6.884   1.716   1.317
 8443SOL    HW226229   6.828   1.578   1.384
 8444SOL     OW26230   4.707   1.723   3.500
 8444SOL    HW126231   4.648   1.803   3.493
 8444SOL    HW226232   4.789   1.747   3.552
 8445SOL     OW26233   5.024   5.496   2.166
 8445SOL    HW126234   5.017   5.400   2.143
 8445SOL    HW226235   4.938   5.526   2.208
 8446SOL     OW26236   6.901   3.406   3.176
 8446SOL    HW126237   6.815   3.430   3.133
 8446SOL    HW226238   6.906   3.307   3.188
 8447SOL     OW26239   4.811   4.294   1.061
 8447SOL    HW126240   4.765   4.309   0.974
 8447SOL    HW226241   4.856   4.204   1.061
 8448SOL     OW26242   1.592   4.367   5.797
 8448SOL    HW126243   1.573   4.307   5.875
 8448SOL    HW226244   1.687   4.356   5.768
 8449SOL     OW26245   1.241   0.785   5.169
 8449SOL    HW126246   1.237   0.812   5.073
 8449SOL    HW226247   1.164   0.825   5.219
 8450SOL     OW26248   1.970   5.473   1.026
 8450SOL    HW126249   2.001   5.455   0.933
 8450SOL    HW226250   1.870   5.480   1.027
 8451SOL     OW26251   3.316   3.661   0.664
 8451SOL    HW126252   3.389   3.629   0.604
 8451SOL    HW226253   3.320   3.611   0.751
 8452SOL     OW26254   0.094   5.902   1.551
 8452SOL    HW126255   0.035   5.842   1.497
 8452SOL    HW226256   0.141   5.848   1.621
 8453SOL     OW26257   6.964   4.770   5.044
 8453SOL    HW126258   0.016   4.739   5.098
 8453SOL    HW226259   6.936   4.861   5.076
 8454SOL     OW26260   2.129   0.212   4.917
 8454SOL    HW126261   2.206   0.162   4.956
 8454SOL    HW226262   2.120   0.188   4.820
 8455SOL     OW26263   5.929   2.850   0.787
 8455SOL    HW126264   5.950   2.940   0.827
 8455SOL    HW226265   6.009   2.816   0.738
 8456SOL     OW26266   5.373   4.674   3.569
 8456SOL    HW126267   5.465   4.665   3.607
 8456SOL    HW226268   5.310   4.702   3.641
 8457SOL     OW26269   6.496   6.589   5.777
 8457SOL    HW126270   6.537   6.625   5.693
 8457SOL    HW226271   6.514   6.652   5.852
 8458SOL     OW26272   1.384   1.791   1.159
 8458SOL    HW126273   1.333   1.829   1.236
 8458SOL    HW226274   1.394   1.692   1.171
 8459SOL     OW26275   2.175   4.941   3.254
 8459SOL    HW126276   2.104   4.896   3.308
 8459SOL    HW226277   2.148   4.944   3.158
 8460SOL     OW26278   3.576   1.499   1.526
 8460SOL    HW126279   3.638   1.494   1.448
 8460SOL    HW226280   3.541   1.592   1.536
 8461SOL     OW26281   5.403   4.137   3.084
 8461SOL    HW126282   5.384   4.172   3.176
 8461SOL    HW226283   5.327   4.159   3.023
 8462SOL     OW26284   2.044   4.069   0.696
 8462SOL    HW126285   2.062   4.112   0.785
 8462SOL    HW226286   1.946   4.061   0.682
 8463SOL     OW26287   0.014   6.957   1.222
 8463SOL    HW126288   0.023   0.017   1.173
 8463SOL    HW226289   0.098   6.939   1.273
 8464SOL     OW26290   6.608   2.743   6.378
 8464SOL    HW126291   6.536   2.802   6.417
 8464SOL    HW226292   6.693   2.756   6.429
 8465SOL     OW26293   5.159   4.318   0.881
 8465SOL    HW126294   5.105   4.387   0.929
 8465SOL    HW226295   5.138   4.321   0.783
 8466SOL     OW26296   0.305   1.324   5.159
 8466SOL    HW126297   0.320   1.246   5.097
 8466SOL    HW226298   0.368   1.316   5.237
 8467SOL     OW26299   3.255   1.198   0.691
 8467SOL    HW126300   3.263   1.240   0.781
 8467SOL    HW226301   3.214   1.107   0.700
 8468SOL     OW26302   5.393   3.970   0.532
 8468SOL    HW126303   5.420   4.065   0.516
 8468SOL    HW226304   5.474   3.913   0.538
 8469SOL     OW26305   3.846   2.874   5.044
 8469SOL    HW126306   3.751   2.848   5.057
 8469SOL    HW226307   3.904   2.793   5.047
 8470SOL     OW26308   1.516   5.940   1.525
 8470SOL    HW126309   1.445   5.986   1.579
 8470SOL    HW226310   1.474   5.890   1.450
 8471SOL     OW26311   4.066   1.498   3.559
 8471SOL    HW126312   4.127   1.451   3.494
 8471SOL    HW226313   4.089   1.596   3.561
 8472SOL     OW26314   5.784   1.564   6.468
 8472SOL    HW126315   5.810   1.626   6.395
 8472SOL    HW226316   5.750   1.616   6.546
 8473SOL     OW26317   5.211   5.110   5.804
 8473SOL    HW126318   5.221   5.181   5.734
 8473SOL    HW226319   5.130   5.128   5.859
 8474SOL     OW26320   3.130   3.658   5.416
 8474SOL    HW126321   3.055   3.706   5.461
 8474SOL    HW226322   3.129   3.562   5.442
 8475SOL     OW26323   0.452   2.129   2.819
 8475SOL    HW126324   0.367   2.094   2.858
 8475SOL    HW226325   0.521   2.135   2.892
 8476SOL     OW26326   6.401   1.119   2.325
 8476SOL    HW126327   6.492   1.140   2.289
 8476SOL    HW226328   6.373   1.029   2.293
 8477SOL     OW26329   5.407   0.682   0.824
 8477SOL    HW126330   5.463   0.606   0.857
 8477SOL    HW226331   5.412   0.686   0.724
 8478SOL     OW26332   1.119   6.863   6.260
 8478SOL    HW126333   1.104   6.877   6.162
 8478SOL    HW226334   1.211   6.827   6.275
 8479SOL     OW26335   0.955   2.891   0.182
 8479SOL    HW126336   0.945   2.949   0.263
 8479SOL    HW226337   0.942   2.945   0.100
 8480SOL     OW26338   3.119   4.398   0.741
 8480SOL    HW126339   3.163   4.472   0.691
 8480SOL    HW226340   3.022   4.395   0.716
 8481SOL     OW26341   4.822   3.042   2.756
 8481SOL    HW126342   4.844   3.122   2.701
 8481SOL    HW226343   4.786   3.070   2.845
 8482SOL     OW26344   4.561   0.320   6.247
 8482SOL    HW126345   4.591   0.290   6.337
 8482SOL    HW226346   4.509   0.405   6.256
 8483SOL     OW26347   3.963   4.952   3.696
 8483SOL    HW126348   3.875   4.911   3.671
 8483SOL    HW226349   3.985   5.026   3.632
 8484SOL     OW26350   6.649   6.549   5.250
 8484SOL    HW126351   6.697   6.477   5.299
 8484SOL    HW226352   6.579   6.590   5.309
 8485SOL     OW26353   4.203   0.716   5.660
 8485SOL    HW126354   4.172   0.700   5.754
 8485SOL    HW226355   4.174   0.807   5.631
 8486SOL     OW26356   5.498   2.199   4.660
 8486SOL    HW126357   5.413   2.147   4.669
 8486SOL    HW226358   5.529   2.229   4.750
 8487SOL     OW26359   6.750   1.929   6.314
 8487SOL    HW126360   6.724   1.977   6.398
 8487SOL    HW226361   6.847   1.906   6.318
 8488SOL     OW26362   3.985   4.860   2.276
 8488SOL    HW126363   3.914   4.871   2.205
 8488SOL    HW226364   4.058   4.801   2.242
 8489SOL     OW26365   6.340   2.286   1.990
 8489SOL    HW126366   6.351   2.195   2.029
 8489SOL    HW226367   6.308   2.349   2.061
 8490SOL     OW26368   3.237   6.947   0.363
 8490SOL    HW126369   3.235   6.879   0.290
 8490SOL    HW226370   3.331   6.962   0.391
 8491SOL     OW26371   3.642   5.351   2.140
 8491SOL    HW126372   3.652   5.443   2.178
 8491SOL    HW226373   3.595   5.357   2.052
 8492SOL     OW26374   6.239   6.340   3.958
 8492SOL    HW126375   6.272   6.296   4.041
 8492SOL    HW226376   6.178   6.277   3.909
 8493SOL     OW26377   5.336   0.427   5.658
 8493SOL    HW126378   5.240   0.412   5.637
 8493SOL    HW226379   5.393   0.364   5.606
 8494SOL     OW26380   0.206   3.166   2.060
 8494SOL    HW126381   0.236   3.160   1.965
 8494SOL    HW226382   0.283   3.145   2.120
 8495SOL     OW26383   5.548   6.060   5.636
 8495SOL    HW126384   5.603   6.012   5.705
 8495SOL    HW226385   5.591   6.147   5.614
 8496SOL     OW26386   4.608   1.807   2.762
 8496SOL    HW126387   4.593   1.900   2.727
 8496SOL    HW226388   4.660   1.812   2.847
 8497SOL     OW26389   6.325   0.805   2.419
 8497SOL    HW126390   6.298   0.709   2.418
 8497SOL    HW226391   6.310   0.843   2.510
 8498SOL     OW26392   4.300   6.377   4.056
 8498SOL    HW126393   4.248   6.462   4.072
 8498SOL    HW226394   4.251   6.300   4.097
 8499SOL     OW26395   6.423   6.945   5.064
 8499SOL    HW126396   6.420   6.937   5.164
 8499SOL    HW226397   6.512   6.979   5.036
 8500SOL     OW26398   1.290   0.470   6.750
 8500SOL    HW126399   1.251   0.510   6.833
 8500SOL    HW226400   1.272   0.371   6.750
 8501SOL     OW26401   3.423   1.066   5.189
 8501SOL    HW126402   3.419   1.011   5.105
 8501SOL    HW226403   3.408   1.162   5.167
 8502SOL     OW26404   6.711   2.957   0.299
 8502SOL    HW126405   6.751   2.942   0.389
 8502SOL    HW226406   6.658   3.042   0.300
 8503SOL     OW26407   4.672   2.478   5.677
 8503SOL    HW126408   4.585   2.453   5.634
 8503SOL    HW226409   4.657   2.496   5.775
 8504SOL     OW26410   1.173   7.021   3.107
 8504SOL    HW126411   1.113   0.059   3.058
 8504SOL    HW226412   1.163   0.010   3.205
 8505SOL     OW26413   5.568   1.803   2.900
 8505SOL    HW126414   5.592   1.861   2.978
 8505SOL    HW226415   5.476   1.826   2.868
 8506SOL     OW26416   1.877   0.525   5.749
 8506SOL    HW126417   1.787   0.567   5.738
 8506SOL    HW226418   1.901   0.476   5.665
 8507SOL     OW26419   4.196   4.696   5.743
 8507SOL    HW126420   4.238   4.748   5.817
 8507SOL    HW226421   4.097   4.709   5.745
 8508SOL     OW26422   3.691   0.754   6.112
 8508SOL    HW126423   3.759   0.686   6.139
 8508SOL    HW226424   3.629   0.770   6.189
 8509SOL     OW26425   4.903   2.415   2.049
 8509SOL    HW126426   4.865   2.507   2.048
 8509SOL    HW226427   4.871   2.367   2.130
 8510SOL     OW26428   0.827   1.998   4.889
 8510SOL    HW126429   0.822   1.949   4.802
 8510SOL    HW226430   0.920   2.031   4.904
 8511SOL     OW26431   5.645   2.356   3.919
 8511SOL    HW126432   5.607   2.443   3.889
 8511SOL    HW226433   5.623   2.285   3.852
 8512SOL     OW26434   1.999   6.978   5.608
 8512SOL    HW126435   2.031   6.921   5.532
 8512SOL    HW226436   1.919   0.005   5.579
 8513SOL     OW26437   4.167   5.370   0.152
 8513SOL    HW126438   4.096   5.301   0.167
 8513SOL    HW226439   4.152   5.415   0.064
 8514SOL     OW26440   3.255   5.792   4.971
 8514SOL    HW126441   3.305   5.879   4.969
 8514SOL    HW226442   3.320   5.716   4.962
 8515SOL     OW26443   5.545   2.614   1.867
 8515SOL    HW126444   5.445   2.607   1.875
 8515SOL    HW226445   5.584   2.523   1.852
 8516SOL     OW26446   7.022   1.500   1.743
 8516SOL    HW126447   6.924   1.483   1.727
 8516SOL    HW226448   0.020   1.590   1.706
 8517SOL     OW26449   1.493   3.577   5.209
 8517SOL    HW126450   1.461   3.649   5.147
 8517SOL    HW226451   1.554   3.616   5.278
 8518SOL     OW26452   2.941   5.804   1.054
 8518SOL    HW126453   2.911   5.775   1.144
 8518SOL    HW226454   3.038   5.781   1.042
 8519SOL     OW26455   2.680   5.342   3.785
 8519SOL    HW126456   2.760   5.386   3.826
 8519SOL    HW226457   2.636   5.406   3.722
 8520SOL     OW26458   3.487   6.318   6.564
 8520SOL    HW126459   3.428   6.385   6.519
 8520SOL    HW226460   3.435   6.271   6.636
 8521SOL     OW26461   1.576   1.266   2.532
 8521SOL    HW126462   1.586   1.167   2.526
 8521SOL    HW226463   1.619   1.309   2.453
 8522SOL     OW26464   2.166   6.589   4.745
 8522SOL    HW126465   2.078   6.622   4.711
 8522SOL    HW226466   2.153   6.540   4.832
 8523SOL     OW26467   1.852   6.561   0.041
 8523SOL    HW126468   1.922   6.554   0.113
 8523SOL    HW226469   1.843   6.473   7.021
 8524SOL     OW26470   1.652   1.796   0.294
 8524SOL    HW126471   1.695   1.845   0.217
 8524SOL    HW226472   1.568   1.843   0.320
 8525SOL     OW26473   5.110   3.657   4.286
 8525SOL    HW126474   5.050   3.660   4.207
 8525SOL    HW226475   5.088   3.733   4.347
 8526SOL     OW26476   1.186   3.424   1.815
 8526SOL    HW126477   1.154   3.518   1.808
 8526SOL    HW226478   1.157   3.385   1.903
 8527SOL     OW26479   4.684   0.124   4.384
 8527SOL    HW126480   4.772   0.118   4.431
 8527SOL    HW226481   4.665   0.037   4.338
 8528SOL     OW26482   5.441   0.864   0.261
 8528SOL    HW126483   5.405   0.956   0.273
 8528SOL    HW226484   5.398   0.802   0.326
 8529SOL     OW26485   0.307   6.836   5.076
 8529SOL    HW126486   0.272   6.751   5.036
 8529SOL    HW226487   0.246   6.912   5.052
 8530SOL     OW26488   1.927   5.194   6.097
 8530SOL    HW126489   1.892   5.104   6.121
 8530SOL    HW226490   1.968   5.191   6.006
 8531SOL     OW26491   3.990   5.164   1.667
 8531SOL    HW126492   4.027   5.151   1.759
 8531SOL    HW226493   3.995   5.260   1.641
 8532SOL     OW26494   1.679   4.368   0.377
 8532SOL    HW126495   1.748   4.325   0.318
 8532SOL    HW226496   1.629   4.437   0.325
 8533SOL     OW26497   3.428   6.619   5.641
 8533SOL    HW126498   3.486   6.546   5.604
 8533SOL    HW226499   3.406   6.684   5.569
 8534SOL     OW26500   2.153   2.142   0.869
 8534SOL    HW126501   2.238   2.158   0.918
 8534SOL    HW226502   2.087   2.213   0.892
 8535SOL     OW26503   0.956   3.240   5.991
 8535SOL    HW126504   0.911   3.250   6.080
 8535SOL    HW226505   0.998   3.150   5.985
 8536SOL     OW26506   5.931   0.331   6.240
 8536SOL    HW126507   6.000   0.265   6.210
 8536SOL    HW226508   5.866   0.347   6.166
 8537SOL     OW26509   4.327   6.328   3.230
 8537SOL    HW126510   4.263   6.252   3.244
 8537SOL    HW226511   4.412   6.309   3.280
 8538SOL     OW26512   4.597   0.302   5.102
 8538SOL    HW126513   4.577   0.399   5.111
 8538SOL    HW226514   4.555   0.252   5.178
 8539SOL     OW26515   0.898   3.001   3.125
 8539SOL    HW126516   0.915   3.078   3.063
 8539SOL    HW226517   0.849   3.033   3.206
 8540SOL     OW26518   4.878   6.477   6.338
 8540SOL    HW126519   4.881   6.408   6.410
 8540SOL    HW226520   4.936   6.448   6.262
 8541SOL     OW26521   2.559   6.359   5.773
 8541SOL    HW126522   2.573   6.402   5.684
 8541SOL    HW226523   2.505   6.276   5.763
 8542SOL     OW26524   1.714   5.172   5.820
 8542SOL    HW126525   1.669   5.168   5.730
 8542SOL    HW226526   1.646   5.158   5.892
 8543SOL     OW26527   3.563   2.141   5.430
 8543SOL    HW126528   3.525   2.066   5.484
 8543SOL    HW226529   3.490   2.183   5.376
 8544SOL     OW26530   5.716   3.956   5.394
 8544SOL    HW126531   5.758   3.981   5.307
 8544SOL    HW226532   5.628   3.911   5.377
 8545SOL     OW26533   2.584   0.478   6.334
 8545SOL    HW126534   2.603   0.565   6.287
 8545SOL    HW226535   2.521   0.495   6.410
 8546SOL     OW26536   3.270   1.061   3.587
 8546SOL    HW126537   3.354   1.104   3.554
 8546SOL    HW226538   3.209   1.044   3.510
 8547SOL     OW26539   5.725   6.691   5.697
 8547SOL    HW126540   5.798   6.637   5.740
 8547SOL    HW226541   5.638   6.667   5.739
 8548SOL     OW26542   1.379   4.160   4.354
 8548SOL    HW126543   1.400   4.068   4.387
 8548SOL    HW226544   1.406   4.168   4.258
 8549SOL     OW26545   2.815   0.519   3.735
 8549SOL    HW126546   2.833   0.426   3.702
 8549SOL    HW226547   2.777   0.515   3.827
 8550SOL     OW26548   0.175   4.073   5.150
 8550SOL    HW126549   0.234   4.030   5.081
 8550SOL    HW226550   0.139   4.159   5.113
 8551SOL     OW26551   4.033   1.563   4.402
 8551SOL    HW126552   4.003   1.487   4.344
 8551SOL    HW226553   4.129   1.549   4.427
 8552SOL     OW26554   3.654   1.814   1.989
 8552SOL    HW126555   3.572   1.871   1.993
 8552SOL    HW226556   3.734   1.872   1.975
 8553SOL     OW26557   4.986   3.759   0.486
 8553SOL    HW126558   4.964   3.667   0.452
 8553SOL    HW226559   5.049   3.803   0.422
 8554SOL     OW26560   1.177   1.167   6.783
 8554SOL    HW126561   1.205   1.174   6.879
 8554SOL    HW226562   1.089   1.214   6.770
 8555SOL     OW26563   3.391   1.894   3.574
 8555SOL    HW126564   3.447   1.965   3.616
 8555SOL    HW226565   3.298   1.929   3.560
 8556SOL     OW26566   0.184   4.694   5.197
 8556SOL    HW126567   0.152   4.627   5.263
 8556SOL    HW226568   0.174   4.658   5.104
 8557SOL     OW26569   6.282   0.868   0.467
 8557SOL    HW126570   6.255   0.935   0.536
 8557SOL    HW226571   6.364   0.820   0.498
 8558SOL     OW26572   2.645   6.517   3.645
 8558SOL    HW126573   2.725   6.488   3.593
 8558SOL    HW226574   2.578   6.557   3.583
 8559SOL     OW26575   1.062   3.098   3.485
 8559SOL    HW126576   1.023   3.027   3.544
 8559SOL    HW226577   0.993   3.168   3.466
 8560SOL     OW26578   3.256   4.159   1.363
 8560SOL    HW126579   3.265   4.060   1.360
 8560SOL    HW226580   3.159   4.184   1.368
 8561SOL     OW26581   4.158   0.624   2.121
 8561SOL    HW126582   4.225   0.550   2.131
 8561SOL    HW226583   4.109   0.637   2.207
 8562SOL     OW26584   5.465   2.516   6.555
 8562SOL    HW126585   5.455   2.607   6.514
 8562SOL    HW226586   5.439   2.520   6.651
 8563SOL     OW26587   1.255   4.710   2.811
 8563SOL    HW126588   1.332   4.719   2.747
 8563SOL    HW226589   1.258   4.785   2.877
 8564SOL     OW26590   3.872   6.544   6.956
 8564SOL    HW126591   3.815   6.594   7.021
 8564SOL    HW226592   3.815   6.512   6.880
 8565SOL     OW26593   0.927   5.417   1.422
 8565SOL    HW126594   0.872   5.338   1.447
 8565SOL    HW226595   0.868   5.489   1.387
 8566SOL     OW26596   3.532   1.123   3.489
 8566SOL    HW126597   3.564   1.038   3.448
 8566SOL    HW226598   3.555   1.199   3.430
 8567SOL     OW26599   1.767   2.621   1.341
 8567SOL    HW126600   1.819   2.542   1.374
 8567SOL    HW226601   1.698   2.590   1.276
 8568SOL     OW26602   5.838   6.893   5.942
 8568SOL    HW126603   5.749   6.848   5.941
 8568SOL    HW226604   5.838   6.971   5.879
 8569SOL     OW26605   5.317   1.387   6.551
 8569SOL    HW126606   5.369   1.465   6.586
 8569SOL    HW226607   5.347   1.365   6.459
 8570SOL     OW26608   1.445   1.946   3.650
 8570SOL    HW126609   1.412   1.879   3.584
 8570SOL    HW226610   1.462   2.033   3.604
 8571SOL     OW26611   1.148   1.000   3.426
 8571SOL    HW126612   1.195   1.088   3.432
 8571SOL    HW226613   1.214   0.926   3.431
 8572SOL     OW26614   2.865   3.795   5.439
 8572SOL    HW126615   2.873   3.850   5.522
 8572SOL    HW226616   2.805   3.841   5.374
 8573SOL     OW26617   1.529   5.877   6.142
 8573SOL    HW126618   1.516   5.933   6.060
 8573SOL    HW226619   1.439   5.851   6.178
 8574SOL     OW26620   5.685   1.368   5.260
 8574SOL    HW126621   5.670   1.322   5.172
 8574SOL    HW226622   5.783   1.388   5.270
 8575SOL     OW26623   2.617   6.361   4.433
 8575SOL    HW126624   2.557   6.297   4.386
 8575SOL    HW226625   2.597   6.359   4.531
 8576SOL     OW26626   1.672   3.317   5.374
 8576SOL    HW126627   1.603   3.265   5.425
 8576SOL    HW226628   1.629   3.364   5.297
 8577SOL     OW26629   1.817   0.625   0.459
 8577SOL    HW126630   1.917   0.621   0.460
 8577SOL    HW226631   1.780   0.543   0.503
 8578SOL     OW26632   1.174   0.535   5.964
 8578SOL    HW126633   1.216   0.468   6.026
 8578SOL    HW226634   1.238   0.556   5.890
 8579SOL     OW26635   3.761   6.729   2.186
 8579SOL    HW126636   3.858   6.705   2.184
 8579SOL    HW226637   3.751   6.827   2.205
 8580SOL     OW26638   2.401   0.486   1.733
 8580SOL    HW126639   2.408   0.425   1.654
 8580SOL    HW226640   2.356   0.439   1.808
 8581SOL     OW26641   3.958   3.885   2.508
 8581SOL    HW126642   4.037   3.826   2.492
 8581SOL    HW226643   3.947   3.948   2.432
 8582SOL     OW26644   4.660   5.659   5.704
 8582SOL    HW126645   4.571   5.685   5.742
 8582SOL    HW226646   4.651   5.575   5.651
 8583SOL     OW26647   3.579   6.760   3.180
 8583SOL    HW126648   3.660   6.801   3.222
 8583SOL    HW226649   3.591   6.661   3.173
 8584SOL     OW26650   6.237   2.140   5.108
 8584SOL    HW126651   6.183   2.218   5.140
 8584SOL    HW226652   6.251   2.076   5.183
 8585SOL     OW26653   4.865   2.298   2.548
 8585SOL    HW126654   4.905   2.386   2.573
 8585SOL    HW226655   4.834   2.301   2.453
 8586SOL     OW26656   6.760   6.354   5.448
 8586SOL    HW126657   6.675   6.306   5.426
 8586SOL    HW226658   6.837   6.290   5.445
 8587SOL     OW26659   6.867   1.080   0.764
 8587SOL    HW126660   6.927   1.002   0.748
 8587SOL    HW226661   6.919   1.155   0.804
 8588SOL     OW26662   1.515   1.118   5.426
 8588SOL    HW126663   1.504   1.195   5.362
 8588SOL    HW226664   1.596   1.065   5.400
 8589SOL     OW26665   5.751   2.600   6.828
 8589SOL    HW126666   5.826   2.536   6.814
 8589SOL    HW226667   5.761   2.678   6.766
 8590SOL     OW26668   1.413   1.291   3.215
 8590SOL    HW126669   1.483   1.357   3.187
 8590SOL    HW226670   1.357   1.265   3.136
 8591SOL     OW26671   1.405   3.906   5.321
 8591SOL    HW126672   1.333   3.879   5.385
 8591SOL    HW226673   1.491   3.920   5.371
 8592SOL     OW26674   0.429   1.903   4.713
 8592SOL    HW126675   0.504   1.860   4.764
 8592SOL    HW226676   0.381   1.833   4.660
 8593SOL     OW26677   6.635   1.256   0.399
 8593SOL    HW126678   6.597   1.172   0.362
 8593SOL    HW226679   6.562   1.322   0.416
 8594SOL     OW26680   6.069   4.005   6.224
 8594SOL    HW126681   6.125   3.991   6.142
 8594SOL    HW226682   6.100   3.943   6.296
 8595SOL     OW26683   5.586   6.339   2.298
 8595SOL    HW126684   5.661   6.363   2.359
 8595SOL    HW226685   5.600   6.384   2.209
 8596SOL     OW26686   0.220   1.963   5.716
 8596SOL    HW126687   0.256   2.040   5.768
 8596SOL    HW226688   0.287   1.889   5.715
 8597SOL     OW26689   6.230   2.403   5.974
 8597SOL    HW126690   6.159   2.350   5.926
 8597SOL    HW226691   6.202   2.498   5.980
 8598SOL     OW26692   6.942   0.938   6.251
 8598SOL    HW126693   6.940   1.013   6.184
 8598SOL    HW226694   0.005   0.937   6.296
 8599SOL     OW26695   5.839   4.040   5.152
 8599SOL    HW126696   5.790   4.057   5.067
 8599SOL    HW226697   5.936   4.027   5.134
 8600SOL     OW26698   4.315   2.950   1.490
 8600SOL    HW126699   4.375   2.925   1.414
 8600SOL    HW226700   4.281   3.043   1.478
 8601SOL     OW26701   4.851   5.582   2.489
 8601SOL    HW126702   4.798   5.538   2.416
 8601SOL    HW226703   4.888   5.668   2.456
 8602SOL     OW26704   2.116   6.587   5.280
 8602SOL    HW126705   2.138   6.639   5.198
 8602SOL    HW226706   2.043   6.522   5.260
 8603SOL     OW26707   0.811   1.230   6.575
 8603SOL    HW126708   0.796   1.134   6.554
 8603SOL    HW226709   0.853   1.239   6.665
 8604SOL     OW26710   1.530   5.371   6.187
 8604SOL    HW126711   1.488   5.333   6.270
 8604SOL    HW226712   1.630   5.364   6.194
 8605SOL     OW26713   6.314   4.378   3.766
 8605SOL    HW126714   6.372   4.393   3.687
 8605SOL    HW226715   6.314   4.459   3.824
 8606SOL     OW26716   1.202   0.371   6.328
 8606SOL    HW126717   1.275   0.439   6.317
 8606SOL    HW226718   1.117   0.407   6.290
 8607SOL     OW26719   2.854   3.002   1.219
 8607SOL    HW126720   2.777   3.056   1.253
 8607SOL    HW226721   2.932   3.014   1.280
 8608SOL     OW26722   2.174   6.256   1.854
 8608SOL    HW126723   2.188   6.343   1.808
 8608SOL    HW226724   2.243   6.245   1.926
 8609SOL     OW26725   5.608   2.316   4.898
 8609SOL    HW126726   5.694   2.333   4.944
 8609SOL    HW226727   5.570   2.403   4.864
 8610SOL     OW26728   6.952   4.938   2.299
 8610SOL    HW126729   0.009   4.884   2.311
 8610SOL    HW226730   6.903   4.945   2.385
 8611SOL     OW26731   1.978   1.768   5.225
 8611SOL    HW126732   1.899   1.757   5.164
 8611SOL    HW226733   2.056   1.717   5.188
 8612SOL     OW26734   3.298   3.204   5.412
 8612SOL    HW126735   3.228   3.135   5.393
 8612SOL    HW226736   3.383   3.159   5.441
 8613SOL     OW26737   3.150   3.173   3.526
 8613SOL    HW126738   3.184   3.097   3.581
 8613SOL    HW226739   3.203   3.255   3.546
 8614SOL     OW26740   0.470   2.689   3.892
 8614SOL    HW126741   0.543   2.660   3.954
 8614SOL    HW226742   0.385   2.701   3.944
 8615SOL     OW26743   3.794   1.166   5.241
 8615SOL    HW126744   3.702   1.188   5.272
 8615SOL    HW226745   3.810   1.068   5.253
 8616SOL     OW26746   5.847   4.309   5.701
 8616SOL    HW126747   5.831   4.232   5.764
 8616SOL    HW226748   5.943   4.336   5.707
 8617SOL     OW26749   1.135   6.658   3.155
 8617SOL    HW126750   1.157   6.755   3.142
 8617SOL    HW226751   1.046   6.651   3.202
 8618SOL     OW26752   5.935   4.323   0.739
 8618SOL    HW126753   5.910   4.233   0.702
 8618SOL    HW226754   5.932   4.391   0.667
 8619SOL     OW26755   5.256   5.463   6.934
 8619SOL    HW126756   5.184   5.529   6.911
 8619SOL    HW226757   5.329   5.470   6.867
 8620SOL     OW26758   1.300   6.368   3.837
 8620SOL    HW126759   1.332   6.289   3.784
 8620SOL    HW226760   1.201   6.365   3.845
 8621SOL     OW26761   6.049   3.718   1.651
 8621SOL    HW126762   6.047   3.734   1.553
 8621SOL    HW226763   6.012   3.627   1.670
 8622SOL     OW26764   0.912   5.937   1.425
 8622SOL    HW126765   0.916   5.985   1.513
 8622SOL    HW226766   0.886   6.001   1.353
 8623SOL     OW26767   2.181   2.082   3.265
 8623SOL    HW126768   2.161   2.034   3.179
 8623SOL    HW226769   2.187   2.180   3.248
 8624SOL     OW26770   3.548   3.784   5.336
 8624SOL    HW126771   3.513   3.693   5.358
 8624SOL    HW226772   3.520   3.849   5.406
 8625SOL     OW26773   4.446   3.247   6.161
 8625SOL    HW126774   4.386   3.197   6.098
 8625SOL    HW226775   4.450   3.198   6.248
 8626SOL     OW26776   4.837   1.950   1.507
 8626SOL    HW126777   4.844   1.999   1.594
 8626SOL    HW226778   4.867   1.856   1.519
 8627SOL     OW26779   0.694   0.121   2.947
 8627SOL    HW126780   0.610   0.177   2.950
 8627SOL    HW226781   0.727   0.107   3.040
 8628SOL     OW26782   1.341   6.974   0.972
 8628SOL    HW126783   1.344   6.905   1.045
 8628SOL    HW226784   1.418   0.012   0.984
 8629SOL     OW26785   0.084   0.477   4.541
 8629SOL    HW126786   0.148   0.420   4.593
 8629SOL    HW226787   7.017   0.440   4.549
 8630SOL     OW26788   5.155   2.600   1.463
 8630SOL    HW126789   5.178   2.525   1.401
 8630SOL    HW226790   5.115   2.675   1.411
 8631SOL     OW26791   1.433   6.226   6.262
 8631SOL    HW126792   1.380   6.149   6.228
 8631SOL    HW226793   1.484   6.198   6.344
 8632SOL     OW26794   6.235   6.000   4.166
 8632SOL    HW126795   6.149   6.013   4.214
 8632SOL    HW226796   6.220   6.005   4.067
 8633SOL     OW26797   6.576   3.169   5.570
 8633SOL    HW126798   6.579   3.261   5.533
 8633SOL    HW226799   6.489   3.155   5.617
 8634SOL     OW26800   4.915   5.007   6.097
 8634SOL    HW126801   4.929   4.920   6.050
 8634SOL    HW226802   4.942   4.997   6.193
 8635SOL     OW26803   5.103   2.129   6.292
 8635SOL    HW126804   5.107   2.089   6.200
 8635SOL    HW226805   5.019   2.181   6.303
 8636SOL     OW26806   3.970   6.201   1.425
 8636SOL    HW126807   3.875   6.175   1.441
 8636SOL    HW226808   3.975   6.262   1.346
 8637SOL     OW26809   2.913   2.295   0.313
 8637SOL    HW126810   2.962   2.219   0.270
 8637SOL    HW226811   2.967   2.331   0.389
 8638SOL     OW26812   5.209   2.684   4.682
 8638SOL    HW126813   5.141   2.699   4.610
 8638SOL    HW226814   5.167   2.635   4.758
 8639SOL     OW26815   3.222   4.585   0.549
 8639SOL    HW126816   3.130   4.580   0.509
 8639SOL    HW226817   3.257   4.678   0.541
 8640SOL     OW26818   3.954   2.543   6.888
 8640SOL    HW126819   3.862   2.581   6.898
 8640SOL    HW226820   3.995   2.531   6.978
 8641SOL     OW26821   3.153   4.887   3.605
 8641SOL    HW126822   3.109   4.976   3.595
 8641SOL    HW226823   3.225   4.893   3.674
 8642SOL     OW26824   2.253   6.045   3.232
 8642SOL    HW126825   2.155   6.032   3.222
 8642SOL    HW226826   2.301   5.988   3.165
 8643SOL     OW26827   3.955   6.654   1.272
 8643SOL    HW126828   4.052   6.662   1.294
 8643SOL    HW226829   3.931   6.557   1.262
 8644SOL     OW26830   5.994   2.346   6.608
 8644SOL    HW126831   5.910   2.361   6.557
 8644SOL    HW226832   5.977   2.356   6.706
 8645SOL     OW26833   4.672   4.648   2.379
 8645SOL    HW126834   4.618   4.564   2.380
 8645SOL    HW226835   4.754   4.634   2.323
 8646SOL     OW26836   0.149   2.079   5.109
 8646SOL    HW126837   0.109   1.999   5.063
 8646SOL    HW226838   0.075   2.134   5.149
 8647SOL     OW26839   1.774   4.842   1.859
 8647SOL    HW126840   1.778   4.942   1.847
 8647SOL    HW226841   1.856   4.811   1.907
 8648SOL     OW26842   5.312   5.306   0.116
 8648SOL    HW126843   5.292   5.357   0.032
 8648SOL    HW226844   5.298   5.208   0.099
 8649SOL     OW26845   5.612   2.068   2.010
 8649SOL    HW126846   5.551   2.110   2.077
 8649SOL    HW226847   5.680   2.012   2.057
 8650SOL     OW26848   2.129   0.878   5.384
 8650SOL    HW126849   2.181   0.963   5.375
 8650SOL    HW226850   2.187   0.809   5.427
 8651SOL     OW26851   4.133   1.923   2.003
 8651SOL    HW126852   4.035   1.930   2.019
 8651SOL    HW226853   4.173   2.015   2.004
 8652SOL     OW26854   6.689   2.060   4.066
 8652SOL    HW126855   6.610   2.042   4.125
 8652SOL    HW226856   6.773   2.033   4.113
 8653SOL     OW26857   5.762   0.895   0.779
 8653SOL    HW126858   5.664   0.891   0.756
 8653SOL    HW226859   5.815   0.899   0.695
 8654SOL     OW26860   0.654   4.831   3.022
 8654SOL    HW126861   0.654   4.731   3.025
 8654SOL    HW226862   0.561   4.865   3.031
 8655SOL     OW26863   1.386   0.195   4.890
 8655SOL    HW126864   1.418   0.204   4.796
 8655SOL    HW226865   1.354   0.101   4.905
 8656SOL     OW26866   4.435   5.905   1.128
 8656SOL    HW126867   4.437   6.005   1.124
 8656SOL    HW226868   4.340   5.874   1.141
 8657SOL     OW26869   3.323   1.693   2.518
 8657SOL    HW126870   3.366   1.719   2.431
 8657SOL    HW226871   3.254   1.761   2.542
 8658SOL     OW26872   6.415   3.824   0.890
 8658SOL    HW126873   6.465   3.755   0.941
 8658SOL    HW226874   6.398   3.904   0.948
 8659SOL     OW26875   3.475   0.551   3.211
 8659SOL    HW126876   3.499   0.560   3.114
 8659SOL    HW226877   3.528   0.476   3.251
 8660SOL     OW26878   6.983   3.796   1.915
 8660SOL    HW126879   6.982   3.711   1.862
 8660SOL    HW226880   6.956   3.872   1.856
 8661SOL     OW26881   6.363   3.758   2.377
 8661SOL    HW126882   6.326   3.786   2.288
 8661SOL    HW226883   6.449   3.805   2.393
 8662SOL     OW26884   1.562   2.439   2.990
 8662SOL    HW126885   1.612   2.367   2.942
 8662SOL    HW226886   1.622   2.482   3.057
 8663SOL     OW26887   3.242   4.911   2.871
 8663SOL    HW126888   3.204   4.841   2.931
 8663SOL    HW226889   3.169   4.973   2.840
 8664SOL     OW26890   3.083   6.244   3.967
 8664SOL    HW126891   3.151   6.281   4.031
 8664SOL    HW226892   3.083   6.299   3.884
 8665SOL     OW26893   6.669   3.870   6.338
 8665SOL    HW126894   6.694   3.834   6.428
 8665SOL    HW226895   6.727   3.829   6.268
 8666SOL     OW26896   5.115   0.614   3.010
 8666SOL    HW126897   5.128   0.701   2.963
 8666SOL    HW226898   5.186   0.602   3.079
 8667SOL     OW26899   5.251   2.242   2.060
 8667SOL    HW126900   5.262   2.301   1.980
 8667SOL    HW226901   5.155   2.212   2.066
 8668SOL     OW26902   3.948   2.197   3.799
 8668SOL    HW126903   3.929   2.101   3.778
 8668SOL    HW226904   3.864   2.242   3.830
 8669SOL     OW26905   0.355   6.315   5.884
 8669SOL    HW126906   0.447   6.342   5.856
 8669SOL    HW226907   0.338   6.347   5.977
 8670SOL     OW26908   0.252   5.495   5.538
 8670SOL    HW126909   0.232   5.398   5.552
 8670SOL    HW226910   0.349   5.506   5.518
 8671SOL     OW26911   7.012   3.103   4.003
 8671SOL    HW126912   0.031   3.168   4.065
 8671SOL    HW226913   6.977   3.152   3.923
 8672SOL     OW26914   6.762   1.524   2.546
 8672SOL    HW126915   6.821   1.539   2.466
 8672SOL    HW226916   6.667   1.525   2.517
 8673SOL     OW26917   0.825   1.029   1.674
 8673SOL    HW126918   0.730   1.048   1.701
 8673SOL    HW226919   0.832   0.936   1.638
 8674SOL     OW26920   0.211   3.699   3.641
 8674SOL    HW126921   0.292   3.724   3.589
 8674SOL    HW226922   0.145   3.655   3.581
 8675SOL     OW26923   4.644   2.674   5.119
 8675SOL    HW126924   4.584   2.754   5.122
 8675SOL    HW226925   4.683   2.665   5.027
 8676SOL     OW26926   4.342   2.358   0.842
 8676SOL    HW126927   4.367   2.451   0.814
 8676SOL    HW226928   4.405   2.326   0.912
 8677SOL     OW26929   2.903   0.924   0.197
 8677SOL    HW126930   2.831   0.951   0.133
 8677SOL    HW226931   2.865   0.919   0.290
 8678SOL     OW26932   3.238   1.909   0.151
 8678SOL    HW126933   3.292   1.870   0.226
 8678SOL    HW226934   3.226   1.840   0.080
 8679SOL     OW26935   1.622   2.016   6.558
 8679SOL    HW126936   1.656   1.927   6.528
 8679SOL    HW226937   1.666   2.089   6.505
 8680SOL     OW26938   6.956   0.531   1.148
 8680SOL    HW126939   6.875   0.482   1.116
 8680SOL    HW226940   6.928   0.611   1.202
 8681SOL     OW26941   5.589   4.967   0.904
 8681SOL    HW126942   5.623   4.874   0.916
 8681SOL    HW226943   5.531   4.992   0.982
 8682SOL     OW26944   2.187   1.270   3.078
 8682SOL    HW126945   2.255   1.341   3.100
 8682SOL    HW226946   2.195   1.195   3.144
 8683SOL     OW26947   2.578   4.678   3.894
 8683SOL    HW126948   2.491   4.643   3.930
 8683SOL    HW226949   2.647   4.678   3.966
 8684SOL     OW26950   2.240   4.352   3.229
 8684SOL    HW126951   2.322   4.404   3.203
 8684SOL    HW226952   2.254   4.311   3.319
 8685SOL     OW26953   5.335   3.461   5.350
 8685SOL    HW126954   5.338   3.479   5.252
 8685SOL    HW226955   5.420   3.491   5.393
 8686SOL     OW26956   1.341   4.965   3.174
 8686SOL    HW126957   1.364   5.009   3.261
 8686SOL    HW226958   1.250   4.924   3.180
 8687SOL     OW26959   5.544   4.407   5.477
 8687SOL    HW126960   5.510   4.328   5.425
 8687SOL    HW226961   5.474   4.477   5.481
 8688SOL     OW26962   0.629   4.037   5.119
 8688SOL    HW126963   0.567   3.959   5.112
 8688SOL    HW226964   0.576   4.119   5.141
 8689SOL     OW26965   4.707   3.484   0.977
 8689SOL    HW126966   4.690   3.408   0.915
 8689SOL    HW226967   4.655   3.470   1.062
 8690SOL     OW26968   1.586   2.345   2.387
 8690SOL    HW126969   1.493   2.316   2.363
 8690SOL    HW226970   1.581   2.425   2.448
 8691SOL     OW26971   3.264   1.458   6.799
 8691SOL    HW126972   3.286   1.380   6.858
 8691SOL    HW226973   3.344   1.516   6.789
 8692SOL     OW26974   5.245   2.013   4.449
 8692SOL    HW126975   5.232   1.979   4.542
 8692SOL    HW226976   5.215   2.108   4.443
 8693SOL     OW26977   0.415   0.438   5.956
 8693SOL    HW126978   0.328   0.461   5.998
 8693SOL    HW226979   0.416   0.341   5.931
 8694SOL     OW26980   4.064   3.678   5.358
 8694SOL    HW126981   4.064   3.637   5.267
 8694SOL    HW226982   4.154   3.715   5.378
 8695SOL     OW26983   4.086   4.470   1.285
 8695SOL    HW126984   4.051   4.441   1.196
 8695SOL    HW226985   4.040   4.554   1.313
 8696SOL     OW26986   3.115   6.384   6.756
 8696SOL    HW126987   3.116   6.406   6.853
 8696SOL    HW226988   3.026   6.346   6.731
 8697SOL     OW26989   1.487   3.114   4.623
 8697SOL    HW126990   1.405   3.056   4.626
 8697SOL    HW226991   1.559   3.068   4.573
 8698SOL     OW26992   5.572   4.044   0.177
 8698SOL    HW126993   5.620   4.045   0.265
 8698SOL    HW226994   5.628   3.996   0.109
 8699SOL     OW26995   2.710   2.145   1.410
 8699SOL    HW126996   2.741   2.235   1.440
 8699SOL    HW226997   2.784   2.099   1.361
 8700SOL     OW26998   0.166   1.900   4.457
 8700SOL    HW126999   0.124   1.836   4.393
 8700SOL    HW227000   0.264   1.880   4.464
 8701SOL     OW27001   1.875   3.063   6.473
 8701SOL    HW127002   1.876   2.978   6.421
 8701SOL    HW227003   1.782   3.101   6.471
 8702SOL     OW27004   5.418   4.097   1.531
 8702SOL    HW127005   5.478   4.027   1.492
 8702SOL    HW227006   5.365   4.140   1.458
 8703SOL     OW27007   1.930   5.598   2.197
 8703SOL    HW127008   1.866   5.586   2.120
 8703SOL    HW227009   1.946   5.695   2.211
 8704SOL     OW27010   6.304   0.916   3.543
 8704SOL    HW127011   6.336   0.996   3.595
 8704SOL    HW227012   6.269   0.847   3.606
 8705SOL     OW27013   3.473   2.271   0.181
 8705SOL    HW127014   3.446   2.236   0.271
 8705SOL    HW227015   3.573   2.263   0.171
 8706SOL     OW27016   4.892   2.860   5.851
 8706SOL    HW127017   4.989   2.878   5.838
 8706SOL    HW227018   4.879   2.780   5.909
 8707SOL     OW27019   0.531   0.797   3.465
 8707SOL    HW127020   0.514   0.749   3.552
 8707SOL    HW227021   0.627   0.822   3.460
 8708SOL     OW27022   5.854   2.320   0.712
 8708SOL    HW127023   5.877   2.395   0.650
 8708SOL    HW227024   5.791   2.353   0.783
 8709SOL     OW27025   6.507   6.070   3.780
 8709SOL    HW127026   6.598   6.055   3.740
 8709SOL    HW227027   6.511   6.147   3.844
 8710SOL     OW27028   2.310   2.665   3.956
 8710SOL    HW127029   2.391   2.606   3.956
 8710SOL    HW227030   2.246   2.634   3.886
 8711SOL     OW27031   1.704   1.350   2.288
 8711SOL    HW127032   1.683   1.338   2.191
 8711SOL    HW227033   1.763   1.275   2.318
 8712SOL     OW27034   1.815   3.468   4.520
 8712SOL    HW127035   1.789   3.564   4.504
 8712SOL    HW227036   1.791   3.413   4.440
 8713SOL     OW27037   0.021   3.952   2.864
 8713SOL    HW127038   6.956   3.926   2.830
 8713SOL    HW227039   0.032   4.051   2.855
 8714SOL     OW27040   6.893   4.172   6.387
 8714SOL    HW127041   6.885   4.081   6.348
 8714SOL    HW227042   6.984   4.209   6.370
 8715SOL     OW27043   2.574   5.369   0.950
 8715SOL    HW127044   2.554   5.406   1.041
 8715SOL    HW227045   2.544   5.434   0.880
 8716SOL     OW27046   5.674   0.340   2.284
 8716SOL    HW127047   5.613   0.275   2.239
 8716SOL    HW227048   5.625   0.390   2.355
 8717SOL     OW27049   3.743   2.262   0.279
 8717SOL    HW127050   3.837   2.263   0.313
 8717SOL    HW227051   3.682   2.232   0.352
 8718SOL     OW27052   2.881   5.514   6.137
 8718SOL    HW127053   2.894   5.534   6.040
 8718SOL    HW227054   2.957   5.458   6.170
 8719SOL     OW27055   3.139   1.788   4.953
 8719SOL    HW127056   3.238   1.772   4.951
 8719SOL    HW227057   3.118   1.859   5.020
 8720SOL     OW27058   0.465   6.265   5.149
 8720SOL    HW127059   0.525   6.332   5.192
 8720SOL    HW227060   0.406   6.311   5.082
 8721SOL     OW27061   1.287   0.975   1.248
 8721SOL    HW127062   1.200   1.015   1.219
 8721SOL    HW227063   1.348   0.966   1.170
 8722SOL     OW27064   4.094   1.367   0.347
 8722SOL    HW127065   4.142   1.447   0.383
 8722SOL    HW227066   4.141   1.284   0.379
 8723SOL     OW27067   4.013   6.248   2.976
 8723SOL    HW127068   3.922   6.284   2.953
 8723SOL    HW227069   4.039   6.179   2.909
 8724SOL     OW27070   3.121   0.771   5.338
 8724SOL    HW127071   3.157   0.770   5.245
 8724SOL    HW227072   3.173   0.707   5.395
 8725SOL     OW27073   6.644   0.723   2.414
 8725SOL    HW127074   6.648   0.802   2.476
 8725SOL    HW227075   6.587   0.744   2.335
 8726SOL     OW27076   6.811   1.076   0.508
 8726SOL    HW127077   6.856   1.069   0.597
 8726SOL    HW227078   6.753   1.157   0.506
 8727SOL     OW27079   4.921   5.507   6.726
 8727SOL    HW127080   4.957   5.482   6.636
 8727SOL    HW227081   4.864   5.589   6.718
 8728SOL     OW27082   5.975   6.603   4.329
 8728SOL    HW127083   6.008   6.509   4.321
 8728SOL    HW227084   5.918   6.625   4.249
 8729SOL     OW27085   5.621   6.330   5.627
 8729SOL    HW127086   5.599   6.387   5.705
 8729SOL    HW227087   5.606   6.381   5.542
 8730SOL     OW27088   3.880   4.590   1.729
 8730SOL    HW127089   3.944   4.515   1.710
 8730SOL    HW227090   3.868   4.598   1.828
 8731SOL     OW27091   6.950   2.043   4.283
 8731SOL    HW127092   6.986   2.119   4.230
 8731SOL    HW227093   7.011   2.023   4.359
 8732SOL     OW27094   5.170   6.284   5.248
 8732SOL    HW127095   5.106   6.211   5.276
 8732SOL    HW227096   5.264   6.251   5.257
 8733SOL     OW27097   6.322   4.439   1.585
 8733SOL    HW127098   6.255   4.466   1.654
 8733SOL    HW227099   6.329   4.510   1.515
 8734SOL     OW27100   1.099   5.825   1.252
 8734SOL    HW127101   1.047   5.879   1.318
 8734SOL    HW227102   1.047   5.818   1.167
 8735SOL     OW27103   1.101   2.504   6.158
 8735SOL    HW127104   1.015   2.457   6.138
 8735SOL    HW227105   1.160   2.500   6.077
 8736SOL     OW27106   1.385   5.990   3.683
 8736SOL    HW127107   1.458   6.043   3.725
 8736SOL    HW227108   1.419   5.899   3.660
 8737SOL     OW27109   0.152   5.564   6.674
 8737SOL    HW127110   0.073   5.529   6.624
 8737SOL    HW227111   0.142   5.542   6.771
 8738SOL     OW27112   2.184   2.736   2.185
 8738SOL    HW127113   2.263   2.710   2.241
 8738SOL    HW227114   2.127   2.801   2.235
 8739SOL     OW27115   4.264   4.728   3.071
 8739SOL    HW127116   4.353   4.687   3.094
 8739SOL    HW227117   4.210   4.738   3.154
 8740SOL     OW27118   2.762   1.748   3.445
 8740SOL    HW127119   2.861   1.751   3.432
 8740SOL    HW227120   2.739   1.674   3.509
 8741SOL     OW27121   1.819   2.130   2.530
 8741SOL    HW127122   1.860   2.118   2.440
 8741SOL    HW227123   1.727   2.090   2.530
 8742SOL     OW27124   1.803   3.288   1.821
 8742SOL    HW127125   1.853   3.357   1.769
 8742SOL    HW227126   1.867   3.224   1.861
 8743SOL     OW27127   0.963   3.513   0.022
 8743SOL    HW127128   0.980   3.487   6.953
 8743SOL    HW227129   0.882   3.465   0.055
 8744SOL     OW27130   3.225   4.034   6.181
 8744SOL    HW127131   3.313   4.072   6.210
 8744SOL    HW227132   3.173   4.005   6.261
 8745SOL     OW27133   6.059   1.599   6.757
 8745SOL    HW127134   6.077   1.603   6.855
 8745SOL    HW227135   6.143   1.619   6.707
 8746SOL     OW27136   4.636   4.928   4.708
 8746SOL    HW127137   4.679   4.859   4.650
 8746SOL    HW227138   4.571   4.885   4.770
 8747SOL     OW27139   0.702   6.867   2.149
 8747SOL    HW127140   0.638   6.806   2.196
 8747SOL    HW227141   0.788   6.869   2.199
 8748SOL     OW27142   5.748   1.562   4.183
 8748SOL    HW127143   5.775   1.622   4.258
 8748SOL    HW227144   5.676   1.501   4.213
 8749SOL     OW27145   2.918   1.619   4.028
 8749SOL    HW127146   2.979   1.673   3.971
 8749SOL    HW227147   2.860   1.680   4.082
 8750SOL     OW27148   3.969   3.467   1.336
 8750SOL    HW127149   3.883   3.433   1.374
 8750SOL    HW227150   4.013   3.394   1.283
 8751SOL     OW27151   2.133   0.093   0.640
 8751SOL    HW127152   2.193   0.160   0.685
 8751SOL    HW227153   2.185   0.046   0.569
 8752SOL     OW27154   0.226   3.362   6.237
 8752SOL    HW127155   0.269   3.335   6.323
 8752SOL    HW227156   0.279   3.436   6.196
 8753SOL     OW27157   1.854   1.539   1.130
 8753SOL    HW127158   1.801   1.498   1.203
 8753SOL    HW227159   1.796   1.602   1.078
 8754SOL     OW27160   1.406   6.056   5.925
 8754SOL    HW127161   1.382   6.153   5.922
 8754SOL    HW227162   1.355   6.007   5.854
 8755SOL     OW27163   0.788   1.962   1.496
 8755SOL    HW127164   0.722   1.908   1.443
 8755SOL    HW227165   0.749   2.052   1.515
 8756SOL     OW27166   1.693   1.732   2.273
 8756SOL    HW127167   1.680   1.644   2.229
 8756SOL    HW227168   1.605   1.771   2.298
 8757SOL     OW27169   5.778   5.907   4.481
 8757SOL    HW127170   5.850   5.884   4.416
 8757SOL    HW227171   5.812   5.896   4.574
 8758SOL     OW27172   3.603   5.505   6.601
 8758SOL    HW127173   3.528   5.569   6.620
 8758SOL    HW227174   3.636   5.467   6.687
 8759SOL     OW27175   6.866   1.191   2.016
 8759SOL    HW127176   6.898   1.254   2.087
 8759SOL    HW227177   6.912   1.103   2.025
 8760SOL     OW27178   1.981   2.503   4.273
 8760SOL    HW127179   1.950   2.414   4.242
 8760SOL    HW227180   2.043   2.543   4.205
 8761SOL     OW27181   4.735   2.845   3.410
 8761SOL    HW127182   4.744   2.773   3.341
 8761SOL    HW227183   4.657   2.903   3.388
 8762SOL     OW27184   4.360   6.104   2.903
 8762SOL    HW127185   4.306   6.105   2.987
 8762SOL    HW227186   4.396   6.011   2.888
 8763SOL     OW27187   6.917   1.172   5.540
 8763SOL    HW127188   6.975   1.220   5.605
 8763SOL    HW227189   6.969   1.097   5.498
 8764SOL     OW27190   3.356   5.483   6.177
 8764SOL    HW127191   3.414   5.455   6.253
 8764SOL    HW227192   3.378   5.428   6.097
 8765SOL     OW27193   4.491   6.921   3.467
 8765SOL    HW127194   4.412   6.981   3.455
 8765SOL    HW227195   4.474   6.834   3.421
 8766SOL     OW27196   6.154   6.948   4.802
 8766SOL    HW127197   6.254   6.946   4.811
 8766SOL    HW227198   6.121   0.014   4.823
 8767SOL     OW27199   2.119   1.077   4.827
 8767SOL    HW127200   2.105   1.061   4.925
 8767SOL    HW227201   2.191   1.145   4.815
 8768SOL     OW27202   6.574   1.560   1.160
 8768SOL    HW127203   6.552   1.626   1.088
 8768SOL    HW227204   6.551   1.599   1.249
 8769SOL     OW27205   6.562   6.763   6.546
 8769SOL    HW127206   6.513   6.679   6.526
 8769SOL    HW227207   6.629   6.781   6.474
 8770SOL     OW27208   4.628   1.493   0.590
 8770SOL    HW127209   4.630   1.401   0.552
 8770SOL    HW227210   4.713   1.510   0.641
 8771SOL     OW27211   0.258   2.531   6.095
 8771SOL    HW127212   0.268   2.498   6.001
 8771SOL    HW227213   0.167   2.508   6.129
 8772SOL     OW27214   0.644   6.404   3.820
 8772SOL    HW127215   0.689   6.429   3.734
 8772SOL    HW227216   0.626   6.306   3.821
 8773SOL     OW27217   0.035   1.206   3.790
 8773SOL    HW127218   0.085   1.160   3.864
 8773SOL    HW227219   0.083   1.290   3.766
 8774SOL     OW27220   1.448   2.316   6.813
 8774SOL    HW127221   1.454   2.331   6.912
 8774SOL    HW227222   1.385   2.241   6.794
 8775SOL     OW27223   5.405   2.089   2.953
 8775SOL    HW127224   5.452   2.177   2.960
 8775SOL    HW227225   5.389   2.052   3.044
 8776SOL     OW27226   5.080   3.004   1.533
 8776SOL    HW127227   5.058   2.980   1.628
 8776SOL    HW227228   5.168   3.052   1.531
 8777SOL     OW27229   6.795   2.184   4.459
 8777SOL    HW127230   6.834   2.121   4.392
 8777SOL    HW227231   6.827   2.276   4.441
 8778SOL     OW27232   1.976   3.893   6.823
 8778SOL    HW127233   2.024   3.849   6.747
 8778SOL    HW227234   2.043   3.919   6.893
 8779SOL     OW27235   4.147   5.868   3.072
 8779SOL    HW127236   4.163   5.821   2.986
 8779SOL    HW227237   4.049   5.862   3.096
 8780SOL     OW27238   1.176   3.759   4.129
 8780SOL    HW127239   1.085   3.795   4.107
 8780SOL    HW227240   1.168   3.661   4.148
 8781SOL     OW27241   3.542   1.643   1.793
 8781SOL    HW127242   3.501   1.702   1.724
 8781SOL    HW227243   3.610   1.694   1.845
 8782SOL     OW27244   6.775   2.679   0.314
 8782SOL    HW127245   6.759   2.763   0.263
 8782SOL    HW227246   6.688   2.646   0.351
 8783SOL     OW27247   4.027   3.396   5.434
 8783SOL    HW127248   3.929   3.384   5.453
 8783SOL    HW227249   4.050   3.493   5.435
 8784SOL     OW27250   4.132   1.038   6.277
 8784SOL    HW127251   4.173   1.127   6.259
 8784SOL    HW227252   4.160   0.973   6.207
 8785SOL     OW27253   7.017   6.109   6.283
 8785SOL    HW127254   0.086   6.140   6.284
 8785SOL    HW227255   6.988   6.094   6.188
 8786SOL     OW27256   5.648   2.153   3.373
 8786SOL    HW127257   5.674   2.100   3.453
 8786SOL    HW227258   5.679   2.248   3.384
 8787SOL     OW27259   3.376   4.943   2.266
 8787SOL    HW127260   3.463   4.987   2.243
 8787SOL    HW227261   3.324   4.926   2.182
 8788SOL     OW27262   0.188   6.031   3.804
 8788SOL    HW127263   0.121   6.097   3.835
 8788SOL    HW227264   0.150   5.939   3.812
 8789SOL     OW27265   1.296   3.341   7.012
 8789SOL    HW127266   1.225   3.327   0.055
 8789SOL    HW227267   1.351   3.421   0.010
 8790SOL     OW27268   5.209   3.086   5.139
 8790SOL    HW127269   5.278   3.147   5.100
 8790SOL    HW227270   5.205   3.002   5.086
 8791SOL     OW27271   4.207   5.900   4.940
 8791SOL    HW127272   4.291   5.890   4.885
 8791SOL    HW227273   4.225   5.874   5.034
 8792SOL     OW27274   5.712   5.062   0.451
 8792SOL    HW127275   5.763   4.982   0.483
 8792SOL    HW227276   5.615   5.039   0.444
 8793SOL     OW27277   6.463   6.963   5.375
 8793SOL    HW127278   6.471   0.020   5.430
 8793SOL    HW227279   6.555   6.930   5.351
 8794SOL     OW27280   0.077   2.409   3.368
 8794SOL    HW127281   0.023   2.493   3.363
 8794SOL    HW227282   0.131   2.400   3.284
 8795SOL     OW27283   1.626   0.263   6.848
 8795SOL    HW127284   1.533   0.229   6.863
 8795SOL    HW227285   1.681   0.191   6.806
 8796SOL     OW27286   5.629   4.430   4.359
 8796SOL    HW127287   5.672   4.485   4.430
 8796SOL    HW227288   5.635   4.478   4.271
 8797SOL     OW27289   5.100   6.095   4.835
 8797SOL    HW127290   5.095   6.122   4.739
 8797SOL    HW227291   5.166   6.021   4.845
 8798SOL     OW27292   1.846   5.867   6.024
 8798SOL    HW127293   1.936   5.826   6.037
 8798SOL    HW227294   1.802   5.879   6.113
 8799SOL     OW27295   1.702   6.613   1.867
 8799SOL    HW127296   1.620   6.641   1.817
 8799SOL    HW227297   1.706   6.513   1.872
 8800SOL     OW27298   6.673   6.002   4.057
 8800SOL    HW127299   6.698   6.017   3.961
 8800SOL    HW227300   6.741   5.941   4.099
 8801SOL     OW27301   4.717   3.096   5.631
 8801SOL    HW127302   4.768   3.134   5.708
 8801SOL    HW227303   4.702   3.168   5.563
 8802SOL     OW27304   1.202   6.589   6.893
 8802SOL    HW127305   1.300   6.574   6.900
 8802SOL    HW227306   1.181   6.637   6.808
 8803SOL     OW27307   5.198   5.212   4.829
 8803SOL    HW127308   5.139   5.210   4.909
 8803SOL    HW227309   5.273   5.276   4.844
 8804SOL     OW27310   1.790   6.802   2.057
 8804SOL    HW127311   1.737   6.738   2.002
 8804SOL    HW227312   1.806   6.764   2.148
 8805SOL     OW27313   5.018   4.727   1.888
 8805SOL    HW127314   5.082   4.783   1.836
 8805SOL    HW227315   4.972   4.784   1.956
 8806SOL     OW27316   1.071   0.733   1.840
 8806SOL    HW127317   1.001   0.755   1.772
 8806SOL    HW227318   1.058   0.790   1.921
 8807SOL     OW27319   6.199   2.455   1.810
 8807SOL    HW127320   6.107   2.426   1.835
 8807SOL    HW227321   6.265   2.389   1.845
 8808SOL     OW27322   1.484   1.661   0.777
 8808SOL    HW127323   1.509   1.592   0.709
 8808SOL    HW227324   1.396   1.638   0.817
 8809SOL     OW27325   0.981   3.538   3.142
 8809SOL    HW127326   1.014   3.545   3.236
 8809SOL    HW227327   0.937   3.624   3.115
 8810SOL     OW27328   6.130   2.282   4.567
 8810SOL    HW127329   6.197   2.288   4.642
 8810SOL    HW227330   6.176   2.251   4.484
 8811SOL     OW27331   3.950   5.313   2.289
 8811SOL    HW127332   4.012   5.253   2.238
 8811SOL    HW227333   3.901   5.259   2.358
 8812SOL     OW27334   5.615   0.461   0.419
 8812SOL    HW127335   5.656   0.491   0.505
 8812SOL    HW227336   5.604   0.540   0.358
 8813SOL     OW27337   1.504   2.903   1.855
 8813SOL    HW127338   1.553   2.981   1.896
 8813SOL    HW227339   1.493   2.831   1.923
 8814SOL     OW27340   5.290   0.062   5.039
 8814SOL    HW127341   5.296   0.136   4.972
 8814SOL    HW227342   5.201   0.016   5.030
 8815SOL     OW27343   5.075   0.976   1.184
 8815SOL    HW127344   5.101   0.970   1.088
 8815SOL    HW227345   5.019   0.897   1.209
 8816SOL     OW27346   0.060   0.464   3.448
 8816SOL    HW127347   0.013   0.402   3.386
 8816SOL    HW227348   0.151   0.427   3.470
 8817SOL     OW27349   1.074   2.463   3.710
 8817SOL    HW127350   0.983   2.424   3.696
 8817SOL    HW227351   1.100   2.517   3.630
 8818SOL     OW27352   1.115   6.338   6.631
 8818SOL    HW127353   1.076   6.279   6.702
 8818SOL    HW227354   1.213   6.350   6.648
 8819SOL     OW27355   5.105   6.305   5.741
 8819SOL    HW127356   5.204   6.290   5.744
 8819SOL    HW227357   5.059   6.225   5.779
 8820SOL     OW27358   3.844   6.555   5.657
 8820SOL    HW127359   3.827   6.589   5.749
 8820SOL    HW227360   3.865   6.632   5.596
 8821SOL     OW27361   0.787   5.632   5.559
 8821SOL    HW127362   0.716   5.659   5.494
 8821SOL    HW227363   0.745   5.586   5.637
 8822SOL     OW27364   6.373   0.213   4.577
 8822SOL    HW127365   6.359   0.143   4.648
 8822SOL    HW227366   6.357   0.172   4.487
 8823SOL     OW27367   4.703   2.217   3.422
 8823SOL    HW127368   4.641   2.292   3.447
 8823SOL    HW227369   4.720   2.160   3.502
 8824SOL     OW27370   1.754   0.127   4.458
 8824SOL    HW127371   1.680   0.190   4.481
 8824SOL    HW227372   1.812   0.168   4.387
 8825SOL     OW27373   1.345   0.123   0.656
 8825SOL    HW127374   1.298   0.167   0.579
 8825SOL    HW227375   1.300   0.036   0.676
 8826SOL     OW27376   0.522   4.110   0.499
 8826SOL    HW127377   0.620   4.099   0.518
 8826SOL    HW227378   0.477   4.149   0.579
 8827SOL     OW27379   4.735   6.000   3.326
 8827SOL    HW127380   4.808   5.952   3.278
 8827SOL    HW227381   4.694   5.940   3.394
 8828SOL     OW27382   5.206   2.258   5.508
 8828SOL    HW127383   5.243   2.172   5.542
 8828SOL    HW227384   5.250   2.335   5.554
 8829SOL     OW27385   6.006   1.050   2.909
 8829SOL    HW127386   6.004   0.964   2.859
 8829SOL    HW227387   5.971   1.123   2.851
 8830SOL     OW27388   3.184   0.715   2.854
 8830SOL    HW127389   3.172   0.801   2.804
 8830SOL    HW227390   3.216   0.644   2.792
 8831SOL     OW27391   0.707   2.684   2.609
 8831SOL    HW127392   0.715   2.782   2.626
 8831SOL    HW227393   0.770   2.658   2.535
 8832SOL     OW27394   6.046   0.256   5.114
 8832SOL    HW127395   5.993   0.340   5.126
 8832SOL    HW227396   5.990   0.178   5.139
 8833SOL     OW27397   4.776   2.935   0.920
 8833SOL    HW127398   4.856   2.985   0.886
 8833SOL    HW227399   4.780   2.928   1.020
 8834SOL     OW27400   5.611   4.641   6.231
 8834SOL    HW127401   5.582   4.660   6.324
 8834SOL    HW227402   5.660   4.554   6.228
 8835SOL     OW27403   6.357   0.897   5.053
 8835SOL    HW127404   6.285   0.839   5.016
 8835SOL    HW227405   6.403   0.945   4.979
 8836SOL     OW27406   4.274   1.578   1.227
 8836SOL    HW127407   4.295   1.595   1.323
 8836SOL    HW227408   4.357   1.548   1.180
 8837SOL     OW27409   4.986   4.771   0.495
 8837SOL    HW127410   4.973   4.804   0.589
 8837SOL    HW227411   4.904   4.792   0.442
 8838SOL     OW27412   2.139   3.958   2.478
 8838SOL    HW127413   2.044   3.979   2.500
 8838SOL    HW227414   2.168   4.011   2.398
 8839SOL     OW27415   4.429   4.690   1.174
 8839SOL    HW127416   4.529   4.683   1.169
 8839SOL    HW227417   4.397   4.761   1.111
 8840SOL     OW27418   0.444   0.464   1.684
 8840SOL    HW127419   0.415   0.470   1.780
 8840SOL    HW227420   0.437   0.370   1.653
 8841SOL     OW27421   3.862   1.579   0.993
 8841SOL    HW127422   3.793   1.509   1.008
 8841SOL    HW227423   3.932   1.544   0.931
 8842SOL     OW27424   3.446   3.238   3.741
 8842SOL    HW127425   3.481   3.309   3.680
 8842SOL    HW227426   3.383   3.280   3.807
 8843SOL     OW27427   2.552   6.066   5.177
 8843SOL    HW127428   2.496   6.148   5.186
 8843SOL    HW227429   2.647   6.088   5.197
 8844SOL     OW27430   3.781   2.943   5.488
 8844SOL    HW127431   3.825   2.866   5.536
 8844SOL    HW227432   3.837   2.969   5.409
 8845SOL     OW27433   0.873   3.293   2.239
 8845SOL    HW127434   0.956   3.324   2.193
 8845SOL    HW227435   0.824   3.230   2.179
 8846SOL     OW27436   5.658   5.666   4.129
 8846SOL    HW127437   5.625   5.756   4.156
 8846SOL    HW227438   5.586   5.616   4.082
 8847SOL     OW27439   0.750   2.230   3.897
 8847SOL    HW127440   0.722   2.286   3.975
 8847SOL    HW227441   0.784   2.142   3.930
 8848SOL     OW27442   6.121   2.375   1.119
 8848SOL    HW127443   6.144   2.405   1.026
 8848SOL    HW227444   6.040   2.424   1.150
 8849SOL     OW27445   2.967   5.347   4.440
 8849SOL    HW127446   2.906   5.269   4.455
 8849SOL    HW227447   3.005   5.377   4.528
 8850SOL     OW27448   3.572   2.358   0.707
 8850SOL    HW127449   3.605   2.273   0.747
 8850SOL    HW227450   3.493   2.391   0.759
 8851SOL     OW27451   7.018   4.943   2.894
 8851SOL    HW127452   0.071   5.001   2.914
 8851SOL    HW227453   0.022   4.850   2.876
 8852SOL     OW27454   5.202   3.675   4.797
 8852SOL    HW127455   5.245   3.764   4.783
 8852SOL    HW227456   5.247   3.607   4.740
 8853SOL     OW27457   4.922   1.706   4.892
 8853SOL    HW127458   4.889   1.623   4.937
 8853SOL    HW227459   4.925   1.691   4.793
 8854SOL     OW27460   2.856   0.927   5.884
 8854SOL    HW127461   2.855   1.002   5.950
 8854SOL    HW227462   2.918   0.950   5.808
 8855SOL     OW27463   6.055   4.933   6.169
 8855SOL    HW127464   6.087   4.904   6.260
 8855SOL    HW227465   5.982   4.872   6.139
 8856SOL     OW27466   5.407   1.339   5.453
 8856SOL    HW127467   5.439   1.348   5.359
 8856SOL    HW227468   5.310   1.363   5.459
 8857SOL     OW27469   2.112   3.312   4.400
 8857SOL    HW127470   2.137   3.395   4.350
 8857SOL    HW227471   2.133   3.324   4.497
 8858SOL     OW27472   0.690   3.584   5.511
 8858SOL    HW127473   0.730   3.586   5.603
 8858SOL    HW227474   0.713   3.498   5.466
 8859SOL     OW27475   2.635   6.539   5.548
 8859SOL    HW127476   2.538   6.548   5.527
 8859SOL    HW227477   2.653   6.576   5.639
 8860SOL     OW27478   2.071   1.448   1.252
 8860SOL    HW127479   2.126   1.428   1.171
 8860SOL    HW227480   1.985   1.491   1.225
 8861SOL     OW27481   1.773   2.300   0.434
 8861SOL    HW127482   1.832   2.255   0.501
 8861SOL    HW227483   1.828   2.363   0.379
 8862SOL     OW27484   6.747   2.095   4.936
 8862SOL    HW127485   6.656   2.124   4.965
 8862SOL    HW227486   6.805   2.176   4.923
 8863SOL     OW27487   2.150   5.644   5.398
 8863SOL    HW127488   2.061   5.691   5.401
 8863SOL    HW227489   2.203   5.680   5.321
 8864SOL     OW27490   1.972   4.645   5.810
 8864SOL    HW127491   1.941   4.707   5.882
 8864SOL    HW227492   1.974   4.551   5.845
 8865SOL     OW27493   3.122   2.333   5.912
 8865SOL    HW127494   3.080   2.267   5.975
 8865SOL    HW227495   3.181   2.283   5.847
 8866SOL     OW27496   4.708   0.507   5.390
 8866SOL    HW127497   4.766   0.432   5.360
 8866SOL    HW227498   4.761   0.570   5.447
 8867SOL     OW27499   6.219   0.924   3.272
 8867SOL    HW127500   6.192   0.836   3.234
 8867SOL    HW227501   6.254   0.911   3.365
 8868SOL     OW27502   5.463   3.508   0.832
 8868SOL    HW127503   5.389   3.569   0.863
 8868SOL    HW227504   5.505   3.546   0.750
 8869SOL     OW27505   3.300   1.925   3.244
 8869SOL    HW127506   3.234   1.881   3.183
 8869SOL    HW227507   3.347   1.854   3.297
 8870SOL     OW27508   5.093   0.698   2.148
 8870SOL    HW127509   5.014   0.683   2.208
 8870SOL    HW227510   5.076   0.653   2.060
 8871SOL     OW27511   1.570   2.158   3.530
 8871SOL    HW127512   1.644   2.214   3.492
 8871SOL    HW227513   1.524   2.210   3.602
 8872SOL     OW27514   1.321   1.968   2.056
 8872SOL    HW127515   1.273   2.051   2.086
 8872SOL    HW227516   1.276   1.930   1.975
 8873SOL     OW27517   6.785   5.493   4.945
 8873SOL    HW127518   6.860   5.555   4.968
 8873SOL    HW227519   6.811   5.435   4.868
 8874SOL     OW27520   1.146   1.590   6.526
 8874SOL    HW127521   1.151   1.686   6.554
 8874SOL    HW227522   1.070   1.579   6.461
 8875SOL     OW27523   1.369   1.048   3.991
 8875SOL    HW127524   1.380   0.949   3.985
 8875SOL    HW227525   1.345   1.085   3.902
 8876SOL     OW27526   2.851   0.893   4.788
 8876SOL    HW127527   2.796   0.888   4.871
 8876SOL    HW227528   2.804   0.842   4.715
 8877SOL     OW27529   3.006   6.875   4.434
 8877SOL    HW127530   3.042   6.800   4.488
 8877SOL    HW227531   3.025   6.962   4.480
 8878SOL     OW27532   5.764   4.596   5.072
 8878SOL    HW127533   5.709   4.537   5.013
 8878SOL    HW227534   5.760   4.562   5.166
 8879SOL     OW27535   4.675   5.469   4.352
 8879SOL    HW127536   4.637   5.555   4.386
 8879SOL    HW227537   4.629   5.444   4.267
 8880SOL     OW27538   1.163   6.490   5.268
 8880SOL    HW127539   1.221   6.521   5.344
 8880SOL    HW227540   1.075   6.537   5.272
 8881SOL     OW27541   0.021   1.822   2.545
 8881SOL    HW127542   6.949   1.830   2.567
 8881SOL    HW227543   0.072   1.798   2.628
 8882SOL     OW27544   5.353   2.862   0.398
 8882SOL    HW127545   5.427   2.905   0.346
 8882SOL    HW227546   5.338   2.912   0.483
 8883SOL     OW27547   5.889   1.048   5.391
 8883SOL    HW127548   5.913   1.114   5.462
 8883SOL    HW227549   5.936   1.072   5.306
 8884SOL     OW27550   0.246   1.398   6.447
 8884SOL    HW127551   0.290   1.484   6.473
 8884SOL    HW227552   0.316   1.326   6.440
 8885SOL     OW27553   5.596   3.869   1.406
 8885SOL    HW127554   5.654   3.796   1.370
 8885SOL    HW227555   5.503   3.835   1.418
 8886SOL     OW27556   2.931   5.512   5.871
 8886SOL    HW127557   2.898   5.575   5.800
 8886SOL    HW227558   3.031   5.506   5.866
 8887SOL     OW27559   1.366   1.520   1.192
 8887SOL    HW127560   1.332   1.518   1.098
 8887SOL    HW227561   1.404   1.430   1.215
 8888SOL     OW27562   2.848   1.903   3.065
 8888SOL    HW127563   2.878   1.912   2.970
 8888SOL    HW227564   2.762   1.851   3.067
 8889SOL     OW27565   3.544   1.151   4.232
 8889SOL    HW127566   3.512   1.243   4.256
 8889SOL    HW227567   3.607   1.118   4.302
 8890SOL     OW27568   0.097   4.627   3.461
 8890SOL    HW127569   0.126   4.653   3.369
 8890SOL    HW227570   0.067   4.531   3.460
 8891SOL     OW27571   3.076   1.249   6.135
 8891SOL    HW127572   3.070   1.274   6.231
 8891SOL    HW227573   3.008   1.178   6.115
 8892SOL     OW27574   1.182   6.865   2.727
 8892SOL    HW127575   1.246   6.915   2.785
 8892SOL    HW227576   1.089   6.886   2.754
 8893SOL     OW27577   0.520   1.002   0.934
 8893SOL    HW127578   0.462   0.924   0.959
 8893SOL    HW227579   0.471   1.061   0.870
 8894SOL     OW27580   4.732   2.396   6.000
 8894SOL    HW127581   4.781   2.331   5.942
 8894SOL    HW227582   4.651   2.352   6.039
 8895SOL     OW27583   1.726   1.194   3.001
 8895SOL    HW127584   1.766   1.136   2.930
 8895SOL    HW227585   1.682   1.273   2.958
 8896SOL     OW27586   2.110   4.431   5.211
 8896SOL    HW127587   2.203   4.403   5.188
 8896SOL    HW227588   2.047   4.355   5.196
 8897SOL     OW27589   0.938   2.386   1.559
 8897SOL    HW127590   0.877   2.464   1.547
 8897SOL    HW227591   1.027   2.406   1.520
 8898SOL     OW27592   0.258   2.961   5.238
 8898SOL    HW127593   0.160   2.979   5.244
 8898SOL    HW227594   0.274   2.863   5.249
 8899SOL     OW27595   3.049   5.207   1.672
 8899SOL    HW127596   3.031   5.287   1.729
 8899SOL    HW227597   2.988   5.133   1.698
 8900SOL     OW27598   6.562   2.025   3.660
 8900SOL    HW127599   6.658   2.001   3.664
 8900SOL    HW227600   6.549   2.119   3.692
 8901SOL     OW27601   1.835   0.047   1.627
 8901SOL    HW127602   1.803   0.039   1.533
 8901SOL    HW227603   1.934   0.060   1.627
 8902SOL     OW27604   3.732   6.181   5.711
 8902SOL    HW127605   3.763   6.207   5.802
 8902SOL    HW227606   3.801   6.206   5.643
 8903SOL     OW27607   6.512   0.414   2.796
 8903SOL    HW127608   6.513   0.464   2.883
 8903SOL    HW227609   6.507   0.480   2.721
 8904SOL     OW27610   0.969   4.663   3.335
 8904SOL    HW127611   0.873   4.652   3.310
 8904SOL    HW227612   0.977   4.668   3.435
 8905SOL     OW27613   2.217   4.144   4.843
 8905SOL    HW127614   2.261   4.142   4.933
 8905SOL    HW227615   2.118   4.147   4.855
 8906SOL     OW27616   2.365   5.283   4.900
 8906SOL    HW127617   2.296   5.247   4.962
 8906SOL    HW227618   2.324   5.306   4.812
 8907SOL     OW27619   3.603   2.513   6.451
 8907SOL    HW127620   3.615   2.576   6.528
 8907SOL    HW227621   3.666   2.539   6.377
 8908SOL     OW27622   0.753   2.924   2.806
 8908SOL    HW127623   0.709   2.898   2.892
 8908SOL    HW227624   0.815   3.000   2.821
 8909SOL     OW27625   3.359   0.154   5.290
 8909SOL    HW127626   3.318   0.068   5.320
 8909SOL    HW227627   3.359   0.159   5.190
 8910SOL     OW27628   4.105   2.835   0.478
 8910SOL    HW127629   4.115   2.926   0.437
 8910SOL    HW227630   4.172   2.823   0.550
 8911SOL     OW27631   5.223   2.558   3.799
 8911SOL    HW127632   5.269   2.538   3.885
 8911SOL    HW227633   5.125   2.542   3.809
 8912SOL     OW27634   4.775   1.058   6.722
 8912SOL    HW127635   4.821   0.987   6.775
 8912SOL    HW227636   4.706   1.016   6.663
 8913SOL     OW27637   4.438   4.032   1.182
 8913SOL    HW127638   4.463   4.095   1.256
 8913SOL    HW227639   4.491   4.054   1.101
 8914SOL     OW27640   4.962   2.620   4.131
 8914SOL    HW127641   5.049   2.577   4.157
 8914SOL    HW227642   4.925   2.572   4.051
 8915SOL     OW27643   0.673   5.148   2.189
 8915SOL    HW127644   0.659   5.214   2.262
 8915SOL    HW227645   0.646   5.188   2.102
 8916SOL     OW27646   6.011   3.353   2.527
 8916SOL    HW127647   6.012   3.400   2.439
 8916SOL    HW227648   5.920   3.315   2.544
 8917SOL     OW27649   5.426   4.602   5.128
 8917SOL    HW127650   5.388   4.685   5.087
 8917SOL    HW227651   5.448   4.619   5.224
 8918SOL     OW27652   5.012   3.986   6.188
 8918SOL    HW127653   4.919   3.968   6.220
 8918SOL    HW227654   5.014   3.987   6.088
 8919SOL     OW27655   2.164   3.336   1.577
 8919SOL    HW127656   2.076   3.361   1.537
 8919SOL    HW227657   2.189   3.244   1.546
 8920SOL     OW27658   6.644   5.379   5.862
 8920SOL    HW127659   6.736   5.341   5.868
 8920SOL    HW227660   6.582   5.326   5.920
 8921SOL     OW27661   0.852   5.494   3.765
 8921SOL    HW127662   0.816   5.404   3.789
 8921SOL    HW227663   0.909   5.528   3.840
 8922SOL     OW27664   6.986   3.569   6.374
 8922SOL    HW127665   6.956   3.658   6.408
 8922SOL    HW227666   0.038   3.581   6.313
 8923SOL     OW27667   2.583   4.578   4.406
 8923SOL    HW127668   2.575   4.641   4.483
 8923SOL    HW227669   2.582   4.484   4.440
 8924SOL     OW27670   2.059   6.333   4.664
 8924SOL    HW127671   2.068   6.352   4.762
 8924SOL    HW227672   2.149   6.321   4.624
 8925SOL     OW27673   4.624   5.457   1.109
 8925SOL    HW127674   4.603   5.394   1.184
 8925SOL    HW227675   4.590   5.420   1.023
 8926SOL     OW27676   5.584   0.397   6.786
 8926SOL    HW127677   5.682   0.377   6.790
 8926SOL    HW227678   5.570   0.496   6.790
 8927SOL     OW27679   2.710   1.697   4.781
 8927SOL    HW127680   2.614   1.678   4.801
 8927SOL    HW227681   2.726   1.796   4.780
 8928SOL     OW27682   1.079   0.287   5.424
 8928SOL    HW127683   1.011   0.358   5.438
 8928SOL    HW227684   1.042   0.217   5.362
 8929SOL     OW27685   5.010   4.083   3.239
 8929SOL    HW127686   4.920   4.112   3.273
 8929SOL    HW227687   5.058   4.033   3.311
 8930SOL     OW27688   0.391   5.801   5.200
 8930SOL    HW127689   0.448   5.802   5.118
 8930SOL    HW227690   0.309   5.856   5.184
 8931SOL     OW27691   4.504   1.155   1.378
 8931SOL    HW127692   4.599   1.182   1.363
 8931SOL    HW227693   4.494   1.058   1.356
 8932SOL     OW27694   4.937   0.828   0.408
 8932SOL    HW127695   5.014   0.784   0.362
 8932SOL    HW227696   4.905   0.905   0.353
 8933SOL     OW27697   1.534   0.167   5.103
 8933SOL    HW127698   1.463   0.177   5.034
 8933SOL    HW227699   1.607   0.109   5.067
 8934SOL     OW27700   3.917   6.679   4.038
 8934SOL    HW127701   3.852   6.714   4.105
 8934SOL    HW227702   3.870   6.657   3.953
 8935SOL     OW27703   5.817   1.778   3.104
 8935SOL    HW127704   5.760   1.849   3.064
 8935SOL    HW227705   5.866   1.730   3.031
 8936SOL     OW27706   1.537   4.019   2.009
 8936SOL    HW127707   1.620   4.070   1.984
 8936SOL    HW227708   1.491   4.065   2.084
 8937SOL     OW27709   3.167   6.956   4.876
 8937SOL    HW127710   3.229   0.007   4.859
 8937SOL    HW227711   3.170   6.894   4.797
 8938SOL     OW27712   5.624   6.445   1.456
 8938SOL    HW127713   5.559   6.434   1.381
 8938SOL    HW227714   5.647   6.542   1.466
 8939SOL     OW27715   6.646   2.825   4.651
 8939SOL    HW127716   6.575   2.773   4.699
 8939SOL    HW227717   6.639   2.809   4.553
 8940SOL     OW27718   6.476   3.336   2.221
 8940SOL    HW127719   6.506   3.393   2.144
 8940SOL    HW227720   6.454   3.395   2.299
 8941SOL     OW27721   5.936   2.284   3.179
 8941SOL    HW127722   5.840   2.311   3.184
 8941SOL    HW227723   5.989   2.339   3.243
 8942SOL     OW27724   4.505   4.973   3.806
 8942SOL    HW127725   4.507   4.873   3.811
 8942SOL    HW227726   4.588   5.010   3.849
 8943SOL     OW27727   4.178   3.503   0.714
 8943SOL    HW127728   4.177   3.585   0.772
 8943SOL    HW227729   4.222   3.428   0.762
 8944SOL     OW27730   4.679   6.350   4.998
 8944SOL    HW127731   4.766   6.401   5.000
 8944SOL    HW227732   4.688   6.267   5.052
 8945SOL     OW27733   6.354   4.641   1.409
 8945SOL    HW127734   6.370   4.595   1.322
 8945SOL    HW227735   6.414   4.720   1.417
 8946SOL     OW27736   3.587   1.440   4.544
 8946SOL    HW127737   3.527   1.412   4.618
 8946SOL    HW227738   3.641   1.362   4.513
 8947SOL     OW27739   2.685   5.129   0.620
 8947SOL    HW127740   2.720   5.126   0.526
 8947SOL    HW227741   2.696   5.222   0.657
 8948SOL     OW27742   5.316   0.491   2.760
 8948SOL    HW127743   5.301   0.537   2.847
 8948SOL    HW227744   5.350   0.556   2.692
 8949SOL     OW27745   3.939   6.434   0.935
 8949SOL    HW127746   3.980   6.463   0.848
 8949SOL    HW227747   3.848   6.473   0.943
 8950SOL     OW27748   3.440   4.158   3.197
 8950SOL    HW127749   3.493   4.073   3.188
 8950SOL    HW227750   3.440   4.188   3.292
 8951SOL     OW27751   0.562   0.466   3.762
 8951SOL    HW127752   0.644   0.523   3.751
 8951SOL    HW227753   0.580   0.395   3.830
 8952SOL     OW27754   1.421   3.783   5.011
 8952SOL    HW127755   1.326   3.813   5.022
 8952SOL    HW227756   1.476   3.859   4.976
 8953SOL     OW27757   0.364   5.371   0.859
 8953SOL    HW127758   0.307   5.347   0.781
 8953SOL    HW227759   0.307   5.390   0.939
 8954SOL     OW27760   2.302   4.537   5.494
 8954SOL    HW127761   2.285   4.617   5.437
 8954SOL    HW227762   2.275   4.455   5.445
 8955SOL     OW27763   6.044   3.212   5.992
 8955SOL    HW127764   6.055   3.130   5.935
 8955SOL    HW227765   6.118   3.276   5.974
 8956SOL     OW27766   0.766   6.312   0.748
 8956SOL    HW127767   0.718   6.332   0.663
 8956SOL    HW227768   0.701   6.287   0.819
 8957SOL     OW27769   1.086   6.966   3.389
 8957SOL    HW127770   1.024   6.888   3.390
 8957SOL    HW227771   1.136   6.970   3.475
 8958SOL     OW27772   6.632   3.681   4.905
 8958SOL    HW127773   6.554   3.633   4.944
 8958SOL    HW227774   6.715   3.658   4.957
 8959SOL     OW27775   4.909   1.437   4.125
 8959SOL    HW127776   4.986   1.390   4.167
 8959SOL    HW227777   4.891   1.523   4.173
 8960SOL     OW27778   5.277   5.012   2.787
 8960SOL    HW127779   5.281   4.932   2.728
 8960SOL    HW227780   5.369   5.042   2.811
 8961SOL     OW27781   2.405   2.062   5.671
 8961SOL    HW127782   2.495   2.085   5.637
 8961SOL    HW227783   2.396   2.092   5.766
 8962SOL     OW27784   6.940   6.258   1.928
 8962SOL    HW127785   6.933   6.159   1.918
 8962SOL    HW227786   7.022   6.280   1.982
 8963SOL     OW27787   2.208   5.913   5.948
 8963SOL    HW127788   2.304   5.906   5.977
 8963SOL    HW227789   2.203   5.948   5.855
 8964SOL     OW27790   0.913   2.638   3.916
 8964SOL    HW127791   0.949   2.729   3.936
 8964SOL    HW227792   0.973   2.591   3.853
 8965SOL     OW27793   3.813   5.991   0.379
 8965SOL    HW127794   3.733   6.048   0.401
 8965SOL    HW227795   3.817   5.915   0.443
 8966SOL     OW27796   4.823   0.155   5.433
 8966SOL    HW127797   4.749   0.174   5.498
 8966SOL    HW227798   4.909   0.144   5.482
 8967SOL     OW27799   2.855   0.643   3.189
 8967SOL    HW127800   2.863   0.629   3.090
 8967SOL    HW227801   2.943   0.624   3.232
 8968SOL     OW27802   2.949   5.199   2.582
 8968SOL    HW127803   3.027   5.222   2.524
 8968SOL    HW227804   2.866   5.241   2.544
 8969SOL     OW27805   0.010   0.796   2.830
 8969SOL    HW127806   0.014   0.730   2.755
 8969SOL    HW227807   6.967   0.865   2.809
 8970SOL     OW27808   1.975   1.529   4.346
 8970SOL    HW127809   1.998   1.433   4.361
 8970SOL    HW227810   1.941   1.541   4.253
 8971SOL     OW27811   3.028   4.685   1.167
 8971SOL    HW127812   2.969   4.652   1.093
 8971SOL    HW227813   2.972   4.710   1.246
 8972SOL     OW27814   6.206   3.783   6.354
 8972SOL    HW127815   6.214   3.813   6.449
 8972SOL    HW227816   6.217   3.684   6.349
 8973SOL     OW27817   2.764   1.805   4.146
 8973SOL    HW127818   2.765   1.890   4.094
 8973SOL    HW227819   2.676   1.794   4.191
 8974SOL     OW27820   1.876   4.531   5.155
 8974SOL    HW127821   1.971   4.528   5.188
 8974SOL    HW227822   1.816   4.493   5.225
 8975SOL     OW27823   0.572   3.307   6.240
 8975SOL    HW127824   0.537   3.237   6.177
 8975SOL    HW227825   0.513   3.312   6.320
 8976SOL     OW27826   5.898   0.329   1.688
 8976SOL    HW127827   5.882   0.382   1.605
 8976SOL    HW227828   5.936   0.239   1.664
 8977SOL     OW27829   0.086   5.212   5.991
 8977SOL    HW127830   0.184   5.220   5.972
 8977SOL    HW227831   0.072   5.187   6.087
 8978SOL     OW27832   6.684   5.313   5.325
 8978SOL    HW127833   6.667   5.322   5.423
 8978SOL    HW227834   6.737   5.391   5.293
 8979SOL     OW27835   1.578   4.497   3.737
 8979SOL    HW127836   1.633   4.573   3.773
 8979SOL    HW227837   1.569   4.506   3.638
 8980SOL     OW27838   4.229   0.865   0.794
 8980SOL    HW127839   4.158   0.807   0.753
 8980SOL    HW227840   4.304   0.808   0.827
 8981SOL     OW27841   4.305   2.305   0.319
 8981SOL    HW127842   4.341   2.393   0.350
 8981SOL    HW227843   4.380   2.242   0.302
 8982SOL     OW27844   0.433   0.965   2.388
 8982SOL    HW127845   0.510   0.919   2.345
 8982SOL    HW227846   0.348   0.937   2.344
 8983SOL     OW27847   1.243   6.561   2.437
 8983SOL    HW127848   1.314   6.617   2.394
 8983SOL    HW227849   1.164   6.617   2.459
 8984SOL     OW27850   6.352   1.066   3.821
 8984SOL    HW127851   6.341   1.022   3.910
 8984SOL    HW227852   6.281   1.136   3.810
 8985SOL     OW27853   5.033   0.176   2.197
 8985SOL    HW127854   5.084   0.240   2.254
 8985SOL    HW227855   5.050   0.082   2.227
 8986SOL     OW27856   0.554   6.484   6.913
 8986SOL    HW127857   0.545   6.444   6.822
 8986SOL    HW227858   0.647   6.521   6.923
 8987SOL     OW27859   2.822   6.229   2.506
 8987SOL    HW127860   2.829   6.201   2.410
 8987SOL    HW227861   2.726   6.247   2.529
 8988SOL     OW27862   2.320   0.272   0.773
 8988SOL    HW127863   2.353   0.322   0.854
 8988SOL    HW227864   2.398   0.237   0.722
 8989SOL     OW27865   5.848   1.019   2.094
 8989SOL    HW127866   5.806   0.943   2.044
 8989SOL    HW227867   5.901   1.076   2.031
 8990SOL     OW27868   3.646   1.191   2.566
 8990SOL    HW127869   3.713   1.264   2.553
 8990SOL    HW227870   3.643   1.133   2.485
 8991SOL     OW27871   1.028   2.040   0.904
 8991SOL    HW127872   1.059   2.108   0.838
 8991SOL    HW227873   1.100   1.972   0.920
 8992SOL     OW27874   0.345   5.238   5.919
 8992SOL    HW127875   0.440   5.212   5.934
 8992SOL    HW227876   0.329   5.252   5.822
 8993SOL     OW27877   5.129   3.858   3.995
 8993SOL    HW127878   5.173   3.868   4.084
 8993SOL    HW227879   5.166   3.778   3.949
 8994SOL     OW27880   1.342   6.043   2.198
 8994SOL    HW127881   1.315   5.984   2.275
 8994SOL    HW227882   1.343   5.989   2.114
 8995SOL     OW27883   2.073   3.783   3.729
 8995SOL    HW127884   2.109   3.728   3.654
 8995SOL    HW227885   1.978   3.757   3.747
 8996SOL     OW27886   2.544   3.857   1.261
 8996SOL    HW127887   2.513   3.762   1.257
 8996SOL    HW227888   2.643   3.859   1.268
 8997SOL     OW27889   4.382   1.484   4.903
 8997SOL    HW127890   4.442   1.415   4.944
 8997SOL    HW227891   4.431   1.571   4.897
 8998SOL     OW27892   1.025   1.474   0.062
 8998SOL    HW127893   1.036   1.565   0.021
 8998SOL    HW227894   0.928   1.457   0.080
 8999SOL     OW27895   5.622   2.962   5.776
 8999SOL    HW127896   5.579   2.875   5.799
 8999SOL    HW227897   5.645   3.012   5.859
 9000SOL     OW27898   4.774   4.573   1.195
 9000SOL    HW127899   4.774   4.486   1.244
 9000SOL    HW227900   4.868   4.608   1.189
 9001SOL     OW27901   0.913   3.807   3.678
 9001SOL    HW127902   0.967   3.755   3.612
 9001SOL    HW227903   0.823   3.764   3.690
 9002SOL     OW27904   5.165   2.699   5.573
 9002SOL    HW127905   5.143   2.797   5.572
 9002SOL    HW227906   5.153   2.662   5.481
 9003SOL     OW27907   6.740   2.926   6.666
 9003SOL    HW127908   6.697   2.948   6.754
 9003SOL    HW227909   6.776   3.010   6.625
 9004SOL     OW27910   5.050   5.764   0.673
 9004SOL    HW127911   5.090   5.680   0.710
 9004SOL    HW227912   4.973   5.741   0.613
 9005SOL     OW27913   4.850   3.385   3.342
 9005SOL    HW127914   4.834   3.297   3.388
 9005SOL    HW227915   4.889   3.368   3.251
 9006SOL     OW27916   2.967   6.736   1.884
 9006SOL    HW127917   3.028   6.797   1.834
 9006SOL    HW227918   2.872   6.765   1.872
 9007SOL     OW27919   1.511   6.577   5.376
 9007SOL    HW127920   1.440   6.535   5.432
 9007SOL    HW227921   1.501   6.547   5.281
 9008SOL     OW27922   0.171   4.200   1.961
 9008SOL    HW127923   0.205   4.243   1.878
 9008SOL    HW227924   0.106   4.128   1.938
 9009SOL     OW27925   4.285   6.321   6.856
 9009SOL    HW127926   4.247   6.411   6.873
 9009SOL    HW227927   4.250   6.285   6.769
 9010SOL     OW27928   6.770   5.918   4.379
 9010SOL    HW127929   6.840   5.946   4.312
 9010SOL    HW227930   6.814   5.893   4.465
 9011SOL     OW27931   4.530   2.647   1.853
 9011SOL    HW127932   4.458   2.589   1.816
 9011SOL    HW227933   4.549   2.722   1.788
 9012SOL     OW27934   4.636   4.918   2.135
 9012SOL    HW127935   4.714   4.858   2.120
 9012SOL    HW227936   4.589   4.893   2.220
 9013SOL     OW27937   4.523   5.787   1.939
 9013SOL    HW127938   4.610   5.831   1.915
 9013SOL    HW227939   4.507   5.795   2.037
 9014SOL     OW27940   2.518   0.906   1.970
 9014SOL    HW127941   2.478   0.862   1.890
 9014SOL    HW227942   2.463   0.985   1.995
 9015SOL     OW27943   6.532   2.112   4.531
 9015SOL    HW127944   6.613   2.170   4.523
 9015SOL    HW227945   6.459   2.149   4.474
 9016SOL     OW27946   0.268   6.203   6.993
 9016SOL    HW127947   0.191   6.165   0.019
 9016SOL    HW227948   0.238   6.284   6.942
 9017SOL     OW27949   6.625   3.381   3.044
 9017SOL    HW127950   6.582   3.297   3.075
 9017SOL    HW227951   6.558   3.455   3.044
 9018SOL     OW27952   4.437   1.505   6.316
 9018SOL    HW127953   4.433   1.413   6.355
 9018SOL    HW227954   4.400   1.571   6.382
 9019SOL     OW27955   2.026   5.240   6.928
 9019SOL    HW127956   2.075   5.173   6.872
 9019SOL    HW227957   1.934   5.252   6.891
 9020SOL     OW27958   0.712   4.716   4.811
 9020SOL    HW127959   0.650   4.688   4.737
 9020SOL    HW227960   0.806   4.696   4.785
 9021SOL     OW27961   6.388   5.516   5.793
 9021SOL    HW127962   6.367   5.433   5.742
 9021SOL    HW227963   6.486   5.520   5.812
 9022SOL     OW27964   2.439   0.001   6.255
 9022SOL    HW127965   2.462   6.993   6.346
 9022SOL    HW227966   2.496   0.080   6.233
 9023SOL     OW27967   3.399   4.141   3.971
 9023SOL    HW127968   3.416   4.053   4.015
 9023SOL    HW227969   3.351   4.202   4.034
 9024SOL     OW27970   1.227   0.168   6.489
 9024SOL    HW127971   1.322   0.135   6.493
 9024SOL    HW227972   1.221   0.244   6.424
 9025SOL     OW27973   0.216   3.214   0.224
 9025SOL    HW127974   0.172   3.252   0.142
 9025SOL    HW227975   0.151   3.216   0.300
 9026SOL     OW27976   2.580   3.255   5.588
 9026SOL    HW127977   2.543   3.302   5.668
 9026SOL    HW227978   2.596   3.322   5.515
 9027SOL     OW27979   1.459   3.192   2.430
 9027SOL    HW127980   1.488   3.097   2.422
 9027SOL    HW227981   1.478   3.224   2.523
 9028SOL     OW27982   2.434   4.597   4.875
 9028SOL    HW127983   2.486   4.646   4.806
 9028SOL    HW227984   2.423   4.501   4.848
 9029SOL     OW27985   5.750   5.101   2.742
 9029SOL    HW127986   5.794   5.017   2.774
 9029SOL    HW227987   5.674   5.078   2.681
 9030SOL     OW27988   4.571   2.467   3.249
 9030SOL    HW127989   4.556   2.516   3.335
 9030SOL    HW227990   4.515   2.384   3.246
 9031SOL     OW27991   2.722   1.316   2.082
 9031SOL    HW127992   2.688   1.395   2.134
 9031SOL    HW227993   2.821   1.311   2.091
 9032SOL     OW27994   0.400   3.024   2.199
 9032SOL    HW127995   0.476   2.984   2.251
 9032SOL    HW227996   0.321   3.032   2.259
 9033SOL     OW27997   1.136   3.750   2.630
 9033SOL    HW127998   1.154   3.687   2.555
 9033SOL    HW227999   1.185   3.836   2.615
 9034SOL     OW28000   1.823   6.812   6.857
 9034SOL    HW128001   1.750   6.772   6.912
 9034SOL    HW228002   1.909   6.764   6.876
 9035SOL     OW28003   6.392   1.167   4.306
 9035SOL    HW128004   6.421   1.142   4.399
 9035SOL    HW228005   6.293   1.158   4.299
 9036SOL     OW28006   0.817   0.964   4.836
 9036SOL    HW128007   0.838   0.902   4.760
 9036SOL    HW228008   0.788   1.053   4.800
 9037SOL     OW28009   2.298   4.353   5.876
 9037SOL    HW128010   2.365   4.297   5.926
 9037SOL    HW228011   2.340   4.439   5.848
 9038SOL     OW28012   5.091   5.173   5.336
 9038SOL    HW128013   5.014   5.122   5.301
 9038SOL    HW228014   5.067   5.270   5.344
 9039SOL     OW28015   2.408   4.591   0.159
 9039SOL    HW128016   2.398   4.492   0.153
 9039SOL    HW228017   2.505   4.614   0.162
 9040SOL     OW28018   3.032   1.140   2.701
 9040SOL    HW128019   3.011   1.235   2.679
 9040SOL    HW228020   3.037   1.129   2.801
 9041SOL     OW28021   2.029   2.820   6.001
 9041SOL    HW128022   2.103   2.759   5.972
 9041SOL    HW228023   2.018   2.892   5.933
 9042SOL     OW28024   1.585   5.468   2.366
 9042SOL    HW128025   1.529   5.388   2.388
 9042SOL    HW228026   1.678   5.440   2.344
 9043SOL     OW28027   0.301   1.810   6.922
 9043SOL    HW128028   0.237   1.877   6.962
 9043SOL    HW228029   0.263   1.775   6.837
 9044SOL     OW28030   0.532   4.429   0.294
 9044SOL    HW128031   0.620   4.408   0.336
 9044SOL    HW228032   0.475   4.347   0.293
 9045SOL     OW28033   2.274   4.833   4.570
 9045SOL    HW128034   2.285   4.915   4.626
 9045SOL    HW228035   2.177   4.811   4.562
 9046SOL     OW28036   3.662   4.220   6.441
 9046SOL    HW128037   3.739   4.172   6.482
 9046SOL    HW228038   3.694   4.273   6.362
 9047SOL     OW28039   1.026   3.961   4.365
 9047SOL    HW128040   0.936   3.921   4.384
 9047SOL    HW228041   1.054   3.939   4.272
 9048SOL     OW28042   1.367   2.543   4.837
 9048SOL    HW128043   1.375   2.643   4.833
 9048SOL    HW228044   1.458   2.502   4.839
 9049SOL     OW28045   4.965   6.364   6.079
 9049SOL    HW128046   4.986   6.274   6.118
 9049SOL    HW228047   4.868   6.368   6.054
 9050SOL     OW28048   7.016   4.491   6.161
 9050SOL    HW128049   0.033   4.409   6.198
 9050SOL    HW228050   7.004   4.481   6.062
 9051SOL     OW28051   6.142   6.647   6.312
 9051SOL    HW128052   6.137   6.548   6.331
 9051SOL    HW228053   6.089   6.696   6.381
 9052SOL     OW28054   2.593   5.183   5.015
 9052SOL    HW128055   2.526   5.224   4.953
 9052SOL    HW228056   2.675   5.239   5.016
 9053SOL     OW28057   2.624   1.420   3.147
 9053SOL    HW128058   2.655   1.401   3.053
 9053SOL    HW228059   2.524   1.418   3.150
 9054SOL     OW28060   1.731   0.002   1.364
 9054SOL    HW128061   1.704   0.092   1.329
 9054SOL    HW228062   1.655   6.987   1.415
 9055SOL     OW28063   1.240   2.482   4.610
 9055SOL    HW128064   1.272   2.539   4.686
 9055SOL    HW228065   1.310   2.480   4.538
 9056SOL     OW28066   4.808   2.403   1.636
 9056SOL    HW128067   4.714   2.373   1.650
 9056SOL    HW228068   4.847   2.355   1.558
 9057SOL     OW28069   3.610   6.758   6.646
 9057SOL    HW128070   3.576   6.713   6.728
 9057SOL    HW228071   3.535   6.768   6.580
 9058SOL     OW28072   2.655   2.134   4.322
 9058SOL    HW128073   2.599   2.129   4.239
 9058SOL    HW228074   2.695   2.225   4.331
 9059SOL     OW28075   6.911   0.827   2.298
 9059SOL    HW128076   6.899   0.788   2.207
 9059SOL    HW228077   6.825   0.819   2.349
 9060SOL     OW28078   6.657   5.038   0.653
 9060SOL    HW128079   6.663   4.976   0.731
 9060SOL    HW228080   6.747   5.046   0.609
 9061SOL     OW28081   4.731   4.307   2.046
 9061SOL    HW128082   4.647   4.300   1.992
 9061SOL    HW228083   4.785   4.223   2.036
 9062SOL     OW28084   0.248   5.744   3.165
 9062SOL    HW128085   0.216   5.649   3.168
 9062SOL    HW228086   0.170   5.805   3.159
 9063SOL     OW28087   4.872   0.337   0.979
 9063SOL    HW128088   4.847   0.248   0.942
 9063SOL    HW228089   4.891   0.400   0.903
 9064SOL     OW28090   0.990   5.511   2.879
 9064SOL    HW128091   0.965   5.608   2.873
 9064SOL    HW228092   0.964   5.475   2.969
 9065SOL     OW28093   3.297   4.163   6.619
 9065SOL    HW128094   3.356   4.205   6.687
 9065SOL    HW228095   3.215   4.220   6.606
 9066SOL     OW28096   5.159   4.751   3.753
 9066SOL    HW128097   5.060   4.733   3.756
 9066SOL    HW228098   5.176   4.849   3.764
 9067SOL     OW28099   2.196   6.727   4.006
 9067SOL    HW128100   2.227   6.809   4.055
 9067SOL    HW228101   2.156   6.754   3.919
 9068SOL     OW28102   4.640   0.369   6.001
 9068SOL    HW128103   4.644   0.336   6.095
 9068SOL    HW228104   4.564   0.325   5.953
 9069SOL     OW28105   5.020   2.356   1.805
 9069SOL    HW128106   4.978   2.371   1.894
 9069SOL    HW228107   4.964   2.396   1.733
 9070SOL     OW28108   1.622   0.710   6.199
 9070SOL    HW128109   1.602   0.807   6.190
 9070SOL    HW228110   1.654   0.674   6.111
 9071SOL     OW28111   4.760   2.540   6.652
 9071SOL    HW128112   4.787   2.529   6.556
 9071SOL    HW228113   4.817   2.481   6.710
 9072SOL     OW28114   6.329   0.598   1.928
 9072SOL    HW128115   6.373   0.548   2.003
 9072SOL    HW228116   6.290   0.683   1.963
 9073SOL     OW28117   4.603   2.729   5.932
 9073SOL    HW128118   4.544   2.758   6.007
 9073SOL    HW228119   4.687   2.689   5.970
 9074SOL     OW28120   2.397   1.067   3.850
 9074SOL    HW128121   2.469   1.104   3.792
 9074SOL    HW228122   2.317   1.126   3.847
 9075SOL     OW28123   5.204   5.524   0.639
 9075SOL    HW128124   5.187   5.569   0.551
 9075SOL    HW228125   5.130   5.459   0.658
 9076SOL     OW28126   1.335   5.893   2.453
 9076SOL    HW128127   1.290   5.813   2.491
 9076SOL    HW228128   1.434   5.880   2.454
 9077SOL     OW28129   6.320   1.661   6.333
 9077SOL    HW128130   6.392   1.689   6.269
 9077SOL    HW228131   6.342   1.570   6.369
 9078SOL     OW28132   5.018   6.645   0.153
 9078SOL    HW128133   5.061   6.702   0.223
 9078SOL    HW228134   4.930   6.685   0.127
 9079SOL     OW28135   1.276   1.339   6.583
 9079SOL    HW128136   1.241   1.283   6.658
 9079SOL    HW228137   1.218   1.419   6.571
 9080SOL     OW28138   6.594   4.426   1.612
 9080SOL    HW128139   6.606   4.373   1.696
 9080SOL    HW228140   6.497   4.429   1.588
 9081SOL     OW28141   5.086   1.558   0.476
 9081SOL    HW128142   5.025   1.490   0.435
 9081SOL    HW228143   5.032   1.637   0.505
 9082SOL     OW28144   3.367   4.639   6.425
 9082SOL    HW128145   3.292   4.585   6.385
 9082SOL    HW228146   3.384   4.608   6.519
 9083SOL     OW28147   3.676   0.734   0.758
 9083SOL    HW128148   3.727   0.810   0.797
 9083SOL    HW228149   3.588   0.766   0.724
 9084SOL     OW28150   6.530   4.422   4.522
 9084SOL    HW128151   6.544   4.424   4.621
 9084SOL    HW228152   6.607   4.466   4.476
 9085SOL     OW28153   2.712   4.357   1.117
 9085SOL    HW128154   2.672   4.337   1.206
 9085SOL    HW228155   2.642   4.350   1.046
 9086SOL     OW28156   6.936   2.488   0.699
 9086SOL    HW128157   6.895   2.411   0.650
 9086SOL    HW228158   6.968   2.556   0.633
 9087SOL     OW28159   5.070   1.278   1.624
 9087SOL    HW128160   5.159   1.273   1.670
 9087SOL    HW228161   5.060   1.200   1.562
 9088SOL     OW28162   5.672   6.053   6.649
 9088SOL    HW128163   5.644   5.972   6.701
 9088SOL    HW228164   5.760   6.085   6.682
 9089SOL     OW28165   5.513   5.101   2.907
 9089SOL    HW128166   5.603   5.119   2.867
 9089SOL    HW228167   5.525   5.047   2.991
 9090SOL     OW28168   6.063   5.668   5.624
 9090SOL    HW128169   6.016   5.755   5.610
 9090SOL    HW228170   6.023   5.599   5.564
 9091SOL     OW28171   2.703   2.024   1.650
 9091SOL    HW128172   2.639   2.071   1.710
 9091SOL    HW228173   2.693   2.059   1.557
 9092SOL     OW28174   2.473   1.939   5.275
 9092SOL    HW128175   2.438   1.888   5.354
 9092SOL    HW228176   2.566   1.970   5.294
 9093SOL     OW28177   1.965   3.694   0.115
 9093SOL    HW128178   1.950   3.693   0.016
 9093SOL    HW228179   2.054   3.652   0.135
 9094SOL     OW28180   6.576   2.810   0.706
 9094SOL    HW128181   6.675   2.819   0.716
 9094SOL    HW228182   6.551   2.713   0.702
 9095SOL     OW28183   1.916   2.436   0.253
 9095SOL    HW128184   2.008   2.452   0.287
 9095SOL    HW228185   1.880   2.520   0.212
 9096SOL     OW28186   6.526   4.390   3.043
 9096SOL    HW128187   6.595   4.459   3.065
 9096SOL    HW228188   6.521   4.377   2.944
 9097SOL     OW28189   6.414   6.014   5.787
 9097SOL    HW128190   6.389   5.926   5.747
 9097SOL    HW228191   6.489   6.002   5.852
 9098SOL     OW28192   3.865   3.459   4.937
 9098SOL    HW128193   3.896   3.543   4.983
 9098SOL    HW228194   3.945   3.403   4.914
 9099SOL     OW28195   1.704   2.395   6.915
 9099SOL    HW128196   1.646   2.346   6.849
 9099SOL    HW228197   1.653   2.473   6.952
 9100SOL     OW28198   1.319   3.019   0.406
 9100SOL    HW128199   1.274   3.106   0.426
 9100SOL    HW228200   1.324   3.006   0.307
 9101SOL     OW28201   2.131   2.381   6.810
 9101SOL    HW128202   2.095   2.465   6.852
 9101SOL    HW228203   2.223   2.397   6.775
 9102SOL     OW28204   4.944   6.441   2.070
 9102SOL    HW128205   4.989   6.399   2.149
 9102SOL    HW228206   4.990   6.412   1.986
 9103SOL     OW28207   0.517   4.303   6.372
 9103SOL    HW128208   0.610   4.339   6.378
 9103SOL    HW228209   0.515   4.228   6.306
 9104SOL     OW28210   5.149   0.312   3.048
 9104SOL    HW128211   5.157   0.224   3.002
 9104SOL    HW228212   5.053   0.339   3.050
 9105SOL     OW28213   2.796   2.031   6.427
 9105SOL    HW128214   2.795   1.971   6.507
 9105SOL    HW228215   2.714   2.088   6.427
 9106SOL     OW28216   6.252   5.431   1.997
 9106SOL    HW128217   6.232   5.463   2.090
 9106SOL    HW228218   6.255   5.509   1.935
 9107SOL     OW28219   5.035   6.429   6.605
 9107SOL    HW128220   5.059   6.517   6.647
 9107SOL    HW228221   4.972   6.380   6.665
 9108SOL     OW28222   3.474   5.894   0.089
 9108SOL    HW128223   3.467   5.817   0.025
 9108SOL    HW228224   3.568   5.928   0.089
 9109SOL     OW28225   3.075   1.365   4.080
 9109SOL    HW128226   3.150   1.368   4.014
 9109SOL    HW228227   3.010   1.438   4.060
 9110SOL     OW28228   1.452   3.762   3.144
 9110SOL    HW128229   1.360   3.800   3.139
 9110SOL    HW228230   1.511   3.822   3.198
 9111SOL     OW28231   4.291   3.783   1.586
 9111SOL    HW128232   4.304   3.745   1.495
 9111SOL    HW228233   4.234   3.866   1.580
 9112SOL     OW28234   0.729   5.642   2.060
 9112SOL    HW128235   0.750   5.642   2.158
 9112SOL    HW228236   0.778   5.716   2.015
 9113SOL     OW28237   2.807   5.156   6.971
 9113SOL    HW128238   2.765   5.171   6.881
 9113SOL    HW228239   2.906   5.150   6.961
 9114SOL     OW28240   2.660   3.551   1.445
 9114SOL    HW128241   2.592   3.586   1.381
 9114SOL    HW228242   2.618   3.541   1.535
 9115SOL     OW28243   1.753   3.980   4.711
 9115SOL    HW128244   1.795   3.945   4.627
 9115SOL    HW228245   1.724   3.903   4.768
 9116SOL     OW28246   2.247   1.805   6.460
 9116SOL    HW128247   2.292   1.894   6.468
 9116SOL    HW228248   2.281   1.744   6.532
 9117SOL     OW28249   6.970   3.575   0.167
 9117SOL    HW128250   6.953   3.516   0.245
 9117SOL    HW228251   6.888   3.629   0.147
 9118SOL     OW28252   0.565   5.920   1.117
 9118SOL    HW128253   0.596   5.843   1.060
 9118SOL    HW228254   0.488   5.889   1.174
 9119SOL     OW28255   6.162   0.133   0.921
 9119SOL    HW128256   6.066   0.124   0.894
 9119SOL    HW228257   6.194   0.046   0.961
 9120SOL     OW28258   6.124   0.868   6.769
 9120SOL    HW128259   6.188   0.796   6.742
 9120SOL    HW228260   6.033   0.829   6.779
 9121SOL     OW28261   1.648   1.797   6.406
 9121SOL    HW128262   1.598   1.719   6.445
 9121SOL    HW228263   1.694   1.768   6.322
 9122SOL     OW28264   1.130   2.395   1.165
 9122SOL    HW128265   1.171   2.421   1.078
 9122SOL    HW228266   1.036   2.427   1.169
 9123SOL     OW28267   2.593   6.663   6.936
 9123SOL    HW128268   2.534   6.676   7.016
 9123SOL    HW228269   2.680   6.623   6.966
 9124SOL     OW28270   6.480   4.630   5.732
 9124SOL    HW128271   6.563   4.624   5.788
 9124SOL    HW228272   6.442   4.539   5.719
 9125SOL     OW28273   4.697   5.661   0.906
 9125SOL    HW128274   4.759   5.733   0.935
 9125SOL    HW228275   4.664   5.611   0.986
 9126SOL     OW28276   5.828   6.789   2.750
 9126SOL    HW128277   5.926   6.801   2.733
 9126SOL    HW228278   5.813   6.705   2.802
 9127SOL     OW28279   5.515   5.784   5.832
 9127SOL    HW128280   5.457   5.736   5.898
 9127SOL    HW228281   5.557   5.863   5.876
 9128SOL     OW28282   4.833   2.466   5.384
 9128SOL    HW128283   4.799   2.389   5.330
 9128SOL    HW228284   4.762   2.497   5.446
 9129SOL     OW28285   2.163   1.942   0.008
 9129SOL    HW128286   2.224   1.926   6.956
 9129SOL    HW228287   2.091   2.005   7.007
 9130SOL     OW28288   6.069   6.107   1.009
 9130SOL    HW128289   6.142   6.095   0.941
 9130SOL    HW228290   6.041   6.203   1.012
 9131SOL     OW28291   1.144   4.733   4.033
 9131SOL    HW128292   1.076   4.756   3.965
 9131SOL    HW228293   1.106   4.667   4.098
 9132SOL     OW28294   1.920   2.904   4.119
 9132SOL    HW128295   1.861   2.975   4.157
 9132SOL    HW228296   2.012   2.913   4.158
 9133SOL     OW28297   1.325   5.111   1.673
 9133SOL    HW128298   1.327   5.035   1.608
 9133SOL    HW228299   1.233   5.151   1.674
 9134SOL     OW28300   2.905   4.967   5.868
 9134SOL    HW128301   3.004   4.973   5.877
 9134SOL    HW228302   2.862   5.032   5.930
 9135SOL     OW28303   0.877   6.569   4.251
 9135SOL    HW128304   0.870   6.546   4.348
 9135SOL    HW228305   0.918   6.660   4.241
 9136SOL     OW28306   3.806   5.461   5.580
 9136SOL    HW128307   3.711   5.491   5.590
 9136SOL    HW228308   3.864   5.511   5.643
 9137SOL     OW28309   4.049   0.572   1.833
 9137SOL    HW128310   3.984   0.509   1.875
 9137SOL    HW228311   4.009   0.664   1.832
 9138SOL     OW28312   3.012   4.234   0.944
 9138SOL    HW128313   3.064   4.275   1.018
 9138SOL    HW228314   3.045   4.268   0.856
 9139SOL     OW28315   3.232   1.280   5.908
 9139SOL    HW128316   3.192   1.242   5.824
 9139SOL    HW228317   3.170   1.266   5.984
 9140SOL     OW28318   6.602   2.697   3.651
 9140SOL    HW128319   6.524   2.717   3.710
 9140SOL    HW228320   6.685   2.739   3.690
 9141SOL     OW28321   5.603   0.451   5.821
 9141SOL    HW128322   5.504   0.455   5.816
 9141SOL    HW228323   5.643   0.509   5.750
 9142SOL     OW28324   1.203   4.384   6.463
 9142SOL    HW128325   1.134   4.455   6.449
 9142SOL    HW228326   1.196   4.315   6.392
 9143SOL     OW28327   5.743   4.126   0.961
 9143SOL    HW128328   5.758   4.123   1.059
 9143SOL    HW228329   5.702   4.213   0.936
 9144SOL     OW28330   1.339   4.923   5.181
 9144SOL    HW128331   1.391   4.850   5.137
 9144SOL    HW228332   1.250   4.931   5.138
 9145SOL     OW28333   0.224   3.703   6.311
 9145SOL    HW128334   0.269   3.652   6.385
 9145SOL    HW228335   0.211   3.798   6.340
 9146SOL     OW28336   0.539   1.765   1.192
 9146SOL    HW128337   0.588   1.849   1.173
 9146SOL    HW228338   0.556   1.736   1.286
 9147SOL     OW28339   5.014   6.110   6.184
 9147SOL    HW128340   4.915   6.104   6.170
 9147SOL    HW228341   5.062   6.063   6.110
 9148SOL     OW28342   3.404   5.311   3.085
 9148SOL    HW128343   3.469   5.316   3.009
 9148SOL    HW228344   3.312   5.294   3.050
 9149SOL     OW28345   6.074   2.866   4.776
 9149SOL    HW128346   6.023   2.897   4.696
 9149SOL    HW228347   6.170   2.853   4.752
 9150SOL     OW28348   4.196   1.321   2.859
 9150SOL    HW128349   4.247   1.290   2.940
 9150SOL    HW228350   4.221   1.415   2.838
 9151SOL     OW28351   1.127   3.306   2.035
 9151SOL    HW128352   1.116   3.214   1.999
 9151SOL    HW228353   1.188   3.304   2.114
 9152SOL     OW28354   2.125   5.181   3.611
 9152SOL    HW128355   2.096   5.187   3.515
 9152SOL    HW228356   2.165   5.268   3.639
 9153SOL     OW28357   1.079   3.271   6.572
 9153SOL    HW128358   0.999   3.289   6.516
 9153SOL    HW228359   1.051   3.228   6.658
 9154SOL     OW28360   1.843   5.568   0.164
 9154SOL    HW128361   1.923   5.580   0.105
 9154SOL    HW228362   1.799   5.481   0.144
 9155SOL     OW28363   1.345   4.214   0.281
 9155SOL    HW128364   1.326   4.143   0.214
 9155SOL    HW228365   1.331   4.304   0.239
 9156SOL     OW28366   5.275   2.399   1.815
 9156SOL    HW128367   5.182   2.373   1.792
 9156SOL    HW228368   5.295   2.489   1.778
 9157SOL     OW28369   5.348   3.667   5.778
 9157SOL    HW128370   5.331   3.765   5.784
 9157SOL    HW228371   5.424   3.650   5.716
 9158SOL     OW28372   0.380   3.905   3.220
 9158SOL    HW128373   0.329   3.961   3.286
 9158SOL    HW228374   0.317   3.867   3.153
 9159SOL     OW28375   6.681   4.760   2.402
 9159SOL    HW128376   6.705   4.830   2.470
 9159SOL    HW228377   6.649   4.804   2.318
 9160SOL     OW28378   0.156   7.010   0.594
 9160SOL    HW128379   0.156   6.912   0.577
 9160SOL    HW228380   0.138   0.033   0.509
 9161SOL     OW28381   5.565   4.020   2.785
 9161SOL    HW128382   5.475   4.049   2.752
 9161SOL    HW228383   5.560   4.003   2.883
 9162SOL     OW28384   5.097   2.138   2.489
 9162SOL    HW128385   5.094   2.038   2.497
 9162SOL    HW228386   5.005   2.175   2.497
 9163SOL     OW28387   3.222   0.899   4.688
 9163SOL    HW128388   3.292   0.843   4.733
 9163SOL    HW228389   3.199   0.858   4.599
 9164SOL     OW28390   2.530   0.028   0.681
 9164SOL    HW128391   2.630   0.022   0.689
 9164SOL    HW228392   2.506   0.059   0.589
 9165SOL     OW28393   4.957   5.999   0.182
 9165SOL    HW128394   4.957   5.977   0.084
 9165SOL    HW228395   4.972   5.916   0.234
 9166SOL     OW28396   2.623   5.647   1.517
 9166SOL    HW128397   2.556   5.721   1.525
 9166SOL    HW228398   2.666   5.650   1.427
 9167SOL     OW28399   0.360   4.084   4.915
 9167SOL    HW128400   0.278   4.117   4.868
 9167SOL    HW228401   0.441   4.114   4.865
 9168SOL     OW28402   2.894   0.717   0.041
 9168SOL    HW128403   2.905   0.793   0.105
 9168SOL    HW228404   2.812   0.665   0.066
 9169SOL     OW28405   0.279   0.033   2.786
 9169SOL    HW128406   0.296   0.053   2.882
 9169SOL    HW228407   0.311   0.109   2.729
 9170SOL     OW28408   6.301   6.205   0.015
 9170SOL    HW128409   6.242   6.286   0.007
 9170SOL    HW228410   6.334   6.197   0.109
 9171SOL     OW28411   2.769   5.686   5.332
 9171SOL    HW128412   2.678   5.645   5.330
 9171SOL    HW228413   2.837   5.615   5.347
 9172SOL     OW28414   2.676   2.394   4.248
 9172SOL    HW128415   2.587   2.431   4.274
 9172SOL    HW228416   2.749   2.452   4.286
 9173SOL     OW28417   0.596   5.126   5.105
 9173SOL    HW128418   0.532   5.191   5.065
 9173SOL    HW228419   0.684   5.171   5.119
 9174SOL     OW28420   0.204   5.777   0.160
 9174SOL    HW128421   0.248   5.770   0.249
 9174SOL    HW228422   0.164   5.688   0.136
 9175SOL     OW28423   1.640   6.571   5.820
 9175SOL    HW128424   1.571   6.499   5.819
 9175SOL    HW228425   1.643   6.616   5.730
 9176SOL     OW28426   1.420   1.786   5.435
 9176SOL    HW128427   1.432   1.687   5.435
 9176SOL    HW228428   1.463   1.825   5.354
 9177SOL     OW28429   1.349   4.573   3.550
 9177SOL    HW128430   1.291   4.653   3.534
 9177SOL    HW228431   1.365   4.564   3.648
 9178SOL     OW28432   2.024   4.341   0.513
 9178SOL    HW128433   1.966   4.352   0.432
 9178SOL    HW228434   1.982   4.390   0.590
 9179SOL     OW28435   2.346   4.849   4.931
 9179SOL    HW128436   2.340   4.750   4.943
 9179SOL    HW228437   2.419   4.870   4.866
 9180SOL     OW28438   5.651   2.004   3.086
 9180SOL    HW128439   5.673   2.076   3.020
 9180SOL    HW228440   5.616   2.045   3.170
 9181SOL     OW28441   3.788   1.434   2.142
 9181SOL    HW128442   3.756   1.411   2.050
 9181SOL    HW228443   3.872   1.488   2.135
 9182SOL     OW28444   2.064   0.094   2.255
 9182SOL    HW128445   2.060   0.102   2.156
 9182SOL    HW228446   2.124   0.164   2.292
 9183SOL     OW28447   5.079   5.638   6.114
 9183SOL    HW128448   5.119   5.552   6.083
 9183SOL    HW228449   5.096   5.649   6.212
 9184SOL     OW28450   4.774   0.029   7.007
 9184SOL    HW128451   4.724   0.077   6.935
 9184SOL    HW228452   4.871   0.052   7.000
 9185SOL     OW28453   4.703   1.104   4.959
 9185SOL    HW128454   4.715   1.161   5.040
 9185SOL    HW228455   4.768   1.132   4.888
 9186SOL     OW28456   5.082   0.013   6.605
 9186SOL    HW128457   5.086   7.007   6.510
 9186SOL    HW228458   5.084   0.113   6.606
 9187SOL     OW28459   2.790   6.714   2.566
 9187SOL    HW128460   2.706   6.695   2.514
 9187SOL    HW228461   2.866   6.728   2.502
 9188SOL     OW28462   2.259   6.169   1.043
 9188SOL    HW128463   2.334   6.207   0.988
 9188SOL    HW228464   2.182   6.233   1.043
 9189SOL     OW28465   5.509   4.878   1.895
 9189SOL    HW128466   5.515   4.915   1.988
 9189SOL    HW228467   5.523   4.952   1.829
 9190SOL     OW28468   1.057   5.377   0.611
 9190SOL    HW128469   1.092   5.426   0.691
 9190SOL    HW228470   0.990   5.435   0.563
 9191SOL     OW28471   6.972   0.635   6.176
 9191SOL    HW128472   6.912   0.702   6.132
 9191SOL    HW228473   7.014   0.676   6.257
 9192SOL     OW28474   0.970   4.085   4.748
 9192SOL    HW128475   1.041   4.095   4.678
 9192SOL    HW228476   0.973   3.992   4.785
 9193SOL     OW28477   2.582   3.441   0.302
 9193SOL    HW128478   2.646   3.446   0.225
 9193SOL    HW228479   2.611   3.369   0.364
 9194SOL     OW28480   3.089   0.365   4.322
 9194SOL    HW128481   3.054   0.457   4.301
 9194SOL    HW228482   3.056   0.301   4.252
 9195SOL     OW28483   1.750   0.733   3.777
 9195SOL    HW128484   1.685   0.673   3.825
 9195SOL    HW228485   1.702   0.786   3.708
 9196SOL     OW28486   5.189   1.756   5.927
 9196SOL    HW128487   5.201   1.848   5.964
 9196SOL    HW228488   5.095   1.745   5.896
 9197SOL     OW28489   2.611   3.592   0.633
 9197SOL    HW128490   2.598   3.677   0.684
 9197SOL    HW228491   2.708   3.579   0.614
 9198SOL     OW28492   0.869   4.778   3.964
 9198SOL    HW128493   0.861   4.715   4.040
 9198SOL    HW228494   0.783   4.778   3.912
 9199SOL     OW28495   5.992   4.389   5.198
 9199SOL    HW128496   5.961   4.340   5.280
 9199SOL    HW228497   6.006   4.323   5.124
 9200SOL     OW28498   3.142   0.677   0.424
 9200SOL    HW128499   3.065   0.660   0.362
 9200SOL    HW228500   3.228   0.670   0.373
 9201SOL     OW28501   1.834   4.354   0.751
 9201SOL    HW128502   1.753   4.353   0.692
 9201SOL    HW228503   1.812   4.403   0.835
 9202SOL     OW28504   2.495   0.834   3.917
 9202SOL    HW128505   2.453   0.916   3.878
 9202SOL    HW228506   2.584   0.819   3.874
 9203SOL     OW28507   6.871   6.682   0.460
 9203SOL    HW128508   6.882   6.604   0.399
 9203SOL    HW228509   6.861   6.765   0.405
 9204SOL     OW28510   5.724   0.240   5.181
 9204SOL    HW128511   5.702   0.309   5.251
 9204SOL    HW228512   5.710   0.149   5.219
 9205SOL     OW28513   6.769   5.045   1.417
 9205SOL    HW128514   6.843   5.066   1.481
 9205SOL    HW228515   6.716   5.128   1.399
 9206SOL     OW28516   3.535   6.587   0.475
 9206SOL    HW128517   3.439   6.575   0.449
 9206SOL    HW228518   3.592   6.580   0.393
 9207SOL     OW28519   5.595   5.634   6.121
 9207SOL    HW128520   5.676   5.653   6.066
 9207SOL    HW228521   5.525   5.591   6.064
 9208SOL     OW28522   1.433   3.656   2.467
 9208SOL    HW128523   1.345   3.609   2.469
 9208SOL    HW228524   1.460   3.673   2.372
 9209SOL     OW28525   2.517   7.005   6.774
 9209SOL    HW128526   2.477   7.015   6.865
 9209SOL    HW228527   2.457   0.024   6.707
 9210SOL     OW28528   6.595   0.347   3.503
 9210SOL    HW128529   6.601   0.426   3.563
 9210SOL    HW228530   6.572   0.266   3.557
 9211SOL     OW28531   0.404   1.508   2.490
 9211SOL    HW128532   0.497   1.499   2.453
 9211SOL    HW228533   0.380   1.605   2.495
 9212SOL     OW28534   3.362   5.260   4.595
 9212SOL    HW128535   3.333   5.258   4.690
 9212SOL    HW228536   3.373   5.355   4.565
 9213SOL     OW28537   5.865   4.767   6.431
 9213SOL    HW128538   5.800   4.787   6.357
 9213SOL    HW228539   5.817   4.724   6.507
 9214SOL     OW28540   0.073   5.130   0.135
 9214SOL    HW128541   0.115   5.127   0.226
 9214SOL    HW228542   0.143   5.121   0.065
 9215SOL     OW28543   1.278   1.511   0.855
 9215SOL    HW128544   1.277   1.412   0.866
 9215SOL    HW228545   1.203   1.539   0.795
 9216SOL     OW28546   1.850   6.868   3.636
 9216SOL    HW128547   1.813   6.959   3.659
 9216SOL    HW228548   1.779   6.814   3.591
 9217SOL     OW28549   0.465   2.717   0.328
 9217SOL    HW128550   0.509   2.677   0.408
 9217SOL    HW228551   0.468   2.817   0.334
 9218SOL     OW28552   1.964   1.183   0.536
 9218SOL    HW128553   1.871   1.148   0.545
 9218SOL    HW228554   1.965   1.281   0.555
 9219SOL     OW28555   0.128   1.281   0.248
 9219SOL    HW128556   0.057   1.351   0.256
 9219SOL    HW228557   0.086   1.190   0.253
 9220SOL     OW28558   3.345   6.057   1.091
 9220SOL    HW128559   3.350   5.970   1.141
 9220SOL    HW228560   3.436   6.097   1.085
 9221SOL     OW28561   2.839   4.806   4.768
 9221SOL    HW128562   2.867   4.755   4.849
 9221SOL    HW228563   2.895   4.779   4.690
 9222SOL     OW28564   2.541   2.179   6.394
 9222SOL    HW128565   2.547   2.189   6.294
 9222SOL    HW228566   2.446   2.165   6.420
 9223SOL     OW28567   2.648   3.075   5.390
 9223SOL    HW128568   2.571   3.040   5.337
 9223SOL    HW228569   2.614   3.129   5.467
 9224SOL     OW28570   2.086   4.889   5.161
 9224SOL    HW128571   2.146   4.970   5.161
 9224SOL    HW228572   2.025   4.894   5.240
 9225SOL     OW28573   2.246   6.586   0.034
 9225SOL    HW128574   2.341   6.615   0.047
 9225SOL    HW228575   2.238   6.538   6.973
 9226SOL     OW28576   4.074   6.474   0.725
 9226SOL    HW128577   4.036   6.481   0.633
 9226SOL    HW228578   4.174   6.476   0.721
 9227SOL     OW28579   1.515   6.793   1.561
 9227SOL    HW128580   1.517   6.868   1.628
 9227SOL    HW228581   1.601   6.743   1.565
 9228SOL     OW28582   0.821   6.812   6.873
 9228SOL    HW128583   0.913   6.816   6.913
 9228SOL    HW228584   0.800   6.719   6.846
 9229SOL     OW28585   0.771   5.990   5.865
 9229SOL    HW128586   0.683   5.962   5.903
 9229SOL    HW228587   0.755   6.046   5.783
 9230SOL     OW28588   5.087   0.860   3.773
 9230SOL    HW128589   5.051   0.835   3.863
 9230SOL    HW228590   5.015   0.902   3.718
 9231SOL     OW28591   2.046   3.332   3.462
 9231SOL    HW128592   2.006   3.311   3.373
 9231SOL    HW228593   1.974   3.343   3.530
 9232SOL     OW28594   4.496   5.068   0.827
 9232SOL    HW128595   4.520   4.985   0.777
 9232SOL    HW228596   4.432   5.044   0.901
 9233SOL     OW28597   5.029   4.463   1.056
 9233SOL    HW128598   4.936   4.428   1.068
 9233SOL    HW228599   5.055   4.515   1.137
 9234SOL     OW28600   1.741   5.911   3.684
 9234SOL    HW128601   1.798   5.941   3.761
 9234SOL    HW228602   1.655   5.875   3.719
 9235SOL     OW28603   0.825   2.335   3.657
 9235SOL    HW128604   0.771   2.419   3.651
 9235SOL    HW228605   0.799   2.284   3.739
 9236SOL     OW28606   4.124   2.610   5.645
 9236SOL    HW128607   4.208   2.642   5.690
 9236SOL    HW228608   4.053   2.680   5.652
 9237SOL     OW28609   1.784   3.694   3.680
 9237SOL    HW128610   1.707   3.755   3.700
 9237SOL    HW228611   1.801   3.634   3.759
 9238SOL     OW28612   4.293   3.371   6.472
 9238SOL    HW128613   4.242   3.455   6.453
 9238SOL    HW228614   4.345   3.382   6.557
 9239SOL     OW28615   1.309   3.565   6.459
 9239SOL    HW128616   1.372   3.623   6.408
 9239SOL    HW228617   1.313   3.472   6.425
 9240SOL     OW28618   4.995   1.244   1.916
 9240SOL    HW128619   4.909   1.199   1.890
 9240SOL    HW228620   5.067   1.219   1.851
 9241SOL     OW28621   0.685   5.431   6.463
 9241SOL    HW128622   0.675   5.335   6.488
 9241SOL    HW228623   0.609   5.484   6.501
 9242SOL     OW28624   6.197   6.036   1.563
 9242SOL    HW128625   6.206   6.132   1.536
 9242SOL    HW228626   6.101   6.010   1.563
 9243SOL     OW28627   5.776   6.245   4.839
 9243SOL    HW128628   5.854   6.273   4.895
 9243SOL    HW228629   5.721   6.325   4.816
 9244SOL     OW28630   3.631   5.278   0.199
 9244SOL    HW128631   3.554   5.267   0.261
 9244SOL    HW228632   3.709   5.315   0.248
 9245SOL     OW28633   0.730   6.622   1.336
 9245SOL    HW128634   0.722   6.708   1.387
 9245SOL    HW228635   0.817   6.620   1.287
 9246SOL     OW28636   6.687   4.822   4.321
 9246SOL    HW128637   6.713   4.915   4.347
 9246SOL    HW228638   6.613   4.826   4.253
 9247SOL     OW28639   1.769   6.577   3.317
 9247SOL    HW128640   1.745   6.670   3.289
 9247SOL    HW228641   1.781   6.574   3.417
 9248SOL     OW28642   3.837   2.007   6.178
 9248SOL    HW128643   3.747   2.020   6.136
 9248SOL    HW228644   3.836   1.924   6.234
 9249SOL     OW28645   4.086   6.448   3.303
 9249SOL    HW128646   4.064   6.516   3.233
 9249SOL    HW228647   4.181   6.419   3.292
 9250SOL     OW28648   5.462   3.680   3.400
 9250SOL    HW128649   5.418   3.593   3.375
 9250SOL    HW228650   5.427   3.753   3.341
 9251SOL     OW28651   4.206   2.291   2.975
 9251SOL    HW128652   4.252   2.215   2.929
 9251SOL    HW228653   4.110   2.266   2.992
 9252SOL     OW28654   1.548   6.580   4.288
 9252SOL    HW128655   1.545   6.490   4.332
 9252SOL    HW228656   1.455   6.611   4.269
 9253SOL     OW28657   1.489   6.881   5.743
 9253SOL    HW128658   1.525   6.827   5.667
 9253SOL    HW228659   1.563   6.902   5.807
 9254SOL     OW28660   5.686   2.597   1.600
 9254SOL    HW128661   5.640   2.524   1.550
 9254SOL    HW228662   5.622   2.671   1.618
 9255SOL     OW28663   0.005   5.118   0.562
 9255SOL    HW128664   6.973   5.036   0.563
 9255SOL    HW228665   6.984   5.191   0.513
 9256SOL     OW28666   4.059   5.130   1.923
 9256SOL    HW128667   3.965   5.156   1.947
 9256SOL    HW228668   4.086   5.052   1.978
 9257SOL     OW28669   0.470   3.722   0.569
 9257SOL    HW128670   0.538   3.754   0.636
 9257SOL    HW228671   0.434   3.633   0.598
 9258SOL     OW28672   3.288   3.359   3.920
 9258SOL    HW128673   3.320   3.362   4.015
 9258SOL    HW228674   3.230   3.279   3.907
 9259SOL     OW28675   1.277   2.050   0.467
 9259SOL    HW128676   1.304   2.006   0.381
 9259SOL    HW228677   1.325   2.007   0.543
 9260SOL     OW28678   6.590   3.859   7.006
 9260SOL    HW128679   6.532   3.853   6.925
 9260SOL    HW228680   6.539   3.828   0.060
 9261SOL     OW28681   3.684   0.013   6.640
 9261SOL    HW128682   3.665   6.941   6.644
 9261SOL    HW228683   3.613   0.064   6.688
 9262SOL     OW28684   4.997   0.774   5.679
 9262SOL    HW128685   4.900   0.752   5.672
 9262SOL    HW228686   5.031   0.746   5.769
 9263SOL     OW28687   5.888   3.947   1.979
 9263SOL    HW128688   5.833   3.960   2.061
 9263SOL    HW228689   5.833   3.968   1.898
 9264SOL     OW28690   6.184   2.459   0.227
 9264SOL    HW128691   6.123   2.443   0.304
 9264SOL    HW228692   6.277   2.431   0.251
 9265SOL     OW28693   1.469   1.841   5.168
 9265SOL    HW128694   1.513   1.760   5.129
 9265SOL    HW228695   1.488   1.920   5.111
 9266SOL     OW28696   2.786   6.289   1.999
 9266SOL    HW128697   2.833   6.328   2.078
 9266SOL    HW228698   2.772   6.191   2.014
 9267SOL     OW28699   2.757   5.139   5.637
 9267SOL    HW128700   2.810   5.183   5.710
 9267SOL    HW228701   2.798   5.050   5.617
 9268SOL     OW28702   0.671   1.160   2.486
 9268SOL    HW128703   0.670   1.253   2.451
 9268SOL    HW228704   0.577   1.125   2.491
 9269SOL     OW28705   4.567   1.768   5.830
 9269SOL    HW128706   4.480   1.777   5.782
 9269SOL    HW228707   4.551   1.727   5.920
 9270SOL     OW28708   1.359   0.329   5.880
 9270SOL    HW128709   1.456   0.305   5.889
 9270SOL    HW228710   1.304   0.268   5.937
 9271SOL     OW28711   0.772   4.932   6.282
 9271SOL    HW128712   0.728   4.993   6.216
 9271SOL    HW228713   0.705   4.898   6.347
 9272SOL     OW28714   2.353   4.791   6.850
 9272SOL    HW128715   2.297   4.866   6.885
 9272SOL    HW228716   2.449   4.810   6.867
 9273SOL     OW28717   4.200   6.037   5.707
 9273SOL    HW128718   4.109   6.055   5.670
 9273SOL    HW228719   4.264   6.106   5.672
 9274SOL     OW28720   5.879   2.453   1.795
 9274SOL    HW128721   5.888   2.490   1.703
 9274SOL    HW228722   5.784   2.427   1.812
 9275SOL     OW28723   0.150   0.742   6.361
 9275SOL    HW128724   0.154   0.643   6.376
 9275SOL    HW228725   0.147   0.789   6.450
 9276SOL     OW28726   4.921   6.883   4.170
 9276SOL    HW128727   4.912   6.942   4.090
 9276SOL    HW228728   4.833   6.877   4.217
 9277SOL     OW28729   3.044   2.627   0.444
 9277SOL    HW128730   2.945   2.641   0.438
 9277SOL    HW228731   3.064   2.530   0.438
 9278SOL     OW28732   1.524   2.806   1.402
 9278SOL    HW128733   1.564   2.860   1.475
 9278SOL    HW228734   1.576   2.721   1.390
 9279SOL     OW28735   2.495   6.483   0.974
 9279SOL    HW128736   2.449   6.501   1.061
 9279SOL    HW228737   2.574   6.544   0.966
 9280SOL     OW28738   2.062   0.848   2.950
 9280SOL    HW128739   2.054   0.783   3.025
 9280SOL    HW228740   2.140   0.823   2.892
 9281SOL     OW28741   2.002   2.659   0.488
 9281SOL    HW128742   1.965   2.671   0.396
 9281SOL    HW228743   1.988   2.743   0.540
 9282SOL     OW28744   4.316   1.639   6.490
 9282SOL    HW128745   4.246   1.708   6.505
 9282SOL    HW228746   4.392   1.653   6.554
 9283SOL     OW28747   5.533   2.357   2.942
 9283SOL    HW128748   5.444   2.366   2.897
 9283SOL    HW228749   5.604   2.339   2.873
 9284SOL     OW28750   3.263   3.722   2.028
 9284SOL    HW128751   3.325   3.752   1.956
 9284SOL    HW228752   3.299   3.640   2.073
 9285SOL     OW28753   6.508   2.281   6.714
 9285SOL    HW128754   6.560   2.314   6.635
 9285SOL    HW228755   6.446   2.352   6.746
 9286SOL     OW28756   5.536   5.490   4.742
 9286SOL    HW128757   5.612   5.431   4.770
 9286SOL    HW228758   5.568   5.552   4.670
 9287SOL     OW28759   2.830   0.090   1.992
 9287SOL    HW128760   2.914   0.129   2.030
 9287SOL    HW228761   2.805   0.138   1.909
 9288SOL     OW28762   4.863   2.200   5.868
 9288SOL    HW128763   4.872   2.239   5.776
 9288SOL    HW228764   4.810   2.115   5.863
 9289SOL     OW28765   5.638   3.388   2.473
 9289SOL    HW128766   5.735   3.380   2.448
 9289SOL    HW228767   5.625   3.469   2.530
 9290SOL     OW28768   4.478   2.032   4.359
 9290SOL    HW128769   4.433   2.024   4.447
 9290SOL    HW228770   4.555   2.095   4.367
 9291SOL     OW28771   1.082   1.738   4.746
 9291SOL    HW128772   1.004   1.761   4.688
 9291SOL    HW228773   1.163   1.723   4.689
 9292SOL     OW28774   6.723   3.222   0.184
 9292SOL    HW128775   6.814   3.181   0.172
 9292SOL    HW228776   6.713   3.299   0.121
 9293SOL     OW28777   6.411   3.896   6.183
 9293SOL    HW128778   6.340   3.853   6.239
 9293SOL    HW228779   6.493   3.910   6.238
 9294SOL     OW28780   5.360   5.756   6.284
 9294SOL    HW128781   5.347   5.840   6.231
 9294SOL    HW228782   5.432   5.701   6.242
 9295SOL     OW28783   4.420   1.865   3.939
 9295SOL    HW128784   4.405   1.878   4.037
 9295SOL    HW228785   4.487   1.931   3.907
 9296SOL     OW28786   6.937   6.613   5.536
 9296SOL    HW128787   6.894   6.524   5.522
 9296SOL    HW228788   6.867   6.684   5.544
 9297SOL     OW28789   0.352   0.787   1.095
 9297SOL    HW128790   0.350   0.813   1.191
 9297SOL    HW228791   0.429   0.726   1.078
 9298SOL     OW28792   0.656   6.467   4.833
 9298SOL    HW128793   0.605   6.478   4.747
 9298SOL    HW228794   0.737   6.525   4.831
 9299SOL     OW28795   1.698   2.583   3.934
 9299SOL    HW128796   1.729   2.667   3.889
 9299SOL    HW228797   1.601   2.591   3.956
 9300SOL     OW28798   5.669   4.179   3.813
 9300SOL    HW128799   5.655   4.254   3.749
 9300SOL    HW228800   5.622   4.200   3.899
 9301SOL     OW28801   5.959   4.148   2.200
 9301SOL    HW128802   6.035   4.113   2.255
 9301SOL    HW228803   5.970   4.118   2.106
 9302SOL     OW28804   2.322   2.292   2.677
 9302SOL    HW128805   2.329   2.281   2.776
 9302SOL    HW228806   2.228   2.274   2.649
 9303SOL     OW28807   4.212   4.175   0.695
 9303SOL    HW128808   4.253   4.218   0.615
 9303SOL    HW228809   4.124   4.134   0.670
 9304SOL     OW28810   3.993   3.168   0.106
 9304SOL    HW128811   3.952   3.260   0.112
 9304SOL    HW228812   3.939   3.104   0.161
 9305SOL     OW28813   5.095   3.369   2.207
 9305SOL    HW128814   5.118   3.294   2.144
 9305SOL    HW228815   5.008   3.349   2.252
 9306SOL     OW28816   6.182   4.542   3.963
 9306SOL    HW128817   6.115   4.501   3.901
 9306SOL    HW228818   6.145   4.627   4.000
 9307SOL     OW28819   2.299   0.764   6.385
 9307SOL    HW128820   2.356   0.761   6.302
 9307SOL    HW228821   2.275   0.671   6.411
 9308SOL     OW28822   6.529   2.080   0.638
 9308SOL    HW128823   6.508   2.044   0.728
 9308SOL    HW228824   6.611   2.033   0.602
 9309SOL     OW28825   4.839   3.110   6.273
 9309SOL    HW128826   4.783   3.163   6.337
 9309SOL    HW228827   4.821   3.141   6.179
 9310SOL     OW28828   4.121   5.981   1.030
 9310SOL    HW128829   4.112   5.954   0.935
 9310SOL    HW228830   4.142   6.079   1.035
 9311SOL     OW28831   6.649   3.183   1.816
 9311SOL    HW128832   6.704   3.214   1.738
 9311SOL    HW228833   6.624   3.087   1.803
 9312SOL     OW28834   1.541   4.447   4.856
 9312SOL    HW128835   1.504   4.480   4.769
 9312SOL    HW228836   1.472   4.390   4.901
 9313SOL     OW28837   6.339   6.593   2.371
 9313SOL    HW128838   6.393   6.619   2.291
 9313SOL    HW228839   6.255   6.648   2.374
 9314SOL     OW28840   5.346   4.761   6.913
 9314SOL    HW128841   5.316   4.818   6.837
 9314SOL    HW228842   5.278   4.764   6.986
 9315SOL     OW28843   0.483   6.902   6.694
 9315SOL    HW128844   0.458   6.806   6.681
 9315SOL    HW228845   0.556   6.909   6.762
 9316SOL     OW28846   3.432   5.783   4.450
 9316SOL    HW128847   3.369   5.861   4.460
 9316SOL    HW228848   3.470   5.784   4.358
 9317SOL     OW28849   5.212   4.493   5.406
 9317SOL    HW128850   5.140   4.514   5.339
 9317SOL    HW228851   5.281   4.566   5.403
 9318SOL     OW28852   6.415   6.661   6.276
 9318SOL    HW128853   6.316   6.660   6.290
 9318SOL    HW228854   6.435   6.701   6.187
 9319SOL     OW28855   6.485   2.669   4.803
 9319SOL    HW128856   6.525   2.584   4.769
 9319SOL    HW228857   6.479   2.665   4.903
 9320SOL     OW28858   3.897   2.853   6.385
 9320SOL    HW128859   3.814   2.873   6.334
 9320SOL    HW228860   3.947   2.779   6.339
 9321SOL     OW28861   6.114   6.070   3.918
 9321SOL    HW128862   6.087   5.974   3.925
 9321SOL    HW228863   6.084   6.106   3.830
 9322SOL     OW28864   0.788   6.475   0.263
 9322SOL    HW128865   0.813   6.571   0.274
 9322SOL    HW228866   0.852   6.418   0.314
 9323SOL     OW28867   0.625   1.406   6.436
 9323SOL    HW128868   0.695   1.372   6.499
 9323SOL    HW228869   0.555   1.335   6.423
 9324SOL     OW28870   1.748   5.363   6.851
 9324SOL    HW128871   1.778   5.455   6.875
 9324SOL    HW228872   1.654   5.367   6.815
 9325SOL     OW28873   0.353   3.008   0.316
 9325SOL    HW128874   0.297   3.083   0.282
 9325SOL    HW228875   0.295   2.939   0.359
 9326SOL     OW28876   1.931   5.316   1.271
 9326SOL    HW128877   2.012   5.367   1.298
 9326SOL    HW228878   1.948   5.270   1.183
 9327SOL     OW28879   3.729   0.732   3.555
 9327SOL    HW128880   3.692   0.763   3.467
 9327SOL    HW228881   3.719   0.804   3.623
 9328SOL     OW28882   3.478   0.505   2.222
 9328SOL    HW128883   3.380   0.492   2.208
 9328SOL    HW228884   3.523   0.517   2.134
 9329SOL     OW28885   1.044   4.185   1.827
 9329SOL    HW128886   1.072   4.150   1.917
 9329SOL    HW228887   0.955   4.230   1.834
 9330SOL     OW28888   5.613   6.743   6.725
 9330SOL    HW128889   5.626   6.834   6.764
 9330SOL    HW228890   5.678   6.729   6.650
 9331SOL     OW28891   0.638   1.558   0.343
 9331SOL    HW128892   0.718   1.619   0.342
 9331SOL    HW228893   0.555   1.612   0.357
 9332SOL     OW28894   3.836   3.692   5.090
 9332SOL    HW128895   3.837   3.777   5.143
 9332SOL    HW228896   3.742   3.661   5.080
 9333SOL     OW28897   5.369   5.590   1.097
 9333SOL    HW128898   5.393   5.685   1.119
 9333SOL    HW228899   5.295   5.589   1.031
 9334SOL     OW28900   2.886   7.004   4.851
 9334SOL    HW128901   2.863   6.907   4.848
 9334SOL    HW228902   2.984   7.016   4.839
 9335SOL     OW28903   0.588   1.138   1.783
 9335SOL    HW128904   0.594   1.237   1.777
 9335SOL    HW228905   0.509   1.112   1.838
 9336SOL     OW28906   3.419   0.143   5.022
 9336SOL    HW128907   3.364   0.178   4.946
 9336SOL    HW228908   3.499   0.094   4.985
 9337SOL     OW28909   4.566   6.725   2.897
 9337SOL    HW128910   4.553   6.792   2.824
 9337SOL    HW228911   4.571   6.633   2.859
 9338SOL     OW28912   3.596   6.919   1.819
 9338SOL    HW128913   3.512   6.921   1.764
 9338SOL    HW228914   3.657   6.992   1.790
 9339SOL     OW28915   3.860   5.494   1.406
 9339SOL    HW128916   3.922   5.425   1.369
 9339SOL    HW228917   3.810   5.456   1.484
 9340SOL     OW28918   6.049   3.111   0.898
 9340SOL    HW128919   6.074   3.034   0.956
 9340SOL    HW228920   6.011   3.185   0.954
 9341SOL     OW28921   6.755   4.425   5.662
 9341SOL    HW128922   6.786   4.481   5.739
 9341SOL    HW228923   6.826   4.359   5.637
 9342SOL     OW28924   1.226   0.192   6.097
 9342SOL    HW128925   1.129   0.185   6.074
 9342SOL    HW228926   1.236   0.223   6.192
 9343SOL     OW28927   6.333   6.269   4.196
 9343SOL    HW128928   6.384   6.304   4.275
 9343SOL    HW228929   6.334   6.169   4.198
 9344SOL     OW28930   4.399   6.442   0.954
 9344SOL    HW128931   4.385   6.540   0.968
 9344SOL    HW228932   4.497   6.422   0.961
 9345SOL     OW28933   0.401   3.197   0.867
 9345SOL    HW128934   0.402   3.275   0.930
 9345SOL    HW228935   0.465   3.127   0.900
 9346SOL     OW28936   5.768   0.272   0.741
 9346SOL    HW128937   5.779   0.367   0.711
 9346SOL    HW228938   5.671   0.255   0.761
 9347SOL     OW28939   1.958   6.664   1.805
 9347SOL    HW128940   2.030   6.660   1.874
 9347SOL    HW228941   1.870   6.638   1.845
 9348SOL     OW28942   2.517   4.905   0.641
 9348SOL    HW128943   2.451   4.880   0.712
 9348SOL    HW228944   2.548   4.999   0.656
 9349SOL     OW28945   2.013   5.887   2.309
 9349SOL    HW128946   1.986   5.941   2.389
 9349SOL    HW228947   1.976   5.929   2.226
 9350SOL     OW28948   0.151   2.993   5.652
 9350SOL    HW128949   0.100   3.061   5.705
 9350SOL    HW228950   0.150   2.906   5.701
 9351SOL     OW28951   3.075   1.020   6.393
 9351SOL    HW128952   3.073   1.120   6.397
 9351SOL    HW228953   3.132   0.985   6.467
 9352SOL     OW28954   2.585   5.001   5.818
 9352SOL    HW128955   2.669   5.053   5.809
 9352SOL    HW228956   2.566   4.952   5.732
 9353SOL     OW28957   5.813   1.104   0.941
 9353SOL    HW128958   5.740   1.169   0.922
 9353SOL    HW228959   5.793   1.017   0.895
 9354SOL     OW28960   1.131   1.841   6.620
 9354SOL    HW128961   1.224   1.863   6.649
 9354SOL    HW228962   1.088   1.922   6.582
 9355SOL     OW28963   0.601   1.432   5.081
 9355SOL    HW128964   0.670   1.379   5.033
 9355SOL    HW228965   0.611   1.529   5.059
 9356SOL     OW28966   5.070   0.254   3.655
 9356SOL    HW128967   5.100   0.159   3.662
 9356SOL    HW228968   4.978   0.257   3.617
 9357SOL     OW28969   0.772   2.153   0.443
 9357SOL    HW128970   0.838   2.159   0.518
 9357SOL    HW228971   0.776   2.238   0.390
 9358SOL     OW28972   1.333   2.597   1.548
 9358SOL    HW128973   1.421   2.644   1.550
 9358SOL    HW228974   1.312   2.562   1.640
 9359SOL     OW28975   1.254   0.180   5.243
 9359SOL    HW128976   1.212   0.239   5.312
 9359SOL    HW228977   1.351   0.203   5.234
 9360SOL     OW28978   0.736   0.536   6.190
 9360SOL    HW128979   0.667   0.601   6.157
 9360SOL    HW228980   0.691   0.460   6.237
 9361SOL     OW28981   2.550   5.675   4.677
 9361SOL    HW128982   2.628   5.655   4.618
 9361SOL    HW228983   2.561   5.626   4.764
 9362SOL     OW28984   2.264   0.729   2.440
 9362SOL    HW128985   2.338   0.787   2.474
 9362SOL    HW228986   2.185   0.786   2.415
 9363SOL     OW28987   1.904   4.236   2.456
 9363SOL    HW128988   1.926   4.195   2.367
 9363SOL    HW228989   1.972   4.305   2.479
 9364SOL     OW28990   0.111   2.456   0.361
 9364SOL    HW128991   0.044   2.385   0.380
 9364SOL    HW228992   0.161   2.478   0.444
 9365SOL     OW28993   2.674   0.858   5.043
 9365SOL    HW128994   2.736   0.813   5.107
 9365SOL    HW228995   2.586   0.811   5.042
 9366SOL     OW28996   4.097   6.435   2.342
 9366SOL    HW128997   4.091   6.347   2.295
 9366SOL    HW228998   4.004   6.470   2.357
 9367SOL     OW28999   6.500   0.555   1.296
 9367SOL    HW129000   6.404   0.555   1.324
 9367SOL    HW229001   6.520   0.638   1.246
 9368SOL     OW29002   2.666   0.709   2.923
 9368SOL    HW129003   2.592   0.723   2.859
 9368SOL    HW229004   2.629   0.701   3.016
 9369SOL     OW29005   3.650   5.293   0.927
 9369SOL    HW129006   3.689   5.361   0.988
 9369SOL    HW229007   3.645   5.205   0.974
 9370SOL     OW29008   4.377   2.026   5.146
 9370SOL    HW129009   4.295   2.016   5.089
 9370SOL    HW229010   4.452   2.059   5.090
 9371SOL     OW29011   4.184   4.728   0.555
 9371SOL    HW129012   4.159   4.774   0.470
 9371SOL    HW229013   4.227   4.794   0.617
 9372SOL     OW29014   4.234   5.995   1.444
 9372SOL    HW129015   4.211   5.986   1.541
 9372SOL    HW229016   4.188   6.075   1.407
 9373SOL     OW29017   6.783   2.797   1.192
 9373SOL    HW129018   6.827   2.886   1.183
 9373SOL    HW229019   6.810   2.738   1.116
 9374SOL     OW29020   6.811   5.582   6.233
 9374SOL    HW129021   6.825   5.651   6.304
 9374SOL    HW229022   6.715   5.552   6.235
 9375SOL     OW29023   1.293   1.162   0.020
 9375SOL    HW129024   1.381   1.133   7.007
 9375SOL    HW229025   1.299   1.157   0.120
 9376SOL     OW29026   2.880   3.602   0.572
 9376SOL    HW129027   2.946   3.669   0.607
 9376SOL    HW229028   2.924   3.512   0.565
 9377SOL     OW29029   1.738   0.365   3.209
 9377SOL    HW129030   1.733   0.435   3.280
 9377SOL    HW229031   1.645   0.342   3.179
 9378SOL     OW29032   3.618   1.049   4.879
 9378SOL    HW129033   3.589   1.067   4.785
 9378SOL    HW229034   3.621   1.136   4.929
 9379SOL     OW29035   4.225   0.367   4.569
 9379SOL    HW129036   4.230   0.458   4.527
 9379SOL    HW229037   4.301   0.311   4.534
 9380SOL     OW29038   5.038   5.610   0.084
 9380SOL    HW129039   5.108   5.651   0.141
 9380SOL    HW229040   4.948   5.623   0.127
 9381SOL     OW29041   5.767   0.910   5.077
 9381SOL    HW129042   5.802   1.001   5.055
 9381SOL    HW229043   5.689   0.889   5.018
 9382SOL     OW29044   3.252   5.742   6.179
 9382SOL    HW129045   3.248   5.644   6.162
 9382SOL    HW229046   3.342   5.777   6.152
 9383SOL     OW29047   5.414   3.698   1.660
 9383SOL    HW129048   5.336   3.652   1.702
 9383SOL    HW229049   5.384   3.745   1.577
 9384SOL     OW29050   3.614   6.996   1.248
 9384SOL    HW129051   3.615   0.022   1.334
 9384SOL    HW229052   3.566   0.023   1.178
 9385SOL     OW29053   4.032   2.202   4.329
 9385SOL    HW129054   3.963   2.193   4.400
 9385SOL    HW229055   4.118   2.233   4.370
 9386SOL     OW29056   5.618   0.028   1.837
 9386SOL    HW129057   5.679   0.100   1.868
 9386SOL    HW229058   5.525   0.064   1.831
 9387SOL     OW29059   1.965   1.762   6.400
 9387SOL    HW129060   1.943   1.814   6.318
 9387SOL    HW229061   2.032   1.812   6.455
 9388SOL     OW29062   2.656   0.069   4.740
 9388SOL    HW129063   2.680   0.057   4.643
 9388SOL    HW229064   2.729   0.032   4.797
 9389SOL     OW29065   2.117   4.039   1.978
 9389SOL    HW129066   2.022   4.053   2.006
 9389SOL    HW229067   2.147   3.948   2.005
 9390SOL     OW29068   5.222   5.034   3.863
 9390SOL    HW129069   5.219   5.021   3.962
 9390SOL    HW229070   5.314   5.062   3.835
 9391SOL     OW29071   1.954   3.894   4.532
 9391SOL    HW129072   1.995   3.932   4.450
 9391SOL    HW229073   2.015   3.909   4.610
 9392SOL     OW29074   4.847   4.499   2.222
 9392SOL    HW129075   4.901   4.435   2.276
 9392SOL    HW229076   4.802   4.451   2.148
 9393SOL     OW29077   1.884   5.516   6.398
 9393SOL    HW129078   1.908   5.538   6.303
 9393SOL    HW229079   1.934   5.576   6.460
 9394SOL     OW29080   4.059   0.697   0.630
 9394SOL    HW129081   3.963   0.719   0.641
 9394SOL    HW229082   4.097   0.749   0.553
 9395SOL     OW29083   1.444   1.198   1.678
 9395SOL    HW129084   1.406   1.107   1.692
 9395SOL    HW229085   1.534   1.190   1.635
 9396SOL     OW29086   0.911   1.084   6.198
 9396SOL    HW129087   0.953   1.171   6.223
 9396SOL    HW229088   0.964   1.041   6.125
 9397SOL     OW29089   3.479   1.082   4.640
 9397SOL    HW129090   3.412   1.074   4.565
 9397SOL    HW229091   3.568   1.051   4.608
 9398SOL     OW29092   0.123   2.041   0.451
 9398SOL    HW129093   0.222   2.047   0.442
 9398SOL    HW229094   0.088   1.973   0.386
 9399SOL     OW29095   1.124   2.276   4.760
 9399SOL    HW129096   1.174   2.347   4.711
 9399SOL    HW229097   1.178   2.192   4.762
 9400SOL     OW29098   5.709   1.923   1.124
 9400SOL    HW129099   5.651   1.843   1.109
 9400SOL    HW229100   5.726   1.968   1.036
 9401SOL     OW29101   0.185   2.347   3.628
 9401SOL    HW129102   0.264   2.286   3.635
 9401SOL    HW229103   0.152   2.348   3.534
 9402SOL     OW29104   3.194   6.126   5.196
 9402SOL    HW129105   3.122   6.191   5.223
 9402SOL    HW229106   3.152   6.040   5.168
 9403SOL     OW29107   5.805   2.195   1.118
 9403SOL    HW129108   5.735   2.132   1.150
 9403SOL    HW229109   5.896   2.155   1.131
 9404SOL     OW29110   2.047   2.382   1.140
 9404SOL    HW129111   2.035   2.283   1.152
 9404SOL    HW229112   2.011   2.430   1.219
 9405SOL     OW29113   6.364   5.966   5.349
 9405SOL    HW129114   6.266   5.952   5.367
 9405SOL    HW229115   6.411   5.878   5.357
 9406SOL     OW29116   1.406   1.952   0.718
 9406SOL    HW129117   1.450   2.007   0.789
 9406SOL    HW229118   1.472   1.886   0.682
 9407SOL     OW29119   1.381   4.190   4.680
 9407SOL    HW129120   1.406   4.271   4.626
 9407SOL    HW229121   1.380   4.110   4.620
 9408SOL     OW29122   5.480   4.258   4.010
 9408SOL    HW129123   5.381   4.267   4.001
 9408SOL    HW229124   5.521   4.349   4.021
 9409SOL     OW29125   6.047   5.778   1.451
 9409SOL    HW129126   6.065   5.855   1.390
 9409SOL    HW229127   5.949   5.760   1.455
 9410SOL     OW29128   4.491   0.696   0.885
 9410SOL    HW129129   4.587   0.711   0.910
 9410SOL    HW229130   4.456   0.617   0.935
 9411SOL     OW29131   3.220   4.100   3.033
 9411SOL    HW129132   3.170   4.184   3.050
 9411SOL    HW229133   3.303   4.099   3.089
 9412SOL     OW29134   4.665   6.916   1.574
 9412SOL    HW129135   4.669   6.955   1.482
 9412SOL    HW229136   4.746   6.942   1.626
 9413SOL     OW29137   4.113   4.775   3.315
 9413SOL    HW129138   4.049   4.848   3.337
 9413SOL    HW229139   4.153   4.739   3.399
 9414SOL     OW29140   2.416   1.996   2.331
 9414SOL    HW129141   2.373   2.004   2.241
 9414SOL    HW229142   2.442   2.087   2.363
 9415SOL     OW29143   5.377   0.480   1.435
 9415SOL    HW129144   5.306   0.477   1.364
 9415SOL    HW229145   5.435   0.560   1.421
 9416SOL     OW29146   6.252   5.299   5.673
 9416SOL    HW129147   6.247   5.205   5.706
 9416SOL    HW229148   6.173   5.318   5.615
 9417SOL     OW29149   3.895   5.577   2.288
 9417SOL    HW129150   3.796   5.581   2.300
 9417SOL    HW229151   3.927   5.485   2.312
 9418SOL     OW29152   3.111   2.006   5.128
 9418SOL    HW129153   3.140   2.018   5.222
 9418SOL    HW229154   3.105   2.095   5.083
 9419SOL     OW29155   2.014   2.535   6.432
 9419SOL    HW129156   2.096   2.585   6.461
 9419SOL    HW229157   2.003   2.544   6.333
 9420SOL     OW29158   5.619   3.684   5.705
 9420SOL    HW129159   5.640   3.782   5.705
 9420SOL    HW229160   5.675   3.638   5.774
 9421SOL     OW29161   4.215   6.286   6.605
 9421SOL    HW129162   4.119   6.311   6.595
 9421SOL    HW229163   4.271   6.342   6.544
 9422SOL     OW29164   2.743   6.531   5.306
 9422SOL    HW129165   2.822   6.472   5.323
 9422SOL    HW229166   2.700   6.555   5.393
 9423SOL     OW29167   4.635   5.563   1.531
 9423SOL    HW129168   4.727   5.581   1.566
 9423SOL    HW229169   4.568   5.598   1.597
 9424SOL     OW29170   0.012   0.381   4.006
 9424SOL    HW129171   6.968   0.425   3.950
 9424SOL    HW229172   0.044   0.445   4.077
 9425SOL     OW29173   0.045   4.626   0.663
 9425SOL    HW129174   0.044   4.635   0.563
 9425SOL    HW229175   0.113   4.558   0.690
 9426SOL     OW29176   4.296   2.740   6.067
 9426SOL    HW129177   4.359   2.720   6.143
 9426SOL    HW229178   4.287   2.839   6.057
 9427SOL     OW29179   3.778   5.088   1.975
 9427SOL    HW129180   3.726   5.151   2.031
 9427SOL    HW229181   3.789   5.001   2.023
 9428SOL     OW29182   0.944   6.366   5.625
 9428SOL    HW129183   0.848   6.393   5.636
 9428SOL    HW229184   1.003   6.438   5.661
 9429SOL     OW29185   3.081   2.154   4.224
 9429SOL    HW129186   3.120   2.240   4.260
 9429SOL    HW229187   3.156   2.092   4.200
 9430SOL     OW29188   1.482   0.506   4.727
 9430SOL    HW129189   1.551   0.452   4.776
 9430SOL    HW229190   1.495   0.603   4.748
 9431SOL     OW29191   1.312   4.309   4.933
 9431SOL    HW129192   1.355   4.263   4.856
 9431SOL    HW229193   1.216   4.281   4.939
 9432SOL     OW29194   6.874   1.519   3.579
 9432SOL    HW129195   6.861   1.424   3.554
 9432SOL    HW229196   6.936   1.563   3.513
 9433SOL     OW29197   4.466   5.610   1.723
 9433SOL    HW129198   4.369   5.589   1.735
 9433SOL    HW229199   4.501   5.657   1.804
 9434SOL     OW29200   4.150   5.890   4.601
 9434SOL    HW129201   4.244   5.877   4.572
 9434SOL    HW229202   4.106   5.801   4.613
 9435SOL     OW29203   5.921   4.178   0.321
 9435SOL    HW129204   5.868   4.096   0.341
 9435SOL    HW229205   6.018   4.160   0.338
 9436SOL     OW29206   3.345   1.091   2.994
 9436SOL    HW129207   3.393   1.087   2.907
 9436SOL    HW229208   3.380   1.168   3.048
 9437SOL     OW29209   5.194   1.070   4.419
 9437SOL    HW129210   5.154   1.000   4.478
 9437SOL    HW229211   5.252   1.131   4.474
 9438SOL     OW29212   4.837   0.593   2.989
 9438SOL    HW129213   4.802   0.525   3.053
 9438SOL    HW229214   4.937   0.595   2.995
 9439SOL     OW29215   2.033   3.773   1.071
 9439SOL    HW129216   2.093   3.848   1.099
 9439SOL    HW229217   1.938   3.796   1.093
 9440SOL     OW29218   1.579   5.808   4.941
 9440SOL    HW129219   1.658   5.864   4.967
 9440SOL    HW229220   1.594   5.770   4.850
 9441SOL     OW29221   0.473   6.154   4.241
 9441SOL    HW129222   0.494   6.082   4.307
 9441SOL    HW229223   0.374   6.167   4.236
 9442SOL     OW29224   5.738   3.231   1.221
 9442SOL    HW129225   5.794   3.162   1.268
 9442SOL    HW229226   5.735   3.211   1.124
 9443SOL     OW29227   2.754   4.284   1.434
 9443SOL    HW129228   2.803   4.199   1.411
 9443SOL    HW229229   2.779   4.313   1.526
 9444SOL     OW29230   1.946   5.712   6.646
 9444SOL    HW129231   1.873   5.726   6.713
 9444SOL    HW229232   2.011   5.645   6.682
 9445SOL     OW29233   0.171   1.057   3.990
 9445SOL    HW129234   0.243   1.084   4.053
 9445SOL    HW229235   0.168   0.958   3.982
 9446SOL     OW29236   6.414   4.712   4.436
 9446SOL    HW129237   6.397   4.620   4.471
 9446SOL    HW229238   6.398   4.715   4.338
 9447SOL     OW29239   5.367   5.268   2.241
 9447SOL    HW129240   5.274   5.279   2.277
 9447SOL    HW229241   5.414   5.356   2.243
 9448SOL     OW29242   5.407   1.910   6.851
 9448SOL    HW129243   5.453   1.971   6.787
 9448SOL    HW229244   5.323   1.875   6.810
 9449SOL     OW29245   4.894   6.795   2.591
 9449SOL    HW129246   4.808   6.745   2.584
 9449SOL    HW229247   4.949   6.778   2.509
 9450SOL     OW29248   0.996   0.367   2.778
 9450SOL    HW129249   1.064   0.381   2.851
 9450SOL    HW229250   1.008   0.437   2.707
 9451SOL     OW29251   3.791   5.203   0.638
 9451SOL    HW129252   3.794   5.279   0.703
 9451SOL    HW229253   3.819   5.236   0.547
 9452SOL     OW29254   6.176   4.252   6.329
 9452SOL    HW129255   6.133   4.171   6.291
 9452SOL    HW229256   6.109   4.326   6.335
 9453SOL     OW29257   6.561   4.949   2.231
 9453SOL    HW129258   6.540   4.965   2.134
 9453SOL    HW229259   6.599   5.032   2.271
 9454SOL     OW29260   5.571   5.211   0.738
 9454SOL    HW129261   5.539   5.117   0.750
 9454SOL    HW229262   5.569   5.259   0.826
 9455SOL     OW29263   4.687   0.208   1.447
 9455SOL    HW129264   4.597   0.250   1.434
 9455SOL    HW229265   4.686   0.116   1.408
 9456SOL     OW29266   0.186   2.319   2.610
 9456SOL    HW129267   0.205   2.416   2.622
 9456SOL    HW229268   0.139   2.284   2.692
 9457SOL     OW29269   6.501   6.288   3.932
 9457SOL    HW129270   6.403   6.310   3.931
 9457SOL    HW229271   6.549   6.354   3.989
 9458SOL     OW29272   6.414   3.754   0.155
 9458SOL    HW129273   6.348   3.679   0.155
 9458SOL    HW229274   6.445   3.771   0.248
 9459SOL     OW29275   5.215   4.741   4.764
 9459SOL    HW129276   5.245   4.781   4.850
 9459SOL    HW229277   5.197   4.814   4.698
 9460SOL     OW29278   1.579   2.549   2.560
 9460SOL    HW129279   1.643   2.587   2.494
 9460SOL    HW229280   1.553   2.619   2.626
 9461SOL     OW29281   2.577   1.994   1.907
 9461SOL    HW129282   2.554   1.911   1.957
 9461SOL    HW229283   2.661   2.033   1.944
 9462SOL     OW29284   0.137   1.267   5.712
 9462SOL    HW129285   0.075   1.340   5.743
 9462SOL    HW229286   0.141   1.196   5.782
 9463SOL     OW29287   6.513   4.924   0.445
 9463SOL    HW129288   6.434   4.878   0.486
 9463SOL    HW229289   6.554   4.987   0.511
 9464SOL     OW29290   0.982   6.995   1.456
 9464SOL    HW129291   0.995   6.992   1.555
 9464SOL    HW229292   0.884   7.000   1.436
 9465SOL     OW29293   6.484   6.018   0.252
 9465SOL    HW129294   6.560   6.005   0.315
 9465SOL    HW229295   6.485   5.947   0.182
 9466SOL     OW29296   4.513   3.978   5.367
 9466SOL    HW129297   4.608   3.994   5.343
 9466SOL    HW229298   4.486   3.886   5.337
 9467SOL     OW29299   1.022   3.952   0.840
 9467SOL    HW129300   1.068   3.951   0.929
 9467SOL    HW229301   1.090   3.949   0.767
 9468SOL     OW29302   6.145   1.225   1.292
 9468SOL    HW129303   6.191   1.181   1.369
 9468SOL    HW229304   6.207   1.293   1.251
 9469SOL     OW29305   6.978   6.900   1.683
 9469SOL    HW129306   7.024   6.877   1.597
 9469SOL    HW229307   6.884   6.927   1.664
 9470SOL     OW29308   3.375   2.937   0.818
 9470SOL    HW129309   3.312   2.919   0.742
 9470SOL    HW229310   3.323   2.953   0.902
 9471SOL     OW29311   6.369   3.001   4.870
 9471SOL    HW129312   6.468   3.013   4.882
 9471SOL    HW229313   6.339   3.051   4.789
 9472SOL     OW29314   1.914   3.448   6.303
 9472SOL    HW129315   2.002   3.404   6.289
 9472SOL    HW229316   1.840   3.384   6.280
 9473SOL     OW29317   3.120   3.668   1.055
 9473SOL    HW129318   3.193   3.610   1.092
 9473SOL    HW229319   3.160   3.755   1.025
 9474SOL     OW29320   5.724   4.719   0.962
 9474SOL    HW129321   5.688   4.642   0.908
 9474SOL    HW229322   5.794   4.767   0.909
 9475SOL     OW29323   5.799   3.559   6.847
 9475SOL    HW129324   5.711   3.595   6.816
 9475SOL    HW229325   5.787   3.512   6.934
 9476SOL     OW29326   4.174   4.141   1.124
 9476SOL    HW129327   4.266   4.105   1.140
 9476SOL    HW229328   4.131   4.163   1.212
 9477SOL     OW29329   1.638   4.807   0.992
 9477SOL    HW129330   1.720   4.776   0.944
 9477SOL    HW229331   1.634   4.762   1.082
 9478SOL     OW29332   6.753   3.778   5.709
 9478SOL    HW129333   6.684   3.847   5.685
 9478SOL    HW229334   6.713   3.712   5.773
 9479SOL     OW29335   4.562   0.852   1.974
 9479SOL    HW129336   4.509   0.780   1.930
 9479SOL    HW229337   4.575   0.831   2.071
 9480SOL     OW29338   5.509   0.215   0.764
 9480SOL    HW129339   5.461   0.233   0.678
 9480SOL    HW229340   5.448   0.233   0.841
 9481SOL     OW29341   4.818   0.057   3.084
 9481SOL    HW129342   4.903   0.004   3.073
 9481SOL    HW229343   4.754   0.033   3.011
 9482SOL     OW29344   6.076   4.916   5.171
 9482SOL    HW129345   6.116   4.866   5.094
 9482SOL    HW229346   6.112   4.879   5.257
 9483SOL     OW29347   6.195   4.904   6.776
 9483SOL    HW129348   6.183   4.879   6.873
 9483SOL    HW229349   6.234   4.996   6.770
 9484SOL     OW29350   1.974   6.549   4.370
 9484SOL    HW129351   1.924   6.629   4.336
 9484SOL    HW229352   2.063   6.545   4.326
 9485SOL     OW29353   0.559   1.040   5.021
 9485SOL    HW129354   0.641   1.004   4.976
 9485SOL    HW229355   0.586   1.089   5.104
 9486SOL     OW29356   6.660   5.924   6.718
 9486SOL    HW129357   6.583   5.973   6.761
 9486SOL    HW229358   6.639   5.906   6.622
 9487SOL     OW29359   3.067   3.932   3.211
 9487SOL    HW129360   3.069   3.995   3.134
 9487SOL    HW229361   3.142   3.953   3.274
 9488SOL     OW29362   2.018   0.862   1.699
 9488SOL    HW129363   2.079   0.783   1.704
 9488SOL    HW229364   1.967   0.869   1.785
 9489SOL     OW29365   6.259   4.361   0.279
 9489SOL    HW129366   6.358   4.359   0.268
 9489SOL    HW229367   6.229   4.281   0.331
 9490SOL     OW29368   5.512   3.634   4.825
 9490SOL    HW129369   5.588   3.620   4.888
 9490SOL    HW229370   5.532   3.711   4.764
 9491SOL     OW29371   5.418   0.247   2.740
 9491SOL    HW129372   5.387   0.340   2.761
 9491SOL    HW229373   5.512   0.235   2.772
 9492SOL     OW29374   4.572   2.290   4.280
 9492SOL    HW129375   4.499   2.259   4.219
 9492SOL    HW229376   4.536   2.359   4.343
 9493SOL     OW29377   2.886   6.096   2.258
 9493SOL    HW129378   2.971   6.140   2.230
 9493SOL    HW229379   2.868   6.017   2.199
 9494SOL     OW29380   5.008   2.552   2.582
 9494SOL    HW129381   5.042   2.584   2.670
 9494SOL    HW229382   5.023   2.622   2.512
 9495SOL     OW29383   4.994   2.644   1.162
 9495SOL    HW129384   5.052   2.689   1.095
 9495SOL    HW229385   4.956   2.712   1.225
 9496SOL     OW29386   5.632   2.812   1.360
 9496SOL    HW129387   5.610   2.795   1.456
 9496SOL    HW229388   5.555   2.858   1.316
 9497SOL     OW29389   5.315   4.888   5.012
 9497SOL    HW129390   5.398   4.911   5.062
 9497SOL    HW229391   5.243   4.953   5.036
 9498SOL     OW29392   0.780   5.518   6.020
 9498SOL    HW129393   0.705   5.474   6.069
 9498SOL    HW229394   0.823   5.586   6.079
 9499SOL     OW29395   5.280   5.972   4.432
 9499SOL    HW129396   5.247   5.947   4.341
 9499SOL    HW229397   5.346   6.047   4.424
 9500SOL     OW29398   2.871   1.481   0.968
 9500SOL    HW129399   2.819   1.544   0.910
 9500SOL    HW229400   2.919   1.533   1.038
 9501SOL     OW29401   2.010   3.980   5.465
 9501SOL    HW129402   2.079   3.933   5.520
 9501SOL    HW229403   2.048   4.002   5.375
 9502SOL     OW29404   5.543   4.178   3.361
 9502SOL    HW129405   5.592   4.091   3.368
 9502SOL    HW229406   5.600   4.245   3.313
 9503SOL     OW29407   5.765   1.308   0.566
 9503SOL    HW129408   5.684   1.366   0.559
 9503SOL    HW229409   5.772   1.250   0.485
 9504SOL     OW29410   6.538   5.755   2.438
 9504SOL    HW129411   6.470   5.829   2.434
 9504SOL    HW229412   6.605   5.769   2.365
 9505SOL     OW29413   4.754   3.502   6.407
 9505SOL    HW129414   4.668   3.553   6.407
 9505SOL    HW229415   4.759   3.445   6.325
 9506SOL     OW29416   3.353   1.146   1.638
 9506SOL    HW129417   3.303   1.112   1.717
 9506SOL    HW229418   3.331   1.242   1.622
 9507SOL     OW29419   6.465   6.184   1.659
 9507SOL    HW129420   6.402   6.260   1.676
 9507SOL    HW229421   6.498   6.147   1.745
 9508SOL     OW29422   5.212   1.117   1.803
 9508SOL    HW129423   5.142   1.047   1.791
 9508SOL    HW229424   5.296   1.074   1.836
 9509SOL     OW29425   5.909   1.703   3.860
 9509SOL    HW129426   5.924   1.703   3.761
 9509SOL    HW229427   5.812   1.690   3.880
 9510SOL     OW29428   1.196   3.061   2.790
 9510SOL    HW129429   1.283   3.099   2.822
 9510SOL    HW229430   1.169   2.985   2.850
 9511SOL     OW29431   1.059   1.794   1.102
 9511SOL    HW129432   1.134   1.820   1.041
 9511SOL    HW229433   1.070   1.698   1.128
 9512SOL     OW29434   6.634   2.150   1.920
 9512SOL    HW129435   6.628   2.244   1.952
 9512SOL    HW229436   6.709   2.141   1.855
 9513SOL     OW29437   4.772   3.974   5.309
 9513SOL    HW129438   4.813   4.027   5.383
 9513SOL    HW229439   4.791   4.020   5.222
 9514SOL     OW29440   3.647   3.149   1.184
 9514SOL    HW129441   3.566   3.094   1.204
 9514SOL    HW229442   3.627   3.211   1.108
 9515SOL     OW29443   0.003   5.884   3.177
 9515SOL    HW129444   0.032   5.979   3.163
 9515SOL    HW229445   6.936   5.873   3.142
 9516SOL     OW29446   0.569   4.133   6.170
 9516SOL    HW129447   0.573   4.207   6.103
 9516SOL    HW229448   0.649   4.075   6.160
 9517SOL     OW29449   0.487   6.405   1.592
 9517SOL    HW129450   0.563   6.372   1.537
 9517SOL    HW229451   0.407   6.421   1.534
 9518SOL     OW29452   0.849   0.818   1.094
 9518SOL    HW129453   0.786   0.742   1.078
 9518SOL    HW229454   0.883   0.814   1.188
 9519SOL     OW29455   1.917   2.372   5.154
 9519SOL    HW129456   1.871   2.458   5.137
 9519SOL    HW229457   1.850   2.297   5.153
 9520SOL     OW29458   4.493   6.748   1.441
 9520SOL    HW129459   4.567   6.806   1.475
 9520SOL    HW229460   4.406   6.781   1.478
 9521SOL     OW29461   5.248   4.383   3.224
 9521SOL    HW129462   5.236   4.393   3.125
 9521SOL    HW229463   5.298   4.462   3.259
 9522SOL     OW29464   3.174   4.946   5.963
 9522SOL    HW129465   3.172   4.857   6.007
 9522SOL    HW229466   3.262   4.960   5.919
 9523SOL     OW29467   2.264   0.481   5.282
 9523SOL    HW129468   2.302   0.441   5.366
 9523SOL    HW229469   2.198   0.552   5.306
 9524SOL     OW29470   5.326   3.308   0.292
 9524SOL    HW129471   5.298   3.400   0.266
 9524SOL    HW229472   5.261   3.270   0.357
 9525SOL     OW29473   4.147   7.013   4.610
 9525SOL    HW129474   4.155   6.916   4.587
 9525SOL    HW229475   4.222   0.013   4.671
 9526SOL     OW29476   4.838   5.651   0.498
 9526SOL    HW129477   4.841   5.636   0.399
 9526SOL    HW229478   4.755   5.609   0.536
 9527SOL     OW29479   0.197   2.395   0.665
 9527SOL    HW129480   0.142   2.348   0.596
 9527SOL    HW229481   0.198   2.341   0.749
 9528SOL     OW29482   6.366   0.980   1.940
 9528SOL    HW129483   6.458   0.943   1.935
 9528SOL    HW229484   6.348   1.034   1.858
 9529SOL     OW29485   1.800   2.589   5.071
 9529SOL    HW129486   1.747   2.637   5.141
 9529SOL    HW229487   1.861   2.654   5.025
 9530SOL     OW29488   2.699   1.261   3.932
 9530SOL    HW129489   2.642   1.248   3.850
 9530SOL    HW229490   2.774   1.195   3.930
 9531SOL     OW29491   3.073   6.704   3.890
 9531SOL    HW129492   3.053   6.753   3.975
 9531SOL    HW229493   3.052   6.762   3.812
 9532SOL     OW29494   3.097   1.525   2.089
 9532SOL    HW129495   3.063   1.490   2.001
 9532SOL    HW229496   3.181   1.477   2.113
 9533SOL     OW29497   0.837   1.558   4.510
 9533SOL    HW129498   0.748   1.542   4.468
 9533SOL    HW229499   0.889   1.622   4.454
 9534SOL     OW29500   5.876   1.709   4.407
 9534SOL    HW129501   5.798   1.762   4.373
 9534SOL    HW229502   5.939   1.770   4.454
 9535SOL     OW29503   3.055   1.675   4.722
 9535SOL    HW129504   3.103   1.729   4.791
 9535SOL    HW229505   3.048   1.580   4.754
 9536SOL     OW29506   2.137   6.739   6.406
 9536SOL    HW129507   2.214   6.766   6.464
 9536SOL    HW229508   2.053   6.737   6.462
 9537SOL     OW29509   2.099   0.540   0.483
 9537SOL    HW129510   2.146   0.519   0.569
 9537SOL    HW229511   2.166   0.564   0.413
 9538SOL     OW29512   6.237   3.769   2.638
 9538SOL    HW129513   6.248   3.795   2.542
 9538SOL    HW229514   6.160   3.706   2.648
 9539SOL     OW29515   0.034   3.698   6.667
 9539SOL    HW129516   0.110   3.740   6.618
 9539SOL    HW229517   0.029   3.734   6.760
 9540SOL     OW29518   5.783   3.565   5.916
 9540SOL    HW129519   5.818   3.606   6.000
 9540SOL    HW229520   5.775   3.466   5.928
 9541SOL     OW29521   6.805   2.308   3.479
 9541SOL    HW129522   6.817   2.215   3.515
 9541SOL    HW229523   6.715   2.316   3.436
 9542SOL     OW29524   4.818   4.206   4.781
 9542SOL    HW129525   4.827   4.296   4.737
 9542SOL    HW229526   4.794   4.218   4.877
 9543SOL     OW29527   3.736   2.574   0.836
 9543SOL    HW129528   3.677   2.649   0.868
 9543SOL    HW229529   3.688   2.487   0.848
 9544SOL     OW29530   4.697   0.643   1.054
 9544SOL    HW129531   4.786   0.688   1.048
 9544SOL    HW229532   4.699   0.575   1.128
 9545SOL     OW29533   1.484   6.936   4.604
 9545SOL    HW129534   1.475   6.931   4.504
 9545SOL    HW229535   1.530   7.021   4.628
 9546SOL     OW29536   2.525   4.592   2.130
 9546SOL    HW129537   2.532   4.691   2.120
 9546SOL    HW229538   2.614   4.550   2.111
 9547SOL     OW29539   5.170   5.971   3.726
 9547SOL    HW129540   5.163   5.986   3.628
 9547SOL    HW229541   5.141   6.054   3.775
 9548SOL     OW29542   5.593   6.849   2.609
 9548SOL    HW129543   5.651   6.820   2.685
 9548SOL    HW229544   5.589   6.775   2.541
 9549SOL     OW29545   2.294   5.787   0.051
 9549SOL    HW129546   2.292   5.691   0.079
 9549SOL    HW229547   2.208   5.831   0.077
 9550SOL     OW29548   1.854   1.112   0.004
 9550SOL    HW129549   1.802   1.177   6.974
 9550SOL    HW229550   1.791   1.062   0.063
 9551SOL     OW29551   1.481   5.716   5.153
 9551SOL    HW129552   1.517   5.752   5.067
 9551SOL    HW229553   1.557   5.690   5.213
 9552SOL     OW29554   0.113   5.275   2.660
 9552SOL    HW129555   0.163   5.350   2.703
 9552SOL    HW229556   0.162   5.245   2.577
 9553SOL     OW29557   5.333   5.060   6.457
 9553SOL    HW129558   5.352   4.969   6.420
 9553SOL    HW229559   5.388   5.074   6.539
 9554SOL     OW29560   2.256   1.763   2.456
 9554SOL    HW129561   2.317   1.843   2.448
 9554SOL    HW229562   2.215   1.763   2.547
 9555SOL     OW29563   6.721   2.320   6.348
 9555SOL    HW129564   6.677   2.394   6.400
 9555SOL    HW229565   6.695   2.232   6.388
 9556SOL     OW29566   6.629   0.944   0.788
 9556SOL    HW129567   6.540   0.989   0.776
 9556SOL    HW229568   6.701   1.006   0.756
 9557SOL     OW29569   5.011   1.533   1.655
 9557SOL    HW129570   5.103   1.560   1.682
 9557SOL    HW229571   5.011   1.436   1.631
 9558SOL     OW29572   7.020   3.633   1.337
 9558SOL    HW129573   6.942   3.596   1.387
 9558SOL    HW229574   0.078   3.615   1.388
 9559SOL     OW29575   0.503   4.182   2.934
 9559SOL    HW129576   0.596   4.172   2.968
 9559SOL    HW229577   0.499   4.259   2.871
 9560SOL     OW29578   3.557   1.992   5.648
 9560SOL    HW129579   3.518   2.069   5.697
 9560SOL    HW229580   3.644   1.966   5.689
 9561SOL     OW29581   3.458   5.156   6.992
 9561SOL    HW129582   3.500   5.168   0.056
 9561SOL    HW229583   3.522   5.108   6.931
 9562SOL     OW29584   6.406   5.231   4.097
 9562SOL    HW129585   6.359   5.151   4.134
 9562SOL    HW229586   6.432   5.292   4.172
 9563SOL     OW29587   0.623   7.014   6.469
 9563SOL    HW129588   0.696   6.951   6.496
 9563SOL    HW229589   0.543   6.999   6.528
 9564SOL     OW29590   1.104   0.975   6.036
 9564SOL    HW129591   1.165   1.049   6.009
 9564SOL    HW229592   1.159   0.896   6.065
 9565SOL     OW29593   2.697   6.085   6.025
 9565SOL    HW129594   2.700   6.002   5.969
 9565SOL    HW229595   2.790   6.122   6.033
 9566SOL     OW29596   2.718   5.327   5.401
 9566SOL    HW129597   2.627   5.366   5.388
 9566SOL    HW229598   2.716   5.265   5.479
 9567SOL     OW29599   5.615   4.618   4.552
 9567SOL    HW129600   5.673   4.672   4.614
 9567SOL    HW229601   5.521   4.617   4.586
 9568SOL     OW29602   5.606   3.276   5.531
 9568SOL    HW129603   5.536   3.232   5.587
 9568SOL    HW229604   5.686   3.216   5.526
 9569SOL     OW29605   5.712   0.249   1.430
 9569SOL    HW129606   5.742   0.293   1.346
 9569SOL    HW229607   5.756   0.160   1.439
 9570SOL     OW29608   0.857   2.309   6.641
 9570SOL    HW129609   0.800   2.353   6.711
 9570SOL    HW229610   0.800   2.279   6.565
 9571SOL     OW29611   3.575   1.984   0.334
 9571SOL    HW129612   3.611   2.009   0.244
 9571SOL    HW229613   3.526   1.897   0.327
 9572SOL     OW29614   0.480   4.010   0.965
 9572SOL    HW129615   0.459   4.057   0.879
 9572SOL    HW229616   0.578   4.016   0.983
 9573SOL     OW29617   5.048   1.814   2.187
 9573SOL    HW129618   5.098   1.781   2.266
 9573SOL    HW229619   4.977   1.749   2.162
 9574SOL     OW29620   3.109   2.004   3.670
 9574SOL    HW129621   3.068   2.070   3.608
 9574SOL    HW229622   3.197   2.040   3.702
 9575SOL     OW29623   3.796   1.815   3.093
 9575SOL    HW129624   3.754   1.866   3.018
 9575SOL    HW229625   3.823   1.724   3.061
 9576SOL     OW29626   3.326   3.505   5.687
 9576SOL    HW129627   3.260   3.483   5.615
 9576SOL    HW229628   3.347   3.423   5.740
 9577SOL     OW29629   0.463   5.012   3.912
 9577SOL    HW129630   0.384   4.974   3.960
 9577SOL    HW229631   0.533   5.039   3.978
 9578SOL     OW29632   0.162   4.310   1.218
 9578SOL    HW129633   0.188   4.347   1.307
 9578SOL    HW229634   0.084   4.249   1.229
 9579SOL     OW29635   1.588   4.756   3.258
 9579SOL    HW129636   1.509   4.816   3.243
 9579SOL    HW229637   1.634   4.782   3.343
 9580SOL     OW29638   4.179   3.572   5.142
 9580SOL    HW129639   4.156   3.596   5.048
 9580SOL    HW229640   4.200   3.474   5.148
 9581SOL     OW29641   1.096   6.104   6.076
 9581SOL    HW129642   1.093   6.007   6.054
 9581SOL    HW229643   1.106   6.117   6.174
 9582SOL     OW29644   3.579   5.632   2.904
 9582SOL    HW129645   3.669   5.643   2.861
 9582SOL    HW229646   3.578   5.680   2.991
 9583SOL     OW29647   1.252   5.061   2.011
 9583SOL    HW129648   1.209   4.975   1.986
 9583SOL    HW229649   1.314   5.090   1.938
 9584SOL     OW29650   5.176   3.974   6.939
 9584SOL    HW129651   5.106   3.956   6.869
 9584SOL    HW229652   5.172   4.070   6.966
 9585SOL     OW29653   5.951   1.051   3.244
 9585SOL    HW129654   6.006   0.980   3.287
 9585SOL    HW229655   5.904   1.014   3.165
 9586SOL     OW29656   4.814   3.985   2.435
 9586SOL    HW129657   4.768   3.919   2.375
 9586SOL    HW229658   4.840   3.939   2.520
 9587SOL     OW29659   4.762   6.074   1.638
 9587SOL    HW129660   4.682   6.066   1.579
 9587SOL    HW229661   4.770   6.168   1.672
 9588SOL     OW29662   5.864   0.890   3.524
 9588SOL    HW129663   5.876   0.898   3.623
 9588SOL    HW229664   5.826   0.976   3.488
 9589SOL     OW29665   4.031   1.868   5.620
 9589SOL    HW129666   4.005   1.827   5.533
 9589SOL    HW229667   3.949   1.885   5.675
 9590SOL     OW29668   6.942   4.811   4.537
 9590SOL    HW129669   7.017   4.869   4.504
 9590SOL    HW229670   6.902   4.760   4.461
 9591SOL     OW29671   0.157   4.304   2.330
 9591SOL    HW129672   0.223   4.232   2.312
 9591SOL    HW229673   0.064   4.268   2.324
 9592SOL     OW29674   4.134   5.731   0.326
 9592SOL    HW129675   4.074   5.784   0.386
 9592SOL    HW229676   4.229   5.758   0.343
 9593SOL     OW29677   2.141   1.858   3.400
 9593SOL    HW129678   2.195   1.845   3.484
 9593SOL    HW229679   2.162   1.947   3.360
 9594SOL     OW29680   5.502   0.164   1.180
 9594SOL    HW129681   5.599   0.171   1.202
 9594SOL    HW229682   5.458   0.253   1.193
 9595SOL     OW29683   2.400   5.351   5.996
 9595SOL    HW129684   2.347   5.271   6.026
 9595SOL    HW229685   2.482   5.320   5.949
 9596SOL     OW29686   5.588   5.355   2.542
 9596SOL    HW129687   5.513   5.419   2.562
 9596SOL    HW229688   5.663   5.372   2.606
 9597SOL     OW29689   2.261   5.113   1.545
 9597SOL    HW129690   2.240   5.090   1.451
 9597SOL    HW229691   2.345   5.168   1.548
 9598SOL     OW29692   0.877   6.244   5.932
 9598SOL    HW129693   0.928   6.159   5.939
 9598SOL    HW229694   0.790   6.228   5.886
 9599SOL     OW29695   3.885   2.117   5.522
 9599SOL    HW129696   3.898   2.018   5.527
 9599SOL    HW229697   3.787   2.138   5.518
 9600SOL     OW29698   1.366   6.406   6.663
 9600SOL    HW129699   1.415   6.345   6.725
 9600SOL    HW229700   1.422   6.487   6.645
 9601SOL     OW29701   1.359   6.963   4.968
 9601SOL    HW129702   1.349   6.900   4.891
 9601SOL    HW229703   1.370   6.910   5.052
 9602SOL     OW29704   1.092   5.640   6.182
 9602SOL    HW129705   1.055   5.690   6.104
 9602SOL    HW229706   1.025   5.572   6.213
 9603SOL     OW29707   0.798   5.692   1.387
 9603SOL    HW129708   0.847   5.778   1.405
 9603SOL    HW229709   0.761   5.656   1.473
 9604SOL     OW29710   6.834   0.768   6.477
 9604SOL    HW129711   6.854   0.825   6.397
 9604SOL    HW229712   6.811   0.675   6.446
 9605SOL     OW29713   3.496   4.744   1.212
 9605SOL    HW129714   3.409   4.793   1.206
 9605SOL    HW229715   3.541   4.744   1.123
 9606SOL     OW29716   0.320   0.985   5.137
 9606SOL    HW129717   0.400   0.968   5.079
 9606SOL    HW229718   0.350   1.026   5.223
 9607SOL     OW29719   6.853   2.918   4.134
 9607SOL    HW129720   6.923   2.984   4.106
 9607SOL    HW229721   6.898   2.836   4.170
 9608SOL     OW29722   6.111   0.859   1.266
 9608SOL    HW129723   6.090   0.887   1.173
 9608SOL    HW229724   6.203   0.890   1.290
 9609SOL     OW29725   1.582   1.936   4.226
 9609SOL    HW129726   1.510   1.922   4.158
 9609SOL    HW229727   1.644   2.008   4.195
 9610SOL     OW29728   4.733   1.124   5.587
 9610SOL    HW129729   4.653   1.088   5.635
 9610SOL    HW229730   4.816   1.096   5.635
 9611SOL     OW29731   4.584   5.640   0.635
 9611SOL    HW129732   4.632   5.635   0.723
 9611SOL    HW229733   4.519   5.716   0.637
 9612SOL     OW29734   5.722   3.714   3.790
 9612SOL    HW129735   5.745   3.810   3.774
 9612SOL    HW229736   5.679   3.704   3.880
 9613SOL     OW29737   5.774   0.647   4.752
 9613SOL    HW129738   5.761   0.579   4.679
 9613SOL    HW229739   5.685   0.680   4.783
 9614SOL     OW29740   2.622   3.162   0.503
 9614SOL    HW129741   2.598   3.190   0.596
 9614SOL    HW229742   2.538   3.147   0.450
 9615SOL     OW29743   6.922   5.371   3.862
 9615SOL    HW129744   6.827   5.394   3.841
 9615SOL    HW229745   6.944   5.403   3.955
 9616SOL     OW29746   1.069   2.104   1.181
 9616SOL    HW129747   1.117   2.192   1.180
 9616SOL    HW229748   1.047   2.077   1.088
 9617SOL     OW29749   0.338   2.958   3.771
 9617SOL    HW129750   0.267   2.894   3.740
 9617SOL    HW229751   0.409   2.908   3.821
 9618SOL     OW29752   4.769   3.441   1.750
 9618SOL    HW129753   4.841   3.420   1.683
 9618SOL    HW229754   4.752   3.361   1.807
 9619SOL     OW29755   0.923   0.273   0.483
 9619SOL    HW129756   0.842   0.285   0.426
 9619SOL    HW229757   0.902   0.297   0.577
 9620SOL     OW29758   4.154   0.853   6.063
 9620SOL    HW129759   4.137   0.944   6.025
 9620SOL    HW229760   4.091   0.787   6.021
 9621SOL     OW29761   0.113   0.887   1.491
 9621SOL    HW129762   0.090   0.976   1.531
 9621SOL    HW229763   0.211   0.884   1.472
 9622SOL     OW29764   6.659   6.816   4.878
 9622SOL    HW129765   6.627   6.739   4.933
 9622SOL    HW229766   6.738   6.858   4.922
 9623SOL     OW29767   2.298   6.269   5.984
 9623SOL    HW129768   2.388   6.246   6.022
 9623SOL    HW229769   2.226   6.225   6.038
 9624SOL     OW29770   4.786   5.304   6.849
 9624SOL    HW129771   4.687   5.310   6.836
 9624SOL    HW229772   4.832   5.357   6.778
 9625SOL     OW29773   4.927   4.719   6.068
 9625SOL    HW129774   4.947   4.623   6.049
 9625SOL    HW229775   4.831   4.728   6.097
 9626SOL     OW29776   2.455   2.908   6.463
 9626SOL    HW129777   2.539   2.870   6.503
 9626SOL    HW229778   2.475   2.941   6.371
 9627SOL     OW29779   6.993   6.371   0.518
 9627SOL    HW129780   0.015   6.445   0.471
 9627SOL    HW229781   6.978   6.295   0.455
 9628SOL     OW29782   5.504   1.083   5.388
 9628SOL    HW129783   5.602   1.092   5.403
 9628SOL    HW229784   5.458   1.166   5.419
 9629SOL     OW29785   0.501   5.307   3.876
 9629SOL    HW129786   0.464   5.215   3.888
 9629SOL    HW229787   0.535   5.318   3.782
 9630SOL     OW29788   5.897   0.375   6.861
 9630SOL    HW129789   5.872   0.424   6.777
 9630SOL    HW229790   5.997   0.374   6.871
 9631SOL     OW29791   4.588   5.951   0.847
 9631SOL    HW129792   4.505   6.002   0.872
 9631SOL    HW229793   4.580   5.857   0.881
 9632SOL     OW29794   2.609   4.904   2.956
 9632SOL    HW129795   2.596   4.953   2.869
 9632SOL    HW229796   2.642   4.968   3.025
 9633SOL     OW29797   3.110   3.013   5.358
 9633SOL    HW129798   3.024   3.061   5.347
 9633SOL    HW229799   3.104   2.923   5.314
 9634SOL     OW29800   6.170   4.662   2.697
 9634SOL    HW129801   6.115   4.628   2.621
 9634SOL    HW229802   6.197   4.586   2.756
 9635SOL     OW29803   0.539   5.552   4.677
 9635SOL    HW129804   0.473   5.507   4.618
 9635SOL    HW229805   0.530   5.517   4.771
 9636SOL     OW29806   5.314   3.640   3.909
 9636SOL    HW129807   5.236   3.591   3.948
 9636SOL    HW229808   5.369   3.578   3.854
 9637SOL     OW29809   2.576   2.850   6.817
 9637SOL    HW129810   2.663   2.890   6.845
 9637SOL    HW229811   2.593   2.770   6.759
 9638SOL     OW29812   0.156   4.403   5.410
 9638SOL    HW129813   0.255   4.416   5.416
 9638SOL    HW229814   0.136   4.305   5.400
 9639SOL     OW29815   4.798   2.665   1.566
 9639SOL    HW129816   4.815   2.575   1.605
 9639SOL    HW229817   4.801   2.734   1.638
 9640SOL     OW29818   3.383   6.886   3.366
 9640SOL    HW129819   3.417   6.966   3.317
 9640SOL    HW229820   3.436   6.805   3.340
 9641SOL     OW29821   0.398   3.473   4.537
 9641SOL    HW129822   0.413   3.544   4.469
 9641SOL    HW229823   0.307   3.433   4.523
 9642SOL     OW29824   0.535   3.461   4.792
 9642SOL    HW129825   0.530   3.362   4.797
 9642SOL    HW229826   0.504   3.492   4.702
 9643SOL     OW29827   5.403   5.273   4.064
 9643SOL    HW129828   5.490   5.315   4.090
 9643SOL    HW229829   5.392   5.278   3.965
 9644SOL     OW29830   0.963   4.694   3.610
 9644SOL    HW129831   0.979   4.644   3.695
 9644SOL    HW229832   0.884   4.754   3.621
 9645SOL     OW29833   1.331   4.526   6.911
 9645SOL    HW129834   1.238   4.508   6.877
 9645SOL    HW229835   1.334   4.617   6.953
 9646SOL     OW29836   2.804   5.193   1.031
 9646SOL    HW129837   2.717   5.236   1.007
 9646SOL    HW229838   2.795   5.143   1.117
 9647SOL     OW29839   6.082   6.732   3.206
 9647SOL    HW129840   6.102   6.707   3.301
 9647SOL    HW229841   5.985   6.715   3.188
 9648SOL     OW29842   3.629   1.919   1.128
 9648SOL    HW129843   3.549   1.976   1.148
 9648SOL    HW229844   3.711   1.976   1.125
 9649SOL     OW29845   6.781   6.304   1.140
 9649SOL    HW129846   6.837   6.257   1.072
 9649SOL    HW229847   6.840   6.337   1.214
 9650SOL     OW29848   0.669   5.246   4.761
 9650SOL    HW129849   0.731   5.275   4.687
 9650SOL    HW229850   0.682   5.149   4.779
 9651SOL     OW29851   4.206   1.546   7.019
 9651SOL    HW129852   4.230   1.543   6.922
 9651SOL    HW229853   4.274   1.495   0.046
 9652SOL     OW29854   0.218   3.623   0.765
 9652SOL    HW129855   0.261   3.583   0.684
 9652SOL    HW229856   0.287   3.635   0.837
 9653SOL     OW29857   5.233   4.220   5.395
 9653SOL    HW129858   5.248   4.312   5.431
 9653SOL    HW229859   5.321   4.177   5.376
 9654SOL     OW29860   4.035   3.681   4.015
 9654SOL    HW129861   4.061   3.594   3.972
 9654SOL    HW229862   4.084   3.692   4.101
 9655SOL     OW29863   4.770   0.919   0.859
 9655SOL    HW129864   4.819   1.003   0.835
 9655SOL    HW229865   4.746   0.869   0.776
 9656SOL     OW29866   5.205   4.678   6.203
 9656SOL    HW129867   5.258   4.672   6.119
 9656SOL    HW229868   5.115   4.717   6.183
 9657SOL     OW29869   4.752   4.927   2.736
 9657SOL    HW129870   4.812   4.864   2.786
 9657SOL    HW229871   4.786   5.020   2.746
 9658SOL     OW29872   5.502   0.857   2.402
 9658SOL    HW129873   5.436   0.927   2.372
 9658SOL    HW229874   5.576   0.902   2.453
 9659SOL     OW29875   2.885   2.855   0.113
 9659SOL    HW129876   2.802   2.852   0.168
 9659SOL    HW229877   2.959   2.895   0.166
 9660SOL     OW29878   2.626   0.040   1.590
 9660SOL    HW129879   2.567   0.057   1.511
 9660SOL    HW229880   2.720   0.025   1.558
 9661SOL     OW29881   4.159   3.635   2.157
 9661SOL    HW129882   4.074   3.583   2.154
 9661SOL    HW229883   4.211   3.619   2.073
 9662SOL     OW29884   4.360   0.294   5.539
 9662SOL    HW129885   4.279   0.235   5.543
 9662SOL    HW229886   4.390   0.316   5.632
 9663SOL     OW29887   1.073   5.879   2.595
 9663SOL    HW129888   0.980   5.873   2.632
 9663SOL    HW229889   1.088   5.970   2.556
 9664SOL     OW29890   1.959   4.685   3.457
 9664SOL    HW129891   1.995   4.657   3.368
 9664SOL    HW229892   2.011   4.764   3.491
 9665SOL     OW29893   6.604   4.576   6.305
 9665SOL    HW129894   6.676   4.536   6.362
 9665SOL    HW229895   6.592   4.519   6.223
 9666SOL     OW29896   5.338   3.174   0.857
 9666SOL    HW129897   5.350   3.109   0.782
 9666SOL    HW229898   5.354   3.267   0.824
 9667SOL     OW29899   5.569   6.422   6.427
 9667SOL    HW129900   5.478   6.459   6.446
 9667SOL    HW229901   5.603   6.374   6.508
 9668SOL     OW29902   2.279   0.581   0.320
 9668SOL    HW129903   2.271   0.570   0.221
 9668SOL    HW229904   2.262   0.676   0.344
 9669SOL     OW29905   3.786   0.525   6.914
 9669SOL    HW129906   3.809   0.435   6.951
 9669SOL    HW229907   3.866   0.585   6.922
 9670SOL     OW29908   0.839   0.739   1.601
 9670SOL    HW129909   0.817   0.649   1.639
 9670SOL    HW229910   0.871   0.729   1.507
 9671SOL     OW29911   0.635   6.238   6.776
 9671SOL    HW129912   0.705   6.168   6.760
 9671SOL    HW229913   0.600   6.230   6.869
 9672SOL     OW29914   0.711   3.661   4.570
 9672SOL    HW129915   0.635   3.667   4.506
 9672SOL    HW229916   0.683   3.698   4.659
 9673SOL     OW29917   2.628   3.044   6.261
 9673SOL    HW129918   2.697   2.973   6.247
 9673SOL    HW229919   2.646   3.121   6.200
 9674SOL     OW29920   2.404   6.929   4.284
 9674SOL    HW129921   2.392   0.000   4.303
 9674SOL    HW229922   2.384   6.875   4.366
 9675SOL     OW29923   5.865   4.061   5.861
 9675SOL    HW129924   5.892   4.075   5.956
 9675SOL    HW229925   5.852   3.964   5.844
 9676SOL     OW29926   1.247   3.293   5.934
 9676SOL    HW129927   1.281   3.375   5.888
 9676SOL    HW229928   1.153   3.276   5.906
 9677SOL     OW29929   0.439   4.674   2.502
 9677SOL    HW129930   0.353   4.630   2.476
 9677SOL    HW229931   0.515   4.633   2.452
 9678SOL     OW29932   4.270   2.967   5.887
 9678SOL    HW129933   4.186   2.982   5.835
 9678SOL    HW229934   4.348   2.970   5.826
 9679SOL     OW29935   1.027   1.203   3.703
 9679SOL    HW129936   0.946   1.158   3.664
 9679SOL    HW229937   1.094   1.134   3.729
 9680SOL     OW29938   4.793   0.467   2.144
 9680SOL    HW129939   4.821   0.371   2.144
 9680SOL    HW229940   4.771   0.495   2.051
 9681SOL     OW29941   0.905   3.552   1.223
 9681SOL    HW129942   0.822   3.592   1.261
 9681SOL    HW229943   0.939   3.482   1.285
 9682SOL     OW29944   4.271   6.543   5.311
 9682SOL    HW129945   4.200   6.476   5.287
 9682SOL    HW229946   4.358   6.514   5.271
 9683SOL     OW29947   3.333   6.002   3.921
 9683SOL    HW129948   3.274   6.032   3.846
 9683SOL    HW229949   3.279   5.991   4.004
 9684SOL     OW29950   0.501   2.926   6.256
 9684SOL    HW129951   0.456   2.944   6.168
 9684SOL    HW229952   0.445   2.865   6.311
 9685SOL     OW29953   3.606   4.352   1.722
 9685SOL    HW129954   3.605   4.444   1.761
 9685SOL    HW229955   3.589   4.286   1.795
 9686SOL     OW29956   0.424   1.781   5.801
 9686SOL    HW129957   0.495   1.745   5.741
 9686SOL    HW229958   0.466   1.816   5.885
 9687SOL     OW29959   5.186   1.971   4.003
 9687SOL    HW129960   5.151   1.944   4.093
 9687SOL    HW229961   5.160   1.904   3.935
 9688SOL     OW29962   0.046   5.070   1.820
 9688SOL    HW129963   0.106   5.002   1.864
 9688SOL    HW229964   6.991   5.083   1.876
 9689SOL     OW29965   1.723   5.401   1.704
 9689SOL    HW129966   1.624   5.406   1.687
 9689SOL    HW229967   1.772   5.453   1.635
 9690SOL     OW29968   5.994   4.531   4.894
 9690SOL    HW129969   5.922   4.533   4.963
 9690SOL    HW229970   6.026   4.437   4.882
 9691SOL     OW29971   3.726   3.323   2.213
 9691SOL    HW129972   3.778   3.249   2.170
 9691SOL    HW229973   3.665   3.364   2.146
 9692SOL     OW29974   5.084   4.319   0.625
 9692SOL    HW129975   5.180   4.344   0.618
 9692SOL    HW229976   5.028   4.388   0.579
 9693SOL     OW29977   4.410   2.831   6.435
 9693SOL    HW129978   4.420   2.815   6.533
 9693SOL    HW229979   4.384   2.926   6.419
 9694SOL     OW29980   2.210   6.531   1.375
 9694SOL    HW129981   2.133   6.578   1.331
 9694SOL    HW229982   2.230   6.576   1.462
 9695SOL     OW29983   1.970   2.206   3.773
 9695SOL    HW129984   1.946   2.299   3.743
 9695SOL    HW229985   2.034   2.211   3.850
 9696SOL     OW29986   4.809   3.129   3.040
 9696SOL    HW129987   4.908   3.138   3.054
 9696SOL    HW229988   4.776   3.048   3.088
 9697SOL     OW29989   0.103   6.786   1.449
 9697SOL    HW129990   0.118   6.703   1.503
 9697SOL    HW229991   0.191   6.823   1.420
 9698SOL     OW29992   6.783   3.460   1.860
 9698SOL    HW129993   6.687   3.480   1.875
 9698SOL    HW229994   6.809   3.378   1.912
 9699SOL     OW29995   1.220   6.309   2.231
 9699SOL    HW129996   1.255   6.364   2.307
 9699SOL    HW229997   1.243   6.213   2.244
 9700SOL     OW29998   6.373   0.466   6.229
 9700SOL    HW129999   6.341   0.435   6.140
 9700SOL    HW230000   6.295   0.478   6.291
 9701SOL     OW30001   5.382   3.805   6.882
 9701SOL    HW130002   5.305   3.867   6.896
 9701SOL    HW230003   5.349   3.711   6.875
 9702SOL     OW30004   3.204   4.036   1.643
 9702SOL    HW130005   3.225   4.134   1.650
 9702SOL    HW230006   3.277   3.990   1.592
 9703SOL     OW30007   6.526   5.306   2.943
 9703SOL    HW130008   6.577   5.379   2.898
 9703SOL    HW230009   6.496   5.239   2.874
 9704SOL     OW30010   0.843   4.348   1.878
 9704SOL    HW130011   0.867   4.365   1.974
 9704SOL    HW230012   0.836   4.436   1.831
 9705SOL     OW30013   0.359   3.577   6.067
 9705SOL    HW130014   0.434   3.574   6.001
 9705SOL    HW230015   0.373   3.653   6.131
 9706SOL     OW30016   1.406   6.721   1.973
 9706SOL    HW130017   1.333   6.687   2.032
 9706SOL    HW230018   1.394   6.819   1.958
 9707SOL     OW30019   1.018   5.044   2.280
 9707SOL    HW130020   1.052   5.122   2.228
 9707SOL    HW230021   0.943   5.073   2.339
 9708SOL     OW30022   2.966   1.229   2.192
 9708SOL    HW130023   2.963   1.172   2.274
 9708SOL    HW230024   3.052   1.279   2.190
 9709SOL     OW30025   4.572   1.480   1.906
 9709SOL    HW130026   4.565   1.567   1.955
 9709SOL    HW230027   4.490   1.465   1.852
 9710SOL     OW30028   4.611   4.508   4.431
 9710SOL    HW130029   4.644   4.535   4.340
 9710SOL    HW230030   4.540   4.572   4.461
 9711SOL     OW30031   3.055   0.958   6.793
 9711SOL    HW130032   3.055   0.867   6.752
 9711SOL    HW230033   3.105   1.021   6.735
 9712SOL     OW30034   5.420   6.604   5.101
 9712SOL    HW130035   5.402   6.508   5.123
 9712SOL    HW230036   5.365   6.631   5.022
 9713SOL     OW30037   1.624   0.775   2.832
 9713SOL    HW130038   1.570   0.859   2.846
 9713SOL    HW230039   1.714   0.799   2.795
 9714SOL     OW30040   2.239   2.804   4.187
 9714SOL    HW130041   2.227   2.900   4.163
 9714SOL    HW230042   2.254   2.751   4.103
 9715SOL     OW30043   0.083   2.021   6.090
 9715SOL    HW130044   0.130   2.068   6.165
 9715SOL    HW230045   0.032   2.088   6.037
 9716SOL     OW30046   2.082   6.707   1.224
 9716SOL    HW130047   2.120   6.706   1.131
 9716SOL    HW230048   1.984   6.688   1.221
 9717SOL     OW30049   3.682   2.711   5.879
 9717SOL    HW130050   3.680   2.669   5.970
 9717SOL    HW230051   3.596   2.691   5.832
 9718SOL     OW30052   3.341   2.390   6.954
 9718SOL    HW130053   3.351   2.373   0.027
 9718SOL    HW230054   3.355   2.304   6.905
 9719SOL     OW30055   4.124   0.134   5.557
 9719SOL    HW130056   4.036   0.163   5.520
 9719SOL    HW230057   4.115   0.114   5.655
 9720SOL     OW30058   1.930   2.956   2.696
 9720SOL    HW130059   1.965   2.894   2.626
 9720SOL    HW230060   1.830   2.948   2.700
 9721SOL     OW30061   1.299   1.916   1.420
 9721SOL    HW130062   1.205   1.943   1.439
 9721SOL    HW230063   1.341   1.879   1.502
 9722SOL     OW30064   3.900   2.659   5.411
 9722SOL    HW130065   3.967   2.649   5.337
 9722SOL    HW230066   3.937   2.719   5.482
 9723SOL     OW30067   5.845   0.343   4.795
 9723SOL    HW130068   5.873   0.420   4.852
 9723SOL    HW230069   5.755   0.310   4.826
 9724SOL     OW30070   2.179   4.903   1.351
 9724SOL    HW130071   2.084   4.875   1.339
 9724SOL    HW230072   2.206   4.962   1.274
 9725SOL     OW30073   5.375   5.783   3.752
 9725SOL    HW130074   5.380   5.734   3.664
 9725SOL    HW230075   5.309   5.858   3.744
 9726SOL     OW30076   6.856   0.094   3.483
 9726SOL    HW130077   6.850   0.158   3.559
 9726SOL    HW230078   6.767   0.088   3.437
 9727SOL     OW30079   5.933   2.680   1.476
 9727SOL    HW130080   5.841   2.653   1.504
 9727SOL    HW230081   5.993   2.600   1.474
 9728SOL     OW30082   5.683   1.944   4.908
 9728SOL    HW130083   5.705   1.847   4.903
 9728SOL    HW230084   5.758   1.994   4.952
 9729SOL     OW30085   0.574   3.585   2.536
 9729SOL    HW130086   0.660   3.543   2.564
 9729SOL    HW230087   0.580   3.684   2.551
 9730SOL     OW30088   0.928   5.160   3.404
 9730SOL    HW130089   0.933   5.079   3.463
 9730SOL    HW230090   0.961   5.240   3.454
 9731SOL     OW30091   0.011   2.123   1.508
 9731SOL    HW130092   7.025   2.222   1.522
 9731SOL    HW230093   6.977   2.092   1.434
 9732SOL     OW30094   0.675   3.066   3.325
 9732SOL    HW130095   0.590   3.118   3.311
 9732SOL    HW230096   0.743   3.124   3.369
 9733SOL     OW30097   6.125   5.376   1.074
 9733SOL    HW130098   6.132   5.413   1.166
 9733SOL    HW230099   6.031   5.345   1.058
 9734SOL     OW30100   4.041   4.187   6.857
 9734SOL    HW130101   3.956   4.180   6.909
 9734SOL    HW230102   4.032   4.259   6.788
 9735SOL     OW30103   1.019   1.511   0.366
 9735SOL    HW130104   1.006   1.415   0.339
 9735SOL    HW230105   1.076   1.557   0.299
 9736SOL     OW30106   5.022   2.183   5.290
 9736SOL    HW130107   5.065   2.239   5.361
 9736SOL    HW230108   5.068   2.199   5.203
 9737SOL     OW30109   5.383   3.219   4.984
 9737SOL    HW130110   5.480   3.239   4.977
 9737SOL    HW230111   5.347   3.197   4.893
 9738SOL     OW30112   2.021   6.470   1.630
 9738SOL    HW130113   2.119   6.476   1.649
 9738SOL    HW230114   1.970   6.512   1.704
 9739SOL     OW30115   5.681   6.871   0.077
 9739SOL    HW130116   5.763   6.863   0.020
 9739SOL    HW230117   5.705   6.850   0.172
 9740SOL     OW30118   6.566   0.776   1.141
 9740SOL    HW130119   6.639   0.779   1.073
 9740SOL    HW230120   6.580   0.848   1.208
 9741SOL     OW30121   2.508   2.398   3.630
 9741SOL    HW130122   2.598   2.375   3.593
 9741SOL    HW230123   2.484   2.491   3.603
 9742SOL     OW30124   4.265   1.183   6.810
 9742SOL    HW130125   4.218   1.198   6.897
 9742SOL    HW230126   4.337   1.115   6.821
 9743SOL     OW30127   6.702   3.286   4.825
 9743SOL    HW130128   6.705   3.368   4.769
 9743SOL    HW230129   6.790   3.238   4.819
 9744SOL     OW30130   1.494   2.746   2.732
 9744SOL    HW130131   1.488   2.761   2.831
 9744SOL    HW230132   1.425   2.802   2.686
 9745SOL     OW30133   1.086   6.329   6.368
 9745SOL    HW130134   1.169   6.348   6.316
 9745SOL    HW230135   1.108   6.320   6.465
 9746SOL     OW30136   3.072   6.559   5.997
 9746SOL    HW130137   2.982   6.517   6.005
 9746SOL    HW230138   3.072   6.648   6.041
 9747SOL     OW30139   4.010   1.567   3.251
 9747SOL    HW130140   3.956   1.484   3.269
 9747SOL    HW230141   3.968   1.644   3.300
 9748SOL     OW30142   0.754   1.977   2.996
 9748SOL    HW130143   0.683   2.046   2.981
 9748SOL    HW230144   0.772   1.968   3.094
 9749SOL     OW30145   6.773   0.027   1.238
 9749SOL    HW130146   6.773   6.963   1.282
 9749SOL    HW230147   6.817   0.094   1.298
 9750SOL     OW30148   5.640   2.503   5.192
 9750SOL    HW130149   5.628   2.573   5.121
 9750SOL    HW230150   5.551   2.467   5.219
 9751SOL     OW30151   3.167   6.452   0.865
 9751SOL    HW130152   3.235   6.398   0.915
 9751SOL    HW230153   3.161   6.419   0.771
 9752SOL     OW30154   3.615   3.548   0.549
 9752SOL    HW130155   3.658   3.600   0.623
 9752SOL    HW230156   3.615   3.451   0.572
 9753SOL     OW30157   6.621   5.910   3.315
 9753SOL    HW130158   6.648   5.855   3.394
 9753SOL    HW230159   6.675   5.994   3.312
 9754SOL     OW30160   3.465   1.281   2.151
 9754SOL    HW130161   3.525   1.338   2.206
 9754SOL    HW230162   3.419   1.338   2.082
 9755SOL     OW30163   3.219   3.939   0.954
 9755SOL    HW130164   3.142   4.002   0.959
 9755SOL    HW230165   3.266   3.949   0.866
 9756SOL     OW30166   5.341   0.012   6.696
 9756SOL    HW130167   5.250   7.007   6.668
 9756SOL    HW230168   5.399   0.022   6.615
 9757SOL     OW30169   5.489   3.794   4.389
 9757SOL    HW130170   5.579   3.821   4.354
 9757SOL    HW230171   5.454   3.719   4.334
 9758SOL     OW30172   3.119   0.869   2.489
 9758SOL    HW130173   3.036   0.861   2.433
 9758SOL    HW230174   3.194   0.904   2.434
 9759SOL     OW30175   0.113   2.203   0.929
 9759SOL    HW130176   0.121   2.123   0.870
 9759SOL    HW230177   0.099   2.174   1.024
 9760SOL     OW30178   4.834   0.549   5.978
 9760SOL    HW130179   4.755   0.488   5.966
 9760SOL    HW230180   4.841   0.576   6.074
 9761SOL     OW30181   1.039   1.729   1.597
 9761SOL    HW130182   1.067   1.796   1.529
 9761SOL    HW230183   0.943   1.742   1.620
 9762SOL     OW30184   3.833   0.999   6.263
 9762SOL    HW130185   3.924   0.993   6.304
 9762SOL    HW230186   3.808   0.910   6.223
 9763SOL     OW30187   6.194   2.028   0.905
 9763SOL    HW130188   6.172   1.983   0.818
 9763SOL    HW230189   6.132   1.994   0.976
 9764SOL     OW30190   0.612   2.560   2.841
 9764SOL    HW130191   0.563   2.481   2.804
 9764SOL    HW230192   0.641   2.620   2.767
 9765SOL     OW30193   6.847   2.041   1.324
 9765SOL    HW130194   6.824   2.136   1.305
 9765SOL    HW230195   6.772   1.998   1.374
 9766SOL     OW30196   0.249   2.855   3.028
 9766SOL    HW130197   0.205   2.839   2.940
 9766SOL    HW230198   0.301   2.941   3.024
 9767SOL     OW30199   3.738   1.517   5.002
 9767SOL    HW130200   3.785   1.580   4.940
 9767SOL    HW230201   3.804   1.481   5.069
 9768SOL     OW30202   4.871   2.222   6.755
 9768SOL    HW130203   4.961   2.226   6.710
 9768SOL    HW230204   4.802   2.257   6.692
 9769SOL     OW30205   3.884   1.430   5.227
 9769SOL    HW130206   3.974   1.453   5.263
 9769SOL    HW230207   3.873   1.331   5.224
 9770SOL     OW30208   1.957   3.440   5.121
 9770SOL    HW130209   1.993   3.524   5.080
 9770SOL    HW230210   1.860   3.452   5.143
 9771SOL     OW30211   3.255   0.961   2.125
 9771SOL    HW130212   3.272   1.005   2.213
 9771SOL    HW230213   3.240   0.863   2.140
 9772SOL     OW30214   0.387   0.480   1.959
 9772SOL    HW130215   0.374   0.571   1.999
 9772SOL    HW230216   0.299   0.436   1.947
 9773SOL     OW30217   5.904   6.579   2.092
 9773SOL    HW130218   5.898   6.610   2.187
 9773SOL    HW230219   5.996   6.546   2.073
 9774SOL     OW30220   2.117   5.528   4.250
 9774SOL    HW130221   2.037   5.583   4.226
 9774SOL    HW230222   2.102   5.484   4.338
 9775SOL     OW30223   1.322   1.541   2.875
 9775SOL    HW130224   1.241   1.541   2.815
 9775SOL    HW230225   1.390   1.605   2.838
 9776SOL     OW30226   1.912   5.543   1.544
 9776SOL    HW130227   1.884   5.621   1.487
 9776SOL    HW230228   1.974   5.485   1.492
 9777SOL     OW30229   4.433   1.931   5.417
 9777SOL    HW130230   4.434   1.976   5.327
 9777SOL    HW230231   4.523   1.892   5.435
 9778SOL     OW30232   1.634   3.486   2.833
 9778SOL    HW130233   1.616   3.568   2.778
 9778SOL    HW230234   1.705   3.432   2.788
 9779SOL     OW30235   3.008   0.603   3.412
 9779SOL    HW130236   2.967   0.671   3.472
 9779SOL    HW230237   3.104   0.589   3.437
 9780SOL     OW30238   0.852   1.331   0.693
 9780SOL    HW130239   0.777   1.271   0.665
 9780SOL    HW230240   0.816   1.421   0.717
 9781SOL     OW30241   1.408   1.284   2.109
 9781SOL    HW130242   1.479   1.350   2.082
 9781SOL    HW230243   1.398   1.285   2.208
 9782SOL     OW30244   0.136   2.819   0.405
 9782SOL    HW130245   0.119   2.790   0.311
 9782SOL    HW230246   0.186   2.749   0.454
 9783SOL     OW30247   5.076   1.874   2.539
 9783SOL    HW130248   5.028   1.846   2.622
 9783SOL    HW230249   5.104   1.793   2.487
 9784SOL     OW30250   1.919   1.448   0.570
 9784SOL    HW130251   1.864   1.528   0.548
 9784SOL    HW230252   2.006   1.478   0.611
 9785SOL     OW30253   1.669   3.443   5.093
 9785SOL    HW130254   1.611   3.521   5.117
 9785SOL    HW230255   1.622   3.388   5.023
 9786SOL     OW30256   2.629   4.868   6.843
 9786SOL    HW130257   2.673   4.947   6.886
 9786SOL    HW230258   2.699   4.812   6.799
 9787SOL     OW30259   2.922   3.455   1.222
 9787SOL    HW130260   2.940   3.374   1.166
 9787SOL    HW230261   2.922   3.429   1.319
 9788SOL     OW30262   2.594   6.925   2.956
 9788SOL    HW130263   2.548   6.883   3.034
 9788SOL    HW230264   2.633   6.855   2.897
 9789SOL     OW30265   4.497   1.508   1.021
 9789SOL    HW130266   4.522   1.426   0.969
 9789SOL    HW230267   4.512   1.589   0.964
 9790SOL     OW30268   4.685   5.969   4.723
 9790SOL    HW130269   4.700   6.066   4.706
 9790SOL    HW230270   4.771   5.927   4.755
 9791SOL     OW30271   0.364   0.859   1.348
 9791SOL    HW130272   0.419   0.939   1.373
 9791SOL    HW230273   0.411   0.776   1.377
 9792SOL     OW30274   3.691   4.452   0.832
 9792SOL    HW130275   3.730   4.360   0.831
 9792SOL    HW230276   3.619   4.459   0.763
 9793SOL     OW30277   6.000   1.215   2.458
 9793SOL    HW130278   5.918   1.269   2.439
 9793SOL    HW230279   5.979   1.146   2.527
 9794SOL     OW30280   3.770   5.346   4.876
 9794SOL    HW130281   3.787   5.303   4.787
 9794SOL    HW230282   3.752   5.443   4.863
 9795SOL     OW30283   1.821   3.858   3.063
 9795SOL    HW130284   1.840   3.760   3.058
 9795SOL    HW230285   1.872   3.898   3.139
 9796SOL     OW30286   3.206   4.073   4.541
 9796SOL    HW130287   3.305   4.064   4.553
 9796SOL    HW230288   3.185   4.166   4.510
 9797SOL     OW30289   3.313   5.713   0.277
 9797SOL    HW130290   3.344   5.625   0.243
 9797SOL    HW230291   3.316   5.780   0.203
 9798SOL     OW30292   6.840   4.454   6.412
 9798SOL    HW130293   6.924   4.504   6.433
 9798SOL    HW230294   6.855   4.356   6.429
 9799SOL     OW30295   4.065   6.603   6.588
 9799SOL    HW130296   4.019   6.519   6.559
 9799SOL    HW230297   3.998   6.678   6.590
 9800SOL     OW30298   6.180   4.705   4.979
 9800SOL    HW130299   6.127   4.643   4.921
 9800SOL    HW230300   6.165   4.681   5.075
 9801SOL     OW30301   4.426   6.716   0.927
 9801SOL    HW130302   4.341   6.743   0.883
 9801SOL    HW230303   4.501   6.721   0.862
 9802SOL     OW30304   3.888   3.436   0.166
 9802SOL    HW130305   3.791   3.417   0.150
 9802SOL    HW230306   3.930   3.471   0.081
 9803SOL     OW30307   1.832   3.542   6.726
 9803SOL    HW130308   1.862   3.451   6.756
 9803SOL    HW230309   1.762   3.576   6.789
 9804SOL     OW30310   1.181   4.441   2.839
 9804SOL    HW130311   1.207   4.421   2.933
 9804SOL    HW230312   1.194   4.538   2.820
 9805SOL     OW30313   0.221   5.634   4.643
 9805SOL    HW130314   0.252   5.539   4.636
 9805SOL    HW230315   0.192   5.667   4.554
 9806SOL     OW30316   3.644   1.510   6.928
 9806SOL    HW130317   3.611   1.456   7.005
 9806SOL    HW230318   3.726   1.468   6.890
 9807SOL     OW30319   3.854   3.029   3.749
 9807SOL    HW130320   3.865   3.022   3.650
 9807SOL    HW230321   3.769   2.983   3.777
 9808SOL     OW30322   3.144   5.736   2.056
 9808SOL    HW130323   3.164   5.653   2.109
 9808SOL    HW230324   3.066   5.720   1.996
 9809SOL     OW30325   5.675   2.393   0.922
 9809SOL    HW130326   5.707   2.487   0.908
 9809SOL    HW230327   5.733   2.350   0.991
 9810SOL     OW30328   2.697   3.174   0.958
 9810SOL    HW130329   2.667   3.251   0.902
 9810SOL    HW230330   2.621   3.111   0.973
 9811SOL     OW30331   5.362   3.632   4.202
 9811SOL    HW130332   5.266   3.635   4.231
 9811SOL    HW230333   5.367   3.647   4.103
 9812SOL     OW30334   3.466   5.982   6.502
 9812SOL    HW130335   3.489   6.054   6.567
 9812SOL    HW230336   3.537   5.976   6.432
 9813SOL     OW30337   3.928   0.728   2.046
 9813SOL    HW130338   4.017   0.691   2.072
 9813SOL    HW230339   3.911   0.813   2.096
 9814SOL     OW30340   6.544   1.777   6.184
 9814SOL    HW130341   6.608   1.815   6.251
 9814SOL    HW230342   6.581   1.789   6.092
 9815SOL     OW30343   4.645   2.652   4.590
 9815SOL    HW130344   4.666   2.683   4.683
 9815SOL    HW230345   4.690   2.712   4.524
 9816SOL     OW30346   3.059   1.070   0.007
 9816SOL    HW130347   3.068   1.036   6.940
 9816SOL    HW230348   3.040   0.994   0.069
 9817SOL     OW30349   6.809   0.623   1.656
 9817SOL    HW130350   6.753   0.641   1.737
 9817SOL    HW230351   6.781   0.536   1.615
 9818SOL     OW30352   3.646   2.604   5.349
 9818SOL    HW130353   3.585   2.677   5.381
 9818SOL    HW230354   3.736   2.615   5.391
 9819SOL     OW30355   3.023   0.663   1.944
 9819SOL    HW130356   3.069   0.667   1.855
 9819SOL    HW230357   3.022   0.754   1.985
 9820SOL     OW30358   3.715   2.694   6.960
 9820SOL    HW130359   3.647   2.678   0.005
 9820SOL    HW230360   3.747   2.789   6.964
 9821SOL     OW30361   6.772   5.325   6.971
 9821SOL    HW130362   6.781   5.259   6.897
 9821SOL    HW230363   6.677   5.356   6.977
 9822SOL     OW30364   0.032   0.598   2.605
 9822SOL    HW130365   7.004   0.514   2.616
 9822SOL    HW230366   0.124   0.574   2.573
 9823SOL     OW30367   3.378   6.593   2.168
 9823SOL    HW130368   3.450   6.637   2.115
 9823SOL    HW230369   3.340   6.516   2.117
 9824SOL     OW30370   1.529   4.205   6.010
 9824SOL    HW130371   1.433   4.189   5.989
 9824SOL    HW230372   1.536   4.253   6.097
 9825SOL     OW30373   4.531   5.261   5.039
 9825SOL    HW130374   4.536   5.277   5.138
 9825SOL    HW230375   4.454   5.200   5.019
 9826SOL     OW30376   5.735   6.465   5.170
 9826SOL    HW130377   5.687   6.454   5.082
 9826SOL    HW230378   5.833   6.476   5.153
 9827SOL     OW30379   0.714   4.987   4.838
 9827SOL    HW130380   0.689   5.011   4.932
 9827SOL    HW230381   0.705   4.888   4.826
 9828SOL     OW30382   2.322   2.311   7.012
 9828SOL    HW130383   2.372   2.260   6.942
 9828SOL    HW230384   2.237   2.346   6.974
 9829SOL     OW30385   2.498   4.288   1.350
 9829SOL    HW130386   2.408   4.319   1.382
 9829SOL    HW230387   2.569   4.324   1.410
 9830SOL     OW30388   6.964   1.332   0.868
 9830SOL    HW130389   6.942   1.409   0.808
 9830SOL    HW230390   6.922   1.346   0.957
 9831SOL     OW30391   5.882   6.684   1.409
 9831SOL    HW130392   5.857   6.743   1.486
 9831SOL    HW230393   5.813   6.692   1.337
 9832SOL     OW30394   3.739   4.252   1.090
 9832SOL    HW130395   3.816   4.311   1.116
 9832SOL    HW230396   3.662   4.310   1.061
 9833SOL     OW30397   4.356   4.467   6.187
 9833SOL    HW130398   4.335   4.377   6.224
 9833SOL    HW230399   4.337   4.537   6.255
 9834SOL     OW30400   2.160   2.026   3.969
 9834SOL    HW130401   2.184   2.123   3.985
 9834SOL    HW230402   2.231   1.968   4.010
 9835SOL     OW30403   5.824   1.167   4.752
 9835SOL    HW130404   5.829   1.102   4.676
 9835SOL    HW230405   5.909   1.221   4.756
 9836SOL     OW30406   4.931   5.164   1.585
 9836SOL    HW130407   4.833   5.146   1.574
 9836SOL    HW230408   4.966   5.114   1.664
 9837SOL     OW30409   2.133   6.299   5.554
 9837SOL    HW130410   2.051   6.352   5.535
 9837SOL    HW230411   2.178   6.274   5.469
 9838SOL     OW30412   6.675   5.939   4.869
 9838SOL    HW130413   6.642   5.917   4.777
 9838SOL    HW230414   6.766   5.899   4.882
 9839SOL     OW30415   6.198   2.859   2.629
 9839SOL    HW130416   6.135   2.868   2.552
 9839SOL    HW230417   6.250   2.943   2.640
 9840SOL     OW30418   5.771   0.241   0.327
 9840SOL    HW130419   5.815   0.253   0.238
 9840SOL    HW230420   5.710   0.318   0.345
 9841SOL     OW30421   2.165   3.029   3.928
 9841SOL    HW130422   2.186   3.119   3.889
 9841SOL    HW230423   2.079   3.035   3.979
 9842SOL     OW30424   3.028   3.697   3.839
 9842SOL    HW130425   2.948   3.676   3.784
 9842SOL    HW230426   3.104   3.638   3.812
 9843SOL     OW30427   6.153   4.487   3.275
 9843SOL    HW130428   6.064   4.456   3.240
 9843SOL    HW230429   6.217   4.410   3.274
 9844SOL     OW30430   5.137   0.360   2.353
 9844SOL    HW130431   5.117   0.451   2.391
 9844SOL    HW230432   5.191   0.370   2.269
 9845SOL     OW30433   1.532   1.558   3.080
 9845SOL    HW130434   1.456   1.536   3.020
 9845SOL    HW230435   1.599   1.613   3.030
 9846SOL     OW30436   2.899   3.585   3.533
 9846SOL    HW130437   2.923   3.669   3.485
 9846SOL    HW230438   2.799   3.578   3.540
 9847SOL     OW30439   1.813   4.421   4.918
 9847SOL    HW130440   1.716   4.443   4.911
 9847SOL    HW230441   1.850   4.462   5.001
 9848SOL     OW30442   5.698   3.457   0.085
 9848SOL    HW130443   5.665   3.402   0.162
 9848SOL    HW230444   5.637   3.535   0.072
 9849SOL     OW30445   0.329   6.215   5.464
 9849SOL    HW130446   0.231   6.226   5.450
 9849SOL    HW230447   0.346   6.134   5.521
 9850SOL     OW30448   4.429   0.128   2.968
 9850SOL    HW130449   4.466   0.201   3.025
 9850SOL    HW230450   4.401   0.166   2.880
 9851SOL     OW30451   5.618   3.334   5.235
 9851SOL    HW130452   5.569   3.296   5.314
 9851SOL    HW230453   5.583   3.425   5.215
 9852SOL     OW30454   5.666   1.846   4.320
 9852SOL    HW130455   5.664   1.937   4.363
 9852SOL    HW230456   5.575   1.821   4.288
 9853SOL     OW30457   0.349   4.553   1.158
 9853SOL    HW130458   0.289   4.528   1.234
 9853SOL    HW230459   0.443   4.532   1.182
 9854SOL     OW30460   4.077   6.008   3.909
 9854SOL    HW130461   4.060   5.914   3.940
 9854SOL    HW230462   4.148   6.008   3.839
 9855SOL     OW30463   1.819   3.539   0.704
 9855SOL    HW130464   1.887   3.584   0.763
 9855SOL    HW230465   1.796   3.450   0.742
 9856SOL     OW30466   3.549   2.778   0.977
 9856SOL    HW130467   3.481   2.756   1.047
 9856SOL    HW230468   3.504   2.825   0.901
 9857SOL     OW30469   6.483   4.159   3.154
 9857SOL    HW130470   6.493   4.093   3.080
 9857SOL    HW230471   6.483   4.252   3.117
 9858SOL     OW30472   3.819   1.510   1.344
 9858SOL    HW130473   3.898   1.570   1.332
 9858SOL    HW230474   3.844   1.416   1.318
 9859SOL     OW30475   0.068   0.209   1.233
 9859SOL    HW130476   0.117   0.292   1.206
 9859SOL    HW230477   7.018   0.232   1.294
 9860SOL     OW30478   0.629   0.788   2.258
 9860SOL    HW130479   0.648   0.793   2.160
 9860SOL    HW230480   0.583   0.703   2.279
 9861SOL     OW30481   3.099   6.502   4.672
 9861SOL    HW130482   3.014   6.452   4.687
 9861SOL    HW230483   3.127   6.492   4.576
 9862SOL     OW30484   0.442   2.489   1.153
 9862SOL    HW130485   0.516   2.426   1.172
 9862SOL    HW230486   0.354   2.446   1.175
 9863SOL     OW30487   3.164   0.175   0.582
 9863SOL    HW130488   3.193   0.202   0.674
 9863SOL    HW230489   3.242   0.136   0.532
 9864SOL     OW30490   4.626   6.162   2.964
 9864SOL    HW130491   4.699   6.144   2.897
 9864SOL    HW230492   4.541   6.181   2.916
 9865SOL     OW30493   1.694   2.410   4.150
 9865SOL    HW130494   1.689   2.494   4.095
 9865SOL    HW230495   1.650   2.426   4.238
 9866SOL     OW30496   3.190   5.396   3.556
 9866SOL    HW130497   3.136   5.313   3.546
 9866SOL    HW230498   3.225   5.403   3.649
 9867SOL     OW30499   4.046   0.377   6.497
 9867SOL    HW130500   3.998   0.292   6.520
 9867SOL    HW230501   4.140   0.355   6.469
 9868SOL     OW30502   0.659   5.177   5.894
 9868SOL    HW130503   0.656   5.118   5.814
 9868SOL    HW230504   0.747   5.224   5.898
 9869SOL     OW30505   1.477   4.145   2.760
 9869SOL    HW130506   1.505   4.234   2.796
 9869SOL    HW230507   1.553   4.081   2.764
 9870SOL     OW30508   4.533   4.550   1.906
 9870SOL    HW130509   4.533   4.451   1.920
 9870SOL    HW230510   4.511   4.570   1.810
 9871SOL     OW30511   1.552   1.817   5.681
 9871SOL    HW130512   1.648   1.800   5.660
 9871SOL    HW230513   1.501   1.831   5.596
 9872SOL     OW30514   1.397   4.298   3.604
 9872SOL    HW130515   1.374   4.289   3.701
 9872SOL    HW230516   1.361   4.384   3.569
 9873SOL     OW30517   1.467   1.991   0.251
 9873SOL    HW130518   1.390   1.991   0.186
 9873SOL    HW230519   1.534   2.059   0.223
 9874SOL     OW30520   0.941   3.583   4.504
 9874SOL    HW130521   1.014   3.634   4.550
 9874SOL    HW230522   0.853   3.620   4.532
 9875SOL     OW30523   0.938   1.090   2.508
 9875SOL    HW130524   0.842   1.113   2.524
 9875SOL    HW230525   0.996   1.148   2.564
 9876SOL     OW30526   6.661   5.207   2.275
 9876SOL    HW130527   6.668   5.244   2.183
 9876SOL    HW230528   6.577   5.240   2.318
 9877SOL     OW30529   3.595   6.677   1.580
 9877SOL    HW130530   3.547   6.706   1.498
 9877SOL    HW230531   3.599   6.753   1.645
 9878SOL     OW30532   0.677   0.304   5.249
 9878SOL    HW130533   0.760   0.350   5.218
 9878SOL    HW230534   0.614   0.294   5.172
 9879SOL     OW30535   5.643   6.006   5.368
 9879SOL    HW130536   5.627   5.913   5.335
 9879SOL    HW230537   5.644   6.006   5.468
 9880SOL     OW30538   1.654   1.435   3.957
 9880SOL    HW130539   1.696   1.432   3.866
 9880SOL    HW230540   1.630   1.342   3.985
 9881SOL     OW30541   6.956   1.385   6.060
 9881SOL    HW130542   0.015   1.338   6.081
 9881SOL    HW230543   6.960   1.420   5.966
 9882SOL     OW30544   1.897   2.010   2.767
 9882SOL    HW130545   1.836   2.058   2.705
 9882SOL    HW230546   1.992   2.033   2.746
 9883SOL     OW30547   2.679   1.252   2.403
 9883SOL    HW130548   2.765   1.219   2.440
 9883SOL    HW230549   2.697   1.310   2.323
 9884SOL     OW30550   3.361   0.628   4.088
 9884SOL    HW130551   3.431   0.696   4.112
 9884SOL    HW230552   3.398   0.567   4.018
 9885SOL     OW30553   6.345   4.343   4.144
 9885SOL    HW130554   6.245   4.342   4.147
 9885SOL    HW230555   6.375   4.394   4.063
 9886SOL     OW30556   1.100   3.213   1.610
 9886SOL    HW130557   1.121   3.268   1.691
 9886SOL    HW230558   1.041   3.136   1.637
 9887SOL     OW30559   4.411   6.853   6.060
 9887SOL    HW130560   4.378   6.785   6.125
 9887SOL    HW230561   4.414   6.812   5.968
 9888SOL     OW30562   6.326   5.229   0.061
 9888SOL    HW130563   6.301   5.145   0.109
 9888SOL    HW230564   6.422   5.252   0.079
 9889SOL     OW30565   0.185   5.126   0.368
 9889SOL    HW130566   0.105   5.103   0.424
 9889SOL    HW230567   0.266   5.135   0.426
 9890SOL     OW30568   1.296   3.302   0.563
 9890SOL    HW130569   1.216   3.246   0.580
 9890SOL    HW230570   1.272   3.399   0.571
 9891SOL     OW30571   4.738   1.906   1.918
 9891SOL    HW130572   4.763   1.839   1.848
 9891SOL    HW230573   4.715   1.993   1.875
 9892SOL     OW30574   0.937   6.354   0.037
 9892SOL    HW130575   0.876   6.400   0.102
 9892SOL    HW230576   1.015   6.316   0.086
 9893SOL     OW30577   2.649   1.881   0.720
 9893SOL    HW130578   2.601   1.875   0.633
 9893SOL    HW230579   2.585   1.905   0.792
 9894SOL     OW30580   2.065   1.230   1.449
 9894SOL    HW130581   2.115   1.269   1.527
 9894SOL    HW230582   2.038   1.304   1.387
 9895SOL     OW30583   4.387   3.184   5.340
 9895SOL    HW130584   4.375   3.189   5.439
 9895SOL    HW230585   4.307   3.224   5.295
 9896SOL     OW30586   6.846   6.500   6.387
 9896SOL    HW130587   6.860   6.402   6.402
 9896SOL    HW230588   6.932   6.548   6.404
 9897SOL     OW30589   5.268   5.019   4.136
 9897SOL    HW130590   5.332   4.951   4.173
 9897SOL    HW230591   5.299   5.111   4.159
 9898SOL     OW30592   2.906   6.839   5.650
 9898SOL    HW130593   2.916   6.926   5.698
 9898SOL    HW230594   2.808   6.816   5.644
 9899SOL     OW30595   0.002   5.240   6.746
 9899SOL    HW130596   6.948   5.185   6.770
 9899SOL    HW230597   6.999   5.333   6.723
 9900SOL     OW30598   2.276   4.235   3.480
 9900SOL    HW130599   2.255   4.309   3.545
 9900SOL    HW230600   2.277   4.148   3.528
 9901SOL     OW30601   2.380   2.913   5.567
 9901SOL    HW130602   2.453   2.864   5.518
 9901SOL    HW230603   2.323   2.961   5.501
 9902SOL     OW30604   2.692   4.324   0.314
 9902SOL    HW130605   2.759   4.328   0.388
 9902SOL    HW230606   2.610   4.375   0.340
 9903SOL     OW30607   5.543   0.672   4.252
 9903SOL    HW130608   5.635   0.700   4.223
 9903SOL    HW230609   5.476   0.739   4.221
 9904SOL     OW30610   6.457   2.553   0.766
 9904SOL    HW130611   6.390   2.481   0.782
 9904SOL    HW230612   6.504   2.575   0.852
 9905SOL     OW30613   5.275   0.457   0.311
 9905SOL    HW130614   5.226   0.381   0.355
 9905SOL    HW230615   5.339   0.420   0.243
 9906SOL     OW30616   3.319   2.819   5.095
 9906SOL    HW130617   3.245   2.772   5.143
 9906SOL    HW230618   3.288   2.843   5.003
 9907SOL     OW30619   1.317   6.988   1.899
 9907SOL    HW130620   1.302   0.041   1.959
 9907SOL    HW230621   1.237   6.974   1.842
 9908SOL     OW30622   5.013   3.593   2.462
 9908SOL    HW130623   4.948   3.629   2.528
 9908SOL    HW230624   5.000   3.638   2.373
 9909SOL     OW30625   2.273   0.476   4.991
 9909SOL    HW130626   2.233   0.480   5.082
 9909SOL    HW230627   2.243   0.392   4.945
 9910SOL     OW30628   0.135   5.163   3.572
 9910SOL    HW130629   0.049   5.144   3.525
 9910SOL    HW230630   0.134   5.257   3.608
 9911SOL     OW30631   2.683   5.608   2.670
 9911SOL    HW130632   2.779   5.605   2.697
 9911SOL    HW230633   2.626   5.585   2.749
 9912SOL     OW30634   5.079   0.645   6.526
 9912SOL    HW130635   5.154   0.609   6.582
 9912SOL    HW230636   5.032   0.569   6.481
 9913SOL     OW30637   4.543   3.088   6.751
 9913SOL    HW130638   4.482   3.009   6.753
 9913SOL    HW230639   4.576   3.107   6.843
 9914SOL     OW30640   0.085   4.205   4.353
 9914SOL    HW130641   0.008   4.142   4.354
 9914SOL    HW230642   0.163   4.162   4.308
 9915SOL     OW30643   5.467   1.629   3.602
 9915SOL    HW130644   5.567   1.630   3.603
 9915SOL    HW230645   5.433   1.607   3.693
 9916SOL     OW30646   1.832   2.707   1.981
 9916SOL    HW130647   1.880   2.730   1.897
 9916SOL    HW230648   1.862   2.617   2.013
 9917SOL     OW30649   6.238   4.247   5.035
 9917SOL    HW130650   6.250   4.176   4.965
 9917SOL    HW230651   6.304   4.320   5.020
 9918SOL     OW30652   4.676   2.676   2.328
 9918SOL    HW130653   4.655   2.608   2.399
 9918SOL    HW230654   4.704   2.762   2.371
 9919SOL     OW30655   5.910   6.324   0.815
 9919SOL    HW130656   5.906   6.309   0.716
 9919SOL    HW230657   5.961   6.408   0.834
 9920SOL     OW30658   4.579   1.348   2.979
 9920SOL    HW130659   4.561   1.393   2.891
 9920SOL    HW230660   4.495   1.306   3.013
 9921SOL     OW30661   3.769   4.857   6.208
 9921SOL    HW130662   3.771   4.957   6.206
 9921SOL    HW230663   3.681   4.826   6.244
 9922SOL     OW30664   0.138   5.247   0.736
 9922SOL    HW130665   0.085   5.209   0.660
 9922SOL    HW230666   0.077   5.273   0.810
 9923SOL     OW30667   5.361   4.897   1.321
 9923SOL    HW130668   5.456   4.864   1.316
 9923SOL    HW230669   5.347   4.945   1.407
 9924SOL     OW30670   1.118   3.336   4.738
 9924SOL    HW130671   1.041   3.282   4.773
 9924SOL    HW230672   1.090   3.431   4.725
 9925SOL     OW30673   5.394   2.036   3.228
 9925SOL    HW130674   5.408   1.940   3.204
 9925SOL    HW230675   5.447   2.059   3.310
 9926SOL     OW30676   2.839   4.966   0.211
 9926SOL    HW130677   2.751   4.955   0.164
 9926SOL    HW230678   2.839   5.052   0.262
 9927SOL     OW30679   5.592   0.157   3.688
 9927SOL    HW130680   5.647   0.129   3.610
 9927SOL    HW230681   5.514   0.094   3.699
 9928SOL     OW30682   4.847   4.967   1.900
 9928SOL    HW130683   4.816   4.884   1.853
 9928SOL    HW230684   4.792   4.982   1.982
 9929SOL     OW30685   1.216   4.616   2.423
 9929SOL    HW130686   1.247   4.622   2.328
 9929SOL    HW230687   1.233   4.703   2.469
 9930SOL     OW30688   6.130   0.689   3.191
 9930SOL    HW130689   6.207   0.647   3.238
 9930SOL    HW230690   6.098   0.627   3.119
 9931SOL     OW30691   0.617   5.141   6.142
 9931SOL    HW130692   0.652   5.124   6.050
 9931SOL    HW230693   0.601   5.239   6.154
 9932SOL     OW30694   0.725   6.713   5.351
 9932SOL    HW130695   0.792   6.771   5.398
 9932SOL    HW230696   0.635   6.755   5.360
 9933SOL     OW30697   0.182   6.185   2.085
 9933SOL    HW130698   0.224   6.276   2.082
 9933SOL    HW230699   0.236   6.121   2.030
 9934SOL     OW30700   6.835   1.678   5.651
 9934SOL    HW130701   6.737   1.695   5.656
 9934SOL    HW230702   6.884   1.737   5.715
 9935SOL     OW30703   3.211   0.163   6.067
 9935SOL    HW130704   3.285   0.203   6.013
 9935SOL    HW230705   3.124   0.206   6.041
 9936SOL     OW30706   1.233   3.911   4.549
 9936SOL    HW130707   1.145   3.923   4.503
 9936SOL    HW230708   1.299   3.874   4.485
 9937SOL     OW30709   6.567   2.793   6.068
 9937SOL    HW130710   6.525   2.703   6.069
 9937SOL    HW230711   6.623   2.804   5.986
 9938SOL     OW30712   6.992   6.331   2.527
 9938SOL    HW130713   6.980   6.239   2.565
 9938SOL    HW230714   0.005   6.324   2.435
 9939SOL     OW30715   3.523   3.241   2.655
 9939SOL    HW130716   3.544   3.204   2.565
 9939SOL    HW230717   3.438   3.294   2.650
 9940SOL     OW30718   0.012   0.629   0.877
 9940SOL    HW130719   7.022   0.559   0.808
 9940SOL    HW230720   6.957   0.639   0.934
 9941SOL     OW30721   3.352   5.276   5.187
 9941SOL    HW130722   3.417   5.233   5.123
 9941SOL    HW230723   3.372   5.374   5.193
 9942SOL     OW30724   2.815   5.731   3.891
 9942SOL    HW130725   2.796   5.766   3.799
 9942SOL    HW230726   2.762   5.783   3.958
 9943SOL     OW30727   0.898   0.132   4.914
 9943SOL    HW130728   0.968   0.108   4.981
 9943SOL    HW230729   0.814   0.081   4.933
 9944SOL     OW30730   1.544   4.575   0.214
 9944SOL    HW130731   1.534   4.509   0.139
 9944SOL    HW230732   1.454   4.614   0.236
 9945SOL     OW30733   6.528   5.904   0.001
 9945SOL    HW130734   6.435   5.878   7.003
 9945SOL    HW230735   6.587   5.823   0.004
 9946SOL     OW30736   5.780   1.691   4.884
 9946SOL    HW130737   5.874   1.710   4.856
 9946SOL    HW230738   5.752   1.603   4.847
 9947SOL     OW30739   6.113   4.573   3.542
 9947SOL    HW130740   6.129   4.557   3.445
 9947SOL    HW230741   6.089   4.487   3.587
 9948SOL     OW30742   5.324   3.942   4.199
 9948SOL    HW130743   5.341   3.882   4.277
 9948SOL    HW230744   5.408   3.989   4.173
 9949SOL     OW30745   5.951   4.771   1.862
 9949SOL    HW130746   5.883   4.778   1.935
 9949SOL    HW230747   5.922   4.829   1.785
 9950SOL     OW30748   2.921   6.203   6.694
 9950SOL    HW130749   2.909   6.142   6.615
 9950SOL    HW230750   2.842   6.265   6.700
 9951SOL     OW30751   6.056   2.525   2.890
 9951SOL    HW130752   6.035   2.427   2.897
 9951SOL    HW230753   6.147   2.542   2.930
 9952SOL     OW30754   0.023   5.243   6.275
 9952SOL    HW130755   0.056   5.332   6.307
 9952SOL    HW230756   6.959   5.225   6.315
 9953SOL     OW30757   5.847   2.879   3.871
 9953SOL    HW130758   5.747   2.879   3.876
 9953SOL    HW230759   5.881   2.786   3.879
 9954SOL     OW30760   4.129   0.304   4.821
 9954SOL    HW130761   4.202   0.287   4.755
 9954SOL    HW230762   4.157   0.268   4.910
 9955SOL     OW30763   0.788   4.846   4.405
 9955SOL    HW130764   0.781   4.835   4.306
 9955SOL    HW230765   0.805   4.758   4.447
 9956SOL     OW30766   0.897   6.019   0.053
 9956SOL    HW130767   0.889   5.997   6.982
 9956SOL    HW230768   0.809   6.004   0.098
 9957SOL     OW30769   5.661   5.449   2.288
 9957SOL    HW130770   5.694   5.397   2.210
 9957SOL    HW230771   5.629   5.386   2.359
 9958SOL     OW30772   2.677   4.247   0.724
 9958SOL    HW130773   2.625   4.297   0.793
 9958SOL    HW230774   2.719   4.166   0.767
 9959SOL     OW30775   3.289   3.890   1.310
 9959SOL    HW130776   3.195   3.866   1.285
 9959SOL    HW230777   3.323   3.824   1.378
 9960SOL     OW30778   0.661   1.427   2.389
 9960SOL    HW130779   0.633   1.392   2.300
 9960SOL    HW230780   0.761   1.430   2.393
 9961SOL     OW30781   2.187   3.909   4.702
 9961SOL    HW130782   2.222   3.833   4.757
 9961SOL    HW230783   2.205   3.995   4.748
 9962SOL     OW30784   4.936   6.451   4.325
 9962SOL    HW130785   4.901   6.506   4.401
 9962SOL    HW230786   4.899   6.486   4.239
 9963SOL     OW30787   3.480   0.864   0.892
 9963SOL    HW130788   3.423   0.945   0.903
 9963SOL    HW230789   3.575   0.892   0.879
 9964SOL     OW30790   5.196   6.489   4.727
 9964SOL    HW130791   5.211   6.482   4.629
 9964SOL    HW230792   5.167   6.400   4.763
 9965SOL     OW30793   4.459   6.667   0.515
 9965SOL    HW130794   4.430   6.762   0.527
 9965SOL    HW230795   4.428   6.633   0.426
 9966SOL     OW30796   6.551   0.756   3.350
 9966SOL    HW130797   6.520   0.817   3.277
 9966SOL    HW230798   6.479   0.689   3.370
 9967SOL     OW30799   1.085   5.152   0.828
 9967SOL    HW130800   0.992   5.159   0.864
 9967SOL    HW230801   1.088   5.191   0.736
 9968SOL     OW30802   3.000   3.675   3.140
 9968SOL    HW130803   2.900   3.673   3.141
 9968SOL    HW230804   3.032   3.764   3.170
 9969SOL     OW30805   1.568   3.677   1.075
 9969SOL    HW130806   1.514   3.696   1.157
 9969SOL    HW230807   1.611   3.587   1.083
 9970SOL     OW30808   6.003   4.341   1.730
 9970SOL    HW130809   5.988   4.420   1.670
 9970SOL    HW230810   6.097   4.344   1.765
 9971SOL     OW30811   2.774   6.917   6.794
 9971SOL    HW130812   2.726   6.846   6.847
 9971SOL    HW230813   2.715   6.997   6.787
 9972SOL     OW30814   6.482   5.084   1.269
 9972SOL    HW130815   6.571   5.061   1.308
 9972SOL    HW230816   6.454   5.013   1.204
 9973SOL     OW30817   5.896   0.098   3.536
 9973SOL    HW130818   5.870   0.117   3.442
 9973SOL    HW230819   5.939   0.180   3.576
 9974SOL     OW30820   2.352   0.056   4.729
 9974SOL    HW130821   2.358   6.988   4.764
 9974SOL    HW230822   2.435   0.105   4.751
 9975SOL     OW30823   6.703   4.376   0.570
 9975SOL    HW130824   6.754   4.292   0.589
 9975SOL    HW230825   6.617   4.374   0.620
 9976SOL     OW30826   2.876   6.677   5.102
 9976SOL    HW130827   2.959   6.621   5.099
 9976SOL    HW230828   2.812   6.638   5.167
 9977SOL     OW30829   6.610   4.371   3.859
 9977SOL    HW130830   6.541   4.306   3.828
 9977SOL    HW230831   6.570   4.463   3.861
 9978SOL     OW30832   0.388   2.411   5.134
 9978SOL    HW130833   0.439   2.357   5.067
 9978SOL    HW230834   0.296   2.428   5.100
 9979SOL     OW30835   0.675   3.825   4.792
 9979SOL    HW130836   0.654   3.862   4.883
 9979SOL    HW230837   0.774   3.810   4.784
 9980SOL     OW30838   2.970   6.376   5.483
 9980SOL    HW130839   2.951   6.453   5.545
 9980SOL    HW230840   2.895   6.310   5.488
 9981SOL     OW30841   4.318   2.290   4.146
 9981SOL    HW130842   4.336   2.230   4.069
 9981SOL    HW230843   4.222   2.283   4.173
 9982SOL     OW30844   6.533   6.206   3.160
 9982SOL    HW130845   6.626   6.172   3.149
 9982SOL    HW230846   6.532   6.306   3.152
 9983SOL     OW30847   6.352   0.998   0.805
 9983SOL    HW130848   6.300   0.916   0.829
 9983SOL    HW230849   6.379   1.046   0.889
 9984SOL     OW30850   2.849   1.428   6.441
 9984SOL    HW130851   2.846   1.512   6.494
 9984SOL    HW230852   2.757   1.401   6.415
 9985SOL     OW30853   2.158   1.780   1.617
 9985SOL    HW130854   2.189   1.797   1.524
 9985SOL    HW230855   2.066   1.740   1.615
 9986SOL     OW30856   4.879   4.105   5.083
 9986SOL    HW130857   4.957   4.146   5.131
 9986SOL    HW230858   4.811   4.176   5.064
 9987SOL     OW30859   0.694   4.243   5.632
 9987SOL    HW130860   0.721   4.326   5.582
 9987SOL    HW230861   0.627   4.192   5.577
 9988SOL     OW30862   6.807   0.242   4.207
 9988SOL    HW130863   6.799   0.341   4.200
 9988SOL    HW230864   6.756   0.210   4.287
 9989SOL     OW30865   1.261   2.929   4.608
 9989SOL    HW130866   1.293   2.871   4.533
 9989SOL    HW230867   1.192   2.992   4.573
 9990SOL     OW30868   1.430   5.370   1.686
 9990SOL    HW130869   1.396   5.295   1.629
 9990SOL    HW230870   1.361   5.442   1.691
 9991SOL     OW30871   4.456   2.062   3.107
 9991SOL    HW130872   4.414   2.046   3.017
 9991SOL    HW230873   4.423   2.150   3.143
 9992SOL     OW30874   6.571   5.464   6.190
 9992SOL    HW130875   6.485   5.508   6.165
 9992SOL    HW230876   6.580   5.378   6.139
 9993SOL     OW30877   1.288   0.657   2.118
 9993SOL    HW130878   1.362   0.635   2.053
 9993SOL    HW230879   1.230   0.728   2.079
 9994SOL     OW30880   6.373   5.118   3.336
 9994SOL    HW130881   6.298   5.134   3.400
 9994SOL    HW230882   6.449   5.179   3.357
 9995SOL     OW30883   4.913   1.241   4.792
 9995SOL    HW130884   4.896   1.172   4.721
 9995SOL    HW230885   5.009   1.239   4.818
 9996SOL     OW30886   2.510   3.364   6.881
 9996SOL    HW130887   2.448   3.337   6.807
 9996SOL    HW230888   2.488   3.458   6.909
 9997SOL     OW30889   1.982   0.187   4.254
 9997SOL    HW130890   2.059   0.126   4.236
 9997SOL    HW230891   2.004   0.247   4.331
 9998SOL     OW30892   5.874   5.992   5.171
 9998SOL    HW130893   5.959   5.954   5.210
 9998SOL    HW230894   5.808   6.008   5.244
 9999SOL     OW30895   0.057   0.818   4.906
 9999SOL    HW130896   0.032   0.845   4.999
 9999SOL    HW230897   0.143   0.863   4.881
10000SOL     OW30898   6.855   4.702   0.141
10000SOL    HW130899   6.855   4.655   0.052
10000SOL    HW230900   6.761   4.706   0.176
10001SOL     OW30901   3.771   6.940   3.431
10001SOL    HW130902   3.794   6.912   3.338
10001SOL    HW230903   3.844   6.998   3.467
10002SOL     OW30904   1.781   1.957   1.546
10002SOL    HW130905   1.761   1.877   1.489
10002SOL    HW230906   1.767   1.934   1.642
10003SOL     OW30907   4.942   3.661   3.023
10003SOL    HW130908   5.019   3.664   2.959
10003SOL    HW230909   4.933   3.569   3.060
10004SOL     OW30910   6.754   2.847   3.821
10004SOL    HW130911   6.684   2.905   3.862
10004SOL    HW230912   6.843   2.868   3.862
10005SOL     OW30913   4.911   0.295   4.307
10005SOL    HW130914   4.825   0.254   4.277
10005SOL    HW230915   4.896   0.346   4.392
10006SOL     OW30916   4.864   1.846   4.437
10006SOL    HW130917   4.802   1.775   4.471
10006SOL    HW230918   4.894   1.903   4.513
10007SOL     OW30919   5.828   4.043   4.145
10007SOL    HW130920   5.870   3.953   4.129
10007SOL    HW230921   5.832   4.097   4.062
10008SOL     OW30922   3.144   0.085   3.622
10008SOL    HW130923   3.138   0.166   3.564
10008SOL    HW230924   3.235   0.079   3.663
10009SOL     OW30925   2.344   4.175   1.124
10009SOL    HW130926   2.294   4.250   1.168
10009SOL    HW230927   2.434   4.165   1.168
10010SOL     OW30928   5.886   0.917   6.403
10010SOL    HW130929   5.954   0.851   6.434
10010SOL    HW230930   5.840   0.881   6.321
10011SOL     OW30931   6.962   6.513   3.781
10011SOL    HW130932   6.878   6.472   3.745
10011SOL    HW230933   6.972   6.606   3.746
10012SOL     OW30934   5.735   0.379   4.297
10012SOL    HW130935   5.657   0.389   4.360
10012SOL    HW230936   5.815   0.349   4.348
10013SOL     OW30937   1.604   0.962   2.061
10013SOL    HW130938   1.615   0.905   1.980
10013SOL    HW230939   1.646   1.051   2.046
10014SOL     OW30940   1.601   5.001   5.476
10014SOL    HW130941   1.569   5.077   5.532
10014SOL    HW230942   1.607   4.919   5.532
10015SOL     OW30943   2.442   6.098   6.559
10015SOL    HW130944   2.411   6.039   6.632
10015SOL    HW230945   2.379   6.092   6.481
10016SOL     OW30946   2.345   1.457   5.235
10016SOL    HW130947   2.361   1.379   5.174
10016SOL    HW230948   2.429   1.511   5.243
10017SOL     OW30949   0.061   1.975   3.483
10017SOL    HW130950   0.117   2.042   3.433
10017SOL    HW230951   0.121   1.910   3.530
10018SOL     OW30952   5.023   6.582   5.759
10018SOL    HW130953   5.075   6.506   5.797
10018SOL    HW230954   4.994   6.560   5.666
10019SOL     OW30955   1.254   0.972   2.631
10019SOL    HW130956   1.193   0.982   2.552
10019SOL    HW230957   1.333   0.916   2.605
10020SOL     OW30958   0.105   2.776   0.146
10020SOL    HW130959   0.171   2.814   0.082
10020SOL    HW230960   0.048   2.708   0.099
10021SOL     OW30961   4.923   2.822   1.379
10021SOL    HW130962   4.976   2.883   1.437
10021SOL    HW230963   4.866   2.763   1.435
10022SOL     OW30964   1.972   0.824   6.064
10022SOL    HW130965   1.952   0.794   6.157
10022SOL    HW230966   2.061   0.788   6.036
10023SOL     OW30967   0.593   3.557   0.998
10023SOL    HW130968   0.672   3.497   1.002
10023SOL    HW230969   0.521   3.514   0.944
10024SOL     OW30970   1.181   3.804   3.163
10024SOL    HW130971   1.148   3.871   3.230
10024SOL    HW230972   1.129   3.812   3.079
10025SOL     OW30973   0.799   1.051   0.952
10025SOL    HW130974   0.810   0.960   0.991
10025SOL    HW230975   0.705   1.064   0.922
10026SOL     OW30976   6.667   0.613   4.457
10026SOL    HW130977   6.664   0.711   4.441
10026SOL    HW230978   6.645   0.594   4.552
10027SOL     OW30979   6.070   2.980   5.874
10027SOL    HW130980   6.045   2.985   5.777
10027SOL    HW230981   6.114   2.893   5.893
10028SOL     OW30982   1.966   0.923   1.994
10028SOL    HW130983   2.017   0.985   2.053
10028SOL    HW230984   1.956   0.834   2.039
10029SOL     OW30985   3.783   1.276   4.030
10029SOL    HW130986   3.685   1.299   4.032
10029SOL    HW230987   3.793   1.177   4.028
10030SOL     OW30988   1.247   1.275   2.991
10030SOL    HW130989   1.173   1.232   2.938
10030SOL    HW230990   1.270   1.363   2.950
10031SOL     OW30991   6.207   4.822   3.686
10031SOL    HW130992   6.175   4.784   3.599
10031SOL    HW230993   6.203   4.751   3.756
10032SOL     OW30994   3.950   1.755   5.385
10032SOL    HW130995   3.901   1.772   5.300
10032SOL    HW230996   4.004   1.671   5.377
10033SOL     OW30997   5.271   3.186   3.776
10033SOL    HW130998   5.198   3.214   3.714
10033SOL    HW230999   5.312   3.267   3.818
10034SOL     OW31000   4.184   6.817   5.862
10034SOL    HW131001   4.179   6.768   5.775
10034SOL    HW231002   4.173   6.751   5.937
10035SOL     OW31003   0.770   6.948   3.635
10035SOL    HW131004   0.823   0.007   3.644
10035SOL    HW231005   0.674   6.971   3.617
10036SOL     OW31006   6.366   0.475   0.126
10036SOL    HW131007   6.423   0.502   0.048
10036SOL    HW231008   6.421   0.473   0.209
10037SOL     OW31009   6.859   6.787   1.287
10037SOL    HW131010   6.928   6.855   1.264
10037SOL    HW231011   6.895   6.726   1.358
10038SOL     OW31012   6.292   6.940   1.092
10038SOL    HW131013   6.356   6.932   1.016
10038SOL    HW231014   6.339   6.983   1.170
10039SOL     OW31015   4.184   0.667   3.031
10039SOL    HW131016   4.173   0.610   2.950
10039SOL    HW231017   4.262   0.729   3.019
10040SOL     OW31018   0.657   2.626   0.821
10040SOL    HW131019   0.655   2.532   0.856
10040SOL    HW231020   0.690   2.688   0.893
10041SOL     OW31021   1.388   6.718   0.794
10041SOL    HW131022   1.327   6.794   0.816
10041SOL    HW231023   1.438   6.690   0.876
10042SOL     OW31024   5.939   2.038   3.290
10042SOL    HW131025   5.934   2.134   3.265
10042SOL    HW231026   5.870   1.986   3.239
10043SOL     OW31027   1.669   2.727   5.252
10043SOL    HW131028   1.655   2.669   5.332
10043SOL    HW231029   1.651   2.822   5.277
10044SOL     OW31030   4.945   1.096   6.531
10044SOL    HW131031   4.883   1.104   6.609
10044SOL    HW231032   5.035   1.068   6.563
10045SOL     OW31033   2.425   1.001   1.078
10045SOL    HW131034   2.392   1.055   1.000
10045SOL    HW231035   2.355   1.002   1.150
10046SOL     OW31036   0.536   5.572   1.047
10046SOL    HW131037   0.530   5.496   0.982
10046SOL    HW231038   0.632   5.595   1.062
10047SOL     OW31039   1.804   3.235   0.757
10047SOL    HW131040   1.740   3.197   0.823
10047SOL    HW231041   1.898   3.210   0.782
10048SOL     OW31042   5.686   3.958   1.804
10048SOL    HW131043   5.731   4.039   1.766
10048SOL    HW231044   5.588   3.963   1.786
10049SOL     OW31045   6.272   1.463   5.156
10049SOL    HW131046   6.296   1.401   5.230
10049SOL    HW231047   6.312   1.430   5.070
10050SOL     OW31048   6.602   2.485   6.131
10050SOL    HW131049   6.548   2.403   6.113
10050SOL    HW231050   6.683   2.460   6.184
10051SOL     OW31051   2.190   1.208   3.855
10051SOL    HW131052   2.113   1.150   3.880
10051SOL    HW231053   2.176   1.300   3.890
10052SOL     OW31054   0.948   0.454   4.068
10052SOL    HW131055   0.938   0.355   4.063
10052SOL    HW231056   1.045   0.477   4.075
10053SOL     OW31057   6.043   5.156   2.810
10053SOL    HW131058   6.061   5.058   2.820
10053SOL    HW231059   5.973   5.184   2.875
10054SOL     OW31060   5.931   3.829   4.026
10054SOL    HW131061   6.021   3.786   4.022
10054SOL    HW231062   5.887   3.822   3.937
10055SOL     OW31063   1.815   1.839   6.819
10055SOL    HW131064   1.846   1.896   6.744
10055SOL    HW231065   1.819   1.743   6.792
10056SOL     OW31066   5.528   2.371   4.228
10056SOL    HW131067   5.526   2.280   4.186
10056SOL    HW231068   5.596   2.427   4.181
10057SOL     OW31069   6.165   4.609   5.213
10057SOL    HW131070   6.232   4.596   5.286
10057SOL    HW231071   6.096   4.536   5.217
10058SOL     OW31072   6.650   4.049   4.191
10058SOL    HW131073   6.563   4.077   4.231
10058SOL    HW231074   6.647   3.952   4.169
10059SOL     OW31075   4.905   5.876   6.410
10059SOL    HW131076   5.001   5.852   6.391
10059SOL    HW231077   4.901   5.929   6.495
10060SOL     OW31078   2.907   1.876   2.101
10060SOL    HW131079   2.988   1.933   2.089
10060SOL    HW231080   2.923   1.809   2.173
10061SOL     OW31081   3.858   6.634   3.153
10061SOL    HW131082   3.858   6.576   3.071
10061SOL    HW231083   3.798   6.592   3.222
10062SOL     OW31084   6.684   0.207   4.476
10062SOL    HW131085   6.739   0.126   4.498
10062SOL    HW231086   6.600   0.206   4.530
10063SOL     OW31087   3.288   2.143   4.828
10063SOL    HW131088   3.233   2.170   4.906
10063SOL    HW231089   3.385   2.139   4.855
10064SOL     OW31090   3.001   6.703   2.393
10064SOL    HW131091   3.048   6.624   2.352
10064SOL    HW231092   3.068   6.768   2.428
10065SOL     OW31093   0.004   1.685   2.020
10065SOL    HW131094   6.961   1.640   1.964
10065SOL    HW231095   7.017   1.784   2.017
10066SOL     OW31096   6.190   3.886   3.729
10066SOL    HW131097   6.249   3.938   3.668
10066SOL    HW231098   6.132   3.824   3.676
10067SOL     OW31099   5.827   3.595   5.391
10067SOL    HW131100   5.738   3.595   5.437
10067SOL    HW231101   5.890   3.654   5.440
10068SOL     OW31102   1.885   3.280   2.231
10068SOL    HW131103   1.917   3.327   2.149
10068SOL    HW231104   1.787   3.262   2.223
10069SOL     OW31105   2.691   5.189   1.945
10069SOL    HW131106   2.613   5.127   1.953
10069SOL    HW231107   2.763   5.161   2.008
10070SOL     OW31108   4.624   6.764   0.284
10070SOL    HW131109   4.525   6.768   0.295
10070SOL    HW231110   4.666   6.738   0.371
10071SOL     OW31111   5.394   0.687   5.548
10071SOL    HW131112   5.372   0.592   5.572
10071SOL    HW231113   5.335   0.749   5.598
10072SOL     OW31114   5.793   2.466   2.331
10072SOL    HW131115   5.774   2.388   2.271
10072SOL    HW231116   5.812   2.547   2.276
10073SOL     OW31117   5.448   6.211   5.301
10073SOL    HW131118   5.456   6.292   5.358
10073SOL    HW231119   5.515   6.143   5.329
10074SOL     OW31120   2.209   4.428   0.834
10074SOL    HW131121   2.248   4.366   0.766
10074SOL    HW231122   2.172   4.509   0.789
10075SOL     OW31123   1.237   3.271   2.290
10075SOL    HW131124   1.242   3.368   2.315
10075SOL    HW231125   1.308   3.220   2.339
10076SOL     OW31126   5.624   3.924   3.499
10076SOL    HW131127   5.602   3.840   3.450
10076SOL    HW231128   5.552   3.944   3.565
10077SOL     OW31129   4.115   3.595   6.461
10077SOL    HW131130   4.139   3.640   6.375
10077SOL    HW231131   4.156   3.645   6.537
10078SOL     OW31132   5.671   5.285   4.134
10078SOL    HW131133   5.706   5.352   4.069
10078SOL    HW231134   5.745   5.228   4.168
10079SOL     OW31135   5.059   4.716   2.691
10079SOL    HW131136   5.048   4.776   2.770
10079SOL    HW231137   4.975   4.665   2.675
10080SOL     OW31138   5.249   1.970   5.561
10080SOL    HW131139   5.218   1.891   5.508
10080SOL    HW231140   5.341   1.995   5.532
10081SOL     OW31141   2.080   5.037   0.327
10081SOL    HW131142   2.095   4.985   0.411
10081SOL    HW231143   2.045   4.975   0.256
10082SOL     OW31144   1.100   5.372   1.112
10082SOL    HW131145   1.192   5.333   1.103
10082SOL    HW231146   1.045   5.313   1.171
10083SOL     OW31147   2.846   6.019   2.709
10083SOL    HW131148   2.794   5.934   2.693
10083SOL    HW231149   2.839   6.077   2.628
10084SOL     OW31150   1.624   3.229   4.895
10084SOL    HW131151   1.602   3.175   4.814
10084SOL    HW231152   1.600   3.178   4.977
10085SOL     OW31153   4.037   6.882   1.673
10085SOL    HW131154   4.010   6.930   1.756
10085SOL    HW231155   3.963   6.884   1.607
10086SOL     OW31156   3.244   0.171   2.749
10086SOL    HW131157   3.241   0.240   2.677
10086SOL    HW231158   3.340   0.154   2.775
10087SOL     OW31159   2.000   5.168   5.821
10087SOL    HW131160   1.901   5.156   5.823
10087SOL    HW231161   2.042   5.096   5.765
10088SOL     OW31162   6.480   1.973   0.883
10088SOL    HW131163   6.531   1.994   0.966
10088SOL    HW231164   6.383   1.992   0.898
10089SOL     OW31165   3.950   6.617   1.842
10089SOL    HW131166   3.937   6.679   1.764
10089SOL    HW231167   3.952   6.671   1.927
10090SOL     OW31168   2.384   5.674   2.155
10090SOL    HW131169   2.317   5.710   2.221
10090SOL    HW231170   2.395   5.739   2.080
10091SOL     OW31171   5.439   5.009   3.141
10091SOL    HW131172   5.504   4.995   3.215
10091SOL    HW231173   5.349   4.976   3.170
10092SOL     OW31174   0.390   1.055   2.634
10092SOL    HW131175   0.416   1.016   2.546
10092SOL    HW231176   0.359   1.149   2.622
10093SOL     OW31177   4.752   3.936   6.225
10093SOL    HW131178   4.687   3.956   6.151
10093SOL    HW231179   4.719   3.976   6.310
10094SOL     OW31180   3.271   2.565   0.697
10094SOL    HW131181   3.348   2.566   0.633
10094SOL    HW231182   3.237   2.658   0.709
10095SOL     OW31183   4.536   2.583   5.411
10095SOL    HW131184   4.540   2.531   5.326
10095SOL    HW231185   4.566   2.677   5.394
10096SOL     OW31186   6.649   4.387   2.076
10096SOL    HW131187   6.607   4.343   1.996
10096SOL    HW231188   6.612   4.479   2.087
10097SOL     OW31189   1.189   1.300   1.239
10097SOL    HW131190   1.183   1.201   1.254
10097SOL    HW231191   1.222   1.344   1.323
10098SOL     OW31192   3.784   5.469   0.023
10098SOL    HW131193   3.876   5.502   0.002
10098SOL    HW231194   3.733   5.541   0.070
10099SOL     OW31195   0.274   6.080   3.521
10099SOL    HW131196   0.332   6.051   3.445
10099SOL    HW231197   0.263   6.004   3.585
10100SOL     OW31198   4.746   5.037   3.913
10100SOL    HW131199   4.825   5.088   3.947
10100SOL    HW231200   4.745   4.946   3.953
10101SOL     OW31201   0.169   2.484   6.980
10101SOL    HW131202   0.195   2.425   0.031
10101SOL    HW231203   0.069   2.492   6.977
10102SOL     OW31204   0.005   4.686   2.741
10102SOL    HW131205   6.935   4.673   2.716
10102SOL    HW231206   0.057   4.605   2.716
10103SOL     OW31207   7.016   0.196   6.833
10103SOL    HW131208   0.090   0.201   6.837
10103SOL    HW231209   6.982   0.269   6.773
10104SOL     OW31210   2.620   1.253   4.973
10104SOL    HW131211   2.613   1.345   5.013
10104SOL    HW231212   2.686   1.256   4.898
10105SOL     OW31213   2.943   1.265   4.542
10105SOL    HW131214   2.903   1.355   4.559
10105SOL    HW231215   2.898   1.222   4.464
10106SOL     OW31216   6.025   3.972   0.955
10106SOL    HW131217   5.969   4.034   0.901
10106SOL    HW231218   6.109   4.019   0.983
10107SOL     OW31219   5.312   5.991   6.149
10107SOL    HW131220   5.260   6.019   6.068
10107SOL    HW231221   5.387   6.055   6.164
10108SOL     OW31222   2.366   2.299   5.212
10108SOL    HW131223   2.278   2.340   5.190
10108SOL    HW231224   2.401   2.249   5.133
10109SOL     OW31225   1.074   3.479   0.812
10109SOL    HW131226   0.993   3.537   0.816
10109SOL    HW231227   1.128   3.504   0.732
10110SOL     OW31228   6.159   6.324   2.317
10110SOL    HW131229   6.160   6.375   2.231
10110SOL    HW231230   6.237   6.261   2.319
10111SOL     OW31231   6.890   2.860   1.719
10111SOL    HW131232   6.914   2.813   1.633
10111SOL    HW231233   6.956   2.933   1.737
10112SOL     OW31234   6.937   2.767   4.343
10112SOL    HW131235   6.991   2.850   4.348
10112SOL    HW231236   6.996   2.687   4.355
10113SOL     OW31237   6.712   5.982   6.275
10113SOL    HW131238   6.749   5.908   6.219
10113SOL    HW231239   6.726   6.069   6.229
10114SOL     OW31240   5.138   4.008   1.443
10114SOL    HW131241   5.167   4.071   1.371
10114SOL    HW231242   5.060   4.046   1.492
10115SOL     OW31243   3.418   1.880   6.287
10115SOL    HW131244   3.424   1.784   6.315
10115SOL    HW231245   3.323   1.910   6.294
10116SOL     OW31246   0.273   7.018   6.525
10116SOL    HW131247   0.294   7.018   6.623
10116SOL    HW231248   0.252   0.085   6.496
10117SOL     OW31249   0.241   4.540   1.432
10117SOL    HW131250   0.174   4.517   1.502
10117SOL    HW231251   0.303   4.463   1.418
10118SOL     OW31252   3.988   5.286   3.692
10118SOL    HW131253   3.996   5.238   3.604
10118SOL    HW231254   4.073   5.336   3.710
10119SOL     OW31255   5.922   6.133   6.813
10119SOL    HW131256   6.002   6.103   6.865
10119SOL    HW231257   5.867   6.194   6.870
10120SOL     OW31258   2.550   2.192   3.077
10120SOL    HW131259   2.557   2.176   3.176
10120SOL    HW231260   2.619   2.259   3.049
10121SOL     OW31261   6.419   5.561   1.596
10121SOL    HW131262   6.404   5.659   1.582
10121SOL    HW231263   6.508   5.535   1.557
10122SOL     OW31264   1.934   0.189   3.317
10122SOL    HW131265   1.869   0.253   3.275
10122SOL    HW231266   1.912   0.096   3.288
10123SOL     OW31267   6.091   6.160   6.538
10123SOL    HW131268   6.184   6.125   6.548
10123SOL    HW231269   6.040   6.143   6.623
10124SOL     OW31270   1.504   4.511   3.137
10124SOL    HW131271   1.550   4.587   3.183
10124SOL    HW231272   1.405   4.518   3.153
10125SOL     OW31273   1.938   1.483   4.730
10125SOL    HW131274   1.871   1.555   4.713
10125SOL    HW231275   1.952   1.473   4.829
10126SOL     OW31276   6.679   6.207   4.248
10126SOL    HW131277   6.671   6.148   4.168
10126SOL    HW231278   6.626   6.290   4.234
10127SOL     OW31279   2.441   0.680   4.929
10127SOL    HW131280   2.430   0.748   4.857
10127SOL    HW231281   2.366   0.614   4.924
10128SOL     OW31282   3.159   1.418   0.536
10128SOL    HW131283   3.206   1.343   0.581
10128SOL    HW231284   3.065   1.425   0.571
10129SOL     OW31285   6.676   1.934   5.556
10129SOL    HW131286   6.645   1.941   5.461
10129SOL    HW231287   6.772   1.908   5.559
10130SOL     OW31288   1.410   2.549   3.384
10130SOL    HW131289   1.497   2.579   3.345
10130SOL    HW231290   1.414   2.554   3.483
10131SOL     OW31291   2.028   0.641   5.314
10131SOL    HW131292   2.055   0.732   5.344
10131SOL    HW231293   1.999   0.644   5.219
10132SOL     OW31294   6.020   0.539   2.240
10132SOL    HW131295   5.983   0.617   2.289
10132SOL    HW231296   5.982   0.536   2.148
10133SOL     OW31297   4.546   5.347   0.855
10133SOL    HW131298   4.543   5.249   0.839
10133SOL    HW231299   4.455   5.386   0.840
10134SOL     OW31300   6.781   6.819   3.353
10134SOL    HW131301   6.784   6.758   3.433
10134SOL    HW231302   6.710   6.888   3.367
10135SOL     OW31303   5.987   6.431   3.607
10135SOL    HW131304   5.912   6.434   3.541
10135SOL    HW231305   5.996   6.520   3.651
10136SOL     OW31306   4.761   0.882   3.051
10136SOL    HW131307   4.791   0.789   3.031
10136SOL    HW231308   4.792   0.943   2.978
10137SOL     OW31309   6.635   5.667   2.927
10137SOL    HW131310   6.536   5.656   2.916
10137SOL    HW231311   6.676   5.686   2.838
10138SOL     OW31312   0.261   1.604   2.140
10138SOL    HW131313   0.274   1.514   2.181
10138SOL    HW231314   0.164   1.627   2.139
10139SOL     OW31315   3.178   2.817   0.610
10139SOL    HW131316   3.108   2.827   0.681
10139SOL    HW231317   3.150   2.745   0.546
10140SOL     OW31318   6.081   6.340   4.356
10140SOL    HW131319   6.171   6.370   4.324
10140SOL    HW231320   6.059   6.384   4.443
10141SOL     OW31321   0.818   1.844   4.629
10141SOL    HW131322   0.880   1.913   4.591
10141SOL    HW231323   0.831   1.758   4.581
10142SOL     OW31324   4.163   5.978   1.707
10142SOL    HW131325   4.147   5.911   1.779
10142SOL    HW231326   4.090   6.046   1.708
10143SOL     OW31327   6.398   3.536   6.850
10143SOL    HW131328   6.324   3.481   6.810
10143SOL    HW231329   6.394   3.529   6.949
10144SOL     OW31330   4.098   0.858   1.264
10144SOL    HW131331   4.153   0.877   1.346
10144SOL    HW231332   4.143   0.788   1.209
10145SOL     OW31333   6.581   0.283   5.070
10145SOL    HW131334   6.483   0.272   5.086
10145SOL    HW231335   6.596   0.356   5.003
10146SOL     OW31336   1.814   2.087   5.278
10146SOL    HW131337   1.907   2.063   5.306
10146SOL    HW231338   1.753   2.078   5.357
10147SOL     OW31339   3.488   5.103   0.575
10147SOL    HW131340   3.564   5.043   0.600
10147SOL    HW231341   3.495   5.189   0.625
10148SOL     OW31342   0.372   5.425   6.360
10148SOL    HW131343   0.377   5.504   6.422
10148SOL    HW231344   0.298   5.364   6.389
10149SOL     OW31345   3.040   3.405   3.687
10149SOL    HW131346   3.006   3.315   3.660
10149SOL    HW231347   2.998   3.475   3.628
10150SOL     OW31348   5.593   4.477   0.812
10150SOL    HW131349   5.544   4.508   0.730
10150SOL    HW231350   5.534   4.415   0.864
10151SOL     OW31351   0.577   0.810   0.458
10151SOL    HW131352   0.648   0.879   0.449
10151SOL    HW231353   0.511   0.839   0.528
10152SOL     OW31354   3.485   6.286   3.788
10152SOL    HW131355   3.532   6.223   3.726
10152SOL    HW231356   3.402   6.320   3.743
10153SOL     OW31357   4.808   3.835   1.292
10153SOL    HW131358   4.767   3.903   1.353
10153SOL    HW231359   4.833   3.754   1.346
10154SOL     OW31360   4.615   5.399   5.522
10154SOL    HW131361   4.574   5.374   5.609
10154SOL    HW231362   4.544   5.401   5.451
10155SOL     OW31363   4.512   2.417   4.507
10155SOL    HW131364   4.462   2.379   4.584
10155SOL    HW231365   4.562   2.499   4.537
10156SOL     OW31366   3.280   1.829   6.576
10156SOL    HW131367   3.328   1.834   6.663
10156SOL    HW231368   3.217   1.906   6.568
10157SOL     OW31369   1.109   4.987   1.267
10157SOL    HW131370   1.175   5.007   1.194
10157SOL    HW231371   1.024   5.037   1.249
10158SOL     OW31372   5.916   4.927   6.654
10158SOL    HW131373   5.985   4.871   6.701
10158SOL    HW231374   5.887   4.882   6.570
10159SOL     OW31375   3.617   3.092   1.648
10159SOL    HW131376   3.596   2.996   1.629
10159SOL    HW231377   3.663   3.099   1.737
10160SOL     OW31378   6.989   4.120   2.196
10160SOL    HW131379   6.908   4.101   2.140
10160SOL    HW231380   0.011   4.034   2.215
10161SOL     OW31381   6.429   2.735   0.067
10161SOL    HW131382   6.350   2.774   0.113
10161SOL    HW231383   6.427   2.761   6.996
10162SOL     OW31384   2.389   2.611   2.367
10162SOL    HW131385   2.427   2.563   2.287
10162SOL    HW231386   2.457   2.674   2.403
10163SOL     OW31387   3.660   5.236   5.268
10163SOL    HW131388   3.667   5.163   5.337
10163SOL    HW231389   3.598   5.207   5.196
10164SOL     OW31390   0.075   0.525   4.240
10164SOL    HW131391   0.146   0.557   4.302
10164SOL    HW231392   0.012   0.465   4.289
10165SOL     OW31393   2.143   3.574   3.559
10165SOL    HW131394   2.148   3.637   3.482
10165SOL    HW231395   2.129   3.481   3.525
10166SOL     OW31396   2.932   6.339   3.115
10166SOL    HW131397   3.010   6.318   3.056
10166SOL    HW231398   2.861   6.269   3.103
10167SOL     OW31399   3.866   1.380   6.785
10167SOL    HW131400   3.944   1.429   6.745
10167SOL    HW231401   3.895   1.289   6.814
10168SOL     OW31402   1.007   1.292   6.396
10168SOL    HW131403   0.942   1.291   6.471
10168SOL    HW231404   1.067   1.212   6.402
10169SOL     OW31405   4.447   4.850   2.318
10169SOL    HW131406   4.357   4.812   2.296
10169SOL    HW231407   4.492   4.791   2.384
10170SOL     OW31408   4.803   6.395   0.179
10170SOL    HW131409   4.880   6.420   0.120
10170SOL    HW231410   4.722   6.446   0.151
10171SOL     OW31411   1.339   4.083   3.198
10171SOL    HW131412   1.319   4.072   3.100
10171SOL    HW231413   1.436   4.105   3.209
10172SOL     OW31414   0.803   1.313   2.980
10172SOL    HW131415   0.874   1.382   2.964
10172SOL    HW231416   0.801   1.289   3.077
10173SOL     OW31417   4.474   2.895   5.247
10173SOL    HW131418   4.533   2.890   5.327
10173SOL    HW231419   4.431   2.985   5.242
10174SOL     OW31420   5.059   4.858   1.349
10174SOL    HW131421   5.020   4.888   1.263
10174SOL    HW231422   4.986   4.840   1.415
10175SOL     OW31423   6.635   6.900   3.914
10175SOL    HW131424   6.675   6.984   3.950
10175SOL    HW231425   6.535   6.905   3.922
10176SOL     OW31426   6.935   1.356   5.293
10176SOL    HW131427   6.840   1.386   5.289
10176SOL    HW231428   6.944   1.283   5.361
10177SOL     OW31429   3.332   1.074   4.372
10177SOL    HW131430   3.382   1.083   4.286
10177SOL    HW231431   3.246   1.124   4.366
10178SOL     OW31432   6.705   1.686   2.162
10178SOL    HW131433   6.681   1.783   2.168
10178SOL    HW231434   6.793   1.671   2.208
10179SOL     OW31435   0.124   5.973   0.754
10179SOL    HW131436   0.172   6.026   0.823
10179SOL    HW231437   0.132   5.876   0.773
10180SOL     OW31438   2.605   0.211   6.200
10180SOL    HW131439   2.566   0.284   6.255
10180SOL    HW231440   2.696   0.187   6.236
10181SOL     OW31441   6.548   4.005   2.154
10181SOL    HW131442   6.577   4.042   2.242
10181SOL    HW231443   6.609   3.929   2.129
10182SOL     OW31444   3.961   0.105   6.776
10182SOL    HW131445   3.879   0.083   6.723
10182SOL    HW231446   3.998   0.021   6.816
10183SOL     OW31447   3.839   6.196   5.955
10183SOL    HW131448   3.898   6.249   5.895
10183SOL    HW231449   3.883   6.185   6.044
10184SOL     OW31450   5.206   2.399   4.487
10184SOL    HW131451   5.304   2.405   4.508
10184SOL    HW231452   5.153   2.401   4.572
10185SOL     OW31453   2.991   4.850   1.888
10185SOL    HW131454   2.930   4.771   1.896
10185SOL    HW231455   2.939   4.930   1.859
10186SOL     OW31456   3.382   3.109   1.328
10186SOL    HW131457   3.411   3.026   1.376
10186SOL    HW231458   3.405   3.189   1.384
10187SOL     OW31459   1.819   3.764   5.666
10187SOL    HW131460   1.899   3.744   5.609
10187SOL    HW231461   1.812   3.863   5.680
10188SOL     OW31462   2.198   0.303   6.751
10188SOL    HW131463   2.147   0.385   6.777
10188SOL    HW231464   2.140   0.243   6.696
10189SOL     OW31465   2.046   2.267   5.380
10189SOL    HW131466   2.095   2.206   5.318
10189SOL    HW231467   1.972   2.313   5.331
10190SOL     OW31468   3.602   4.086   0.176
10190SOL    HW131469   3.523   4.128   0.219
10190SOL    HW231470   3.583   3.990   0.156
10191SOL     OW31471   5.710   0.700   0.243
10191SOL    HW131472   5.779   0.757   0.197
10191SOL    HW231473   5.628   0.754   0.260
10192SOL     OW31474   2.478   0.423   4.149
10192SOL    HW131475   2.569   0.400   4.182
10192SOL    HW231476   2.409   0.383   4.210
10193SOL     OW31477   3.959   3.668   3.614
10193SOL    HW131478   4.008   3.623   3.539
10193SOL    HW231479   3.927   3.599   3.679
10194SOL     OW31480   2.815   5.728   3.465
10194SOL    HW131481   2.794   5.760   3.373
10194SOL    HW231482   2.802   5.804   3.530
10195SOL     OW31483   5.054   0.440   2.739
10195SOL    HW131484   5.152   0.447   2.718
10195SOL    HW231485   5.037   0.474   2.831
10196SOL     OW31486   4.820   4.635   3.803
10196SOL    HW131487   4.843   4.541   3.777
10196SOL    HW231488   4.862   4.656   3.891
10197SOL     OW31489   5.185   1.693   2.960
10197SOL    HW131490   5.159   1.783   2.925
10197SOL    HW231491   5.103   1.636   2.968
10198SOL     OW31492   3.013   1.686   1.725
10198SOL    HW131493   2.926   1.726   1.757
10198SOL    HW231494   3.007   1.587   1.730
10199SOL     OW31495   1.268   2.064   0.071
10199SOL    HW131496   1.231   2.150   0.106
10199SOL    HW231497   1.217   2.035   7.017
10200SOL     OW31498   6.156   6.730   3.500
10200SOL    HW131499   6.162   6.826   3.474
10200SOL    HW231500   6.093   6.720   3.577
10201SOL     OW31501   1.252   4.873   2.540
10201SOL    HW131502   1.346   4.863   2.508
10201SOL    HW231503   1.225   4.969   2.533
10202SOL     OW31504   1.132   2.572   3.475
10202SOL    HW131505   1.223   2.610   3.458
10202SOL    HW231506   1.068   2.609   3.408
10203SOL     OW31507   0.009   2.463   0.954
10203SOL    HW131508   7.008   2.486   0.861
10203SOL    HW231509   0.056   2.374   0.955
10204SOL     OW31510   1.936   5.932   4.311
10204SOL    HW131511   1.962   5.975   4.398
10204SOL    HW231512   1.870   5.990   4.264
10205SOL     OW31513   3.445   0.069   1.080
10205SOL    HW131514   3.483   0.158   1.106
10205SOL    HW231515   3.347   0.069   1.097
10206SOL     OW31516   5.770   6.376   0.200
10206SOL    HW131517   5.696   6.408   0.142
10206SOL    HW231518   5.824   6.308   0.151
10207SOL     OW31519   3.293   1.208   2.560
10207SOL    HW131520   3.295   1.308   2.554
10207SOL    HW231521   3.237   1.181   2.638
10208SOL     OW31522   6.845   2.721   6.207
10208SOL    HW131523   6.879   2.815   6.207
10208SOL    HW231524   6.748   2.721   6.233
10209SOL     OW31525   3.701   6.420   6.758
10209SOL    HW131526   3.654   6.339   6.796
10209SOL    HW231527   3.646   6.457   6.683
10210SOL     OW31528   4.712   6.083   6.381
10210SOL    HW131529   4.804   6.044   6.370
10210SOL    HW231530   4.700   6.113   6.476
10211SOL     OW31531   3.368   5.210   5.490
10211SOL    HW131532   3.387   5.199   5.393
10211SOL    HW231533   3.276   5.247   5.502
10212SOL     OW31534   6.159   6.053   5.665
10212SOL    HW131535   6.247   6.036   5.709
10212SOL    HW231536   6.165   6.135   5.608
10213SOL     OW31537   3.952   6.746   4.500
10213SOL    HW131538   4.052   6.745   4.499
10213SOL    HW231539   3.919   6.695   4.579
10214SOL     OW31540   0.163   0.566   0.164
10214SOL    HW131541   0.256   0.579   0.131
10214SOL    HW231542   0.136   0.644   0.220
10215SOL     OW31543   4.403   2.595   0.499
10215SOL    HW131544   4.310   2.562   0.517
10215SOL    HW231545   4.462   2.572   0.576
10216SOL     OW31546   4.697   0.573   2.741
10216SOL    HW131547   4.774   0.574   2.804
10216SOL    HW231548   4.722   0.522   2.658
10217SOL     OW31549   3.584   2.411   5.846
10217SOL    HW131550   3.666   2.354   5.851
10217SOL    HW231551   3.588   2.469   5.765
10218SOL     OW31552   3.928   0.733   6.461
10218SOL    HW131553   4.009   0.777   6.499
10218SOL    HW231554   3.860   0.720   6.533
10219SOL     OW31555   0.366   4.951   6.914
10219SOL    HW131556   0.286   4.969   6.856
10219SOL    HW231557   0.335   4.916   7.002
10220SOL     OW31558   4.339   2.347   6.683
10220SOL    HW131559   4.350   2.430   6.738
10220SOL    HW231560   4.245   2.343   6.647
10221SOL     OW31561   2.162   0.832   4.295
10221SOL    HW131562   2.216   0.911   4.325
10221SOL    HW231563   2.079   0.826   4.350
10222SOL     OW31564   2.229   4.692   5.282
10222SOL    HW131565   2.178   4.770   5.246
10222SOL    HW231566   2.185   4.607   5.253
10223SOL     OW31567   1.131   4.982   6.044
10223SOL    HW131568   1.064   4.916   6.009
10223SOL    HW231569   1.199   4.934   6.099
10224SOL     OW31570   2.743   6.212   5.470
10224SOL    HW131571   2.736   6.119   5.436
10224SOL    HW231572   2.659   6.262   5.447
10225SOL     OW31573   5.365   6.864   4.536
10225SOL    HW131574   5.379   6.765   4.547
10225SOL    HW231575   5.453   6.909   4.522
10226SOL     OW31576   6.996   2.525   6.124
10226SOL    HW131577   6.932   2.593   6.160
10226SOL    HW231578   7.002   2.448   6.187
10227SOL     OW31579   4.853   4.356   5.318
10227SOL    HW131580   4.936   4.314   5.356
10227SOL    HW231581   4.779   4.348   5.384
10228SOL     OW31582   0.673   3.139   1.812
10228SOL    HW131583   0.644   3.043   1.815
10228SOL    HW231584   0.672   3.177   1.905
10229SOL     OW31585   2.977   0.958   2.052
10229SOL    HW131586   3.054   1.008   2.092
10229SOL    HW231587   2.893   0.981   2.101
10230SOL     OW31588   5.337   6.468   3.431
10230SOL    HW131589   5.270   6.541   3.444
10230SOL    HW231590   5.426   6.509   3.410
10231SOL     OW31591   4.623   6.188   4.304
10231SOL    HW131592   4.593   6.226   4.217
10231SOL    HW231593   4.639   6.262   4.369
10232SOL     OW31594   4.339   2.287   3.201
10232SOL    HW131595   4.306   2.307   3.293
10232SOL    HW231596   4.277   2.328   3.134
10233SOL     OW31597   4.600   6.157   5.496
10233SOL    HW131598   4.598   6.216   5.576
10233SOL    HW231599   4.673   6.187   5.434
10234SOL     OW31600   4.007   4.717   1.325
10234SOL    HW131601   4.020   4.786   1.253
10234SOL    HW231602   3.986   4.762   1.412
10235SOL     OW31603   4.804   0.427   0.267
10235SOL    HW131604   4.841   0.481   0.192
10235SOL    HW231605   4.855   0.341   0.275
10236SOL     OW31606   1.680   5.703   1.173
10236SOL    HW131607   1.713   5.792   1.141
10236SOL    HW231608   1.665   5.643   1.094
10237SOL     OW31609   5.760   2.623   2.831
10237SOL    HW131610   5.708   2.631   2.916
10237SOL    HW231611   5.820   2.703   2.821
10238SOL     OW31612   4.825   5.503   6.334
10238SOL    HW131613   4.782   5.592   6.346
10238SOL    HW231614   4.763   5.431   6.365
10239SOL     OW31615   5.451   3.430   4.377
10239SOL    HW131616   5.425   3.507   4.319
10239SOL    HW231617   5.545   3.443   4.409
10240SOL     OW31618   4.851   3.929   3.017
10240SOL    HW131619   4.870   3.975   3.103
10240SOL    HW231620   4.881   3.834   3.023
10241SOL     OW31621   1.287   2.478   2.379
10241SOL    HW131622   1.274   2.498   2.476
10241SOL    HW231623   1.208   2.427   2.345
10242SOL     OW31624   1.538   5.244   6.427
10242SOL    HW131625   1.625   5.270   6.386
10242SOL    HW231626   1.554   5.177   6.499
10243SOL     OW31627   0.490   5.754   3.499
10243SOL    HW131628   0.411   5.696   3.522
10243SOL    HW231629   0.533   5.719   3.416
10244SOL     OW31630   2.313   5.909   6.725
10244SOL    HW131631   2.345   5.816   6.711
10244SOL    HW231632   2.214   5.912   6.717
10245SOL     OW31633   2.835   3.033   0.672
10245SOL    HW131634   2.800   3.124   0.650
10245SOL    HW231635   2.794   2.966   0.611
10246SOL     OW31636   3.508   4.208   4.841
10246SOL    HW131637   3.475   4.142   4.907
10246SOL    HW231638   3.484   4.300   4.871
10247SOL     OW31639   1.010   6.061   6.392
10247SOL    HW131640   1.045   6.002   6.464
10247SOL    HW231641   1.053   6.151   6.399
10248SOL     OW31642   5.920   0.682   3.338
10248SOL    HW131643   5.907   0.771   3.382
10248SOL    HW231644   6.004   0.683   3.284
10249SOL     OW31645   4.530   0.939   5.930
10249SOL    HW131646   4.615   0.897   5.963
10249SOL    HW231647   4.505   1.015   5.991
10250SOL     OW31648   4.292   5.770   0.857
10250SOL    HW131649   4.328   5.786   0.765
10250SOL    HW231650   4.341   5.827   0.922
10251SOL     OW31651   4.089   4.429   1.658
10251SOL    HW131652   4.183   4.398   1.642
10251SOL    HW231653   4.032   4.352   1.686
10252SOL     OW31654   0.128   3.759   1.083
10252SOL    HW131655   0.106   3.712   1.169
10252SOL    HW231656   0.224   3.741   1.060
10253SOL     OW31657   4.137   4.335   0.350
10253SOL    HW131658   4.168   4.244   0.320
10253SOL    HW231659   4.155   4.402   0.278
10254SOL     OW31660   2.511   2.088   5.045
10254SOL    HW131661   2.469   2.041   5.123
10254SOL    HW231662   2.608   2.068   5.041
10255SOL     OW31663   3.146   4.868   3.978
10255SOL    HW131664   3.103   4.895   4.065
10255SOL    HW231665   3.245   4.863   3.990
10256SOL     OW31666   5.107   6.173   0.598
10256SOL    HW131667   5.055   6.196   0.516
10256SOL    HW231668   5.055   6.107   0.653
10257SOL     OW31669   2.023   4.867   5.635
10257SOL    HW131670   1.992   4.795   5.696
10257SOL    HW231671   1.957   4.878   5.561
10258SOL     OW31672   4.251   0.947   2.586
10258SOL    HW131673   4.307   1.025   2.616
10258SOL    HW231674   4.164   0.981   2.552
10259SOL     OW31675   6.773   3.122   4.375
10259SOL    HW131676   6.818   3.090   4.459
10259SOL    HW231677   6.821   3.086   4.296
10260SOL     OW31678   0.044   5.531   2.028
10260SOL    HW131679   0.073   5.461   1.964
10260SOL    HW231680   0.010   5.488   2.112
10261SOL     OW31681   2.132   0.596   1.866
10261SOL    HW131682   2.199   0.554   1.927
10261SOL    HW231683   2.177   0.622   1.780
10262SOL     OW31684   0.676   6.192   4.082
10262SOL    HW131685   0.639   6.205   3.991
10262SOL    HW231686   0.601   6.179   4.148
10263SOL     OW31687   6.628   3.011   4.853
10263SOL    HW131688   6.642   2.945   4.779
10263SOL    HW231689   6.666   3.100   4.826
10264SOL     OW31690   0.663   0.074   0.496
10264SOL    HW131691   0.636   7.005   0.485
10264SOL    HW231692   0.608   0.132   0.437
10265SOL     OW31693   5.220   2.526   4.231
10265SOL    HW131694   5.230   2.625   4.245
10265SOL    HW231695   5.218   2.480   4.319
10266SOL     OW31696   3.560   3.551   6.825
10266SOL    HW131697   3.504   3.613   6.770
10266SOL    HW231698   3.531   3.457   6.809
10267SOL     OW31699   6.562   1.056   6.522
10267SOL    HW131700   6.655   1.033   6.552
10267SOL    HW231701   6.567   1.121   6.446
10268SOL     OW31702   6.801   3.810   0.328
10268SOL    HW131703   6.869   3.812   0.402
10268SOL    HW231704   6.754   3.899   0.323
10269SOL     OW31705   3.869   1.367   6.255
10269SOL    HW131706   3.872   1.346   6.352
10269SOL    HW231707   3.921   1.450   6.237
10270SOL     OW31708   3.523   5.815   2.554
10270SOL    HW131709   3.480   5.892   2.603
10270SOL    HW231710   3.620   5.812   2.575
10271SOL     OW31711   1.937   4.580   1.393
10271SOL    HW131712   1.965   4.586   1.489
10271SOL    HW231713   1.837   4.580   1.387
10272SOL     OW31714   1.757   2.139   4.176
10272SOL    HW131715   1.826   2.135   4.248
10272SOL    HW231716   1.730   2.234   4.161
10273SOL     OW31717   4.295   6.218   3.551
10273SOL    HW131718   4.199   6.217   3.524
10273SOL    HW231719   4.329   6.312   3.555
10274SOL     OW31720   2.507   4.455   6.539
10274SOL    HW131721   2.478   4.385   6.604
10274SOL    HW231722   2.598   4.488   6.563
10275SOL     OW31723   0.687   6.204   1.769
10275SOL    HW131724   0.652   6.183   1.860
10275SOL    HW231725   0.615   6.246   1.714
10276SOL     OW31726   1.168   6.935   0.665
10276SOL    HW131727   1.086   6.919   0.721
10276SOL    HW231728   1.183   6.856   0.605
10277SOL     OW31729   6.929   6.067   2.415
10277SOL    HW131730   6.884   6.039   2.501
10277SOL    HW231731   6.898   6.157   2.388
10278SOL     OW31732   6.184   0.989   5.510
10278SOL    HW131733   6.130   0.922   5.561
10278SOL    HW231734   6.231   0.944   5.435
10279SOL     OW31735   3.670   6.070   4.467
10279SOL    HW131736   3.614   6.045   4.388
10279SOL    HW231737   3.751   6.121   4.436
10280SOL     OW31738   2.343   2.620   0.074
10280SOL    HW131739   2.380   2.700   0.122
10280SOL    HW231740   2.331   2.545   0.139
10281SOL     OW31741   4.848   0.756   4.438
10281SOL    HW131742   4.947   0.749   4.432
10281SOL    HW231743   4.806   0.717   4.356
10282SOL     OW31744   1.464   3.009   4.104
10282SOL    HW131745   1.415   3.063   4.173
10282SOL    HW231746   1.557   2.989   4.137
10283SOL     OW31747   1.493   5.133   6.018
10283SOL    HW131748   1.418   5.147   5.953
10283SOL    HW231749   1.499   5.213   6.079
10284SOL     OW31750   5.303   3.073   6.727
10284SOL    HW131751   5.351   3.123   6.654
10284SOL    HW231752   5.205   3.080   6.712
10285SOL     OW31753   5.264   1.553   1.385
10285SOL    HW131754   5.270   1.635   1.442
10285SOL    HW231755   5.187   1.561   1.322
10286SOL     OW31756   3.870   0.279   3.854
10286SOL    HW131757   3.963   0.316   3.860
10286SOL    HW231758   3.874   0.181   3.837
10287SOL     OW31759   2.069   4.409   1.846
10287SOL    HW131760   2.016   4.333   1.808
10287SOL    HW231761   2.166   4.391   1.833
10288SOL     OW31762   3.880   5.920   4.206
10288SOL    HW131763   3.782   5.941   4.205
10288SOL    HW231764   3.928   5.991   4.257
10289SOL     OW31765   2.899   1.626   1.455
10289SOL    HW131766   2.847   1.652   1.374
10289SOL    HW231767   2.936   1.708   1.500
10290SOL     OW31768   3.197   2.970   3.326
10290SOL    HW131769   3.186   3.059   3.370
10290SOL    HW231770   3.120   2.910   3.351
10291SOL     OW31771   3.844   0.291   4.347
10291SOL    HW131772   3.898   0.208   4.364
10291SOL    HW231773   3.808   0.288   4.253
10292SOL     OW31774   6.785   2.569   4.106
10292SOL    HW131775   6.851   2.598   4.036
10292SOL    HW231776   6.731   2.648   4.135
10293SOL     OW31777   2.002   4.717   2.797
10293SOL    HW131778   2.011   4.799   2.853
10293SOL    HW231779   2.073   4.718   2.726
10294SOL     OW31780   5.668   0.901   3.296
10294SOL    HW131781   5.715   0.849   3.225
10294SOL    HW231782   5.620   0.838   3.357
10295SOL     OW31783   1.835   3.797   4.172
10295SOL    HW131784   1.770   3.853   4.223
10295SOL    HW231785   1.928   3.815   4.203
10296SOL     OW31786   6.111   3.324   1.581
10296SOL    HW131787   6.083   3.396   1.644
10296SOL    HW231788   6.064   3.239   1.604
10297SOL     OW31789   3.591   5.015   5.491
10297SOL    HW131790   3.494   5.019   5.515
10297SOL    HW231791   3.646   5.050   5.566
10298SOL     OW31792   6.285   3.125   2.683
10298SOL    HW131793   6.369   3.155   2.728
10298SOL    HW231794   6.208   3.137   2.745
10299SOL     OW31795   4.170   4.684   2.167
10299SOL    HW131796   4.225   4.601   2.161
10299SOL    HW231797   4.202   4.751   2.099
10300SOL     OW31798   0.623   6.092   2.023
10300SOL    HW131799   0.703   6.047   2.062
10300SOL    HW231800   0.559   6.116   2.097
10301SOL     OW31801   4.581   0.249   1.970
10301SOL    HW131802   4.663   0.225   2.021
10301SOL    HW231803   4.605   0.271   1.876
10302SOL     OW31804   1.365   4.029   3.683
10302SOL    HW131805   1.397   4.123   3.672
10302SOL    HW231806   1.315   4.001   3.601
10303SOL     OW31807   4.563   3.122   1.408
10303SOL    HW131808   4.555   3.048   1.341
10303SOL    HW231809   4.473   3.161   1.425
10304SOL     OW31810   5.632   5.817   3.475
10304SOL    HW131811   5.674   5.758   3.406
10304SOL    HW231812   5.547   5.775   3.507
10305SOL     OW31813   2.156   5.476   1.365
10305SOL    HW131814   2.216   5.403   1.398
10305SOL    HW231815   2.198   5.565   1.381
10306SOL     OW31816   4.221   4.150   0.036
10306SOL    HW131817   4.163   4.155   6.980
10306SOL    HW231818   4.170   4.106   0.110
10307SOL     OW31819   2.449   1.883   6.157
10307SOL    HW131820   2.384   1.829   6.211
10307SOL    HW231821   2.542   1.867   6.191
10308SOL     OW31822   2.818   4.981   4.378
10308SOL    HW131823   2.887   4.951   4.444
10308SOL    HW231824   2.781   4.901   4.331
10309SOL     OW31825   0.560   6.675   3.577
10309SOL    HW131826   0.488   6.695   3.643
10309SOL    HW231827   0.647   6.661   3.625
10310SOL     OW31828   3.570   4.079   4.613
10310SOL    HW131829   3.545   4.128   4.530
10310SOL    HW231830   3.532   4.127   4.693
10311SOL     OW31831   0.905   0.466   1.231
10311SOL    HW131832   0.853   0.439   1.312
10311SOL    HW231833   0.943   0.384   1.188
10312SOL     OW31834   2.790   4.862   0.697
10312SOL    HW131835   2.693   4.854   0.674
10312SOL    HW231836   2.845   4.825   0.621
10313SOL     OW31837   6.605   5.694   4.083
10313SOL    HW131838   6.568   5.786   4.096
10313SOL    HW231839   6.705   5.698   4.081
10314SOL     OW31840   6.958   5.816   5.495
10314SOL    HW131841   6.994   5.805   5.588
10314SOL    HW231842   6.910   5.903   5.487
10315SOL     OW31843   4.678   6.330   5.710
10315SOL    HW131844   4.733   6.385   5.647
10315SOL    HW231845   4.631   6.390   5.774
10316SOL     OW31846   0.566   4.054   3.686
10316SOL    HW131847   0.574   4.142   3.638
10316SOL    HW231848   0.637   4.046   3.755
10317SOL     OW31849   5.526   4.330   6.577
10317SOL    HW131850   5.499   4.269   6.651
10317SOL    HW231851   5.472   4.309   6.495
10318SOL     OW31852   5.387   4.724   2.939
10318SOL    HW131853   5.379   4.822   2.959
10318SOL    HW231854   5.307   4.676   2.976
10319SOL     OW31855   4.991   6.900   3.432
10319SOL    HW131856   4.958   6.811   3.398
10319SOL    HW231857   4.929   6.972   3.402
10320SOL     OW31858   3.945   6.341   1.784
10320SOL    HW131859   3.930   6.437   1.810
10320SOL    HW231860   3.892   6.321   1.701
10321SOL     OW31861   4.850   6.254   4.498
10321SOL    HW131862   4.881   6.310   4.422
10321SOL    HW231863   4.782   6.304   4.552
10322SOL     OW31864   7.010   1.588   7.017
10322SOL    HW131865   6.954   1.668   0.012
10322SOL    HW231866   0.063   1.586   0.052
10323SOL     OW31867   0.841   2.171   5.187
10323SOL    HW131868   0.909   2.169   5.261
10323SOL    HW231869   0.782   2.091   5.193
10324SOL     OW31870   3.112   3.029   4.167
10324SOL    HW131871   3.025   2.984   4.186
10324SOL    HW231872   3.126   3.104   4.231
10325SOL     OW31873   0.710   3.226   3.685
10325SOL    HW131874   0.681   3.320   3.702
10325SOL    HW231875   0.800   3.210   3.726
10326SOL     OW31876   5.710   1.878   1.654
10326SOL    HW131877   5.736   1.931   1.574
10326SOL    HW231878   5.790   1.863   1.712
10327SOL     OW31879   6.248   1.638   3.619
10327SOL    HW131880   6.148   1.644   3.614
10327SOL    HW231881   6.279   1.673   3.708
10328SOL     OW31882   6.605   3.843   2.472
10328SOL    HW131883   6.659   3.771   2.516
10328SOL    HW231884   6.664   3.922   2.453
10329SOL     OW31885   3.160   5.491   3.156
10329SOL    HW131886   3.219   5.469   3.078
10329SOL    HW231887   3.216   5.499   3.238
10330SOL     OW31888   2.796   4.048   0.873
10330SOL    HW131889   2.860   4.122   0.892
10330SOL    HW231890   2.729   4.040   0.947
10331SOL     OW31891   5.078   1.557   4.398
10331SOL    HW131892   5.117   1.467   4.376
10331SOL    HW231893   5.110   1.624   4.330
10332SOL     OW31894   1.420   2.548   6.697
10332SOL    HW131895   1.505   2.599   6.679
10332SOL    HW231896   1.443   2.458   6.733
10333SOL     OW31897   6.800   4.689   5.261
10333SOL    HW131898   6.858   4.609   5.279
10333SOL    HW231899   6.809   4.716   5.165
10334SOL     OW31900   0.470   4.983   5.286
10334SOL    HW131901   0.514   5.036   5.214
10334SOL    HW231902   0.374   4.969   5.262
10335SOL     OW31903   3.003   5.197   3.569
10335SOL    HW131904   2.910   5.177   3.599
10335SOL    HW231905   3.003   5.217   3.471
10336SOL     OW31906   4.648   7.012   2.869
10336SOL    HW131907   4.671   7.012   2.772
10336SOL    HW231908   4.587   0.063   2.889
10337SOL     OW31909   1.429   3.804   6.254
10337SOL    HW131910   1.424   3.898   6.287
10337SOL    HW231911   1.516   3.764   6.283
10338SOL     OW31912   2.669   4.631   2.590
10338SOL    HW131913   2.579   4.594   2.567
10338SOL    HW231914   2.716   4.656   2.506
10339SOL     OW31915   3.188   5.925   6.951
10339SOL    HW131916   3.224   5.832   6.943
10339SOL    HW231917   3.263   5.991   6.940
10340SOL     OW31918   1.728   6.514   0.869
10340SOL    HW131919   1.746   6.539   0.964
10340SOL    HW231920   1.676   6.429   0.866
10341SOL     OW31921   0.638   2.877   1.842
10341SOL    HW131922   0.695   2.815   1.896
10341SOL    HW231923   0.545   2.876   1.877
10342SOL     OW31924   2.873   5.436   4.189
10342SOL    HW131925   2.898   5.390   4.274
10342SOL    HW231926   2.786   5.483   4.201
10343SOL     OW31927   2.494   2.505   4.790
10343SOL    HW131928   2.538   2.489   4.878
10343SOL    HW231929   2.429   2.431   4.772
10344SOL     OW31930   4.483   3.511   1.457
10344SOL    HW131931   4.436   3.583   1.406
10344SOL    HW231932   4.520   3.549   1.542
10345SOL     OW31933   3.701   1.660   6.485
10345SOL    HW131934   3.678   1.736   6.545
10345SOL    HW231935   3.625   1.640   6.424
10346SOL     OW31936   6.345   5.752   0.437
10346SOL    HW131937   6.357   5.849   0.457
10346SOL    HW231938   6.262   5.738   0.383
10347SOL     OW31939   4.347   0.101   1.891
10347SOL    HW131940   4.429   0.148   1.922
10347SOL    HW231941   4.372   0.024   1.832
10348SOL     OW31942   6.967   3.984   5.773
10348SOL    HW131943   0.030   3.939   5.791
10348SOL    HW231944   6.899   3.914   5.752
10349SOL     OW31945   6.023   1.945   0.201
10349SOL    HW131946   6.033   1.862   0.255
10349SOL    HW231947   6.030   1.924   0.104
10350SOL     OW31948   1.875   4.933   4.291
10350SOL    HW131949   1.791   4.890   4.322
10350SOL    HW231950   1.869   4.950   4.192
10351SOL     OW31951   3.878   5.274   5.114
10351SOL    HW131952   3.850   5.308   5.025
10351SOL    HW231953   3.797   5.263   5.172
10352SOL     OW31954   0.037   1.236   1.452
10352SOL    HW131955   0.062   1.201   1.362
10352SOL    HW231956   0.114   1.286   1.492
10353SOL     OW31957   5.906   3.304   3.506
10353SOL    HW131958   5.913   3.205   3.499
10353SOL    HW231959   5.822   3.328   3.557
10354SOL     OW31960   6.869   3.059   1.209
10354SOL    HW131961   6.876   3.131   1.277
10354SOL    HW231962   6.794   3.080   1.146
10355SOL     OW31963   0.436   1.856   0.881
10355SOL    HW131964   0.339   1.841   0.898
10355SOL    HW231965   0.486   1.772   0.898
10356SOL     OW31966   5.970   2.158   6.916
10356SOL    HW131967   6.019   2.081   6.875
10356SOL    HW231968   5.891   2.123   6.966
10357SOL     OW31969   0.287   0.485   6.352
10357SOL    HW131970   0.381   0.462   6.378
10357SOL    HW231971   0.284   0.507   6.254
10358SOL     OW31972   0.679   2.579   4.058
10358SOL    HW131973   0.757   2.623   4.014
10358SOL    HW231974   0.712   2.506   4.118
10359SOL     OW31975   0.552   2.661   2.349
10359SOL    HW131976   0.590   2.612   2.428
10359SOL    HW231977   0.598   2.749   2.338
10360SOL     OW31978   5.803   4.421   0.962
10360SOL    HW131979   5.712   4.426   0.922
10360SOL    HW231980   5.870   4.400   0.890
10361SOL     OW31981   5.871   1.954   2.729
10361SOL    HW131982   5.858   2.028   2.795
10361SOL    HW231983   5.896   1.870   2.777
10362SOL     OW31984   0.460   6.108   1.430
10362SOL    HW131985   0.519   6.163   1.371
10362SOL    HW231986   0.490   6.012   1.427
10363SOL     OW31987   5.630   4.864   6.036
10363SOL    HW131988   5.578   4.791   6.080
10363SOL    HW231989   5.608   4.867   5.939
10364SOL     OW31990   5.873   5.095   1.820
10364SOL    HW131991   5.798   5.035   1.793
10364SOL    HW231992   5.921   5.127   1.738
10365SOL     OW31993   6.074   5.708   6.937
10365SOL    HW131994   6.071   5.609   6.924
10365SOL    HW231995   6.142   5.748   6.876
10366SOL     OW31996   3.129   0.262   3.202
10366SOL    HW131997   3.037   0.223   3.202
10366SOL    HW231998   3.148   0.302   3.112
10367SOL     OW31999   5.921   6.214   1.910
10367SOL    HW132000   5.842   6.185   1.855
10367SOL    HW232001   5.949   6.306   1.882
10368SOL     OW32002   0.903   6.073   1.647
10368SOL    HW132003   0.812   6.099   1.679
10368SOL    HW232004   0.964   6.060   1.725
10369SOL     OW32005   2.409   0.948   5.667
10369SOL    HW132006   2.351   0.991   5.736
10369SOL    HW232007   2.362   0.867   5.630
10370SOL     OW32008   1.650   1.962   5.949
10370SOL    HW132009   1.630   1.933   5.856
10370SOL    HW232010   1.565   1.968   6.001
10371SOL     OW32011   3.588   5.397   3.286
10371SOL    HW132012   3.646   5.462   3.237
10371SOL    HW232013   3.529   5.350   3.221
10372SOL     OW32014   1.842   5.987   0.586
10372SOL    HW132015   1.918   5.925   0.567
10372SOL    HW232016   1.849   6.067   0.527
10373SOL     OW32017   6.491   0.672   6.601
10373SOL    HW132018   6.561   0.711   6.660
10373SOL    HW232019   6.476   0.733   6.523
10374SOL     OW32020   2.807   4.731   3.275
10374SOL    HW132021   2.764   4.819   3.295
10374SOL    HW232022   2.749   4.681   3.211
10375SOL     OW32023   2.452   5.670   6.641
10375SOL    HW132024   2.402   5.607   6.582
10375SOL    HW232025   2.495   5.741   6.586
10376SOL     OW32026   2.214   4.972   4.267
10376SOL    HW132027   2.244   4.893   4.319
10376SOL    HW232028   2.129   4.949   4.218
10377SOL     OW32029   2.586   0.689   3.677
10377SOL    HW132030   2.491   0.674   3.703
10377SOL    HW232031   2.638   0.604   3.686
10378SOL     OW32032   0.648   6.826   5.727
10378SOL    HW132033   0.625   6.853   5.821
10378SOL    HW232034   0.709   6.894   5.687
10379SOL     OW32035   1.071   6.218   3.716
10379SOL    HW132036   1.121   6.165   3.648
10379SOL    HW232037   0.993   6.262   3.674
10380SOL     OW32038   2.901   1.054   3.906
10380SOL    HW132039   2.861   0.973   3.863
10380SOL    HW232040   2.940   1.113   3.835
10381SOL     OW32041   3.198   0.352   2.537
10381SOL    HW132042   3.116   0.327   2.486
10381SOL    HW232043   3.236   0.436   2.498
10382SOL     OW32044   4.190   5.578   1.905
10382SOL    HW132045   4.108   5.553   1.957
10382SOL    HW232046   4.197   5.678   1.901
10383SOL     OW32047   0.615   6.944   6.955
10383SOL    HW132048   0.698   6.891   6.938
10383SOL    HW232049   0.617   6.980   0.022
10384SOL     OW32050   4.784   5.119   0.691
10384SOL    HW132051   4.686   5.099   0.691
10384SOL    HW232052   4.804   5.189   0.759
10385SOL     OW32053   4.127   4.542   6.924
10385SOL    HW132054   4.143   4.634   6.887
10385SOL    HW232055   4.045   4.503   6.882
10386SOL     OW32056   0.204   0.267   2.137
10386SOL    HW132057   0.185   0.244   2.042
10386SOL    HW232058   0.254   0.193   2.181
10387SOL     OW32059   5.488   2.075   1.481
10387SOL    HW132060   5.525   1.997   1.431
10387SOL    HW232061   5.483   2.052   1.579
10388SOL     OW32062   1.341   0.458   4.988
10388SOL    HW132063   1.350   0.365   4.954
10388SOL    HW232064   1.291   0.513   4.921
10389SOL     OW32065   0.201   3.807   0.090
10389SOL    HW132066   0.245   3.752   0.161
10389SOL    HW232067   0.210   3.904   0.113
10390SOL     OW32068   2.069   1.828   2.142
10390SOL    HW132069   2.145   1.891   2.129
10390SOL    HW232070   2.104   1.737   2.162
10391SOL     OW32071   6.372   6.971   3.618
10391SOL    HW132072   6.367   6.879   3.658
10391SOL    HW232073   6.280   7.009   3.612
10392SOL     OW32074   6.580   3.514   4.497
10392SOL    HW132075   6.541   3.427   4.525
10392SOL    HW232076   6.592   3.515   4.397
10393SOL     OW32077   2.091   2.543   2.456
10393SOL    HW132078   2.038   2.578   2.533
10393SOL    HW232079   2.168   2.603   2.438
10394SOL     OW32080   3.259   6.228   3.620
10394SOL    HW132081   3.232   6.163   3.691
10394SOL    HW232082   3.255   6.183   3.530
10395SOL     OW32083   0.964   0.718   1.359
10395SOL    HW132084   0.962   0.627   1.319
10395SOL    HW232085   1.051   0.733   1.405
10396SOL     OW32086   3.338   2.185   5.290
10396SOL    HW132087   3.291   2.265   5.253
10396SOL    HW232088   3.343   2.114   5.220
10397SOL     OW32089   5.031   1.502   3.894
10397SOL    HW132090   4.988   1.484   3.982
10397SOL    HW232091   5.010   1.428   3.830
10398SOL     OW32092   5.518   2.329   2.606
10398SOL    HW132093   5.603   2.340   2.657
10398SOL    HW232094   5.528   2.368   2.515
10399SOL     OW32095   0.350   3.825   2.178
10399SOL    HW132096   0.299   3.747   2.214
10399SOL    HW232097   0.337   3.831   2.079
10400SOL     OW32098   2.014   6.479   0.838
10400SOL    HW132099   2.025   6.569   0.880
10400SOL    HW232100   1.943   6.484   0.768
10401SOL     OW32101   0.054   0.339   5.869
10401SOL    HW132102   0.033   0.363   5.774
10401SOL    HW232103   6.995   0.338   5.923
10402SOL     OW32104   6.934   4.566   4.862
10402SOL    HW132105   6.892   4.534   4.777
10402SOL    HW232106   6.871   4.627   4.909
10403SOL     OW32107   3.181   0.040   1.133
10403SOL    HW132108   3.147   7.011   1.210
10403SOL    HW232109   3.115   0.112   1.113
10404SOL     OW32110   0.275   6.063   5.875
10404SOL    HW132111   0.310   6.156   5.878
10404SOL    HW232112   0.344   6.002   5.837
10405SOL     OW32113   0.162   2.048   6.756
10405SOL    HW132114   0.098   2.094   6.818
10405SOL    HW232115   0.112   1.981   6.701
10406SOL     OW32116   1.645   5.408   0.741
10406SOL    HW132117   1.607   5.422   0.649
10406SOL    HW232118   1.704   5.327   0.741
10407SOL     OW32119   1.932   6.439   6.234
10407SOL    HW132120   1.836   6.463   6.216
10407SOL    HW232121   1.991   6.488   6.169
10408SOL     OW32122   4.600   0.985   0.386
10408SOL    HW132123   4.598   0.946   0.477
10408SOL    HW232124   4.581   0.913   0.318
10409SOL     OW32125   5.885   4.068   0.649
10409SOL    HW132126   5.801   4.031   0.690
10409SOL    HW232127   5.960   4.004   0.663
10410SOL     OW32128   4.365   6.944   0.633
10410SOL    HW132129   4.368   6.968   0.535
10410SOL    HW232130   4.429   7.002   0.683
10411SOL     OW32131   2.125   5.111   4.550
10411SOL    HW132132   2.052   5.153   4.495
10411SOL    HW232133   2.194   5.073   4.489
10412SOL     OW32134   5.282   6.787   1.732
10412SOL    HW132135   5.229   6.725   1.673
10412SOL    HW232136   5.220   6.851   1.777
10413SOL     OW32137   6.185   3.181   2.421
10413SOL    HW132138   6.109   3.240   2.447
10413SOL    HW232139   6.234   3.151   2.503
10414SOL     OW32140   5.553   3.112   4.589
10414SOL    HW132141   5.471   3.069   4.628
10414SOL    HW232142   5.577   3.192   4.643
10415SOL     OW32143   0.811   0.946   6.572
10415SOL    HW132144   0.728   0.898   6.543
10415SOL    HW232145   0.830   0.924   6.668
10416SOL     OW32146   5.256   2.956   3.953
10416SOL    HW132147   5.172   2.903   3.941
10416SOL    HW232148   5.250   3.041   3.900
10417SOL     OW32149   1.785   4.202   2.860
10417SOL    HW132150   1.866   4.227   2.806
10417SOL    HW232151   1.774   4.102   2.859
10418SOL     OW32152   1.610   5.658   5.928
10418SOL    HW132153   1.671   5.580   5.940
10418SOL    HW232154   1.629   5.727   5.998
10419SOL     OW32155   1.106   0.647   0.219
10419SOL    HW132156   1.008   0.661   0.228
10419SOL    HW232157   1.154   0.735   0.230
10420SOL     OW32158   0.251   2.577   2.720
10420SOL    HW132159   0.249   2.654   2.655
10420SOL    HW232160   0.344   2.541   2.726
10421SOL     OW32161   0.569   2.088   2.572
10421SOL    HW132162   0.513   2.114   2.650
10421SOL    HW232163   0.653   2.045   2.604
10422SOL     OW32164   5.348   3.266   6.498
10422SOL    HW132165   5.419   3.310   6.551
10422SOL    HW232166   5.361   3.287   6.401
10423SOL     OW32167   4.806   4.608   2.618
10423SOL    HW132168   4.735   4.642   2.679
10423SOL    HW232169   4.765   4.583   2.530
10424SOL     OW32170   5.038   1.354   6.547
10424SOL    HW132171   5.137   1.362   6.532
10424SOL    HW232172   5.007   1.265   6.515
10425SOL     OW32173   1.759   0.047   1.941
10425SOL    HW132174   1.827   0.089   1.881
10425SOL    HW232175   1.794   6.986   1.975
10426SOL     OW32176   6.187   4.112   0.343
10426SOL    HW132177   6.243   4.092   0.263
10426SOL    HW232178   6.199   4.039   0.411
10427SOL     OW32179   4.927   0.762   1.048
10427SOL    HW132180   4.916   0.781   0.950
10427SOL    HW232181   5.022   0.738   1.067
10428SOL     OW32182   4.575   1.077   3.667
10428SOL    HW132183   4.650   1.053   3.728
10428SOL    HW232184   4.552   1.173   3.679
10429SOL     OW32185   5.936   5.525   1.812
10429SOL    HW132186   5.992   5.605   1.794
10429SOL    HW232187   5.952   5.494   1.906
10430SOL     OW32188   4.176   6.110   3.152
10430SOL    HW132189   4.176   6.013   3.128
10430SOL    HW232190   4.088   6.151   3.125
10431SOL     OW32191   2.509   1.659   5.229
10431SOL    HW132192   2.585   1.717   5.198
10431SOL    HW232193   2.471   1.697   5.313
10432SOL     OW32194   4.571   0.918   4.791
10432SOL    HW132195   4.494   0.889   4.848
10432SOL    HW232196   4.618   0.994   4.834
10433SOL     OW32197   2.869   6.860   0.667
10433SOL    HW132198   2.962   6.824   0.680
10433SOL    HW232199   2.804   6.799   0.713
10434SOL     OW32200   2.802   2.010   5.000
10434SOL    HW132201   2.826   2.021   4.904
10434SOL    HW232202   2.838   2.087   5.053
10435SOL     OW32203   5.655   5.504   6.357
10435SOL    HW132204   5.745   5.461   6.358
10435SOL    HW232205   5.639   5.545   6.267
10436SOL     OW32206   0.724   0.784   2.651
10436SOL    HW132207   0.683   0.836   2.576
10436SOL    HW232208   0.652   0.740   2.705
10437SOL     OW32209   0.398   3.994   5.998
10437SOL    HW132210   0.445   4.052   5.930
10437SOL    HW232211   0.433   4.014   6.089
10438SOL     OW32212   3.539   6.698   5.865
10438SOL    HW132213   3.503   6.675   5.775
10438SOL    HW232214   3.502   6.635   5.934
10439SOL     OW32215   3.584   0.835   5.047
10439SOL    HW132216   3.613   0.911   4.988
10439SOL    HW232217   3.594   0.862   5.143
10440SOL     OW32218   1.504   5.436   0.502
10440SOL    HW132219   1.420   5.382   0.501
10440SOL    HW232220   1.569   5.397   0.437
10441SOL     OW32221   3.768   6.925   0.608
10441SOL    HW132222   3.757   6.826   0.596
10441SOL    HW232223   3.797   6.944   0.702
10442SOL     OW32224   4.592   6.021   5.051
10442SOL    HW132225   4.601   5.945   5.116
10442SOL    HW232226   4.680   6.037   5.006
10443SOL     OW32227   6.072   2.543   4.505
10443SOL    HW132228   6.091   2.448   4.530
10443SOL    HW232229   6.108   2.561   4.414
10444SOL     OW32230   3.523   4.919   4.937
10444SOL    HW132231   3.428   4.930   4.907
10444SOL    HW232232   3.525   4.873   5.026
10445SOL     OW32233   6.401   5.983   2.549
10445SOL    HW132234   6.309   5.959   2.582
10445SOL    HW232235   6.439   6.056   2.607
10446SOL     OW32236   0.993   6.198   6.826
10446SOL    HW132237   0.923   6.134   6.796
10446SOL    HW232238   0.960   6.249   6.906
10447SOL     OW32239   5.720   1.532   0.332
10447SOL    HW132240   5.631   1.508   0.370
10447SOL    HW232241   5.708   1.598   0.258
10448SOL     OW32242   3.329   3.824   2.459
10448SOL    HW132243   3.380   3.907   2.483
10448SOL    HW232244   3.290   3.835   2.368
10449SOL     OW32245   1.737   5.388   4.861
10449SOL    HW132246   1.645   5.395   4.900
10449SOL    HW232247   1.805   5.408   4.932
10450SOL     OW32248   0.045   3.323   0.942
10450SOL    HW132249   6.999   3.343   1.008
10450SOL    HW232250   0.076   3.228   0.953
10451SOL     OW32251   2.314   4.657   2.307
10451SOL    HW132252   2.237   4.715   2.335
10451SOL    HW232253   2.318   4.654   2.207
10452SOL     OW32254   1.457   2.780   5.461
10452SOL    HW132255   1.480   2.745   5.552
10452SOL    HW232256   1.519   2.854   5.436
10453SOL     OW32257   4.956   0.580   1.379
10453SOL    HW132258   4.906   0.563   1.464
10453SOL    HW232259   4.978   0.493   1.335
10454SOL     OW32260   5.157   3.291   1.892
10454SOL    HW132261   5.175   3.370   1.834
10454SOL    HW232262   5.058   3.275   1.896
10455SOL     OW32263   0.636   4.549   3.062
10455SOL    HW132264   0.536   4.554   3.067
10455SOL    HW232265   0.674   4.549   3.154
10456SOL     OW32266   3.399   6.169   1.367
10456SOL    HW132267   3.394   6.087   1.309
10456SOL    HW232268   3.481   6.166   1.423
10457SOL     OW32269   3.945   3.314   3.697
10457SOL    HW132270   3.943   3.220   3.729
10457SOL    HW232271   3.867   3.364   3.734
10458SOL     OW32272   0.017   6.340   1.661
10458SOL    HW132273   0.058   6.271   1.601
10458SOL    HW232274   6.994   6.295   1.736
10459SOL     OW32275   6.719   4.718   1.916
10459SOL    HW132276   6.664   4.675   1.988
10459SOL    HW232277   6.685   4.689   1.827
10460SOL     OW32278   1.365   4.576   1.815
10460SOL    HW132279   1.443   4.513   1.814
10460SOL    HW232280   1.393   4.662   1.856
10461SOL     OW32281   3.416   0.748   6.324
10461SOL    HW132282   3.430   0.659   6.282
10461SOL    HW232283   3.328   0.786   6.294
10462SOL     OW32284   5.366   6.724   1.076
10462SOL    HW132285   5.365   6.805   1.135
10462SOL    HW232286   5.358   6.752   0.981
10463SOL     OW32287   3.025   3.462   0.905
10463SOL    HW132288   2.961   3.403   0.955
10463SOL    HW232289   3.046   3.542   0.961
10464SOL     OW32290   5.768   6.371   1.693
10464SOL    HW132291   5.846   6.432   1.707
10464SOL    HW232292   5.772   6.332   1.602
10465SOL     OW32293   0.129   5.165   4.726
10465SOL    HW132294   0.096   5.186   4.818
10465SOL    HW232295   0.202   5.097   4.731
10466SOL     OW32296   5.114   6.457   5.470
10466SOL    HW132297   5.101   6.364   5.504
10466SOL    HW232298   5.108   6.457   5.370
10467SOL     OW32299   4.779   1.252   3.860
10467SOL    HW132300   4.842   1.219   3.791
10467SOL    HW232301   4.697   1.290   3.816
10468SOL     OW32302   2.766   5.100   3.667
10468SOL    HW132303   2.737   5.007   3.689
10468SOL    HW232304   2.693   5.165   3.689
10469SOL     OW32305   1.055   4.860   6.745
10469SOL    HW132306   0.989   4.930   6.718
10469SOL    HW232307   1.012   4.770   6.742
10470SOL     OW32308   2.938   1.966   4.730
10470SOL    HW132309   2.958   2.001   4.639
10470SOL    HW232310   2.990   1.882   4.746
10471SOL     OW32311   4.185   4.074   0.308
10471SOL    HW132312   4.144   4.009   0.371
10471SOL    HW232313   4.283   4.055   0.299
10472SOL     OW32314   4.227   1.250   3.541
10472SOL    HW132315   4.252   1.234   3.636
10472SOL    HW232316   4.136   1.213   3.523
10473SOL     OW32317   4.533   4.977   0.039
10473SOL    HW132318   4.596   4.901   0.022
10473SOL    HW232319   4.551   5.015   0.130
10474SOL     OW32320   5.130   1.066   3.476
10474SOL    HW132321   5.068   0.988   3.462
10474SOL    HW232322   5.225   1.036   3.465
10475SOL     OW32323   4.555   6.327   1.553
10475SOL    HW132324   4.474   6.272   1.570
10475SOL    HW232325   4.546   6.416   1.597
10476SOL     OW32326   0.181   5.006   6.478
10476SOL    HW132327   0.150   5.099   6.460
10476SOL    HW232328   0.202   4.996   6.575
10477SOL     OW32329   4.627   4.561   4.917
10477SOL    HW132330   4.659   4.655   4.908
10477SOL    HW232331   4.608   4.523   4.827
10478SOL     OW32332   0.192   6.344   3.057
10478SOL    HW132333   0.214   6.376   2.965
10478SOL    HW232334   0.269   6.291   3.092
10479SOL     OW32335   0.606   4.276   2.135
10479SOL    HW132336   0.665   4.281   2.054
10479SOL    HW232337   0.517   4.315   2.113
10480SOL     OW32338   5.167   1.088   0.913
10480SOL    HW132339   5.247   1.065   0.859
10480SOL    HW232340   5.154   1.187   0.914
10481SOL     OW32341   2.540   1.151   4.584
10481SOL    HW132342   2.616   1.126   4.645
10481SOL    HW232343   2.541   1.250   4.568
10482SOL     OW32344   0.810   6.024   6.767
10482SOL    HW132345   0.731   5.971   6.737
10482SOL    HW232346   0.891   5.964   6.770
10483SOL     OW32347   6.954   5.698   0.726
10483SOL    HW132348   6.867   5.741   0.699
10483SOL    HW232349   6.988   5.742   0.809
10484SOL     OW32350   6.751   1.657   1.847
10484SOL    HW132351   6.674   1.646   1.785
10484SOL    HW232352   6.721   1.644   1.941
10485SOL     OW32353   3.515   4.183   4.368
10485SOL    HW132354   3.474   4.100   4.331
10485SOL    HW232355   3.553   4.237   4.293
10486SOL     OW32356   6.453   5.742   5.991
10486SOL    HW132357   6.379   5.681   5.964
10486SOL    HW232358   6.509   5.764   5.911
10487SOL     OW32359   5.542   3.373   2.814
10487SOL    HW132360   5.532   3.280   2.778
10487SOL    HW232361   5.487   3.435   2.759
10488SOL     OW32362   0.410   1.959   5.011
10488SOL    HW132363   0.343   2.020   5.052
10488SOL    HW232364   0.383   1.937   4.917
10489SOL     OW32365   5.925   4.404   3.160
10489SOL    HW132366   5.826   4.390   3.154
10489SOL    HW232367   5.968   4.320   3.194
10490SOL     OW32368   5.304   6.482   6.487
10490SOL    HW132369   5.224   6.424   6.495
10490SOL    HW232370   5.288   6.569   6.534
10491SOL     OW32371   2.140   2.518   5.966
10491SOL    HW132372   2.084   2.438   5.944
10491SOL    HW232373   2.233   2.505   5.934
10492SOL     OW32374   2.780   6.248   0.685
10492SOL    HW132375   2.742   6.156   0.698
10492SOL    HW232376   2.847   6.246   0.611
10493SOL     OW32377   3.680   5.821   0.850
10493SOL    HW132378   3.753   5.772   0.802
10493SOL    HW232379   3.697   5.819   0.948
10494SOL     OW32380   0.309   4.902   4.112
10494SOL    HW132381   0.213   4.905   4.085
10494SOL    HW232382   0.338   4.807   4.121
10495SOL     OW32383   6.645   6.721   0.625
10495SOL    HW132384   6.716   6.687   0.564
10495SOL    HW232385   6.683   6.732   0.717
10496SOL     OW32386   0.511   4.821   6.012
10496SOL    HW132387   0.432   4.877   6.034
10496SOL    HW232388   0.501   4.730   6.054
10497SOL     OW32389   3.531   6.485   1.039
10497SOL    HW132390   3.508   6.441   0.952
10497SOL    HW232391   3.446   6.505   1.089
10498SOL     OW32392   3.826   3.375   6.837
10498SOL    HW132393   3.770   3.431   6.776
10498SOL    HW232394   3.875   3.435   6.901
10499SOL     OW32395   4.194   4.724   2.805
10499SOL    HW132396   4.162   4.631   2.784
10499SOL    HW232397   4.219   4.729   2.902
10500SOL     OW32398   1.772   2.692   4.560
10500SOL    HW132399   1.802   2.612   4.612
10500SOL    HW232400   1.772   2.670   4.462
10501SOL     OW32401   3.711   4.899   3.590
10501SOL    HW132402   3.696   4.964   3.516
10501SOL    HW232403   3.623   4.873   3.630
10502SOL     OW32404   2.935   3.435   2.613
10502SOL    HW132405   2.963   3.393   2.700
10502SOL    HW232406   2.932   3.365   2.542
10503SOL     OW32407   6.499   0.504   0.362
10503SOL    HW132408   6.449   0.442   0.423
10503SOL    HW232409   6.552   0.569   0.416
10504SOL     OW32410   1.267   3.324   5.455
10504SOL    HW132411   1.176   3.352   5.425
10504SOL    HW232412   1.308   3.396   5.511
10505SOL     OW32413   6.037   6.566   0.785
10505SOL    HW132414   5.977   6.610   0.852
10505SOL    HW232415   6.112   6.628   0.762
10506SOL     OW32416   1.493   4.725   5.043
10506SOL    HW132417   1.441   4.639   5.048
10506SOL    HW232418   1.572   4.714   4.983
10507SOL     OW32419   1.599   6.277   5.889
10507SOL    HW132420   1.544   6.314   5.814
10507SOL    HW232421   1.630   6.184   5.865
10508SOL     OW32422   1.693   6.052   0.871
10508SOL    HW132423   1.593   6.049   0.872
10508SOL    HW232424   1.725   6.074   0.779
10509SOL     OW32425   4.940   3.518   2.747
10509SOL    HW132426   4.974   3.611   2.737
10509SOL    HW232427   4.908   3.504   2.841
10510SOL     OW32428   5.519   5.670   3.038
10510SOL    HW132429   5.567   5.662   2.951
10510SOL    HW232430   5.458   5.591   3.050
10511SOL     OW32431   3.751   1.806   0.905
10511SOL    HW132432   3.797   1.717   0.911
10511SOL    HW232433   3.711   1.829   0.993
10512SOL     OW32434   4.101   1.231   5.487
10512SOL    HW132435   4.190   1.228   5.534
10512SOL    HW232436   4.115   1.251   5.390
10513SOL     OW32437   3.671   3.834   0.431
10513SOL    HW132438   3.669   3.766   0.505
10513SOL    HW232439   3.665   3.926   0.471
10514SOL     OW32440   1.221   5.591   1.320
10514SOL    HW132441   1.177   5.538   1.247
10514SOL    HW232442   1.201   5.688   1.307
10515SOL     OW32443   2.162   3.612   4.767
10515SOL    HW132444   2.157   3.512   4.756
10515SOL    HW232445   2.135   3.656   4.682
10516SOL     OW32446   5.512   1.767   2.150
10516SOL    HW132447   5.428   1.822   2.153
10516SOL    HW232448   5.525   1.722   2.239
10517SOL     OW32449   0.808   1.932   1.807
10517SOL    HW132450   0.800   1.887   1.718
10517SOL    HW232451   0.876   2.004   1.802
10518SOL     OW32452   0.883   6.091   2.128
10518SOL    HW132453   0.908   6.151   2.052
10518SOL    HW232454   0.963   6.036   2.154
10519SOL     OW32455   2.785   6.523   0.706
10519SOL    HW132456   2.747   6.431   0.707
10519SOL    HW232457   2.766   6.568   0.793
10520SOL     OW32458   1.957   2.582   6.190
10520SOL    HW132459   2.006   2.533   6.118
10520SOL    HW232460   1.979   2.680   6.184
10521SOL     OW32461   6.339   2.173   2.724
10521SOL    HW132462   6.398   2.108   2.676
10521SOL    HW232463   6.325   2.142   2.818
10522SOL     OW32464   5.180   1.714   3.834
10522SOL    HW132465   5.128   1.766   3.767
10522SOL    HW232466   5.129   1.632   3.860
10523SOL     OW32467   0.697   4.143   1.785
10523SOL    HW132468   0.759   4.216   1.814
10523SOL    HW232469   0.744   4.055   1.794
10524SOL     OW32470   6.270   6.306   4.753
10524SOL    HW132471   6.365   6.314   4.782
10524SOL    HW232472   6.225   6.395   4.760
10525SOL     OW32473   4.555   1.336   3.695
10525SOL    HW132474   4.578   1.365   3.602
10525SOL    HW232475   4.463   1.367   3.718
10526SOL     OW32476   1.311   5.931   5.710
10526SOL    HW132477   1.366   5.868   5.655
10526SOL    HW232478   1.236   5.967   5.656
10527SOL     OW32479   0.045   6.650   5.811
10527SOL    HW132480   0.056   6.579   5.880
10527SOL    HW232481   6.986   6.636   5.761
10528SOL     OW32482   2.067   5.417   5.670
10528SOL    HW132483   2.163   5.445   5.677
10528SOL    HW232484   2.053   5.331   5.718
10529SOL     OW32485   6.885   5.332   0.493
10529SOL    HW132486   6.829   5.405   0.533
10529SOL    HW232487   6.886   5.341   0.394
10530SOL     OW32488   6.711   0.417   1.064
10530SOL    HW132489   6.640   0.435   1.132
10530SOL    HW232490   6.717   0.318   1.047
10531SOL     OW32491   3.221   2.161   6.280
10531SOL    HW132492   3.193   2.191   6.371
10531SOL    HW232493   3.319   2.175   6.268
10532SOL     OW32494   4.897   5.773   5.692
10532SOL    HW132495   4.807   5.729   5.696
10532SOL    HW232496   4.886   5.864   5.650
10533SOL     OW32497   4.084   6.812   3.387
10533SOL    HW132498   4.101   6.779   3.294
10533SOL    HW232499   4.112   6.743   3.453
10534SOL     OW32500   1.059   6.630   3.833
10534SOL    HW132501   1.095   6.593   3.919
10534SOL    HW232502   1.113   6.595   3.756
10535SOL     OW32503   4.327   1.869   2.416
10535SOL    HW132504   4.377   1.822   2.489
10535SOL    HW232505   4.265   1.937   2.456
10536SOL     OW32506   6.106   3.777   4.487
10536SOL    HW132507   6.157   3.713   4.430
10536SOL    HW232508   6.141   3.870   4.473
10537SOL     OW32509   3.784   0.927   3.118
10537SOL    HW132510   3.810   0.831   3.131
10537SOL    HW232511   3.751   0.940   3.025
10538SOL     OW32512   6.055   2.661   3.625
10538SOL    HW132513   5.986   2.657   3.697
10538SOL    HW232514   6.125   2.593   3.642
10539SOL     OW32515   6.563   6.476   3.015
10539SOL    HW132516   6.551   6.575   3.024
10539SOL    HW232517   6.631   6.457   2.944
10540SOL     OW32518   1.277   3.702   6.728
10540SOL    HW132519   1.294   3.647   6.645
10540SOL    HW232520   1.205   3.659   6.782
10541SOL     OW32521   3.200   2.618   5.832
10541SOL    HW132522   3.193   2.523   5.863
10541SOL    HW232523   3.196   2.621   5.732
10542SOL     OW32524   4.304   6.383   2.142
10542SOL    HW132525   4.205   6.374   2.135
10542SOL    HW232526   4.328   6.479   2.159
10543SOL     OW32527   2.406   2.310   4.224
10543SOL    HW132528   2.436   2.274   4.136
10543SOL    HW232529   2.416   2.409   4.225
10544SOL     OW32530   2.906   2.069   2.441
10544SOL    HW132531   2.863   1.979   2.449
10544SOL    HW232532   2.858   2.124   2.373
10545SOL     OW32533   1.577   3.346   1.948
10545SOL    HW132534   1.675   3.351   1.930
10545SOL    HW232535   1.527   3.354   1.862
10546SOL     OW32536   2.396   0.250   5.574
10546SOL    HW132537   2.461   0.215   5.641
10546SOL    HW232538   2.303   0.228   5.603
10547SOL     OW32539   3.559   6.465   6.029
10547SOL    HW132540   3.496   6.478   6.106
10547SOL    HW232541   3.559   6.368   6.004
10548SOL     OW32542   0.819   5.612   3.131
10548SOL    HW132543   0.856   5.680   3.194
10548SOL    HW232544   0.883   5.535   3.124
10549SOL     OW32545   6.772   1.265   2.714
10549SOL    HW132546   6.692   1.263   2.774
10549SOL    HW232547   6.799   1.360   2.697
10550SOL     OW32548   5.584   6.000   3.179
10550SOL    HW132549   5.536   5.912   3.180
10550SOL    HW232550   5.680   5.985   3.159
10551SOL     OW32551   4.436   0.528   4.942
10551SOL    HW132552   4.366   0.543   5.012
10551SOL    HW232553   4.526   0.551   4.979
10552SOL     OW32554   2.521   6.426   3.859
10552SOL    HW132555   2.558   6.397   3.947
10552SOL    HW232556   2.595   6.457   3.800
10553SOL     OW32557   5.416   5.537   1.382
10553SOL    HW132558   5.368   5.619   1.413
10553SOL    HW232559   5.412   5.533   1.282
10554SOL     OW32560   6.146   5.724   1.703
10554SOL    HW132561   6.135   5.726   1.603
10554SOL    HW232562   6.131   5.815   1.740
10555SOL     OW32563   3.477   3.280   1.509
10555SOL    HW132564   3.511   3.195   1.548
10555SOL    HW232565   3.448   3.342   1.582
10556SOL     OW32566   2.806   2.089   1.987
10556SOL    HW132567   2.842   2.023   2.052
10556SOL    HW232568   2.851   2.177   2.001
10557SOL     OW32569   0.855   3.791   3.098
10557SOL    HW132570   0.757   3.794   3.079
10557SOL    HW232571   0.905   3.827   3.020
10558SOL     OW32572   4.376   4.659   4.460
10558SOL    HW132573   4.350   4.744   4.507
10558SOL    HW232574   4.305   4.636   4.394
10559SOL     OW32575   3.441   5.876   1.289
10559SOL    HW132576   3.528   5.914   1.321
10559SOL    HW232577   3.448   5.776   1.288
10560SOL     OW32578   5.765   6.904   3.662
10560SOL    HW132579   5.720   6.911   3.573
10560SOL    HW232580   5.817   6.987   3.680
10561SOL     OW32581   1.102   5.255   6.376
10561SOL    HW132582   1.062   5.172   6.414
10561SOL    HW232583   1.104   5.248   6.276
10562SOL     OW32584   3.626   6.409   2.533
10562SOL    HW132585   3.692   6.442   2.466
10562SOL    HW232586   3.610   6.311   2.520
10563SOL     OW32587   1.947   6.135   2.158
10563SOL    HW132588   1.900   6.183   2.084
10563SOL    HW232589   1.924   6.178   2.246
10564SOL     OW32590   5.097   4.556   3.541
10564SOL    HW132591   5.079   4.577   3.445
10564SOL    HW232592   5.191   4.581   3.564
10565SOL     OW32593   0.386   1.233   4.886
10565SOL    HW132594   0.419   1.326   4.872
10565SOL    HW232595   0.462   1.175   4.916
10566SOL     OW32596   4.087   2.172   1.081
10566SOL    HW132597   4.007   2.116   1.104
10566SOL    HW232598   4.064   2.235   1.007
10567SOL     OW32599   2.722   2.665   6.688
10567SOL    HW132600   2.814   2.626   6.702
10567SOL    HW232601   2.697   2.657   6.591
10568SOL     OW32602   5.500   2.301   5.868
10568SOL    HW132603   5.453   2.358   5.801
10568SOL    HW232604   5.486   2.339   5.960
10569SOL     OW32605   5.323   0.327   0.932
10569SOL    HW132606   5.291   0.350   0.840
10569SOL    HW232607   5.254   0.273   0.979
10570SOL     OW32608   1.684   3.928   2.843
10570SOL    HW132609   1.724   3.914   2.934
10570SOL    HW232610   1.650   3.841   2.808
10571SOL     OW32611   0.342   3.814   5.624
10571SOL    HW132612   0.416   3.794   5.687
10571SOL    HW232613   0.296   3.729   5.599
10572SOL     OW32614   6.194   4.450   0.844
10572SOL    HW132615   6.101   4.441   0.809
10572SOL    HW232616   6.260   4.440   0.770
10573SOL     OW32617   6.682   2.636   3.281
10573SOL    HW132618   6.607   2.587   3.324
10573SOL    HW232619   6.646   2.704   3.217
10574SOL     OW32620   5.741   2.380   2.763
10574SOL    HW132621   5.757   2.468   2.807
10574SOL    HW232622   5.811   2.365   2.692
10575SOL     OW32623   5.388   6.528   2.897
10575SOL    HW132624   5.318   6.549   2.829
10575SOL    HW232625   5.353   6.459   2.960
10576SOL     OW32626   1.660   2.973   4.479
10576SOL    HW132627   1.753   2.960   4.512
10576SOL    HW232628   1.613   2.884   4.478
10577SOL     OW32629   3.770   4.631   6.939
10577SOL    HW132630   3.808   4.610   0.004
10577SOL    HW232631   3.687   4.685   6.949
10578SOL     OW32632   1.173   3.515   2.460
10578SOL    HW132633   1.146   3.429   2.503
10578SOL    HW232634   1.098   3.548   2.402
10579SOL     OW32635   6.971   3.155   0.068
10579SOL    HW132636   6.934   3.126   7.005
10579SOL    HW232637   6.972   3.077   0.131
10580SOL     OW32638   5.655   6.086   0.094
10580SOL    HW132639   5.680   6.143   0.015
10580SOL    HW232640   5.737   6.067   0.148
10581SOL     OW32641   3.843   0.798   2.498
10581SOL    HW132642   3.881   0.887   2.521
10581SOL    HW232643   3.822   0.748   2.582
10582SOL     OW32644   6.726   3.302   6.767
10582SOL    HW132645   6.815   3.269   6.737
10582SOL    HW232646   6.735   3.349   6.855
10583SOL     OW32647   4.457   2.235   5.624
10583SOL    HW132648   4.422   2.323   5.593
10583SOL    HW232649   4.380   2.175   5.647
10584SOL     OW32650   6.650   1.009   3.817
10584SOL    HW132651   6.554   1.032   3.833
10584SOL    HW232652   6.708   1.073   3.868
10585SOL     OW32653   1.424   1.448   5.329
10585SOL    HW132654   1.357   1.429   5.257
10585SOL    HW232655   1.512   1.470   5.288
10586SOL     OW32656   4.513   3.877   6.058
10586SOL    HW132657   4.495   3.794   6.004
10586SOL    HW232658   4.450   3.879   6.137
10587SOL     OW32659   2.319   5.042   5.164
10587SOL    HW132660   2.362   5.057   5.253
10587SOL    HW232661   2.389   5.011   5.098
10588SOL     OW32662   1.377   3.882   3.959
10588SOL    HW132663   1.296   3.849   4.008
10588SOL    HW232664   1.348   3.947   3.888
10589SOL     OW32665   6.108   6.992   3.475
10589SOL    HW132666   6.155   0.034   3.418
10589SOL    HW232667   6.018   0.001   3.501
10590SOL     OW32668   0.765   5.714   2.351
10590SOL    HW132669   0.770   5.813   2.359
10590SOL    HW232670   0.798   5.672   2.436
10591SOL     OW32671   6.751   4.094   2.404
10591SOL    HW132672   6.822   4.102   2.334
10591SOL    HW232673   6.750   4.177   2.460
10592SOL     OW32674   6.867   3.020   4.619
10592SOL    HW132675   6.949   2.967   4.639
10592SOL    HW232676   6.788   2.959   4.615
10593SOL     OW32677   3.607   5.808   3.431
10593SOL    HW132678   3.704   5.807   3.451
10593SOL    HW232679   3.576   5.903   3.419
10594SOL     OW32680   3.467   5.774   3.680
10594SOL    HW132681   3.379   5.821   3.671
10594SOL    HW232682   3.527   5.801   3.605
10595SOL     OW32683   4.978   6.550   0.652
10595SOL    HW132684   4.887   6.509   0.649
10595SOL    HW232685   5.045   6.479   0.675
10596SOL     OW32686   5.508   3.659   0.092
10596SOL    HW132687   5.418   3.648   0.134
10596SOL    HW232688   5.517   3.751   0.054
10597SOL     OW32689   1.762   6.737   5.232
10597SOL    HW132690   1.771   6.722   5.134
10597SOL    HW232691   1.672   6.705   5.263
10598SOL     OW32692   3.636   1.181   0.929
10598SOL    HW132693   3.592   1.181   0.839
10598SOL    HW232694   3.574   1.220   0.997
10599SOL     OW32695   0.625   2.345   0.838
10599SOL    HW132696   0.553   2.281   0.866
10599SOL    HW232697   0.661   2.317   0.749
10600SOL     OW32698   4.333   1.397   1.758
10600SOL    HW132699   4.253   1.390   1.818
10600SOL    HW232700   4.361   1.306   1.728
10601SOL     OW32701   2.000   1.409   5.024
10601SOL    HW132702   2.086   1.457   5.040
10601SOL    HW232703   1.999   1.324   5.076
10602SOL     OW32704   6.728   6.400   1.626
10602SOL    HW132705   6.711   6.425   1.721
10602SOL    HW232706   6.657   6.337   1.595
10603SOL     OW32707   5.900   0.582   2.754
10603SOL    HW132708   5.911   0.496   2.704
10603SOL    HW232709   5.803   0.601   2.767
10604SOL     OW32710   5.600   2.128   5.345
10604SOL    HW132711   5.537   2.136   5.269
10604SOL    HW232712   5.676   2.193   5.333
10605SOL     OW32713   4.163   2.188   1.526
10605SOL    HW132714   4.142   2.211   1.430
10605SOL    HW232715   4.127   2.260   1.585
10606SOL     OW32716   6.256   1.717   0.748
10606SOL    HW132717   6.344   1.703   0.703
10606SOL    HW232718   6.221   1.630   0.783
10607SOL     OW32719   2.762   4.783   0.960
10607SOL    HW132720   2.760   4.820   0.867
10607SOL    HW232721   2.795   4.688   0.957
10608SOL     OW32722   5.800   3.760   2.886
10608SOL    HW132723   5.791   3.803   2.976
10608SOL    HW232724   5.744   3.810   2.820
10609SOL     OW32725   6.044   6.776   6.567
10609SOL    HW132726   5.997   6.749   6.651
10609SOL    HW232727   5.983   6.836   6.514
10610SOL     OW32728   0.422   1.704   2.918
10610SOL    HW132729   0.478   1.630   2.881
10610SOL    HW232730   0.479   1.765   2.972
10611SOL     OW32731   4.267   5.053   5.253
10611SOL    HW132732   4.183   5.003   5.276
10611SOL    HW232733   4.262   5.145   5.291
10612SOL     OW32734   5.741   2.627   3.609
10612SOL    HW132735   5.720   2.715   3.567
10612SOL    HW232736   5.686   2.615   3.692
10613SOL     OW32737   5.010   5.583   4.750
10613SOL    HW132738   4.995   5.682   4.761
10613SOL    HW232739   4.989   5.556   4.656
10614SOL     OW32740   3.931   2.336   6.714
10614SOL    HW132741   3.937   2.412   6.778
10614SOL    HW232742   4.008   2.339   6.651
10615SOL     OW32743   2.504   2.630   5.138
10615SOL    HW132744   2.447   2.680   5.073
10615SOL    HW232745   2.555   2.559   5.090
10616SOL     OW32746   1.374   5.741   0.234
10616SOL    HW132747   1.307   5.667   0.230
10616SOL    HW232748   1.395   5.763   0.330
10617SOL     OW32749   1.594   2.683   0.638
10617SOL    HW132750   1.579   2.768   0.587
10617SOL    HW232751   1.545   2.608   0.593
10618SOL     OW32752   0.450   5.020   4.307
10618SOL    HW132753   0.444   4.963   4.389
10618SOL    HW232754   0.404   4.974   4.231
10619SOL     OW32755   1.480   3.079   0.710
10619SOL    HW132756   1.399   3.022   0.725
10619SOL    HW232757   1.452   3.171   0.684
10620SOL     OW32758   3.515   0.743   5.353
10620SOL    HW132759   3.480   0.654   5.381
10620SOL    HW232760   3.443   0.795   5.307
10621SOL     OW32761   0.665   3.912   4.217
10621SOL    HW132762   0.700   4.005   4.225
10621SOL    HW232763   0.666   3.868   4.306
10622SOL     OW32764   4.126   2.215   6.047
10622SOL    HW132765   4.119   2.136   6.109
10622SOL    HW232766   4.081   2.192   5.960
10623SOL     OW32767   5.553   5.111   5.381
10623SOL    HW132768   5.549   5.197   5.331
10623SOL    HW232769   5.626   5.115   5.449
10624SOL     OW32770   6.987   1.593   6.398
10624SOL    HW132771   0.004   1.670   6.351
10624SOL    HW232772   0.031   1.527   6.425
10625SOL     OW32773   5.612   5.453   0.072
10625SOL    HW132774   5.526   5.403   0.084
10625SOL    HW232775   5.660   5.459   0.159
10626SOL     OW32776   5.728   3.111   2.252
10626SOL    HW132777   5.650   3.169   2.274
10626SOL    HW232778   5.789   3.105   2.330
10627SOL     OW32779   6.043   4.670   5.573
10627SOL    HW132780   5.971   4.684   5.504
10627SOL    HW232781   6.009   4.609   5.645
10628SOL     OW32782   2.449   5.759   1.227
10628SOL    HW132783   2.538   5.802   1.242
10628SOL    HW232784   2.398   5.809   1.157
10629SOL     OW32785   4.292   4.941   4.144
10629SOL    HW132786   4.277   4.971   4.050
10629SOL    HW232787   4.248   5.005   4.207
10630SOL     OW32788   3.829   0.764   1.263
10630SOL    HW132789   3.770   0.843   1.278
10630SOL    HW232790   3.924   0.791   1.273
10631SOL     OW32791   3.609   5.760   1.609
10631SOL    HW132792   3.702   5.724   1.608
10631SOL    HW232793   3.603   5.839   1.547
10632SOL     OW32794   5.675   6.693   4.374
10632SOL    HW132795   5.734   6.694   4.292
10632SOL    HW232796   5.583   6.663   4.348
10633SOL     OW32797   2.256   2.755   0.350
10633SOL    HW132798   2.182   2.736   0.414
10633SOL    HW232799   2.222   2.810   0.273
10634SOL     OW32800   1.062   4.773   0.143
10634SOL    HW132801   1.143   4.739   0.096
10634SOL    HW232802   1.052   4.724   0.230
10635SOL     OW32803   3.049   4.657   6.559
10635SOL    HW132804   3.128   4.713   6.582
10635SOL    HW232805   2.985   4.710   6.503
10636SOL     OW32806   6.218   3.217   0.718
10636SOL    HW132807   6.314   3.197   0.735
10636SOL    HW232808   6.164   3.192   0.798
10637SOL     OW32809   2.641   0.745   6.289
10637SOL    HW132810   2.693   0.815   6.338
10637SOL    HW232811   2.574   0.789   6.229
10638SOL     OW32812   5.378   5.048   0.017
10638SOL    HW132813   5.443   4.998   0.074
10638SOL    HW232814   5.383   5.013   6.949
10639SOL     OW32815   6.309   5.001   0.225
10639SOL    HW132816   6.233   4.940   0.204
10639SOL    HW232817   6.378   4.951   0.278
10640SOL     OW32818   3.635   6.121   4.008
10640SOL    HW132819   3.726   6.153   3.984
10640SOL    HW232820   3.569   6.151   3.939
10641SOL     OW32821   1.124   1.451   3.503
10641SOL    HW132822   1.058   1.414   3.567
10641SOL    HW232823   1.076   1.497   3.428
10642SOL     OW32824   0.221   2.165   6.283
10642SOL    HW132825   0.273   2.197   6.363
10642SOL    HW232826   0.190   2.244   6.230
10643SOL     OW32827   2.837   5.262   5.873
10643SOL    HW132828   2.770   5.246   5.946
10643SOL    HW232829   2.882   5.350   5.889
10644SOL     OW32830   0.249   3.605   3.283
10644SOL    HW132831   0.243   3.593   3.184
10644SOL    HW232832   0.338   3.573   3.316
10645SOL     OW32833   2.276   2.780   3.323
10645SOL    HW132834   2.284   2.864   3.377
10645SOL    HW232835   2.288   2.802   3.226
10646SOL     OW32836   5.043   0.706   3.430
10646SOL    HW132837   5.095   0.748   3.355
10646SOL    HW232838   5.020   0.776   3.497
10647SOL     OW32839   4.084   5.435   4.824
10647SOL    HW132840   4.030   5.495   4.882
10647SOL    HW232841   4.174   5.419   4.866
10648SOL     OW32842   4.907   4.116   5.519
10648SOL    HW132843   4.966   4.138   5.597
10648SOL    HW232844   4.827   4.176   5.520
10649SOL     OW32845   6.183   3.534   3.712
10649SOL    HW132846   6.262   3.591   3.687
10649SOL    HW232847   6.187   3.447   3.663
10650SOL     OW32848   0.576   6.795   2.959
10650SOL    HW132849   0.513   6.829   3.028
10650SOL    HW232850   0.587   6.863   2.887
10651SOL     OW32851   2.142   6.106   6.128
10651SOL    HW132852   2.044   6.127   6.121
10651SOL    HW232853   2.166   6.036   6.061
10652SOL     OW32854   2.464   0.788   0.058
10652SOL    HW132855   2.393   0.794   0.127
10652SOL    HW232856   2.423   0.772   6.994
10653SOL     OW32857   5.382   6.207   4.656
10653SOL    HW132858   5.288   6.220   4.623
10653SOL    HW232859   5.436   6.162   4.585
10654SOL     OW32860   6.597   1.568   3.981
10654SOL    HW132861   6.647   1.621   4.049
10654SOL    HW232862   6.587   1.473   4.013
10655SOL     OW32863   6.674   5.505   0.741
10655SOL    HW132864   6.622   5.422   0.722
10655SOL    HW232865   6.621   5.565   0.801
10656SOL     OW32866   6.014   1.278   5.832
10656SOL    HW132867   5.976   1.284   5.740
10656SOL    HW232868   5.979   1.197   5.879
10657SOL     OW32869   4.834   6.723   5.354
10657SOL    HW132870   4.758   6.787   5.366
10657SOL    HW232871   4.919   6.766   5.384
10658SOL     OW32872   0.682   1.406   5.794
10658SOL    HW132873   0.651   1.350   5.717
10658SOL    HW232874   0.613   1.402   5.867
10659SOL     OW32875   0.032   5.881   6.999
10659SOL    HW132876   0.109   5.861   0.033
10659SOL    HW232877   0.013   5.802   6.941
10660SOL     OW32878   6.145   2.648   6.616
10660SOL    HW132879   6.064   2.672   6.562
10660SOL    HW232880   6.140   2.552   6.643
10661SOL     OW32881   3.902   5.715   6.027
10661SOL    HW132882   3.910   5.746   6.122
10661SOL    HW232883   3.869   5.791   5.970
10662SOL     OW32884   3.069   1.018   0.837
10662SOL    HW132885   3.021   1.098   0.872
10662SOL    HW232886   3.066   0.944   0.905
10663SOL     OW32887   0.267   3.360   4.061
10663SOL    HW132888   0.261   3.458   4.039
10663SOL    HW232889   0.313   3.312   3.986
10664SOL     OW32890   1.000   6.479   4.735
10664SOL    HW132891   1.011   6.534   4.817
10664SOL    HW232892   0.996   6.382   4.759
10665SOL     OW32893   3.446   3.826   0.243
10665SOL    HW132894   3.541   3.833   0.273
10665SOL    HW232895   3.408   3.739   0.274
10666SOL     OW32896   4.292   3.462   1.068
10666SOL    HW132897   4.361   3.479   1.139
10666SOL    HW232898   4.332   3.406   0.996
10667SOL     OW32899   5.770   2.534   4.164
10667SOL    HW132900   5.813   2.560   4.251
10667SOL    HW232901   5.686   2.587   4.152
10668SOL     OW32902   3.271   3.348   6.068
10668SOL    HW132903   3.252   3.439   6.030
10668SOL    HW232904   3.370   3.335   6.075
10669SOL     OW32905   6.447   2.125   1.703
10669SOL    HW132906   6.358   2.079   1.698
10669SOL    HW232907   6.486   2.112   1.794
10670SOL     OW32908   4.748   4.806   3.590
10670SOL    HW132909   4.775   4.733   3.653
10670SOL    HW232910   4.649   4.819   3.593
10671SOL     OW32911   1.982   3.033   4.757
10671SOL    HW132912   1.960   3.131   4.763
10671SOL    HW232913   2.081   3.022   4.766
10672SOL     OW32914   6.250   4.263   1.339
10672SOL    HW132915   6.197   4.188   1.378
10672SOL    HW232916   6.255   4.338   1.405
10673SOL     OW32917   2.897   1.208   0.972
10673SOL    HW132918   2.814   1.170   1.013
10673SOL    HW232919   2.888   1.307   0.966
10674SOL     OW32920   3.804   3.550   4.508
10674SOL    HW132921   3.892   3.588   4.481
10674SOL    HW232922   3.793   3.459   4.469
10675SOL     OW32923   3.622   6.445   5.533
10675SOL    HW132924   3.700   6.500   5.563
10675SOL    HW232925   3.654   6.375   5.469
10676SOL     OW32926   1.641   1.005   5.006
10676SOL    HW132927   1.672   0.976   5.097
10676SOL    HW232928   1.711   1.062   4.963
10677SOL     OW32929   0.177   2.018   0.089
10677SOL    HW132930   0.200   2.088   0.157
10677SOL    HW232931   0.154   2.061   0.002
10678SOL     OW32932   3.798   5.188   2.593
10678SOL    HW132933   3.708   5.204   2.553
10678SOL    HW232934   3.805   5.236   2.681
10679SOL     OW32935   4.729   3.869   0.567
10679SOL    HW132936   4.712   3.770   0.570
10679SOL    HW232937   4.819   3.886   0.527
10680SOL     OW32938   4.512   0.982   5.667
10680SOL    HW132939   4.516   0.981   5.767
10680SOL    HW232940   4.475   0.895   5.634
10681SOL     OW32941   2.391   3.261   5.314
10681SOL    HW132942   2.469   3.322   5.304
10681SOL    HW232943   2.411   3.173   5.270
10682SOL     OW32944   5.201   3.613   6.044
10682SOL    HW132945   5.283   3.617   5.987
10682SOL    HW232946   5.212   3.674   6.122
10683SOL     OW32947   2.348   0.767   3.237
10683SOL    HW132948   2.301   0.688   3.198
10683SOL    HW232949   2.444   0.744   3.253
10684SOL     OW32950   4.857   4.718   1.544
10684SOL    HW132951   4.803   4.767   1.476
10684SOL    HW232952   4.821   4.737   1.635
10685SOL     OW32953   1.191   6.995   2.479
10685SOL    HW132954   1.183   6.935   2.559
10685SOL    HW232955   1.127   0.045   2.489
10686SOL     OW32956   2.370   1.299   6.656
10686SOL    HW132957   2.278   1.293   6.694
10686SOL    HW232958   2.389   1.217   6.601
10687SOL     OW32959   0.788   3.541   3.434
10687SOL    HW132960   0.705   3.586   3.469
10687SOL    HW232961   0.868   3.594   3.461
10688SOL     OW32962   4.985   1.267   3.680
10688SOL    HW132963   4.993   1.357   3.636
10688SOL    HW232964   5.038   1.200   3.628
10689SOL     OW32965   1.083   1.300   2.664
10689SOL    HW132966   1.061   1.232   2.735
10689SOL    HW232967   1.061   1.391   2.698
10690SOL     OW32968   1.302   6.803   4.741
10690SOL    HW132969   1.373   6.844   4.684
10690SOL    HW232970   1.213   6.814   4.696
10691SOL     OW32971   3.201   6.378   1.406
10691SOL    HW132972   3.277   6.314   1.396
10691SOL    HW232973   3.147   6.352   1.486
10692SOL     OW32974   2.789   1.602   4.355
10692SOL    HW132975   2.785   1.664   4.277
10692SOL    HW232976   2.752   1.513   4.330
10693SOL     OW32977   0.917   4.870   0.550
10693SOL    HW132978   0.985   4.861   0.622
10693SOL    HW232979   0.925   4.960   0.507
10694SOL     OW32980   4.269   0.622   5.161
10694SOL    HW132981   4.194   0.558   5.180
10694SOL    HW232982   4.340   0.611   5.231
10695SOL     OW32983   5.172   4.277   1.931
10695SOL    HW132984   5.194   4.369   1.964
10695SOL    HW232985   5.138   4.282   1.837
10696SOL     OW32986   6.462   4.187   4.379
10696SOL    HW132987   6.397   4.256   4.347
10696SOL    HW232988   6.524   4.228   4.445
10697SOL     OW32989   3.041   5.349   5.234
10697SOL    HW132990   3.132   5.321   5.263
10697SOL    HW232991   2.999   5.275   5.181
10698SOL     OW32992   3.913   3.807   6.990
10698SOL    HW132993   3.900   3.891   0.017
10698SOL    HW232994   3.828   3.756   6.988
10699SOL     OW32995   3.652   3.366   0.996
10699SOL    HW132996   3.616   3.312   0.920
10699SOL    HW232997   3.698   3.448   0.960
10700SOL     OW32998   4.903   0.316   1.268
10700SOL    HW132999   4.921   0.334   1.172
10700SOL    HW233000   4.822   0.257   1.277
10701SOL     OW33001   3.255   6.352   6.395
10701SOL    HW133002   3.251   6.263   6.440
10701SOL    HW233003   3.162   6.389   6.387
10702SOL     OW33004   5.948   1.508   2.032
10702SOL    HW133005   5.869   1.569   2.026
10702SOL    HW233006   6.004   1.534   2.112
10703SOL     OW33007   0.376   1.831   5.296
10703SOL    HW133008   0.373   1.904   5.228
10703SOL    HW233009   0.392   1.870   5.387
10704SOL     OW33010   5.204   6.525   2.214
10704SOL    HW133011   5.213   6.525   2.115
10704SOL    HW233012   5.204   6.431   2.248
10705SOL     OW33013   4.684   3.222   0.578
10705SOL    HW133014   4.756   3.190   0.517
10705SOL    HW233015   4.629   3.292   0.532
10706SOL     OW33016   3.551   0.838   1.454
10706SOL    HW133017   3.616   0.909   1.426
10706SOL    HW233018   3.540   0.771   1.381
10707SOL     OW33019   4.863   6.646   3.347
10707SOL    HW133020   4.776   6.648   3.296
10707SOL    HW233021   4.866   6.563   3.404
10708SOL     OW33022   4.194   0.947   1.875
10708SOL    HW133023   4.213   1.007   1.797
10708SOL    HW233024   4.096   0.939   1.887
10709SOL     OW33025   6.266   4.510   2.921
10709SOL    HW133026   6.335   4.474   2.983
10709SOL    HW233027   6.184   4.454   2.927
10710SOL     OW33028   4.513   1.904   3.641
10710SOL    HW133029   4.425   1.951   3.645
10710SOL    HW233030   4.519   1.838   3.716
10711SOL     OW33031   3.191   6.879   2.558
10711SOL    HW133032   3.283   6.841   2.551
10711SOL    HW233033   3.177   6.945   2.484
10712SOL     OW33034   5.325   0.391   3.639
10712SOL    HW133035   5.240   0.340   3.626
10712SOL    HW233036   5.378   0.349   3.712
10713SOL     OW33037   1.661   4.197   1.562
10713SOL    HW133038   1.609   4.244   1.490
10713SOL    HW233039   1.600   4.138   1.615
10714SOL     OW33040   2.909   3.913   5.131
10714SOL    HW133041   2.816   3.950   5.137
10714SOL    HW233042   2.929   3.887   5.037
10715SOL     OW33043   5.736   0.791   1.966
10715SOL    HW133044   5.667   0.759   2.031
10715SOL    HW233045   5.742   0.728   1.889
10716SOL     OW33046   5.208   0.808   3.224
10716SOL    HW133047   5.208   0.854   3.134
10716SOL    HW233048   5.273   0.853   3.284
10717SOL     OW33049   2.137   3.029   6.829
10717SOL    HW133050   2.129   3.128   6.817
10717SOL    HW233051   2.214   3.008   6.889
10718SOL     OW33052   1.588   4.900   6.072
10718SOL    HW133053   1.533   4.980   6.048
10718SOL    HW233054   1.545   4.852   6.149
10719SOL     OW33055   0.414   5.789   4.789
10719SOL    HW133056   0.469   5.746   4.717
10719SOL    HW233057   0.324   5.744   4.793
10720SOL     OW33058   0.264   4.997   3.209
10720SOL    HW133059   0.273   5.032   3.115
10720SOL    HW233060   0.169   4.970   3.225
10721SOL     OW33061   4.946   3.496   6.063
10721SOL    HW133062   5.032   3.547   6.062
10721SOL    HW233063   4.946   3.430   5.987
10722SOL     OW33064   6.994   3.476   5.506
10722SOL    HW133065   6.911   3.448   5.458
10722SOL    HW233066   0.026   3.395   5.521
10723SOL     OW33067   5.407   6.733   0.736
10723SOL    HW133068   5.474   6.803   0.710
10723SOL    HW233069   5.453   6.647   0.754
10724SOL     OW33070   0.195   6.359   6.628
10724SOL    HW133071   0.275   6.366   6.568
10724SOL    HW233072   0.223   6.377   6.722
10725SOL     OW33073   1.857   6.170   5.778
10725SOL    HW133074   1.934   6.109   5.762
10725SOL    HW233075   1.773   6.116   5.787
10726SOL     OW33076   4.431   1.214   4.161
10726SOL    HW133077   4.429   1.165   4.248
10726SOL    HW233078   4.515   1.268   4.155
10727SOL     OW33079   2.205   6.466   6.382
10727SOL    HW133080   2.157   6.553   6.388
10727SOL    HW233081   2.159   6.407   6.316
10728SOL     OW33082   5.440   5.657   0.709
10728SOL    HW133083   5.404   5.736   0.659
10728SOL    HW233084   5.390   5.574   0.681
10729SOL     OW33085   6.061   2.063   1.158
10729SOL    HW133086   6.141   2.012   1.189
10729SOL    HW233087   6.085   2.159   1.147
10730SOL     OW33088   4.386   0.265   2.691
10730SOL    HW133089   4.331   0.337   2.734
10730SOL    HW233090   4.325   0.199   2.646
10731SOL     OW33091   4.548   0.011   1.045
10731SOL    HW133092   4.507   6.998   0.963
10731SOL    HW233093   4.477   0.032   1.112
10732SOL     OW33094   1.105   3.453   5.649
10732SOL    HW133095   1.171   3.495   5.711
10732SOL    HW233096   1.045   3.524   5.611
10733SOL     OW33097   6.061   1.747   0.349
10733SOL    HW133098   6.049   1.652   0.318
10733SOL    HW233099   6.009   1.762   0.433
10734SOL     OW33100   6.614   2.900   1.775
10734SOL    HW133101   6.713   2.886   1.763
10734SOL    HW233102   6.594   2.905   1.873
10735SOL     OW33103   0.362   4.782   3.047
10735SOL    HW133104   0.285   4.768   3.110
10735SOL    HW233105   0.373   4.701   2.989
10736SOL     OW33106   2.357   0.603   3.761
10736SOL    HW133107   2.362   0.676   3.829
10736SOL    HW233108   2.360   0.514   3.807
10737SOL     OW33109   6.781   2.132   0.963
10737SOL    HW133110   6.826   2.097   0.881
10737SOL    HW233111   6.729   2.215   0.938
10738SOL     OW33112   4.283   6.909   3.690
10738SOL    HW133113   4.269   6.929   3.592
10738SOL    HW233114   4.297   6.995   3.739
10739SOL     OW33115   2.808   1.800   1.830
10739SOL    HW133116   2.809   1.815   1.929
10739SOL    HW233117   2.759   1.876   1.786
10740SOL     OW33118   4.272   5.184   3.152
10740SOL    HW133119   4.195   5.174   3.089
10740SOL    HW233120   4.336   5.253   3.116
10741SOL     OW33121   3.722   0.691   2.758
10741SOL    HW133122   3.704   0.617   2.694
10741SOL    HW233123   3.773   0.656   2.837
10742SOL     OW33124   6.733   5.572   0.479
10742SOL    HW133125   6.655   5.577   0.417
10742SOL    HW233126   6.702   5.543   0.569
10743SOL     OW33127   2.145   2.596   5.098
10743SOL    HW133128   2.223   2.638   5.051
10743SOL    HW233129   2.161   2.600   5.197
10744SOL     OW33130   5.119   1.805   0.635
10744SOL    HW133131   5.059   1.845   0.565
10744SOL    HW233132   5.214   1.819   0.608
10745SOL     OW33133   6.558   5.866   6.457
10745SOL    HW133134   6.612   5.927   6.400
10745SOL    HW233135   6.468   5.851   6.416
10746SOL     OW33136   0.926   4.294   6.186
10746SOL    HW133137   0.999   4.362   6.198
10746SOL    HW233138   0.962   4.214   6.139
10747SOL     OW33139   3.252   2.071   4.563
10747SOL    HW133140   3.165   2.100   4.524
10747SOL    HW233141   3.262   2.111   4.655
10748SOL     OW33142   4.848   1.630   2.109
10748SOL    HW133143   4.831   1.673   2.020
10748SOL    HW233144   4.924   1.567   2.102
10749SOL     OW33145   2.554   0.293   6.804
10749SOL    HW133146   2.637   0.315   6.752
10749SOL    HW233147   2.580   0.253   6.892
10750SOL     OW33148   4.058   0.087   6.311
10750SOL    HW133149   4.000   0.128   6.382
10750SOL    HW233150   4.149   0.069   6.349
10751SOL     OW33151   1.939   5.263   3.868
10751SOL    HW133152   1.898   5.250   3.777
10751SOL    HW233153   2.039   5.266   3.859
10752SOL     OW33154   5.353   4.636   3.943
10752SOL    HW133155   5.295   4.622   3.863
10752SOL    HW233156   5.297   4.642   4.025
10753SOL     OW33157   6.510   3.294   4.617
10753SOL    HW133158   6.522   3.336   4.707
10753SOL    HW233159   6.428   3.236   4.618
10754SOL     OW33160   1.421   0.168   2.664
10754SOL    HW133161   1.468   0.109   2.597
10754SOL    HW233162   1.339   0.122   2.697
10755SOL     OW33163   5.970   5.375   2.091
10755SOL    HW133164   5.930   5.283   2.086
10755SOL    HW233165   6.062   5.369   2.130
10756SOL     OW33166   0.767   0.025   5.256
10756SOL    HW133167   0.686   6.993   5.247
10756SOL    HW233168   0.738   0.118   5.279
10757SOL     OW33169   2.935   3.231   1.072
10757SOL    HW133170   2.965   3.145   1.114
10757SOL    HW233171   2.844   3.218   1.031
10758SOL     OW33172   0.681   5.102   4.040
10758SOL    HW133173   0.649   5.172   4.104
10758SOL    HW233174   0.767   5.064   4.072
10759SOL     OW33175   0.154   1.715   6.664
10759SOL    HW133176   0.107   1.627   6.674
10759SOL    HW233177   0.086   1.787   6.651
10760SOL     OW33178   5.716   1.216   4.374
10760SOL    HW133179   5.651   1.258   4.310
10760SOL    HW233180   5.746   1.285   4.440
10761SOL     OW33181   2.588   4.842   5.592
10761SOL    HW133182   2.570   4.749   5.558
10761SOL    HW233183   2.687   4.856   5.596
10762SOL     OW33184   3.066   1.424   4.859
10762SOL    HW133185   3.106   1.337   4.828
10762SOL    HW233186   2.976   1.407   4.898
10763SOL     OW33187   4.249   6.498   3.768
10763SOL    HW133188   4.274   6.423   3.830
10763SOL    HW233189   4.331   6.545   3.738
10764SOL     OW33190   4.806   0.238   4.637
10764SOL    HW133191   4.820   0.331   4.602
10764SOL    HW233192   4.725   0.236   4.695
10765SOL     OW33193   5.627   3.648   0.648
10765SOL    HW133194   5.710   3.592   0.652
10765SOL    HW233195   5.595   3.654   0.554
10766SOL     OW33196   3.629   3.698   1.440
10766SOL    HW133197   3.619   3.645   1.355
10766SOL    HW233198   3.677   3.642   1.508
10767SOL     OW33199   4.722   1.656   2.369
10767SOL    HW133200   4.675   1.745   2.364
10767SOL    HW233201   4.781   1.645   2.289
10768SOL     OW33202   5.961   4.580   0.002
10768SOL    HW133203   5.970   4.627   6.941
10768SOL    HW233204   5.971   4.481   7.014
10769SOL     OW33205   1.708   3.971   5.447
10769SOL    HW133206   1.663   4.049   5.403
10769SOL    HW233207   1.807   3.977   5.435
10770SOL     OW33208   3.796   5.975   3.754
10770SOL    HW133209   3.759   5.912   3.823
10770SOL    HW233210   3.891   5.950   3.734
10771SOL     OW33211   2.308   1.297   4.196
10771SOL    HW133212   2.264   1.331   4.112
10771SOL    HW233213   2.380   1.232   4.171
10772SOL     OW33214   5.427   5.357   3.430
10772SOL    HW133215   5.343   5.309   3.456
10772SOL    HW233216   5.423   5.380   3.332
10773SOL     OW33217   5.796   4.331   3.423
10773SOL    HW133218   5.738   4.306   3.500
10773SOL    HW233219   5.793   4.430   3.409
10774SOL     OW33220   0.283   0.113   3.058
10774SOL    HW133221   0.363   0.173   3.058
10774SOL    HW233222   0.216   0.147   3.124
10775SOL     OW33223   0.630   3.464   1.725
10775SOL    HW133224   0.685   3.406   1.665
10775SOL    HW233225   0.676   3.473   1.814
10776SOL     OW33226   1.424   0.538   6.271
10776SOL    HW133227   1.465   0.475   6.337
10776SOL    HW233228   1.496   0.596   6.232
10777SOL     OW33229   2.499   5.478   1.197
10777SOL    HW133230   2.476   5.575   1.199
10777SOL    HW233231   2.492   5.440   1.289
10778SOL     OW33232   5.806   5.573   2.474
10778SOL    HW133233   5.824   5.513   2.551
10778SOL    HW233234   5.754   5.524   2.404
10779SOL     OW33235   5.000   2.823   3.929
10779SOL    HW133236   4.971   2.744   3.983
10779SOL    HW233237   4.956   2.820   3.839
10780SOL     OW33238   6.403   0.180   2.719
10780SOL    HW133239   6.435   0.145   2.631
10780SOL    HW233240   6.454   0.262   2.743
10781SOL     OW33241   3.697   0.195   4.110
10781SOL    HW133242   3.730   0.245   4.030
10781SOL    HW233243   3.633   0.124   4.080
10782SOL     OW33244   5.956   5.221   3.988
10782SOL    HW133245   5.935   5.319   3.991
10782SOL    HW233246   5.919   5.181   3.905
10783SOL     OW33247   6.855   2.060   3.597
10783SOL    HW133248   6.936   2.041   3.543
10783SOL    HW233249   6.862   2.015   3.686
10784SOL     OW33250   2.793   1.502   4.610
10784SOL    HW133251   2.819   1.552   4.527
10784SOL    HW233252   2.780   1.567   4.685
10785SOL     OW33253   1.265   3.665   6.046
10785SOL    HW133254   1.324   3.746   6.049
10785SOL    HW233255   1.308   3.590   6.097
10786SOL     OW33256   0.264   4.727   3.658
10786SOL    HW133257   0.203   4.724   3.579
10786SOL    HW233258   0.342   4.668   3.642
10787SOL     OW33259   1.742   2.248   6.471
10787SOL    HW133260   1.651   2.268   6.436
10787SOL    HW233261   1.775   2.324   6.526
10788SOL     OW33262   5.901   3.716   6.144
10788SOL    HW133263   5.828   3.781   6.164
10788SOL    HW233264   5.972   3.762   6.091
10789SOL     OW33265   5.781   2.063   0.867
10789SOL    HW133266   5.799   2.093   0.774
10789SOL    HW233267   5.777   2.142   0.928
10790SOL     OW33268   0.003   6.162   3.161
10790SOL    HW133269   0.064   6.220   3.107
10790SOL    HW233270   7.026   6.195   3.255
10791SOL     OW33271   0.578   6.514   2.857
10791SOL    HW133272   0.550   6.600   2.899
10791SOL    HW233273   0.648   6.470   2.913
10792SOL     OW33274   3.929   4.050   5.621
10792SOL    HW133275   3.878   4.009   5.697
10792SOL    HW233276   3.867   4.106   5.566
10793SOL     OW33277   6.079   3.706   4.767
10793SOL    HW133278   6.001   3.767   4.772
10793SOL    HW233279   6.136   3.730   4.688
10794SOL     OW33280   3.363   4.039   3.708
10794SOL    HW133281   3.391   4.090   3.789
10794SOL    HW233282   3.263   4.042   3.699
10795SOL     OW33283   6.966   4.887   3.195
10795SOL    HW133284   6.917   4.918   3.276
10795SOL    HW233285   6.901   4.867   3.122
10796SOL     OW33286   1.363   6.208   5.185
10796SOL    HW133287   1.364   6.287   5.124
10796SOL    HW233288   1.271   6.195   5.222
10797SOL     OW33289   3.495   2.635   0.118
10797SOL    HW133290   3.427   2.649   0.046
10797SOL    HW233291   3.470   2.689   0.199
10798SOL     OW33292   6.690   1.364   0.986
10798SOL    HW133293   6.729   1.287   1.036
10798SOL    HW233294   6.629   1.415   1.046
10799SOL     OW33295   4.725   2.117   1.340
10799SOL    HW133296   4.636   2.084   1.371
10799SOL    HW233297   4.794   2.048   1.359
10800SOL     OW33298   0.346   0.068   1.906
10800SOL    HW133299   0.430   0.120   1.888
10800SOL    HW233300   0.334   7.024   1.836
10801SOL     OW33301   1.668   0.631   1.188
10801SOL    HW133302   1.727   0.578   1.249
10801SOL    HW233303   1.721   0.706   1.148
10802SOL     OW33304   6.201   1.245   3.257
10802SOL    HW133305   6.172   1.151   3.241
10802SOL    HW233306   6.250   1.250   3.344
10803SOL     OW33307   2.150   5.607   5.989
10803SOL    HW133308   2.188   5.699   5.979
10803SOL    HW233309   2.133   5.568   5.898
10804SOL     OW33310   0.083   2.982   4.300
10804SOL    HW133311   0.060   3.077   4.282
10804SOL    HW233312   0.151   2.977   4.373
10805SOL     OW33313   6.503   1.456   6.642
10805SOL    HW133314   6.457   1.369   6.656
10805SOL    HW233315   6.517   1.472   6.545
10806SOL     OW33316   1.775   5.075   0.093
10806SOL    HW133317   1.861   5.026   0.079
10806SOL    HW233318   1.764   5.096   0.191
10807SOL     OW33319   2.802   5.945   5.339
10807SOL    HW133320   2.900   5.953   5.360
10807SOL    HW233321   2.781   5.851   5.315
10808SOL     OW33322   0.808   3.189   6.266
10808SOL    HW133323   0.772   3.105   6.306
10808SOL    HW233324   0.732   3.250   6.243
10809SOL     OW33325   1.999   0.170   4.659
10809SOL    HW133326   2.039   0.136   4.574
10809SOL    HW233327   1.975   0.267   4.649
10810SOL     OW33328   6.410   0.286   4.011
10810SOL    HW133329   6.460   0.300   3.925
10810SOL    HW233330   6.313   0.271   3.991
10811SOL     OW33331   5.175   4.965   4.573
10811SOL    HW133332   5.253   5.027   4.585
10811SOL    HW233333   5.091   5.018   4.562
10812SOL     OW33334   6.244   2.984   0.397
10812SOL    HW133335   6.202   3.074   0.385
10812SOL    HW233336   6.333   2.995   0.441
10813SOL     OW33337   0.503   3.134   6.010
10813SOL    HW133338   0.464   3.112   5.921
10813SOL    HW233339   0.591   3.087   6.020
10814SOL     OW33340   3.185   1.362   0.906
10814SOL    HW133341   3.099   1.393   0.865
10814SOL    HW233342   3.182   1.375   1.005
10815SOL     OW33343   5.584   0.846   4.623
10815SOL    HW133344   5.640   0.886   4.551
10815SOL    HW233345   5.570   0.749   4.604
10816SOL     OW33346   3.459   2.893   4.690
10816SOL    HW133347   3.425   2.892   4.596
10816SOL    HW233348   3.382   2.883   4.753
10817SOL     OW33349   1.613   6.180   3.810
10817SOL    HW133350   1.698   6.221   3.777
10817SOL    HW233351   1.583   6.227   3.893
10818SOL     OW33352   3.971   4.360   6.651
10818SOL    HW133353   3.880   4.385   6.685
10818SOL    HW233354   4.011   4.439   6.603
10819SOL     OW33355   6.384   6.584   5.377
10819SOL    HW133356   6.291   6.617   5.389
10819SOL    HW233357   6.382   6.493   5.336
10820SOL     OW33358   2.647   4.332   5.909
10820SOL    HW133359   2.611   4.414   5.955
10820SOL    HW233360   2.591   4.253   5.934
10821SOL     OW33361   4.818   5.202   2.693
10821SOL    HW133362   4.781   5.291   2.720
10821SOL    HW233363   4.917   5.203   2.704
10822SOL     OW33364   5.458   1.038   1.901
10822SOL    HW133365   5.459   0.977   1.979
10822SOL    HW233366   5.477   0.986   1.817
10823SOL     OW33367   5.671   6.730   1.236
10823SOL    HW133368   5.587   6.777   1.263
10823SOL    HW233369   5.675   6.726   1.136
10824SOL     OW33370   1.057   2.837   4.025
10824SOL    HW133371   1.025   2.813   4.116
10824SOL    HW233372   1.102   2.926   4.028
10825SOL     OW33373   0.641   2.723   0.568
10825SOL    HW133374   0.657   2.679   0.657
10825SOL    HW233375   0.593   2.810   0.582
10826SOL     OW33376   0.346   3.395   3.055
10826SOL    HW133377   0.360   3.450   2.972
10826SOL    HW233378   0.249   3.397   3.080
10827SOL     OW33379   0.147   4.138   4.773
10827SOL    HW133380   0.189   4.058   4.730
10827SOL    HW233381   0.068   4.108   4.827
10828SOL     OW33382   6.545   4.481   5.190
10828SOL    HW133383   6.493   4.525   5.263
10828SOL    HW233384   6.609   4.415   5.229
10829SOL     OW33385   3.583   2.823   5.130
10829SOL    HW133386   3.485   2.831   5.111
10829SOL    HW233387   3.597   2.779   5.218
10830SOL     OW33388   5.022   2.165   3.063
10830SOL    HW133389   5.057   2.129   2.976
10830SOL    HW233390   4.925   2.186   3.054
10831SOL     OW33391   3.938   0.014   3.898
10831SOL    HW133392   3.963   6.982   3.820
10831SOL    HW233393   3.938   6.985   3.982
10832SOL     OW33394   6.757   2.626   6.968
10832SOL    HW133395   6.756   2.721   6.999
10832SOL    HW233396   6.695   2.571   7.025
10833SOL     OW33397   0.599   1.277   6.980
10833SOL    HW133398   0.650   1.360   7.001
10833SOL    HW233399   0.502   1.290   7.003
10834SOL     OW33400   6.286   6.441   1.707
10834SOL    HW133401   6.267   6.476   1.799
10834SOL    HW233402   6.301   6.517   1.645
10835SOL     OW33403   0.145   2.208   5.486
10835SOL    HW133404   0.118   2.296   5.524
10835SOL    HW233405   0.241   2.210   5.460
10836SOL     OW33406   0.040   1.156   3.264
10836SOL    HW133407   6.978   1.202   3.268
10836SOL    HW233408   0.098   1.200   3.195
10837SOL     OW33409   0.294   3.428   3.680
10837SOL    HW133410   0.297   3.513   3.733
10837SOL    HW233411   0.229   3.438   3.605
10838SOL     OW33412   0.474   6.117   2.249
10838SOL    HW133413   0.422   6.032   2.238
10838SOL    HW233414   0.530   6.111   2.332
10839SOL     OW33415   4.785   2.835   0.322
10839SOL    HW133416   4.793   2.869   0.228
10839SOL    HW233417   4.688   2.824   0.345
10840SOL     OW33418   2.443   0.351   1.497
10840SOL    HW133419   2.421   0.285   1.426
10840SOL    HW233420   2.411   0.441   1.470
10841SOL     OW33421   2.127   5.251   5.045
10841SOL    HW133422   2.056   5.316   5.072
10841SOL    HW233423   2.127   5.173   5.108
10842SOL     OW33424   5.261   4.666   2.248
10842SOL    HW133425   5.242   4.762   2.267
10842SOL    HW233426   5.285   4.618   2.332
10843SOL     OW33427   2.932   1.996   1.198
10843SOL    HW133428   2.988   2.012   1.280
10843SOL    HW233429   2.986   2.014   1.117
10844SOL     OW33430   1.231   5.093   5.375
10844SOL    HW133431   1.320   5.108   5.417
10844SOL    HW233432   1.239   5.024   5.304
10845SOL     OW33433   4.024   0.082   4.382
10845SOL    HW133434   4.056   0.020   4.310
10845SOL    HW233435   4.052   0.047   4.471
10846SOL     OW33436   5.679   0.133   6.174
10846SOL    HW133437   5.704   0.131   6.077
10846SOL    HW233438   5.709   0.048   6.218
10847SOL     OW33439   3.332   0.493   6.245
10847SOL    HW133440   3.252   0.515   6.301
10847SOL    HW233441   3.355   0.397   6.254
10848SOL     OW33442   1.696   4.561   1.761
10848SOL    HW133443   1.688   4.538   1.664
10848SOL    HW233444   1.734   4.652   1.771
10849SOL     OW33445   2.283   6.666   2.956
10849SOL    HW133446   2.334   6.631   3.035
10849SOL    HW233447   2.335   6.647   2.872
10850SOL     OW33448   4.197   4.515   0.935
10850SOL    HW133449   4.271   4.450   0.953
10850SOL    HW233450   4.174   4.513   0.838
10851SOL     OW33451   1.743   4.692   0.739
10851SOL    HW133452   1.761   4.765   0.673
10851SOL    HW233453   1.700   4.615   0.693
10852SOL     OW33454   2.488   2.247   2.440
10852SOL    HW133455   2.423   2.274   2.512
10852SOL    HW233456   2.489   2.317   2.369
10853SOL     OW33457   3.408   1.474   6.097
10853SOL    HW133458   3.357   1.514   6.020
10853SOL    HW233459   3.408   1.374   6.088
10854SOL     OW33460   2.778   6.169   5.757
10854SOL    HW133461   2.759   6.187   5.660
10854SOL    HW233462   2.738   6.242   5.812
10855SOL     OW33463   4.076   1.737   0.135
10855SOL    HW133464   4.124   1.689   0.062
10855SOL    HW233465   4.115   1.710   0.223
10856SOL     OW33466   0.649   1.186   0.537
10856SOL    HW133467   0.594   1.219   0.460
10856SOL    HW233468   0.590   1.141   0.604
10857SOL     OW33469   6.642   2.873   2.053
10857SOL    HW133470   6.677   2.959   2.089
10857SOL    HW233471   6.580   2.831   2.119
10858SOL     OW33472   2.605   6.640   2.396
10858SOL    HW133473   2.506   6.652   2.383
10858SOL    HW233474   2.647   6.616   2.308
10859SOL     OW33475   1.574   5.363   4.066
10859SOL    HW133476   1.546   5.442   4.012
10859SOL    HW233477   1.511   5.288   4.052
10860SOL     OW33478   6.668   4.211   3.569
10860SOL    HW133479   6.699   4.147   3.499
10860SOL    HW233480   6.726   4.201   3.650
10861SOL     OW33481   3.510   2.798   5.440
10861SOL    HW133482   3.415   2.810   5.467
10861SOL    HW233483   3.548   2.885   5.408
10862SOL     OW33484   0.926   0.388   5.175
10862SOL    HW133485   1.015   0.425   5.203
10862SOL    HW233486   0.906   0.416   5.081
10863SOL     OW33487   2.303   6.370   4.561
10863SOL    HW133488   2.387   6.366   4.614
10863SOL    HW233489   2.312   6.437   4.488
10864SOL     OW33490   3.762   6.334   2.872
10864SOL    HW133491   3.765   6.253   2.812
10864SOL    HW233492   3.693   6.398   2.839
10865SOL     OW33493   6.404   1.671   5.953
10865SOL    HW133494   6.333   1.606   5.928
10865SOL    HW233495   6.451   1.638   6.035
10866SOL     OW33496   5.073   4.991   0.241
10866SOL    HW133497   5.061   4.907   0.293
10866SOL    HW233498   5.167   5.025   0.253
10867SOL     OW33499   3.180   1.689   0.003
10867SOL    HW133500   3.130   1.653   0.082
10867SOL    HW233501   3.201   1.615   6.966
10868SOL     OW33502   2.757   2.286   3.293
10868SOL    HW133503   2.717   2.313   3.380
10868SOL    HW233504   2.790   2.191   3.299
10869NA      NA33505   6.390   2.366   5.611
10870NA      NA33506   4.331   4.649   5.241
10871NA      NA33507   2.183   3.502   1.733
10872NA      NA33508   4.849   3.717   5.272
10873NA      NA33509   4.193   2.394   5.317
10874NA      NA33510   3.715   4.706   1.617
10875NA      NA33511   6.598   6.080   4.443
10876NA      NA33512   3.648   3.465   4.853
10877NA      NA33513   4.750   6.676   6.385
10878NA      NA33514   2.770   0.438   4.975
10879NA      NA33515   0.528   4.866   2.584
10880NA      NA33516   2.822   0.644   2.760
10881NA      NA33517   3.474   4.298   1.258
10882NA      NA33518   3.565   3.100   2.836
   7.02588   7.02588   7.02588
