Generated by trjconv : CNT in water t= 397.00000
33518
    1C        C    1   2.846   2.770   4.750
    1C        C    2   2.900   2.717   4.870
    1C        C    3   2.840   2.768   4.986
    1C        C    4   2.850   2.778   4.262
    1C        C    5   2.904   2.731   4.384
    1C        C    6   2.848   2.775   4.506
    1C        C    7   3.018   2.647   4.628
    1C        C    8   2.901   2.727   4.628
    1C        C    9   3.084   2.609   4.747
    1C        C   10   3.015   2.635   4.868
    1C        C   11   3.183   2.489   4.980
    1C        C   12   3.065   2.565   4.978
    1C        C   13   2.849   2.770   3.775
    1C        C   14   2.901   2.724   3.898
    1C        C   15   2.848   2.774   4.019
    1C        C   16   3.019   2.649   4.141
    1C        C   17   2.902   2.728   4.141
    1C        C   18   3.083   2.617   4.262
    1C        C   19   3.020   2.651   4.385
    1C        C   20   3.211   2.560   4.507
    1C        C   21   3.079   2.610   4.507
    1C        C   22   3.283   2.541   4.628
    1C        C   23   3.213   2.549   4.750
    1C        C   24   3.414   2.478   4.866
    1C        C   25   3.273   2.502   4.870
    1C        C   26   3.489   2.475   4.984
    1C        C   27   2.850   2.772   3.282
    1C        C   28   2.908   2.731   3.404
    1C        C   29   2.855   2.774   3.528
    1C        C   30   3.022   2.648   3.651
    1C        C   31   2.905   2.728   3.652
    1C        C   32   3.084   2.616   3.774
    1C        C   33   3.019   2.647   3.896
    1C        C   34   3.212   2.560   4.017
    1C        C   35   3.081   2.614   4.019
    1C        C   36   3.278   2.535   4.139
    1C        C   37   3.212   2.559   4.261
    1C        C   38   3.416   2.511   4.383
    1C        C   39   3.277   2.538   4.385
    1C        C   40   3.489   2.498   4.504
    1C        C   41   3.419   2.505   4.626
    1C        C   42   3.633   2.486   4.748
    1C        C   43   3.491   2.483   4.746
    1C        C   44   3.707   2.486   4.868
    1C        C   45   3.628   2.481   4.983
    1C        C   46   2.840   2.758   2.796
    1C        C   47   2.896   2.714   2.918
    1C        C   48   2.848   2.768   3.040
    1C        C   49   3.022   2.645   3.162
    1C        C   50   2.906   2.725   3.161
    1C        C   51   3.083   2.611   3.285
    1C        C   52   3.024   2.650   3.407
    1C        C   53   3.211   2.551   3.528
    1C        C   54   3.083   2.611   3.529
    1C        C   55   3.278   2.529   3.651
    1C        C   56   3.213   2.558   3.772
    1C        C   57   3.418   2.509   3.896
    1C        C   58   3.280   2.539   3.895
    1C        C   59   3.490   2.504   4.017
    1C        C   60   3.418   2.513   4.138
    1C        C   61   3.628   2.501   4.262
    1C        C   62   3.487   2.504   4.261
    1C        C   63   3.701   2.507   4.383
    1C        C   64   3.630   2.500   4.505
    1C        C   65   3.838   2.541   4.624
    1C        C   66   3.703   2.498   4.626
    1C        C   67   3.910   2.560   4.745
    1C        C   68   3.844   2.522   4.863
    1C        C   69   4.055   2.584   4.984
    1C        C   70   3.927   2.527   4.976
    1C        C   71   2.825   2.736   2.309
    1C        C   72   2.886   2.699   2.431
    1C        C   73   2.835   2.748   2.554
    1C        C   74   3.009   2.626   2.675
    1C        C   75   2.893   2.706   2.676
    1C        C   76   3.076   2.600   2.797
    1C        C   77   3.017   2.641   2.918
    1C        C   78   3.210   2.549   3.040
    1C        C   79   3.080   2.604   3.040
    1C        C   80   3.279   2.527   3.162
    1C        C   81   3.212   2.553   3.284
    1C        C   82   3.416   2.497   3.405
    1C        C   83   3.278   2.528   3.406
    1C        C   84   3.485   2.492   3.528
    1C        C   85   3.417   2.504   3.651
    1C        C   86   3.629   2.494   3.770
    1C        C   87   3.488   2.497   3.774
    1C        C   88   3.700   2.503   3.892
    1C        C   89   3.631   2.508   4.016
    1C        C   90   3.833   2.554   4.136
    1C        C   91   3.698   2.515   4.140
    1C        C   92   3.903   2.572   4.258
    1C        C   93   3.837   2.544   4.380
    1C        C   94   4.029   2.633   4.500
    1C        C   95   3.903   2.568   4.502
    1C        C   96   4.091   2.669   4.622
    1C        C   97   4.035   2.627   4.744
    1C        C   98   4.185   2.770   4.865
    1C        C   99   4.102   2.653   4.867
    1C        C  100   4.205   2.850   4.978
    1C        C  101   2.820   2.732   2.073
    1C        C  102   2.992   2.594   2.193
    1C        C  103   2.878   2.680   2.190
    1C        C  104   3.064   2.575   2.314
    1C        C  105   3.002   2.618   2.433
    1C        C  106   3.199   2.531   2.553
    1C        C  107   3.069   2.587   2.554
    1C        C  108   3.270   2.516   2.674
    1C        C  109   3.204   2.540   2.797
    1C        C  110   3.414   2.496   2.919
    1C        C  111   3.276   2.525   2.918
    1C        C  112   3.488   2.489   3.039
    1C        C  113   3.418   2.499   3.161
    1C        C  114   3.629   2.498   3.281
    1C        C  115   3.488   2.490   3.283
    1C        C  116   3.697   2.507   3.405
    1C        C  117   3.626   2.493   3.527
    1C        C  118   3.835   2.539   3.647
    1C        C  119   3.700   2.500   3.648
    1C        C  120   3.902   2.568   3.768
    1C        C  121   3.836   2.542   3.890
    1C        C  122   4.027   2.632   4.016
    1C        C  123   3.900   2.571   4.013
    1C        C  124   4.091   2.671   4.135
    1C        C  125   4.028   2.637   4.257
    1C        C  126   4.194   2.769   4.380
    1C        C  127   4.088   2.676   4.379
    1C        C  128   4.243   2.819   4.503
    1C        C  129   4.194   2.766   4.624
    1C        C  130   4.320   2.940   4.744
    1C        C  131   4.241   2.822   4.745
    1C        C  132   4.350   3.012   4.862
    1C        C  133   4.286   2.963   4.977
    1C        C  134   3.177   2.475   2.082
    1C        C  135   3.043   2.515   2.085
    1C        C  136   3.263   2.481   2.193
    1C        C  137   3.197   2.522   2.310
    1C        C  138   3.405   2.476   2.430
    1C        C  139   3.267   2.506   2.432
    1C        C  140   3.479   2.478   2.550
    1C        C  141   3.409   2.490   2.672
    1C        C  142   3.621   2.486   2.792
    1C        C  143   3.480   2.484   2.794
    1C        C  144   3.696   2.499   2.911
    1C        C  145   3.629   2.496   3.036
    1C        C  146   3.836   2.537   3.157
    1C        C  147   3.698   2.508   3.158
    1C        C  148   3.901   2.562   3.280
    1C        C  149   3.834   2.541   3.402
    1C        C  150   4.026   2.628   3.526
    1C        C  151   3.901   2.562   3.524
    1C        C  152   4.089   2.664   3.648
    1C        C  153   4.028   2.632   3.771
    1C        C  154   4.194   2.763   3.890
    1C        C  155   4.087   2.670   3.893
    1C        C  156   4.242   2.815   4.012
    1C        C  157   4.197   2.765   4.136
    1C        C  158   4.334   2.927   4.256
    1C        C  159   4.247   2.815   4.258
    1C        C  160   4.371   2.987   4.378
    1C        C  161   4.330   2.930   4.501
    1C        C  162   4.437   3.116   4.619
    1C        C  163   4.365   2.994   4.622
    1C        C  164   4.468   3.188   4.736
    1C        C  165   4.433   3.126   4.858
    1C        C  166   4.515   3.322   4.977
    1C        C  167   4.472   3.190   4.977
    1C        C  168   3.478   2.431   2.075
    1C        C  169   3.403   2.462   2.190
    1C        C  170   3.619   2.471   2.308
    1C        C  171   3.477   2.459   2.310
    1C        C  172   3.692   2.488   2.427
    1C        C  173   3.620   2.482   2.548
    1C        C  174   3.826   2.536   2.664
    1C        C  175   3.691   2.496   2.670
    1C        C  176   3.892   2.561   2.787
    1C        C  177   3.832   2.537   2.913
    1C        C  178   4.028   2.624   3.033
    1C        C  179   3.902   2.560   3.033
    1C        C  180   4.089   2.659   3.156
    1C        C  181   4.030   2.621   3.278
    1C        C  182   4.192   2.754   3.401
    1C        C  183   4.084   2.663   3.402
    1C        C  184   4.244   2.806   3.522
    1C        C  185   4.195   2.758   3.645
    1C        C  186   4.340   2.914   3.766
    1C        C  187   4.247   2.808   3.767
    1C        C  188   4.373   2.978   3.887
    1C        C  189   4.334   2.923   4.011
    1C        C  190   4.445   3.105   4.131
    1C        C  191   4.375   2.982   4.132
    1C        C  192   4.468   3.171   4.253
    1C        C  193   4.438   3.111   4.377
    1C        C  194   4.505   3.316   4.496
    1C        C  195   4.470   3.179   4.497
    1C        C  196   4.516   3.390   4.615
    1C        C  197   4.507   3.325   4.740
    1C        C  198   4.560   3.537   4.851
    1C        C  199   4.534   3.397   4.860
    1C        C  200   4.587   3.622   4.963
    1C        C  201   3.617   2.419   2.072
    1C        C  202   3.828   2.507   2.182
    1C        C  203   3.693   2.459   2.187
    1C        C  204   3.898   2.539   2.301
    1C        C  205   3.830   2.518   2.423
    1C        C  206   4.022   2.618   2.542
    1C        C  207   3.898   2.549   2.543
    1C        C  208   4.080   2.653   2.666
    1C        C  209   4.019   2.623   2.790
    1C        C  210   4.195   2.749   2.909
    1C        C  211   4.084   2.661   2.909
    1C        C  212   4.247   2.796   3.031
    1C        C  213   4.197   2.750   3.156
    1C        C  214   4.328   2.915   3.277
    1C        C  215   4.241   2.804   3.279
    1C        C  216   4.368   2.975   3.398
    1C        C  217   4.332   2.917   3.522
    1C        C  218   4.430   3.104   3.643
    1C        C  219   4.377   2.973   3.643
    1C        C  220   4.460   3.168   3.765
    1C        C  221   4.436   3.104   3.888
    1C        C  222   4.504   3.308   4.007
    1C        C  223   4.473   3.170   4.008
    1C        C  224   4.511   3.380   4.128
    1C        C  225   4.498   3.309   4.250
    1C        C  226   4.521   3.523   4.368
    1C        C  227   4.512   3.382   4.371
    1C        C  228   4.518   3.597   4.488
    1C        C  229   4.528   3.531   4.613
    1C        C  230   4.510   3.748   4.728
    1C        C  231   4.540   3.609   4.730
    1C        C  232   4.499   3.820   4.849
    1C        C  233   4.545   3.755   4.965
    1C        C  234   4.018   2.613   2.062
    1C        C  235   3.901   2.538   2.066
    1C        C  236   4.081   2.656   2.179
    1C        C  237   4.021   2.611   2.299
    1C        C  238   4.193   2.743   2.421
    1C        C  239   4.080   2.656   2.419
    1C        C  240   4.246   2.787   2.544
    1C        C  241   4.192   2.739   2.666
    1C        C  242   4.334   2.904   2.784
    1C        C  243   4.243   2.795   2.784
    1C        C  244   4.372   2.962   2.907
    1C        C  245   4.337   2.904   3.031
    1C        C  246   4.438   3.092   3.152
    1C        C  247   4.368   2.970   3.153
    1C        C  248   4.459   3.161   3.273
    1C        C  249   4.429   3.103   3.398
    1C        C  250   4.493   3.306   3.518
    1C        C  251   4.453   3.170   3.520
    1C        C  252   4.507   3.374   3.641
    1C        C  253   4.496   3.305   3.763
    1C        C  254   4.525   3.517   3.881
    1C        C  255   4.514   3.376   3.884
    1C        C  256   4.520   3.590   4.002
    1C        C  257   4.519   3.521   4.125
    1C        C  258   4.489   3.733   4.242
    1C        C  259   4.518   3.594   4.246
    1C        C  260   4.469   3.802   4.364
    1C        C  261   4.487   3.735   4.487
    1C        C  262   4.424   3.941   4.605
    1C        C  263   4.475   3.809   4.606
    1C        C  264   4.403   4.011   4.726
    1C        C  265   4.439   3.948   4.847
    1C        C  266   4.320   4.131   4.960
    1C        C  267   4.400   4.018   4.962
    1C        C  268   4.272   2.770   2.065
    1C        C  269   4.198   2.735   2.179
    1C        C  270   4.342   2.895   2.304
    1C        C  271   4.248   2.789   2.300
    1C        C  272   4.383   2.957   2.425
    1C        C  273   4.340   2.892   2.543
    1C        C  274   4.450   3.080   2.662
    1C        C  275   4.382   2.956   2.662
    1C        C  276   4.469   3.149   2.783
    1C        C  277   4.434   3.089   2.906
    1C        C  278   4.498   3.293   3.026
    1C        C  279   4.463   3.156   3.028
    1C        C  280   4.505   3.365   3.147
    1C        C  281   4.495   3.298   3.271
    1C        C  282   4.517   3.510   3.392
    1C        C  283   4.507   3.369   3.392
    1C        C  284   4.521   3.584   3.512
    1C        C  285   4.518   3.515   3.636
    1C        C  286   4.488   3.725   3.753
    1C        C  287   4.514   3.586   3.758
    1C        C  288   4.474   3.794   3.875
    1C        C  289   4.492   3.728   3.999
    1C        C  290   4.421   3.931   4.117
    1C        C  291   4.471   3.799   4.119
    1C        C  292   4.398   3.998   4.239
    1C        C  293   4.429   3.937   4.363
    1C        C  294   4.329   4.128   4.479
    1C        C  295   4.401   4.007   4.483
    1C        C  296   4.287   4.187   4.601
    1C        C  297   4.330   4.133   4.724
    1C        C  298   4.200   4.314   4.838
    1C        C  299   4.284   4.198   4.842
    1C        C  300   4.174   4.403   4.947
    1C        C  301   4.353   2.883   2.067
    1C        C  302   4.470   3.070   2.180
    1C        C  303   4.397   2.947   2.183
    1C        C  304   4.483   3.146   2.299
    1C        C  305   4.447   3.083   2.420
    1C        C  306   4.509   3.286   2.540
    1C        C  307   4.478   3.148   2.541
    1C        C  308   4.512   3.358   2.662
    1C        C  309   4.502   3.287   2.783
    1C        C  310   4.518   3.501   2.900
    1C        C  311   4.518   3.360   2.903
    1C        C  312   4.514   3.572   3.022
    1C        C  313   4.516   3.506   3.147
    1C        C  314   4.485   3.717   3.265
    1C        C  315   4.508   3.578   3.268
    1C        C  316   4.474   3.789   3.387
    1C        C  317   4.495   3.723   3.510
    1C        C  318   4.428   3.927   3.629
    1C        C  319   4.476   3.795   3.630
    1C        C  320   4.396   3.992   3.751
    1C        C  321   4.426   3.927   3.872
    1C        C  322   4.323   4.115   3.993
    1C        C  323   4.396   3.994   3.993
    1C        C  324   4.280   4.173   4.114
    1C        C  325   4.327   4.120   4.237
    1C        C  326   4.189   4.285   4.357
    1C        C  327   4.285   4.182   4.356
    1C        C  328   4.140   4.342   4.477
    1C        C  329   4.194   4.294   4.598
    1C        C  330   4.025   4.435   4.714
    1C        C  331   4.142   4.353   4.715
    1C        C  332   3.969   4.488   4.832
    1C        C  333   4.056   4.478   4.942
    1C        C  334   4.553   3.267   2.067
    1C        C  335   4.537   3.128   2.067
    1C        C  336   4.536   3.353   2.177
    1C        C  337   4.511   3.286   2.298
    1C        C  338   4.525   3.499   2.414
    1C        C  339   4.524   3.357   2.419
    1C        C  340   4.521   3.571   2.536
    1C        C  341   4.520   3.499   2.657
    1C        C  342   4.498   3.713   2.777
    1C        C  343   4.513   3.572   2.778
    1C        C  344   4.479   3.782   2.898
    1C        C  345   4.489   3.711   3.020
    1C        C  346   4.425   3.916   3.140
    1C        C  347   4.468   3.782   3.141
    1C        C  348   4.400   3.985   3.261
    1C        C  349   4.432   3.924   3.384
    1C        C  350   4.326   4.109   3.504
    1C        C  351   4.400   3.989   3.505
    1C        C  352   4.276   4.164   3.625
    1C        C  353   4.320   4.111   3.748
    1C        C  354   4.178   4.268   3.869
    1C        C  355   4.278   4.168   3.870
    1C        C  356   4.125   4.319   3.990
    1C        C  357   4.177   4.270   4.112
    1C        C  358   4.012   4.400   4.231
    1C        C  359   4.131   4.324   4.234
    1C        C  360   3.954   4.446   4.351
    1C        C  361   4.022   4.419   4.472
    1C        C  362   3.830   4.517   4.590
    1C        C  363   3.959   4.460   4.592
    1C        C  364   3.767   4.551   4.712
    1C        C  365   3.839   4.541   4.833
    1C        C  366   3.632   4.601   4.947
    1C        C  367   3.769   4.573   4.950
    1C        C  368   4.506   3.570   2.056
    1C        C  369   4.519   3.493   2.172
    1C        C  370   4.500   3.708   2.289
    1C        C  371   4.519   3.568   2.291
    1C        C  372   4.483   3.780   2.409
    1C        C  373   4.501   3.710   2.531
    1C        C  374   4.429   3.910   2.650
    1C        C  375   4.482   3.779   2.653
    1C        C  376   4.399   3.975   2.772
    1C        C  377   4.431   3.915   2.896
    1C        C  378   4.325   4.100   3.013
    1C        C  379   4.401   3.982   3.016
    1C        C  380   4.275   4.154   3.134
    1C        C  381   4.317   4.099   3.257
    1C        C  382   4.177   4.256   3.378
    1C        C  383   4.279   4.157   3.380
    1C        C  384   4.120   4.301   3.499
    1C        C  385   4.170   4.258   3.623
    1C        C  386   4.007   4.390   3.741
    1C        C  387   4.124   4.311   3.746
    1C        C  388   3.945   4.428   3.862
    1C        C  389   4.010   4.400   3.984
    1C        C  390   3.819   4.485   4.109
    1C        C  391   3.949   4.430   4.108
    1C        C  392   3.750   4.509   4.230
    1C        C  393   3.823   4.500   4.351
    1C        C  394   3.617   4.557   4.476
    1C        C  395   3.756   4.532   4.471
    1C        C  396   3.547   4.570   4.598
    1C        C  397   3.626   4.564   4.714
    1C        C  398   3.414   4.553   4.841
    1C        C  399   3.552   4.581   4.833
    1C        C  400   3.342   4.518   4.955
    1C        C  401   4.503   3.709   2.049
    1C        C  402   4.458   3.919   2.167
    1C        C  403   4.492   3.782   2.169
    1C        C  404   4.415   3.981   2.286
    1C        C  405   4.441   3.915   2.408
    1C        C  406   4.328   4.097   2.527
    1C        C  407   4.404   3.978   2.529
    1C        C  408   4.280   4.151   2.648
    1C        C  409   4.323   4.095   2.770
    1C        C  410   4.180   4.255   2.891
    1C        C  411   4.278   4.153   2.891
    1C        C  412   4.125   4.302   3.013
    1C        C  413   4.177   4.256   3.136
    1C        C  414   4.003   4.380   3.253
    1C        C  415   4.121   4.302   3.257
    1C        C  416   3.944   4.415   3.376
    1C        C  417   4.005   4.383   3.499
    1C        C  418   3.810   4.472   3.620
    1C        C  419   3.941   4.420   3.620
    1C        C  420   3.746   4.498   3.744
    1C        C  421   3.814   4.481   3.866
    1C        C  422   3.610   4.536   3.989
    1C        C  423   3.748   4.504   3.989
    1C        C  424   3.541   4.548   4.111
    1C        C  425   3.612   4.538   4.233
    1C        C  426   3.402   4.554   4.357
    1C        C  427   3.543   4.558   4.355
    1C        C  428   3.334   4.552   4.481
    1C        C  429   3.406   4.566   4.601
    1C        C  430   3.197   4.519   4.723
    1C        C  431   3.337   4.547   4.723
    1C        C  432   3.129   4.492   4.844
    1C        C  433   3.206   4.490   4.961
    1C        C  434   4.388   4.122   2.055
    1C        C  435   4.450   3.996   2.051
    1C        C  436   4.304   4.164   2.162
    1C        C  437   4.334   4.098   2.285
    1C        C  438   4.185   4.253   2.402
    1C        C  439   4.285   4.154   2.405
    1C        C  440   4.128   4.298   2.523
    1C        C  441   4.183   4.253   2.645
    1C        C  442   4.010   4.376   2.767
    1C        C  443   4.128   4.298   2.767
    1C        C  444   3.943   4.408   2.887
    1C        C  445   4.006   4.377   3.009
    1C        C  446   3.814   4.474   3.132
    1C        C  447   3.943   4.416   3.130
    1C        C  448   3.749   4.495   3.255
    1C        C  449   3.812   4.466   3.378
    1C        C  450   3.604   4.523   3.497
    1C        C  451   3.742   4.492   3.498
    1C        C  452   3.541   4.543   3.622
    1C        C  453   3.610   4.537   3.745
    1C        C  454   3.398   4.548   3.865
    1C        C  455   3.540   4.545   3.867
    1C        C  456   3.330   4.545   3.989
    1C        C  457   3.399   4.548   4.112
    1C        C  458   3.194   4.508   4.237
    1C        C  459   3.332   4.540   4.235
    1C        C  460   3.126   4.493   4.360
    1C        C  461   3.197   4.517   4.480
    1C        C  462   3.000   4.437   4.603
    1C        C  463   3.128   4.496   4.602
    1C        C  464   2.934   4.404   4.724
    1C        C  465   2.992   4.449   4.845
    1C        C  466   2.811   4.338   4.961
    1C        C  467   2.910   4.437   4.962
    1C        C  468   4.128   4.294   2.042
    1C        C  469   4.192   4.253   2.160
    1C        C  470   4.012   4.376   2.279
    1C        C  471   4.133   4.302   2.280
    1C        C  472   3.945   4.403   2.400
    1C        C  473   4.010   4.376   2.522
    1C        C  474   3.817   4.462   2.644
    1C        C  475   3.950   4.413   2.645
    1C        C  476   3.748   4.490   2.764
    1C        C  477   3.813   4.466   2.886
    1C        C  478   3.609   4.519   3.010
    1C        C  479   3.747   4.492   3.008
    1C        C  480   3.539   4.535   3.132
    1C        C  481   3.612   4.527   3.254
    1C        C  482   3.396   4.538   3.376
    1C        C  483   3.537   4.536   3.373
    1C        C  484   3.327   4.537   3.499
    1C        C  485   3.399   4.545   3.621
    1C        C  486   3.191   4.508   3.745
    1C        C  487   3.328   4.543   3.743
    1C        C  488   3.127   4.488   3.869
    1C        C  489   3.192   4.514   3.991
    1C        C  490   3.001   4.427   4.112
    1C        C  491   3.127   4.490   4.114
    1C        C  492   2.943   4.390   4.236
    1C        C  493   2.999   4.432   4.359
    1C        C  494   2.834   4.303   4.483
    1C        C  495   2.937   4.399   4.482
    1C        C  496   2.782   4.254   4.605
    1C        C  497   2.824   4.314   4.726
    1C        C  498   2.674   4.164   4.846
    1C        C  499   2.761   4.275   4.846
    1C        C  500   2.602   4.119   4.957
    1C        C  501   4.008   4.364   2.040
    1C        C  502   3.820   4.470   2.159
    1C        C  503   3.946   4.408   2.158
    1C        C  504   3.748   4.482   2.280
    1C        C  505   3.813   4.455   2.402
    1C        C  506   3.609   4.511   2.524
    1C        C  507   3.747   4.483   2.523
    1C        C  508   3.537   4.523   2.645
    1C        C  509   3.609   4.517   2.766
    1C        C  510   3.397   4.529   2.888
    1C        C  511   3.538   4.521   2.888
    1C        C  512   3.326   4.525   3.010
    1C        C  513   3.398   4.537   3.130
    1C        C  514   3.190   4.502   3.255
    1C        C  515   3.327   4.534   3.252
    1C        C  516   3.125   4.476   3.378
    1C        C  517   3.190   4.503   3.500
    1C        C  518   3.002   4.412   3.625
    1C        C  519   3.125   4.482   3.623
    1C        C  520   2.944   4.377   3.749
    1C        C  521   3.004   4.417   3.870
    1C        C  522   2.839   4.286   3.998
    1C        C  523   2.941   4.383   3.992
    1C        C  524   2.792   4.236   4.121
    1C        C  525   2.839   4.294   4.241
    1C        C  526   2.700   4.135   4.364
    1C        C  527   2.784   4.248   4.363
    1C        C  528   2.660   4.077   4.487
    1C        C  529   2.696   4.142   4.607
    1C        C  530   2.589   3.960   4.732
    1C        C  531   2.649   4.088   4.729
    1C        C  532   2.540   3.903   4.853
    1C        C  533   2.532   3.998   4.959
    1C        C  534   3.621   4.555   2.040
    1C        C  535   3.756   4.516   2.043
    1C        C  536   3.540   4.533   2.156
    1C        C  537   3.608   4.507   2.278
    1C        C  538   3.398   4.507   2.403
    1C        C  539   3.539   4.512   2.401
    1C        C  540   3.324   4.509   2.523
    1C        C  541   3.396   4.521   2.644
    1C        C  542   3.187   4.493   2.767
    1C        C  543   3.325   4.523   2.766
    1C        C  544   3.122   4.469   2.890
    1C        C  545   3.190   4.486   3.013
    1C        C  546   2.996   4.404   3.135
    1C        C  547   3.121   4.470   3.135
    1C        C  548   2.940   4.367   3.259
    1C        C  549   2.999   4.411   3.379
    1C        C  550   2.830   4.288   3.504
    1C        C  551   2.941   4.376   3.503
    1C        C  552   2.781   4.241   3.628
    1C        C  553   2.832   4.290   3.750
    1C        C  554   2.709   4.122   3.875
    1C        C  555   2.789   4.239   3.874
    1C        C  556   2.667   4.065   3.997
    1C        C  557   2.704   4.126   4.119
    1C        C  558   2.600   3.945   4.248
    1C        C  559   2.666   4.070   4.243
    1C        C  560   2.575   3.879   4.370
    1C        C  561   2.598   3.951   4.490
    1C        C  562   2.531   3.752   4.615
    1C        C  563   2.565   3.889   4.612
    1C        C  564   2.519   3.685   4.739
    1C        C  565   2.524   3.761   4.859
    1C        C  566   2.514   3.548   4.974
    1C        C  567   2.522   3.687   4.978
    1C        C  568   3.334   4.471   2.043
    1C        C  569   3.400   4.509   2.160
    1C        C  570   3.185   4.482   2.283
    1C        C  571   3.326   4.505   2.281
    1C        C  572   3.117   4.464   2.405
    1C        C  573   3.184   4.486   2.526
    1C        C  574   2.988   4.411   2.650
    1C        C  575   3.113   4.476   2.648
    1C        C  576   2.930   4.370   2.772
    1C        C  577   2.999   4.399   2.892
    1C        C  578   2.825   4.277   3.016
    1C        C  579   2.936   4.364   3.013
    1C        C  580   2.778   4.228   3.140
    1C        C  581   2.835   4.273   3.261
    1C        C  582   2.696   4.116   3.387
    1C        C  583   2.784   4.227   3.385
    1C        C  584   2.662   4.061   3.512
    1C        C  585   2.703   4.123   3.632
    1C        C  586   2.603   3.936   3.756
    1C        C  587   2.667   4.062   3.755
    1C        C  588   2.574   3.874   3.879
    1C        C  589   2.604   3.939   4.001
    1C        C  590   2.546   3.740   4.130
    1C        C  591   2.581   3.877   4.126
    1C        C  592   2.530   3.672   4.253
    1C        C  593   2.536   3.743   4.375
    1C        C  594   2.510   3.535   4.498
    1C        C  595   2.516   3.676   4.497
    1C        C  596   2.514   3.466   4.621
    1C        C  597   2.512   3.543   4.739
    1C        C  598   2.526   3.327   4.862
    1C        C  599   2.515   3.468   4.859
    1C        C  600   2.523   3.249   4.978
    1C        C  601   3.201   4.434   2.047
    1C        C  602   2.985   4.398   2.165
    1C        C  603   3.121   4.442   2.162
    1C        C  604   2.926   4.361   2.289
    1C        C  605   2.989   4.404   2.409
    1C        C  606   2.822   4.273   2.532
    1C        C  607   2.928   4.366   2.530
    1C        C  608   2.771   4.223   2.654
    1C        C  609   2.822   4.279   2.774
    1C        C  610   2.690   4.112   2.899
    1C        C  611   2.772   4.227   2.895
    1C        C  612   2.655   4.054   3.022
    1C        C  613   2.691   4.117   3.143
    1C        C  614   2.593   3.930   3.268
    1C        C  615   2.655   4.057   3.266
    1C        C  616   2.573   3.866   3.393
    1C        C  617   2.603   3.933   3.513
    1C        C  618   2.541   3.731   3.640
    1C        C  619   2.576   3.867   3.636
    1C        C  620   2.527   3.665   3.765
    1C        C  621   2.537   3.737   3.886
    1C        C  622   2.515   3.528   4.011
    1C        C  623   2.527   3.669   4.009
    1C        C  624   2.520   3.457   4.133
    1C        C  625   2.519   3.532   4.253
    1C        C  626   2.544   3.324   4.379
    1C        C  627   2.516   3.463   4.376
    1C        C  628   2.558   3.255   4.501
    1C        C  629   2.535   3.326   4.621
    1C        C  630   2.596   3.122   4.747
    1C        C  631   2.546   3.255   4.742
    1C        C  632   2.621   3.053   4.869
    1C        C  633   2.558   3.114   4.981
    1C        C  634   2.784   4.309   2.056
    1C        C  635   2.895   4.395   2.055
    1C        C  636   2.756   4.231   2.169
    1C        C  637   2.812   4.276   2.290
    1C        C  638   2.682   4.110   2.412
    1C        C  639   2.767   4.222   2.412
    1C        C  640   2.642   4.053   2.535
    1C        C  641   2.684   4.112   2.656
    1C        C  642   2.589   3.923   2.779
    1C        C  643   2.649   4.051   2.779
    1C        C  644   2.566   3.858   2.903
    1C        C  645   2.594   3.926   3.024
    1C        C  646   2.533   3.725   3.149
    1C        C  647   2.570   3.861   3.147
    1C        C  648   2.519   3.658   3.273
    1C        C  649   2.536   3.729   3.394
    1C        C  650   2.513   3.521   3.522
    1C        C  651   2.526   3.662   3.518
    1C        C  652   2.514   3.450   3.644
    1C        C  653   2.517   3.524   3.764
    1C        C  654   2.539   3.318   3.893
    1C        C  655   2.516   3.457   3.889
    1C        C  656   2.555   3.247   4.014
    1C        C  657   2.536   3.317   4.135
    1C        C  658   2.603   3.118   4.258
    1C        C  659   2.555   3.251   4.258
    1C        C  660   2.632   3.057   4.382
    1C        C  661   2.604   3.122   4.505
    1C        C  662   2.716   2.942   4.629
    1C        C  663   2.639   3.060   4.627
    1C        C  664   2.760   2.882   4.750
    1C        C  665   2.697   2.931   4.868
    1C        C  666   2.742   2.866   4.984
    1C        C  667   2.685   4.024   2.059
    1C        C  668   2.690   4.107   2.172
    1C        C  669   2.592   3.913   2.292
    1C        C  670   2.649   4.044   2.292
    1C        C  671   2.566   3.851   2.416
    1C        C  672   2.589   3.922   2.536
    1C        C  673   2.528   3.718   2.660
    1C        C  674   2.564   3.855   2.658
    1C        C  675   2.520   3.650   2.783
    1C        C  676   2.532   3.721   2.904
    1C        C  677   2.512   3.513   3.033
    1C        C  678   2.525   3.653   3.028
    1C        C  679   2.512   3.443   3.156
    1C        C  680   2.513   3.517   3.277
    1C        C  681   2.534   3.309   3.405
    1C        C  682   2.519   3.449   3.401
    1C        C  683   2.549   3.239   3.527
    1C        C  684   2.536   3.311   3.648
    1C        C  685   2.606   3.114   3.770
    1C        C  686   2.552   3.245   3.772
    1C        C  687   2.636   3.052   3.893
    1C        C  688   2.602   3.114   4.015
    1C        C  689   2.711   2.935   4.142
    1C        C  690   2.626   3.048   4.138
    1C        C  691   2.756   2.884   4.266
    1C        C  692   2.708   2.938   4.387
    1C        C  693   2.754   2.881   4.508
    1C        C  694   2.636   3.893   2.058
    1C        C  695   2.536   3.703   2.179
    1C        C  696   2.585   3.835   2.175
    1C        C  697   2.511   3.638   2.303
    1C        C  698   2.529   3.714   2.420
    1C        C  699   2.492   3.505   2.543
    1C        C  700   2.504   3.646   2.541
    1C        C  701   2.500   3.437   2.666
    1C        C  702   2.506   3.509   2.787
    1C        C  703   2.526   3.301   2.914
    1C        C  704   2.511   3.441   2.911
    1C        C  705   2.543   3.234   3.038
    1C        C  706   2.532   3.303   3.160
    1C        C  707   2.593   3.103   3.279
    1C        C  708   2.550   3.237   3.284
    1C        C  709   2.628   3.045   3.403
    1C        C  710   2.599   3.107   3.526
    1C        C  711   2.711   2.929   3.650
    1C        C  712   2.635   3.047   3.649
    1C        C  713   2.754   2.874   3.773
    1C        C  714   2.714   2.934   3.895
    1C        C  715   2.757   2.883   4.019
    1C        C  716   2.446   3.502   2.063
    1C        C  717   2.496   3.633   2.065
    1C        C  718   2.469   3.425   2.181
    1C        C  719   2.482   3.499   2.302
    1C        C  720   2.516   3.290   2.426
    1C        C  721   2.488   3.429   2.424
    1C        C  722   2.540   3.226   2.549
    1C        C  723   2.528   3.298   2.670
    1C        C  724   2.596   3.099   2.792
    1C        C  725   2.544   3.231   2.793
    1C        C  726   2.620   3.035   2.915
    1C        C  727   2.589   3.100   3.037
    1C        C  728   2.703   2.920   3.160
    1C        C  729   2.623   3.036   3.158
    1C        C  730   2.749   2.870   3.284
    1C        C  731   2.708   2.928   3.406
    1C        C  732   2.752   2.871   3.527
    1C        C  733   2.492   3.202   2.070
    1C        C  734   2.493   3.284   2.183
    1C        C  735   2.585   3.088   2.307
    1C        C  736   2.528   3.219   2.305
    1C        C  737   2.611   3.021   2.428
    1C        C  738   2.589   3.093   2.548
    1C        C  739   2.695   2.911   2.669
    1C        C  740   2.624   3.033   2.671
    1C        C  741   2.742   2.860   2.792
    1C        C  742   2.700   2.918   2.914
    1C        C  743   2.745   2.865   3.036
    1C        C  744   2.552   3.076   2.074
    1C        C  745   2.686   2.898   2.187
    1C        C  746   2.612   3.019   2.187
    1C        C  747   2.730   2.841   2.309
    1C        C  748   2.687   2.902   2.429
    1C        C  749   2.732   2.845   2.550
    1C        C  750   2.732   2.839   2.069
    1C        C  751   3.664   2.313   1.979
    1C        O  752   3.718   2.209   2.023
    1C        O  753   3.694   2.339   1.845
    1C        C  754   4.627   3.056   1.974
    1C        O  755   4.625   3.072   1.849
    1C        O  756   4.732   2.973   2.013
    1C        C  757   4.440   4.223   1.960
    1C        O  758   4.557   4.266   1.978
    1C        O  759   4.437   4.182   1.826
    1C        C  760   3.589   4.650   1.931
    1C        O  761   3.577   4.769   1.971
    1C        O  762   3.608   4.628   1.794
    1C        C  763   2.873   4.520   1.977
    1C        O  764   2.872   4.505   1.852
    1C        O  765   2.761   4.588   2.027
    1C        C  766   2.333   3.482   1.970
    1C        O  767   2.341   3.493   1.845
    1C        O  768   2.198   3.471   2.005
    1C        C  769   4.689   3.593   5.067
    1C        O  770   4.668   3.615   5.189
    1C        O  771   4.821   3.610   5.025
    1C        C  772   4.282   4.477   5.016
    1C        O  773   4.299   4.489   5.141
    1C        O  774   4.347   4.581   4.950
    1C        C  775   4.142   2.517   5.083
    1C        O  776   4.207   2.413   5.053
    1C        O  777   4.117   2.518   5.220
    1C        C  778   2.883   4.555   5.048
    1C        O  779   2.819   4.652   5.000
    1C        O  780   2.929   4.565   5.180
    1C        C  781   2.488   3.037   5.087
    1C        O  782   2.428   2.930   5.059
    1C        O  783   2.459   3.086   5.213
    1C        C  784   2.428   3.990   5.065
    1C        O  785   2.306   4.001   5.038
    1C        O  786   2.458   3.966   5.200
    1C        C  787   2.961   2.412   2.017
    1C        O  788   2.941   2.413   1.893
    1C        O  789   2.945   2.283   2.068
    1C        C  790   3.193   2.386   5.087
    1C        O  791   3.170   2.263   5.069
    1C        O  792   3.197   2.436   5.217
    1C        H  793   4.302   3.003   5.075
    1C        H  794   4.173   2.814   5.073
    1C        H  795   4.514   3.133   5.057
    1C        H  796   4.572   3.356   5.061
    1C        H  797   4.588   3.814   5.043
    1C        H  798   4.449   3.985   5.051
    1C        H  799   4.252   4.142   5.042
    1C        H  800   4.049   4.561   5.010
    1C        H  801   3.813   4.555   5.046
    1C        H  802   3.586   4.665   5.019
    1C        H  803   3.395   4.522   5.048
    1C        H  804   3.158   4.524   5.051
    1C        H  805   3.902   2.458   5.054
    1C        H  806   3.669   2.528   5.071
    1C        H  807   3.001   2.559   5.063
    1C        H  808   3.441   2.440   5.074
    1C        H  809   2.889   2.755   5.080
    1C        H  810   2.674   2.865   5.067
    1C        H  811   2.485   3.297   5.067
    1C        H  812   2.463   3.511   5.060
    1C        H  813   2.466   3.732   5.058
    1C        H  814   2.563   4.195   5.022
    1C        H  815   2.750   4.330   5.048
    1C        H  816   2.713   2.890   1.977
    1C        H  817   2.829   2.672   1.985
    1C        H  818   3.218   2.498   1.986
    1C        H  819   3.423   2.402   1.989
    1C        H  820   3.851   2.514   1.974
    1C        H  821   4.022   2.681   1.980
    1C        H  822   4.277   2.705   1.981
    1C        H  823   4.352   2.946   1.980
    1C        H  824   4.613   3.307   1.987
    1C        H  825   4.498   3.521   1.961
    1C        H  826   4.549   3.758   1.966
    1C        H  827   3.813   4.526   1.953
    1C        H  828   3.943   4.348   1.956
    1C        H  829   4.155   4.250   1.949
    1C        H  830   4.532   3.988   1.982
    1C        H  831   2.651   3.834   1.969
    1C        H  832   2.767   4.043   1.992
    1C        H  833   2.710   4.313   1.979
    1C        H  834   3.382   4.465   1.948
    1C        H  835   3.165   4.382   1.960
    1C        H  836   2.532   3.015   1.989
    1C        H  837   2.463   3.243   1.975
    1C        H  838   2.520   3.674   1.969
    2V3OU   H29  839   2.812   3.547   4.697
    2V3OU   C27  840   2.797   3.499   4.797
    2V3OU   H27  841   2.736   3.573   4.855
    2V3OU   H28  842   2.740   3.405   4.776
    2V3OU   O11  843   2.914   3.479   4.877
    2V3OU   C15  844   2.922   3.398   4.988
    2V3OU   C13  845   3.056   3.377   5.028
    2V3OU   C14  846   3.078   3.269   5.114
    2V3OU   C16  847   2.974   3.189   5.161
    2V3OU    H6  848   2.993   3.103   5.227
    2V3OU   C12  849   3.219   3.231   5.135
    2V3OU    O2  850   3.245   3.124   5.195
    2V3OU   C10  851   3.328   3.313   5.080
    2V3OU    C8  852   3.460   3.271   5.099
    2V3OU   O10  853   3.491   3.153   5.159
    2V3OU   H26  854   3.404   3.116   5.181
    2V3OU    C6  855   3.564   3.350   5.040
    2V3OU    C5  856   3.541   3.464   4.965
    2V3OU    C4  857   3.703   3.296   5.036
    2V3OU    H4  858   3.725   3.225   5.121
    2V3OU    H5  859   3.707   3.226   4.947
    2V3OU    C2  860   3.816   3.398   5.029
    2V3OU    O6  861   3.809   3.479   5.147
    2V3OU   H21  862   3.760   3.558   5.120
    2V3OU    C3  863   3.784   3.495   4.915
    2V3OU    H2  864   3.865   3.573   4.909
    2V3OU    H3  865   3.780   3.442   4.817
    2V3OU   C25  866   3.953   3.335   5.003
    2V3OU    O7  867   3.992   3.297   4.893
    2V3OU   C26  868   4.035   3.290   5.123
    2V3OU   H22  869   4.074   3.387   5.165
    2V3OU   H23  870   4.118   3.223   5.091
    2V3OU    O8  871   3.964   3.208   5.212
    2V3OU   H24  872   3.929   3.260   5.286
    2V3OU    C1  873   3.649   3.562   4.930
    2V3OU    H1  874   3.627   3.617   4.834
    2V3OU    O3  875   3.659   3.652   5.041
    2V3OU   C19  876   3.620   3.789   5.032
    2V3OU    H9  877   3.522   3.806   4.978
    2V3OU    O4  878   3.713   3.850   4.945
    2V3OU   C20  879   3.843   3.875   4.997
    2V3OU   H10  880   3.881   3.770   5.017
    2V3OU   C24  881   3.615   3.857   5.169
    2V3OU   H16  882   3.548   3.794   5.233
    2V3OU   H17  883   3.570   3.960   5.160
    2V3OU   C23  884   3.754   3.876   5.230
    2V3OU   H15  885   3.799   3.772   5.247
    2V3OU    N1  886   3.737   3.961   5.346
    2V3OU   H19  887   3.812   3.932   5.406
    2V3OU   H20  888   3.657   3.929   5.397
    2V3OU   C21  889   3.849   3.950   5.130
    2V3OU   H11  890   3.953   3.930   5.170
    2V3OU    O5  891   3.828   4.090   5.138
    2V3OU   H18  892   3.782   4.104   5.222
    2V3OU   C22  893   3.917   3.950   4.888
    2V3OU   H12  894   3.864   4.046   4.864
    2V3OU   H13  895   3.909   3.893   4.791
    2V3OU   H14  896   4.026   3.961   4.912
    2V3OU   C11  897   3.162   3.471   4.991
    2V3OU    O1  898   3.136   3.586   4.949
    2V3OU    C9  899   3.304   3.431   5.006
    2V3OU    C7  900   3.405   3.507   4.949
    2V3OU    O9  901   3.386   3.623   4.877
    2V3OU   H25  902   3.289   3.629   4.881
    2V3OU   C17  903   2.822   3.319   5.049
    2V3OU    H7  904   2.719   3.354   5.049
    2V3OU   C18  905   2.840   3.209   5.133
    2V3OU    H8  906   2.761   3.147   5.177
    3SOL     OW  907   3.397   4.153   5.061
    3SOL    HW1  908   3.398   4.202   5.149
    3SOL    HW2  909   3.304   4.149   5.026
    4SOL     OW  910   0.101   0.240   0.348
    4SOL    HW1  911   0.018   0.252   0.294
    4SOL    HW2  912   0.090   0.161   0.409
    5SOL     OW  913   4.330   1.222   1.451
    5SOL    HW1  914   4.279   1.136   1.459
    5SOL    HW2  915   4.277   1.295   1.494
    6SOL     OW  916   5.834   1.155   3.641
    6SOL    HW1  917   5.761   1.094   3.609
    6SOL    HW2  918   5.911   1.101   3.673
    7SOL     OW  919   0.904   4.283   5.207
    7SOL    HW1  920   0.876   4.334   5.126
    7SOL    HW2  921   0.977   4.333   5.254
    8SOL     OW  922   2.179   2.562   5.514
    8SOL    HW1  923   2.111   2.524   5.577
    8SOL    HW2  924   2.145   2.556   5.420
    9SOL     OW  925   6.170   1.326   6.510
    9SOL    HW1  926   6.269   1.321   6.493
    9SOL    HW2  927   6.125   1.370   6.432
   10SOL     OW  928   4.773   4.511   2.530
   10SOL    HW1  929   4.731   4.421   2.513
   10SOL    HW2  930   4.775   4.563   2.445
   11SOL     OW  931   2.386   1.290   0.086
   11SOL    HW1  932   2.456   1.295   0.156
   11SOL    HW2  933   2.424   1.320   7.024
   12SOL     OW  934   2.655   4.727   3.267
   12SOL    HW1  935   2.641   4.684   3.356
   12SOL    HW2  936   2.752   4.728   3.245
   13SOL     OW  937   4.666   5.992   2.471
   13SOL    HW1  938   4.589   6.039   2.515
   13SOL    HW2  939   4.672   5.899   2.505
   14SOL     OW  940   4.902   4.757   5.393
   14SOL    HW1  941   4.818   4.810   5.408
   14SOL    HW2  942   4.882   4.680   5.332
   15SOL     OW  943   0.753   5.842   5.653
   15SOL    HW1  944   0.727   5.910   5.722
   15SOL    HW2  945   0.809   5.771   5.696
   16SOL     OW  946   6.505   2.667   5.726
   16SOL    HW1  947   6.414   2.689   5.761
   16SOL    HW2  948   6.569   2.661   5.802
   17SOL     OW  949   6.310   0.200   6.052
   17SOL    HW1  950   6.282   0.295   6.036
   17SOL    HW2  951   6.336   0.158   5.965
   18SOL     OW  952   3.145   0.104   5.018
   18SOL    HW1  953   3.177   0.100   4.924
   18SOL    HW2  954   3.086   0.185   5.029
   19SOL     OW  955   0.645   1.571   3.037
   19SOL    HW1  956   0.670   1.655   3.085
   19SOL    HW2  957   0.699   1.495   3.071
   20SOL     OW  958   5.702   2.955   5.489
   20SOL    HW1  959   5.722   2.882   5.555
   20SOL    HW2  960   5.751   2.939   5.404
   21SOL     OW  961   3.751   6.208   3.050
   21SOL    HW1  962   3.784   6.210   3.144
   21SOL    HW2  963   3.651   6.219   3.050
   22SOL     OW  964   2.456   6.603   5.010
   22SOL    HW1  965   2.391   6.679   5.004
   22SOL    HW2  966   2.508   6.598   4.924
   23SOL     OW  967   5.446   4.230   1.839
   23SOL    HW1  968   5.417   4.205   1.931
   23SOL    HW2  969   5.370   4.220   1.776
   24SOL     OW  970   4.148   0.649   1.400
   24SOL    HW1  971   4.092   0.640   1.482
   24SOL    HW2  972   4.244   0.658   1.427
   25SOL     OW  973   2.849   6.783   3.465
   25SOL    HW1  974   2.805   6.822   3.545
   25SOL    HW2  975   2.875   6.856   3.402
   26SOL     OW  976   1.320   2.303   6.755
   26SOL    HW1  977   1.225   2.327   6.737
   26SOL    HW2  978   1.328   2.265   6.847
   27SOL     OW  979   6.143   1.094   2.496
   27SOL    HW1  980   6.161   1.192   2.502
   27SOL    HW2  981   6.152   1.052   2.586
   28SOL     OW  982   1.953   0.783   4.757
   28SOL    HW1  983   2.010   0.826   4.828
   28SOL    HW2  984   2.012   0.733   4.694
   29SOL     OW  985   6.819   0.879   0.408
   29SOL    HW1  986   6.824   0.893   0.309
   29SOL    HW2  987   6.737   0.826   0.429
   30SOL     OW  988   4.172   0.617   4.783
   30SOL    HW1  989   4.243   0.680   4.754
   30SOL    HW2  990   4.082   0.659   4.770
   31SOL     OW  991   0.354   2.857   5.114
   31SOL    HW1  992   0.354   2.757   5.106
   31SOL    HW2  993   0.419   2.896   5.048
   32SOL     OW  994   1.492   0.809   1.285
   32SOL    HW1  995   1.485   0.908   1.276
   32SOL    HW2  996   1.402   0.771   1.308
   33SOL     OW  997   0.312   3.906   6.664
   33SOL    HW1  998   0.243   3.924   6.595
   33SOL    HW2  999   0.279   3.835   6.726
   34SOL     OW 1000   1.940   5.698   5.342
   34SOL    HW1 1001   2.003   5.654   5.405
   34SOL    HW2 1002   1.854   5.719   5.390
   35SOL     OW 1003   3.783   3.205   0.019
   35SOL    HW1 1004   3.807   3.294   0.057
   35SOL    HW2 1005   3.721   3.217   6.968
   36SOL     OW 1006   4.794   0.706   3.902
   36SOL    HW1 1007   4.884   0.662   3.915
   36SOL    HW2 1008   4.799   0.801   3.930
   37SOL     OW 1009   2.001   1.253   3.563
   37SOL    HW1 1010   1.912   1.265   3.607
   37SOL    HW2 1011   2.049   1.341   3.561
   38SOL     OW 1012   1.453   5.505   2.299
   38SOL    HW1 1013   1.522   5.537   2.234
   38SOL    HW2 1014   1.397   5.434   2.256
   39SOL     OW 1015   5.659   4.943   6.453
   39SOL    HW1 1016   5.727   4.886   6.498
   39SOL    HW2 1017   5.573   4.893   6.446
   40SOL     OW 1018   3.099   0.424   6.312
   40SOL    HW1 1019   3.117   0.356   6.383
   40SOL    HW2 1020   3.155   0.405   6.232
   41SOL     OW 1021   5.678   4.202   2.090
   41SOL    HW1 1022   5.713   4.201   1.996
   41SOL    HW2 1023   5.585   4.166   2.092
   42SOL     OW 1024   2.705   5.869   5.254
   42SOL    HW1 1025   2.668   5.793   5.309
   42SOL    HW2 1026   2.805   5.870   5.262
   43SOL     OW 1027   5.079   7.016   5.213
   43SOL    HW1 1028   5.164   0.021   5.256
   43SOL    HW2 1029   5.050   6.930   5.254
   44SOL     OW 1030   5.552   2.920   5.036
   44SOL    HW1 1031   5.536   2.923   4.937
   44SOL    HW2 1032   5.469   2.950   5.083
   45SOL     OW 1033   3.989   5.439   0.432
   45SOL    HW1 1034   4.022   5.516   0.379
   45SOL    HW2 1035   3.918   5.391   0.381
   46SOL     OW 1036   0.207   3.124   4.452
   46SOL    HW1 1037   0.287   3.074   4.420
   46SOL    HW2 1038   0.172   3.081   4.536
   47SOL     OW 1039   5.415   3.327   1.869
   47SOL    HW1 1040   5.444   3.265   1.796
   47SOL    HW2 1041   5.472   3.312   1.950
   48SOL     OW 1042   6.846   3.684   6.779
   48SOL    HW1 1043   6.770   3.740   6.745
   48SOL    HW2 1044   6.857   3.700   6.877
   49SOL     OW 1045   5.013   3.243   0.259
   49SOL    HW1 1046   5.055   3.179   0.324
   49SOL    HW2 1047   4.973   3.320   0.309
   50SOL     OW 1048   6.198   2.034   6.516
   50SOL    HW1 1049   6.288   2.015   6.475
   50SOL    HW2 1050   6.155   2.109   6.467
   51SOL     OW 1051   1.734   4.376   3.641
   51SOL    HW1 1052   1.763   4.362   3.547
   51SOL    HW2 1053   1.655   4.318   3.661
   52SOL     OW 1054   5.432   2.878   1.546
   52SOL    HW1 1055   5.346   2.930   1.555
   52SOL    HW2 1056   5.414   2.782   1.567
   53SOL     OW 1057   4.612   0.654   3.241
   53SOL    HW1 1058   4.590   0.750   3.227
   53SOL    HW2 1059   4.574   0.623   3.328
   54SOL     OW 1060   5.809   6.139   0.170
   54SOL    HW1 1061   5.793   6.041   0.183
   54SOL    HW2 1062   5.834   6.181   0.258
   55SOL     OW 1063   2.045   2.567   6.269
   55SOL    HW1 1064   2.125   2.625   6.280
   55SOL    HW2 1065   2.045   2.528   6.176
   56SOL     OW 1066   1.543   2.000   0.002
   56SOL    HW1 1067   1.643   2.003   7.021
   56SOL    HW2 1068   1.505   1.969   6.941
   57SOL     OW 1069   3.901   0.855   0.349
   57SOL    HW1 1070   3.987   0.905   0.355
   57SOL    HW2 1071   3.842   0.898   0.281
   58SOL     OW 1072   0.795   0.661   6.240
   58SOL    HW1 1073   0.771   0.582   6.297
   58SOL    HW2 1074   0.867   0.714   6.286
   59SOL     OW 1075   6.301   3.530   6.375
   59SOL    HW1 1076   6.301   3.594   6.299
   59SOL    HW2 1077   6.257   3.445   6.347
   60SOL     OW 1078   5.457   0.713   3.233
   60SOL    HW1 1079   5.557   0.717   3.231
   60SOL    HW2 1080   5.421   0.736   3.143
   61SOL     OW 1081   0.188   1.295   4.818
   61SOL    HW1 1082   0.152   1.213   4.773
   61SOL    HW2 1083   0.112   1.343   4.863
   62SOL     OW 1084   0.060   1.528   2.256
   62SOL    HW1 1085   0.044   1.529   2.157
   62SOL    HW2 1086   0.088   1.619   2.286
   63SOL     OW 1087   3.988   6.432   4.104
   63SOL    HW1 1088   3.992   6.411   4.007
   63SOL    HW2 1089   4.070   6.482   4.132
   64SOL     OW 1090   1.580   4.065   6.841
   64SOL    HW1 1091   1.646   3.996   6.813
   64SOL    HW2 1092   1.627   4.142   6.885
   65SOL     OW 1093   0.686   0.479   5.393
   65SOL    HW1 1094   0.663   0.523   5.306
   65SOL    HW2 1095   0.623   0.511   5.465
   66SOL     OW 1096   3.812   6.674   1.955
   66SOL    HW1 1097   3.858   6.685   1.867
   66SOL    HW2 1098   3.827   6.756   2.011
   67SOL     OW 1099   0.415   2.153   0.857
   67SOL    HW1 1100   0.454   2.243   0.873
   67SOL    HW2 1101   0.481   2.082   0.882
   68SOL     OW 1102   0.078   2.761   5.695
   68SOL    HW1 1103   0.058   2.827   5.766
   68SOL    HW2 1104   0.048   2.796   5.606
   69SOL     OW 1105   1.111   5.448   5.694
   69SOL    HW1 1106   1.162   5.404   5.768
   69SOL    HW2 1107   1.056   5.380   5.646
   70SOL     OW 1108   5.284   3.649   4.691
   70SOL    HW1 1109   5.241   3.583   4.753
   70SOL    HW2 1110   5.242   3.739   4.703
   71SOL     OW 1111   4.516   2.160   4.794
   71SOL    HW1 1112   4.446   2.103   4.751
   71SOL    HW2 1113   4.569   2.205   4.722
   72SOL     OW 1114   6.840   0.158   3.790
   72SOL    HW1 1115   6.921   0.217   3.787
   72SOL    HW2 1116   6.830   0.121   3.883
   73SOL     OW 1117   2.826   0.498   0.968
   73SOL    HW1 1118   2.894   0.494   0.894
   73SOL    HW2 1119   2.861   0.449   1.048
   74SOL     OW 1120   2.093   1.538   6.719
   74SOL    HW1 1121   2.081   1.553   6.817
   74SOL    HW2 1122   2.111   1.441   6.702
   75SOL     OW 1123   4.287   1.405   1.029
   75SOL    HW1 1124   4.224   1.328   1.041
   75SOL    HW2 1125   4.362   1.397   1.095
   76SOL     OW 1126   3.149   4.451   5.312
   76SOL    HW1 1127   3.139   4.452   5.412
   76SOL    HW2 1128   3.066   4.488   5.271
   77SOL     OW 1129   1.973   5.221   4.526
   77SOL    HW1 1130   2.067   5.207   4.556
   77SOL    HW2 1131   1.968   5.218   4.427
   78SOL     OW 1132   4.485   1.359   1.213
   78SOL    HW1 1133   4.476   1.449   1.255
   78SOL    HW2 1134   4.507   1.290   1.283
   79SOL     OW 1135   2.128   4.812   1.808
   79SOL    HW1 1136   2.144   4.721   1.846
   79SOL    HW2 1137   2.215   4.849   1.773
   80SOL     OW 1138   4.795   2.090   5.259
   80SOL    HW1 1139   4.777   2.047   5.170
   80SOL    HW2 1140   4.828   2.183   5.245
   81SOL     OW 1141   2.389   6.285   1.090
   81SOL    HW1 1142   2.322   6.287   1.164
   81SOL    HW2 1143   2.469   6.232   1.119
   82SOL     OW 1144   1.149   5.711   1.769
   82SOL    HW1 1145   1.141   5.723   1.868
   82SOL    HW2 1146   1.059   5.694   1.729
   83SOL     OW 1147   5.723   2.079   5.802
   83SOL    HW1 1148   5.807   2.044   5.845
   83SOL    HW2 1149   5.648   2.077   5.868
   84SOL     OW 1150   6.288   3.315   3.587
   84SOL    HW1 1151   6.335   3.227   3.598
   84SOL    HW2 1152   6.304   3.350   3.495
   85SOL     OW 1153   1.872   0.127   4.059
   85SOL    HW1 1154   1.797   0.073   4.021
   85SOL    HW2 1155   1.951   0.068   4.075
   86SOL     OW 1156   5.762   1.765   6.185
   86SOL    HW1 1157   5.822   1.719   6.118
   86SOL    HW2 1158   5.816   1.830   6.238
   87SOL     OW 1159   4.363   4.308   6.527
   87SOL    HW1 1160   4.309   4.236   6.484
   87SOL    HW2 1161   4.360   4.297   6.627
   88SOL     OW 1162   2.667   3.245   5.960
   88SOL    HW1 1163   2.716   3.174   5.909
   88SOL    HW2 1164   2.638   3.317   5.897
   89SOL     OW 1165   2.978   3.328   2.997
   89SOL    HW1 1166   2.929   3.242   2.987
   89SOL    HW2 1167   2.999   3.365   2.906
   90SOL     OW 1168   4.931   3.476   2.757
   90SOL    HW1 1169   4.908   3.550   2.820
   90SOL    HW2 1170   4.930   3.512   2.663
   91SOL     OW 1171   5.759   5.551   5.622
   91SOL    HW1 1172   5.674   5.537   5.572
   91SOL    HW2 1173   5.796   5.463   5.652
   92SOL     OW 1174   5.406   4.557   7.014
   92SOL    HW1 1175   5.489   4.563   0.043
   92SOL    HW2 1176   5.385   4.461   6.994
   93SOL     OW 1177   2.838   2.896   0.989
   93SOL    HW1 1178   2.907   2.830   1.018
   93SOL    HW2 1179   2.871   2.989   1.005
   94SOL     OW 1180   3.271   0.564   5.567
   94SOL    HW1 1181   3.193   0.574   5.629
   94SOL    HW2 1182   3.335   0.639   5.580
   95SOL     OW 1183   0.208   0.497   4.198
   95SOL    HW1 1184   0.149   0.570   4.235
   95SOL    HW2 1185   0.236   0.437   4.272
   96SOL     OW 1186   4.872   4.892   6.518
   96SOL    HW1 1187   4.784   4.935   6.498
   96SOL    HW2 1188   4.945   4.960   6.507
   97SOL     OW 1189   2.149   5.124   5.599
   97SOL    HW1 1190   2.180   5.048   5.542
   97SOL    HW2 1191   2.228   5.169   5.641
   98SOL     OW 1192   0.997   3.038   2.313
   98SOL    HW1 1193   1.096   3.035   2.326
   98SOL    HW2 1194   0.968   3.134   2.307
   99SOL     OW 1195   3.922   3.069   3.908
   99SOL    HW1 1196   3.839   3.120   3.931
   99SOL    HW2 1197   3.986   3.071   3.985
  100SOL     OW 1198   6.946   6.593   4.159
  100SOL    HW1 1199   0.016   6.583   4.182
  100SOL    HW2 1200   6.907   6.504   4.136
  101SOL     OW 1201   1.111   4.262   2.871
  101SOL    HW1 1202   1.030   4.317   2.888
  101SOL    HW2 1203   1.091   4.193   2.801
  102SOL     OW 1204   2.812   6.259   1.606
  102SOL    HW1 1205   2.863   6.186   1.562
  102SOL    HW2 1206   2.731   6.281   1.552
  103SOL     OW 1207   2.019   1.097   2.367
  103SOL    HW1 1208   1.964   1.101   2.450
  103SOL    HW2 1209   2.068   1.183   2.355
  104SOL     OW 1210   1.568   4.456   1.799
  104SOL    HW1 1211   1.506   4.426   1.871
  104SOL    HW2 1212   1.610   4.377   1.755
  105SOL     OW 1213   4.955   1.841   6.572
  105SOL    HW1 1214   4.909   1.930   6.562
  105SOL    HW2 1215   5.026   1.833   6.503
  106SOL     OW 1216   5.389   5.424   1.982
  106SOL    HW1 1217   5.386   5.327   1.957
  106SOL    HW2 1218   5.465   5.439   2.046
  107SOL     OW 1219   6.201   1.810   0.425
  107SOL    HW1 1220   6.212   1.760   0.339
  107SOL    HW2 1221   6.104   1.813   0.450
  108SOL     OW 1222   1.864   0.451   4.942
  108SOL    HW1 1223   1.876   0.517   5.016
  108SOL    HW2 1224   1.794   0.384   4.968
  109SOL     OW 1225   3.529   1.083   3.426
  109SOL    HW1 1226   3.517   1.181   3.411
  109SOL    HW2 1227   3.539   1.064   3.523
  110SOL     OW 1228   2.926   4.628   5.784
  110SOL    HW1 1229   2.897   4.558   5.719
  110SOL    HW2 1230   2.847   4.662   5.835
  111SOL     OW 1231   5.626   1.753   2.485
  111SOL    HW1 1232   5.641   1.706   2.572
  111SOL    HW2 1233   5.656   1.695   2.409
  112SOL     OW 1234   4.066   0.232   6.624
  112SOL    HW1 1235   4.055   0.136   6.599
  112SOL    HW2 1236   4.022   0.291   6.556
  113SOL     OW 1237   6.414   5.722   2.648
  113SOL    HW1 1238   6.444   5.742   2.555
  113SOL    HW2 1239   6.491   5.736   2.711
  114SOL     OW 1240   1.485   4.233   4.202
  114SOL    HW1 1241   1.428   4.201   4.127
  114SOL    HW2 1242   1.579   4.201   4.189
  115SOL     OW 1243   6.216   0.897   3.563
  115SOL    HW1 1244   6.278   0.972   3.537
  115SOL    HW2 1245   6.143   0.933   3.621
  116SOL     OW 1246   1.146   5.662   0.965
  116SOL    HW1 1247   1.154   5.724   0.887
  116SOL    HW2 1248   1.131   5.716   1.048
  117SOL     OW 1249   2.315   1.915   7.011
  117SOL    HW1 1250   2.242   1.974   0.021
  117SOL    HW2 1251   2.374   1.885   0.060
  118SOL     OW 1252   1.163   1.785   3.915
  118SOL    HW1 1253   1.104   1.865   3.900
  118SOL    HW2 1254   1.239   1.787   3.850
  119SOL     OW 1255   0.138   0.013   6.587
  119SOL    HW1 1256   0.170   0.107   6.594
  119SOL    HW2 1257   0.045   0.006   6.620
  120SOL     OW 1258   4.615   1.185   4.981
  120SOL    HW1 1259   4.533   1.242   4.971
  120SOL    HW2 1260   4.661   1.208   5.067
  121SOL     OW 1261   0.848   3.315   6.405
  121SOL    HW1 1262   0.799   3.375   6.342
  121SOL    HW2 1263   0.915   3.261   6.354
  122SOL     OW 1264   1.085   4.211   6.756
  122SOL    HW1 1265   1.106   4.122   6.716
  122SOL    HW2 1266   1.105   4.283   6.689
  123SOL     OW 1267   0.924   1.339   1.602
  123SOL    HW1 1268   0.917   1.371   1.508
  123SOL    HW2 1269   0.897   1.243   1.607
  124SOL     OW 1270   3.175   2.146   1.014
  124SOL    HW1 1271   3.124   2.098   1.085
  124SOL    HW2 1272   3.186   2.086   0.935
  125SOL     OW 1273   3.347   2.777   6.775
  125SOL    HW1 1274   3.351   2.821   6.685
  125SOL    HW2 1275   3.387   2.685   6.769
  126SOL     OW 1276   4.133   3.388   4.013
  126SOL    HW1 1277   4.110   3.375   3.916
  126SOL    HW2 1278   4.123   3.302   4.062
  127SOL     OW 1279   0.359   6.071   6.057
  127SOL    HW1 1280   0.312   6.033   5.978
  127SOL    HW2 1281   0.429   6.007   6.089
  128SOL     OW 1282   4.521   3.645   1.406
  128SOL    HW1 1283   4.562   3.733   1.384
  128SOL    HW2 1284   4.529   3.628   1.505
  129SOL     OW 1285   2.109   6.166   1.102
  129SOL    HW1 1286   2.171   6.165   1.023
  129SOL    HW2 1287   2.039   6.236   1.089
  130SOL     OW 1288   5.477   2.248   4.403
  130SOL    HW1 1289   5.383   2.238   4.433
  130SOL    HW2 1290   5.481   2.246   4.303
  131SOL     OW 1291   0.512   2.400   3.743
  131SOL    HW1 1292   0.439   2.333   3.754
  131SOL    HW2 1293   0.601   2.357   3.760
  132SOL     OW 1294   3.590   4.146   2.022
  132SOL    HW1 1295   3.574   4.232   2.070
  132SOL    HW2 1296   3.503   4.113   1.984
  133SOL     OW 1297   5.283   6.886   5.055
  133SOL    HW1 1298   5.188   6.906   5.081
  133SOL    HW2 1299   5.299   6.916   4.961
  134SOL     OW 1300   5.661   1.486   2.041
  134SOL    HW1 1301   5.738   1.439   2.083
  134SOL    HW2 1302   5.618   1.547   2.107
  135SOL     OW 1303   4.899   3.490   4.310
  135SOL    HW1 1304   4.930   3.543   4.389
  135SOL    HW2 1305   4.909   3.546   4.227
  136SOL     OW 1306   2.460   6.869   4.569
  136SOL    HW1 1307   2.429   6.964   4.580
  136SOL    HW2 1308   2.538   6.852   4.630
  137SOL     OW 1309   3.243   2.034   4.944
  137SOL    HW1 1310   3.249   2.127   4.981
  137SOL    HW2 1311   3.189   2.035   4.859
  138SOL     OW 1312   0.773   5.391   4.799
  138SOL    HW1 1313   0.724   5.347   4.723
  138SOL    HW2 1314   0.710   5.410   4.874
  139SOL     OW 1315   2.031   6.116   6.546
  139SOL    HW1 1316   2.089   6.155   6.618
  139SOL    HW2 1317   1.978   6.189   6.502
  140SOL     OW 1318   2.260   1.102   3.085
  140SOL    HW1 1319   2.305   1.187   3.111
  140SOL    HW2 1320   2.294   1.072   2.996
  141SOL     OW 1321   6.741   4.276   0.494
  141SOL    HW1 1322   6.694   4.343   0.553
  141SOL    HW2 1323   6.676   4.242   0.426
  142SOL     OW 1324   1.217   4.049   1.554
  142SOL    HW1 1325   1.190   3.953   1.541
  142SOL    HW2 1326   1.143   4.109   1.521
  143SOL     OW 1327   5.646   6.999   1.979
  143SOL    HW1 1328   5.659   6.934   1.905
  143SOL    HW2 1329   5.689   6.964   2.063
  144SOL     OW 1330   2.976   4.800   3.265
  144SOL    HW1 1331   2.979   4.777   3.362
  144SOL    HW2 1332   3.051   4.862   3.243
  145SOL     OW 1333   6.602   4.495   2.490
  145SOL    HW1 1334   6.656   4.562   2.539
  145SOL    HW2 1335   6.655   4.411   2.478
  146SOL     OW 1336   5.960   1.916   5.894
  146SOL    HW1 1337   6.057   1.893   5.898
  146SOL    HW2 1338   5.905   1.836   5.917
  147SOL     OW 1339   5.253   1.362   5.839
  147SOL    HW1 1340   5.166   1.408   5.857
  147SOL    HW2 1341   5.287   1.390   5.749
  148SOL     OW 1342   1.337   4.512   1.262
  148SOL    HW1 1343   1.274   4.472   1.329
  148SOL    HW2 1344   1.380   4.439   1.208
  149SOL     OW 1345   2.524   2.192   5.481
  149SOL    HW1 1346   2.588   2.259   5.442
  149SOL    HW2 1347   2.459   2.164   5.410
  150SOL     OW 1348   4.411   1.116   5.381
  150SOL    HW1 1349   4.393   1.214   5.371
  150SOL    HW2 1350   4.505   1.097   5.351
  151SOL     OW 1351   4.147   1.770   1.134
  151SOL    HW1 1352   4.230   1.756   1.188
  151SOL    HW2 1353   4.162   1.740   1.040
  152SOL     OW 1354   1.182   0.906   0.241
  152SOL    HW1 1355   1.183   0.981   0.306
  152SOL    HW2 1356   1.096   0.857   0.248
  153SOL     OW 1357   2.791   1.250   3.740
  153SOL    HW1 1358   2.814   1.263   3.837
  153SOL    HW2 1359   2.776   1.339   3.697
  154SOL     OW 1360   6.188   1.910   1.615
  154SOL    HW1 1361   6.264   1.925   1.551
  154SOL    HW2 1362   6.214   1.842   1.683
  155SOL     OW 1363   0.235   7.013   1.782
  155SOL    HW1 1364   0.264   0.041   1.862
  155SOL    HW2 1365   0.142   0.011   1.758
  156SOL     OW 1366   4.561   1.144   0.332
  156SOL    HW1 1367   4.622   1.185   0.400
  156SOL    HW2 1368   4.541   1.049   0.357
  157SOL     OW 1369   5.006   4.248   0.853
  157SOL    HW1 1370   4.990   4.157   0.816
  157SOL    HW2 1371   4.932   4.309   0.824
  158SOL     OW 1372   0.947   3.053   2.884
  158SOL    HW1 1373   0.871   2.988   2.891
  158SOL    HW2 1374   0.922   3.126   2.819
  159SOL     OW 1375   5.302   5.500   0.200
  159SOL    HW1 1376   5.366   5.536   0.267
  159SOL    HW2 1377   5.322   5.404   0.182
  160SOL     OW 1378   5.908   0.064   0.792
  160SOL    HW1 1379   5.818   0.036   0.756
  160SOL    HW2 1380   5.934   0.151   0.751
  161SOL     OW 1381   0.977   0.020   0.658
  161SOL    HW1 1382   0.938   0.024   0.566
  161SOL    HW2 1383   1.073   7.022   0.652
  162SOL     OW 1384   2.542   6.161   6.972
  162SOL    HW1 1385   2.557   6.238   6.911
  162SOL    HW2 1386   2.534   6.194   0.040
  163SOL     OW 1387   6.907   3.985   3.673
  163SOL    HW1 1388   6.809   3.989   3.655
  163SOL    HW2 1389   6.925   3.919   3.746
  164SOL     OW 1390   1.721   1.694   2.822
  164SOL    HW1 1391   1.783   1.772   2.826
  164SOL    HW2 1392   1.763   1.616   2.870
  165SOL     OW 1393   0.872   5.689   2.410
  165SOL    HW1 1394   0.846   5.633   2.331
  165SOL    HW2 1395   0.958   5.656   2.447
  166SOL     OW 1396   6.130   3.918   2.405
  166SOL    HW1 1397   6.152   3.987   2.336
  166SOL    HW2 1398   6.040   3.879   2.385
  167SOL     OW 1399   5.166   1.912   0.450
  167SOL    HW1 1400   5.262   1.884   0.459
  167SOL    HW2 1401   5.121   1.856   0.381
  168SOL     OW 1402   5.005   3.798   2.316
  168SOL    HW1 1403   5.041   3.720   2.264
  168SOL    HW2 1404   4.927   3.837   2.268
  169SOL     OW 1405   6.331   2.416   1.248
  169SOL    HW1 1406   6.273   2.338   1.224
  169SOL    HW2 1407   6.343   2.475   1.168
  170SOL     OW 1408   0.888   5.149   2.345
  170SOL    HW1 1409   0.887   5.093   2.428
  170SOL    HW2 1410   0.982   5.167   2.319
  171SOL     OW 1411   2.807   3.717   0.731
  171SOL    HW1 1412   2.735   3.772   0.691
  171SOL    HW2 1413   2.780   3.621   0.732
  172SOL     OW 1414   6.182   1.887   2.190
  172SOL    HW1 1415   6.177   1.873   2.091
  172SOL    HW2 1416   6.264   1.843   2.225
  173SOL     OW 1417   6.670   1.877   5.536
  173SOL    HW1 1418   6.677   1.938   5.457
  173SOL    HW2 1419   6.751   1.888   5.594
  174SOL     OW 1420   5.772   5.650   5.168
  174SOL    HW1 1421   5.864   5.634   5.131
  174SOL    HW2 1422   5.750   5.747   5.162
  175SOL     OW 1423   1.500   0.624   0.577
  175SOL    HW1 1424   1.456   0.581   0.499
  175SOL    HW2 1425   1.431   0.668   0.635
  176SOL     OW 1426   5.263   4.721   2.588
  176SOL    HW1 1427   5.254   4.627   2.557
  176SOL    HW2 1428   5.203   4.780   2.535
  177SOL     OW 1429   5.730   1.885   4.221
  177SOL    HW1 1430   5.746   1.975   4.261
  177SOL    HW2 1431   5.632   1.873   4.203
  178SOL     OW 1432   2.231   6.463   5.128
  178SOL    HW1 1433   2.319   6.491   5.089
  178SOL    HW2 1434   2.247   6.396   5.201
  179SOL     OW 1435   4.325   5.300   0.796
  179SOL    HW1 1436   4.381   5.251   0.729
  179SOL    HW2 1437   4.231   5.267   0.791
  180SOL     OW 1438   3.771   0.573   1.211
  180SOL    HW1 1439   3.757   0.672   1.202
  180SOL    HW2 1440   3.685   0.525   1.190
  181SOL     OW 1441   3.315   2.661   5.272
  181SOL    HW1 1442   3.414   2.671   5.269
  181SOL    HW2 1443   3.291   2.564   5.277
  182SOL     OW 1444   5.341   2.471   0.133
  182SOL    HW1 1445   5.352   2.570   0.127
  182SOL    HW2 1446   5.249   2.450   0.166
  183SOL     OW 1447   3.614   1.619   4.476
  183SOL    HW1 1448   3.680   1.665   4.536
  183SOL    HW2 1449   3.553   1.562   4.532
  184SOL     OW 1450   0.108   6.395   3.255
  184SOL    HW1 1451   0.056   6.452   3.318
  184SOL    HW2 1452   0.050   6.371   3.177
  185SOL     OW 1453   0.575   1.837   4.129
  185SOL    HW1 1454   0.502   1.774   4.155
  185SOL    HW2 1455   0.601   1.892   4.208
  186SOL     OW 1456   5.191   5.441   4.111
  186SOL    HW1 1457   5.283   5.464   4.079
  186SOL    HW2 1458   5.161   5.356   4.067
  187SOL     OW 1459   4.074   5.693   2.593
  187SOL    HW1 1460   4.128   5.774   2.568
  187SOL    HW2 1461   3.988   5.722   2.634
  188SOL     OW 1462   2.444   2.483   2.712
  188SOL    HW1 1463   2.439   2.510   2.616
  188SOL    HW2 1464   2.539   2.465   2.736
  189SOL     OW 1465   6.425   5.482   6.739
  189SOL    HW1 1466   6.367   5.410   6.777
  189SOL    HW2 1467   6.399   5.570   6.780
  190SOL     OW 1468   6.170   5.927   0.559
  190SOL    HW1 1469   6.269   5.917   0.561
  190SOL    HW2 1470   6.128   5.837   0.545
  191SOL     OW 1471   6.145   0.828   6.331
  191SOL    HW1 1472   6.137   0.922   6.363
  191SOL    HW2 1473   6.209   0.824   6.254
  192SOL     OW 1474   0.188   5.165   1.112
  192SOL    HW1 1475   0.229   5.226   1.179
  192SOL    HW2 1476   0.178   5.213   1.024
  193SOL     OW 1477   3.340   5.075   6.415
  193SOL    HW1 1478   3.273   5.019   6.365
  193SOL    HW2 1479   3.350   5.040   6.508
  194SOL     OW 1480   4.112   6.394   1.883
  194SOL    HW1 1481   4.143   6.305   1.848
  194SOL    HW2 1482   4.015   6.406   1.860
  195SOL     OW 1483   3.218   0.959   1.792
  195SOL    HW1 1484   3.146   0.976   1.725
  195SOL    HW2 1485   3.248   1.045   1.832
  196SOL     OW 1486   2.477   0.639   6.283
  196SOL    HW1 1487   2.520   0.609   6.368
  196SOL    HW2 1488   2.455   0.737   6.290
  197SOL     OW 1489   2.680   5.554   0.082
  197SOL    HW1 1490   2.715   5.573   7.016
  197SOL    HW2 1491   2.582   5.571   0.084
  198SOL     OW 1492   4.210   6.092   0.544
  198SOL    HW1 1493   4.305   6.085   0.515
  198SOL    HW2 1494   4.170   6.000   0.551
  199SOL     OW 1495   5.445   6.907   2.584
  199SOL    HW1 1496   5.369   6.842   2.588
  199SOL    HW2 1497   5.409   6.999   2.566
  200SOL     OW 1498   1.322   4.237   2.631
  200SOL    HW1 1499   1.233   4.213   2.670
  200SOL    HW2 1500   1.318   4.227   2.532
  201SOL     OW 1501   2.890   1.081   6.766
  201SOL    HW1 1502   2.842   1.165   6.792
  201SOL    HW2 1503   2.971   1.069   6.824
  202SOL     OW 1504   4.597   0.044   3.965
  202SOL    HW1 1505   4.583   7.023   3.879
  202SOL    HW2 1506   4.643   0.132   3.948
  203SOL     OW 1507   5.074   3.276   6.418
  203SOL    HW1 1508   5.109   3.289   6.325
  203SOL    HW2 1509   5.055   3.179   6.433
  204SOL     OW 1510   2.192   0.328   0.457
  204SOL    HW1 1511   2.166   0.345   0.552
  204SOL    HW2 1512   2.131   0.380   0.397
  205SOL     OW 1513   6.247   1.344   1.131
  205SOL    HW1 1514   6.337   1.301   1.132
  205SOL    HW2 1515   6.210   1.348   1.224
  206SOL     OW 1516   0.630   4.532   1.352
  206SOL    HW1 1517   0.599   4.438   1.367
  206SOL    HW2 1518   0.720   4.530   1.308
  207SOL     OW 1519   4.475   0.518   5.846
  207SOL    HW1 1520   4.542   0.590   5.834
  207SOL    HW2 1521   4.493   0.468   5.931
  208SOL     OW 1522   5.280   5.261   5.875
  208SOL    HW1 1523   5.274   5.305   5.785
  208SOL    HW2 1524   5.238   5.171   5.871
  209SOL     OW 1525   0.053   6.156   5.972
  209SOL    HW1 1526   0.021   6.095   5.899
  209SOL    HW2 1527   0.139   6.199   5.943
  210SOL     OW 1528   3.991   2.132   1.993
  210SOL    HW1 1529   3.979   2.038   1.960
  210SOL    HW2 1530   3.902   2.175   2.005
  211SOL     OW 1531   0.923   1.227   1.221
  211SOL    HW1 1532   0.826   1.225   1.243
  211SOL    HW2 1533   0.958   1.320   1.234
  212SOL     OW 1534   0.732   4.709   3.296
  212SOL    HW1 1535   0.683   4.787   3.255
  212SOL    HW2 1536   0.758   4.732   3.390
  213SOL     OW 1537   5.237   1.275   0.252
  213SOL    HW1 1538   5.278   1.226   0.330
  213SOL    HW2 1539   5.223   1.211   0.177
  214SOL     OW 1540   0.848   6.216   3.116
  214SOL    HW1 1541   0.802   6.128   3.101
  214SOL    HW2 1542   0.821   6.254   3.204
  215SOL     OW 1543   3.865   3.464   1.685
  215SOL    HW1 1544   3.911   3.377   1.665
  215SOL    HW2 1545   3.902   3.503   1.769
  216SOL     OW 1546   1.210   0.280   4.822
  216SOL    HW1 1547   1.257   0.202   4.781
  216SOL    HW2 1548   1.129   0.248   4.871
  217SOL     OW 1549   1.966   2.442   3.793
  217SOL    HW1 1550   1.875   2.418   3.760
  217SOL    HW2 1551   1.982   2.397   3.882
  218SOL     OW 1552   1.121   2.419   4.607
  218SOL    HW1 1553   1.210   2.461   4.626
  218SOL    HW2 1554   1.052   2.461   4.666
  219SOL     OW 1555   3.743   3.950   0.690
  219SOL    HW1 1556   3.729   3.866   0.637
  219SOL    HW2 1557   3.663   3.966   0.748
  220SOL     OW 1558   2.756   5.551   6.799
  220SOL    HW1 1559   2.847   5.591   6.800
  220SOL    HW2 1560   2.760   5.459   6.761
  221SOL     OW 1561   5.146   2.825   3.955
  221SOL    HW1 1562   5.050   2.816   3.982
  221SOL    HW2 1563   5.196   2.873   4.027
  222SOL     OW 1564   1.420   5.678   5.261
  222SOL    HW1 1565   1.472   5.762   5.246
  222SOL    HW2 1566   1.351   5.693   5.332
  223SOL     OW 1567   6.858   3.482   2.116
  223SOL    HW1 1568   6.832   3.579   2.114
  223SOL    HW2 1569   6.841   3.442   2.026
  224SOL     OW 1570   2.661   2.296   2.003
  224SOL    HW1 1571   2.759   2.292   1.986
  224SOL    HW2 1572   2.616   2.219   1.958
  225SOL     OW 1573   5.756   0.774   0.191
  225SOL    HW1 1574   5.702   0.814   0.266
  225SOL    HW2 1575   5.853   0.776   0.215
  226SOL     OW 1576   1.318   6.404   0.614
  226SOL    HW1 1577   1.316   6.360   0.704
  226SOL    HW2 1578   1.239   6.374   0.561
  227SOL     OW 1579   1.891   3.856   3.762
  227SOL    HW1 1580   1.915   3.944   3.720
  227SOL    HW2 1581   1.974   3.812   3.795
  228SOL     OW 1582   3.892   7.000   4.200
  228SOL    HW1 1583   3.885   6.911   4.246
  228SOL    HW2 1584   3.965   0.027   4.242
  229SOL     OW 1585   6.396   5.572   1.648
  229SOL    HW1 1586   6.307   5.617   1.637
  229SOL    HW2 1587   6.432   5.592   1.739
  230SOL     OW 1588   2.111   4.034   4.849
  230SOL    HW1 1589   2.024   4.037   4.898
  230SOL    HW2 1590   2.184   4.007   4.913
  231SOL     OW 1591   6.984   2.843   6.664
  231SOL    HW1 1592   6.917   2.770   6.662
  231SOL    HW2 1593   0.012   2.841   6.580
  232SOL     OW 1594   1.780   3.620   6.465
  232SOL    HW1 1595   1.783   3.580   6.373
  232SOL    HW2 1596   1.873   3.624   6.502
  233SOL     OW 1597   2.412   1.308   5.516
  233SOL    HW1 1598   2.511   1.299   5.515
  233SOL    HW2 1599   2.387   1.402   5.541
  234SOL     OW 1600   2.866   4.901   6.961
  234SOL    HW1 1601   2.870   4.802   6.945
  234SOL    HW2 1602   2.826   4.946   6.881
  235SOL     OW 1603   3.706   3.224   3.928
  235SOL    HW1 1604   3.671   3.178   4.010
  235SOL    HW2 1605   3.713   3.322   3.946
  236SOL     OW 1606   6.994   2.786   5.440
  236SOL    HW1 1607   7.003   2.704   5.383
  236SOL    HW2 1608   6.958   2.861   5.385
  237SOL     OW 1609   6.816   6.888   1.578
  237SOL    HW1 1610   6.849   6.794   1.569
  237SOL    HW2 1611   6.759   6.911   1.499
  238SOL     OW 1612   5.738   3.394   1.997
  238SOL    HW1 1613   5.765   3.489   1.982
  238SOL    HW2 1614   5.664   3.390   2.065
  239SOL     OW 1615   6.873   5.788   6.598
  239SOL    HW1 1616   6.873   5.773   6.499
  239SOL    HW2 1617   6.966   5.778   6.633
  240SOL     OW 1618   0.721   3.502   6.588
  240SOL    HW1 1619   0.745   3.423   6.532
  240SOL    HW2 1620   0.752   3.586   6.542
  241SOL     OW 1621   0.298   0.902   3.714
  241SOL    HW1 1622   0.261   0.984   3.670
  241SOL    HW2 1623   0.370   0.863   3.657
  242SOL     OW 1624   1.321   3.842   4.633
  242SOL    HW1 1625   1.419   3.819   4.628
  242SOL    HW2 1626   1.267   3.758   4.624
  243SOL     OW 1627   5.622   0.191   6.019
  243SOL    HW1 1628   5.537   0.146   6.047
  243SOL    HW2 1629   5.632   0.277   6.070
  244SOL     OW 1630   5.441   2.134   5.150
  244SOL    HW1 1631   5.434   2.037   5.172
  244SOL    HW2 1632   5.389   2.153   5.066
  245SOL     OW 1633   6.455   2.578   4.876
  245SOL    HW1 1634   6.488   2.567   4.783
  245SOL    HW2 1635   6.521   2.632   4.929
  246SOL     OW 1636   5.057   3.608   3.201
  246SOL    HW1 1637   5.020   3.521   3.233
  246SOL    HW2 1638   4.992   3.681   3.224
  247SOL     OW 1639   2.000   1.298   3.889
  247SOL    HW1 1640   2.082   1.351   3.866
  247SOL    HW2 1641   1.938   1.355   3.943
  248SOL     OW 1642   4.875   2.130   4.405
  248SOL    HW1 1643   4.923   2.187   4.473
  248SOL    HW2 1644   4.931   2.124   4.322
  249SOL     OW 1645   3.435   6.392   4.604
  249SOL    HW1 1646   3.357   6.349   4.650
  249SOL    HW2 1647   3.432   6.374   4.506
  250SOL     OW 1648   5.088   3.079   5.437
  250SOL    HW1 1649   5.167   3.018   5.449
  250SOL    HW2 1650   5.013   3.029   5.395
  251SOL     OW 1651   4.675   2.969   6.476
  251SOL    HW1 1652   4.645   2.983   6.381
  251SOL    HW2 1653   4.613   2.906   6.522
  252SOL     OW 1654   6.368   1.234   5.978
  252SOL    HW1 1655   6.424   1.307   6.019
  252SOL    HW2 1656   6.272   1.261   5.981
  253SOL     OW 1657   2.450   3.291   0.552
  253SOL    HW1 1658   2.405   3.377   0.575
  253SOL    HW2 1659   2.482   3.246   0.636
  254SOL     OW 1660   6.559   3.056   4.457
  254SOL    HW1 1661   6.598   3.027   4.544
  254SOL    HW2 1662   6.632   3.062   4.389
  255SOL     OW 1663   3.006   2.229   3.298
  255SOL    HW1 1664   3.076   2.280   3.247
  255SOL    HW2 1665   2.964   2.290   3.366
  256SOL     OW 1666   6.145   5.215   0.032
  256SOL    HW1 1667   6.124   5.120   0.009
  256SOL    HW2 1668   6.202   5.218   0.114
  257SOL     OW 1669   3.046   5.567   5.935
  257SOL    HW1 1670   3.091   5.625   5.868
  257SOL    HW2 1671   2.978   5.509   5.889
  258SOL     OW 1672   5.096   4.202   3.982
  258SOL    HW1 1673   5.000   4.182   4.002
  258SOL    HW2 1674   5.154   4.135   4.028
  259SOL     OW 1675   1.270   3.185   2.670
  259SOL    HW1 1676   1.223   3.097   2.671
  259SOL    HW2 1677   1.237   3.240   2.593
  260SOL     OW 1678   5.445   0.413   6.614
  260SOL    HW1 1679   5.403   0.488   6.563
  260SOL    HW2 1680   5.537   0.396   6.580
  261SOL     OW 1681   0.612   4.204   2.201
  261SOL    HW1 1682   0.662   4.123   2.170
  261SOL    HW2 1683   0.581   4.189   2.295
  262SOL     OW 1684   1.203   3.272   2.171
  262SOL    HW1 1685   1.270   3.273   2.245
  262SOL    HW2 1686   1.113   3.296   2.207
  263SOL     OW 1687   0.826   2.074   4.708
  263SOL    HW1 1688   0.765   2.004   4.671
  263SOL    HW2 1689   0.921   2.050   4.689
  264SOL     OW 1690   1.243   4.221   5.876
  264SOL    HW1 1691   1.145   4.237   5.879
  264SOL    HW2 1692   1.265   4.140   5.930
  265SOL     OW 1693   5.033   4.464   3.913
  265SOL    HW1 1694   5.074   4.375   3.937
  265SOL    HW2 1695   5.098   4.517   3.859
  266SOL     OW 1696   3.986   1.627   0.637
  266SOL    HW1 1697   3.909   1.570   0.606
  266SOL    HW2 1698   4.058   1.625   0.569
  267SOL     OW 1699   1.746   2.481   6.144
  267SOL    HW1 1700   1.669   2.506   6.203
  267SOL    HW2 1701   1.782   2.564   6.101
  268SOL     OW 1702   4.584   4.449   4.555
  268SOL    HW1 1703   4.505   4.498   4.591
  268SOL    HW2 1704   4.599   4.365   4.609
  269SOL     OW 1705   1.431   2.023   6.402
  269SOL    HW1 1706   1.434   2.016   6.302
  269SOL    HW2 1707   1.491   2.097   6.432
  270SOL     OW 1708   5.394   0.586   2.342
  270SOL    HW1 1709   5.461   0.658   2.325
  270SOL    HW2 1710   5.309   0.609   2.295
  271SOL     OW 1711   1.735   0.485   0.526
  271SOL    HW1 1712   1.665   0.544   0.567
  271SOL    HW2 1713   1.691   0.416   0.469
  272SOL     OW 1714   3.765   5.410   3.374
  272SOL    HW1 1715   3.714   5.397   3.289
  272SOL    HW2 1716   3.807   5.324   3.402
  273SOL     OW 1717   1.990   5.983   4.679
  273SOL    HW1 1718   1.951   6.042   4.609
  273SOL    HW2 1719   1.918   5.951   4.741
  274SOL     OW 1720   6.200   2.741   2.587
  274SOL    HW1 1721   6.287   2.696   2.569
  274SOL    HW2 1722   6.209   2.839   2.571
  275SOL     OW 1723   6.980   6.746   5.840
  275SOL    HW1 1724   6.975   6.786   5.748
  275SOL    HW2 1725   6.962   6.648   5.834
  276SOL     OW 1726   6.414   5.841   3.623
  276SOL    HW1 1727   6.472   5.899   3.565
  276SOL    HW2 1728   6.460   5.824   3.710
  277SOL     OW 1729   3.294   1.958   5.368
  277SOL    HW1 1730   3.320   1.979   5.462
  277SOL    HW2 1731   3.237   2.032   5.332
  278SOL     OW 1732   5.245   4.028   2.334
  278SOL    HW1 1733   5.170   3.963   2.336
  278SOL    HW2 1734   5.213   4.117   2.367
  279SOL     OW 1735   0.177   2.748   2.982
  279SOL    HW1 1736   0.102   2.683   2.970
  279SOL    HW2 1737   0.257   2.715   2.932
  280SOL     OW 1738   5.296   6.929   3.939
  280SOL    HW1 1739   5.311   7.019   3.898
  280SOL    HW2 1740   5.384   6.891   3.966
  281SOL     OW 1741   4.873   5.846   4.043
  281SOL    HW1 1742   4.875   5.802   3.954
  281SOL    HW2 1743   4.952   5.906   4.052
  282SOL     OW 1744   4.370   2.211   6.776
  282SOL    HW1 1745   4.356   2.204   6.677
  282SOL    HW2 1746   4.423   2.293   6.796
  283SOL     OW 1747   6.243   1.096   4.937
  283SOL    HW1 1748   6.251   1.146   4.851
  283SOL    HW2 1749   6.177   1.141   4.997
  284SOL     OW 1750   6.792   4.763   5.270
  284SOL    HW1 1751   6.767   4.771   5.173
  284SOL    HW2 1752   6.811   4.854   5.307
  285SOL     OW 1753   4.611   0.417   6.682
  285SOL    HW1 1754   4.601   0.486   6.754
  285SOL    HW2 1755   4.582   0.328   6.718
  286SOL     OW 1756   3.671   4.983   4.500
  286SOL    HW1 1757   3.578   4.998   4.469
  286SOL    HW2 1758   3.724   4.938   4.428
  287SOL     OW 1759   2.841   6.481   5.788
  287SOL    HW1 1760   2.847   6.580   5.804
  287SOL    HW2 1761   2.786   6.439   5.860
  288SOL     OW 1762   3.622   0.824   0.656
  288SOL    HW1 1763   3.538   0.774   0.678
  288SOL    HW2 1764   3.675   0.771   0.590
  289SOL     OW 1765   0.329   6.674   4.688
  289SOL    HW1 1766   0.375   6.642   4.605
  289SOL    HW2 1767   0.294   6.767   4.674
  290SOL     OW 1768   3.954   0.764   3.924
  290SOL    HW1 1769   3.917   0.857   3.927
  290SOL    HW2 1770   3.956   0.726   4.016
  291SOL     OW 1771   4.852   0.727   4.190
  291SOL    HW1 1772   4.906   0.811   4.185
  291SOL    HW2 1773   4.914   0.649   4.200
  292SOL     OW 1774   3.388   0.194   3.761
  292SOL    HW1 1775   3.382   0.164   3.857
  292SOL    HW2 1776   3.484   0.207   3.736
  293SOL     OW 1777   6.028   6.268   2.790
  293SOL    HW1 1778   6.078   6.217   2.860
  293SOL    HW2 1779   5.999   6.356   2.827
  294SOL     OW 1780   5.730   0.745   5.466
  294SOL    HW1 1781   5.680   0.831   5.464
  294SOL    HW2 1782   5.792   0.741   5.387
  295SOL     OW 1783   1.502   2.173   5.024
  295SOL    HW1 1784   1.598   2.161   5.050
  295SOL    HW2 1785   1.472   2.265   5.048
  296SOL     OW 1786   6.462   0.910   1.881
  296SOL    HW1 1787   6.535   0.978   1.877
  296SOL    HW2 1788   6.501   0.819   1.876
  297SOL     OW 1789   5.499   4.177   3.749
  297SOL    HW1 1790   5.550   4.240   3.692
  297SOL    HW2 1791   5.401   4.197   3.743
  298SOL     OW 1792   3.964   0.689   0.567
  298SOL    HW1 1793   4.042   0.721   0.621
  298SOL    HW2 1794   3.947   0.753   0.493
  299SOL     OW 1795   3.174   1.472   6.626
  299SOL    HW1 1796   3.245   1.531   6.664
  299SOL    HW2 1797   3.168   1.487   6.527
  300SOL     OW 1798   3.744   1.103   2.476
  300SOL    HW1 1799   3.762   1.193   2.516
  300SOL    HW2 1800   3.681   1.113   2.398
  301SOL     OW 1801   5.654   5.771   2.208
  301SOL    HW1 1802   5.684   5.797   2.300
  301SOL    HW2 1803   5.669   5.673   2.195
  302SOL     OW 1804   7.008   6.270   1.518
  302SOL    HW1 1805   6.963   6.324   1.589
  302SOL    HW2 1806   6.960   6.282   1.431
  303SOL     OW 1807   6.563   5.748   2.416
  303SOL    HW1 1808   6.493   5.719   2.351
  303SOL    HW2 1809   6.653   5.734   2.375
  304SOL     OW 1810   1.052   0.319   5.206
  304SOL    HW1 1811   1.003   0.232   5.217
  304SOL    HW2 1812   0.999   0.379   5.147
  305SOL     OW 1813   1.755   2.852   1.725
  305SOL    HW1 1814   1.835   2.890   1.678
  305SOL    HW2 1815   1.672   2.884   1.681
  306SOL     OW 1816   6.887   0.551   3.460
  306SOL    HW1 1817   6.891   0.462   3.415
  306SOL    HW2 1818   6.838   0.616   3.402
  307SOL     OW 1819   3.191   3.506   1.681
  307SOL    HW1 1820   3.170   3.531   1.775
  307SOL    HW2 1821   3.217   3.409   1.677
  308SOL     OW 1822   5.419   0.543   4.015
  308SOL    HW1 1823   5.366   0.607   3.960
  308SOL    HW2 1824   5.366   0.459   4.028
  309SOL     OW 1825   0.548   6.632   6.685
  309SOL    HW1 1826   0.477   6.663   6.748
  309SOL    HW2 1827   0.567   6.703   6.618
  310SOL     OW 1828   5.067   5.914   4.719
  310SOL    HW1 1829   5.098   5.978   4.648
  310SOL    HW2 1830   5.056   5.823   4.680
  311SOL     OW 1831   1.916   5.328   3.108
  311SOL    HW1 1832   1.986   5.296   3.044
  311SOL    HW2 1833   1.939   5.420   3.140
  312SOL     OW 1834   4.426   2.229   3.453
  312SOL    HW1 1835   4.435   2.280   3.367
  312SOL    HW2 1836   4.428   2.293   3.530
  313SOL     OW 1837   3.501   3.709   3.136
  313SOL    HW1 1838   3.543   3.784   3.187
  313SOL    HW2 1839   3.500   3.627   3.193
  314SOL     OW 1840   1.849   6.583   5.106
  314SOL    HW1 1841   1.792   6.506   5.133
  314SOL    HW2 1842   1.894   6.622   5.187
  315SOL     OW 1843   6.354   1.136   3.510
  315SOL    HW1 1844   6.295   1.213   3.532
  315SOL    HW2 1845   6.356   1.123   3.411
  316SOL     OW 1846   4.141   1.475   5.769
  316SOL    HW1 1847   4.123   1.551   5.832
  316SOL    HW2 1848   4.064   1.412   5.769
  317SOL     OW 1849   1.231   1.679   1.230
  317SOL    HW1 1850   1.313   1.636   1.191
  317SOL    HW2 1851   1.219   1.648   1.324
  318SOL     OW 1852   6.946   0.704   5.934
  318SOL    HW1 1853   0.002   0.748   5.897
  318SOL    HW2 1854   6.885   0.678   5.859
  319SOL     OW 1855   0.650   2.180   3.065
  319SOL    HW1 1856   0.708   2.120   3.009
  319SOL    HW2 1857   0.596   2.239   3.006
  320SOL     OW 1858   5.761   2.024   0.095
  320SOL    HW1 1859   5.683   2.035   0.157
  320SOL    HW2 1860   5.736   2.059   0.005
  321SOL     OW 1861   3.904   3.103   0.758
  321SOL    HW1 1862   3.972   3.157   0.808
  321SOL    HW2 1863   3.814   3.120   0.796
  322SOL     OW 1864   4.188   3.820   6.927
  322SOL    HW1 1865   4.197   3.762   6.845
  322SOL    HW2 1866   4.204   3.915   6.901
  323SOL     OW 1867   0.534   2.579   3.252
  323SOL    HW1 1868   0.588   2.604   3.332
  323SOL    HW2 1869   0.505   2.662   3.204
  324SOL     OW 1870   1.686   0.324   3.090
  324SOL    HW1 1871   1.702   0.238   3.140
  324SOL    HW2 1872   1.595   0.359   3.112
  325SOL     OW 1873   1.207   3.731   2.415
  325SOL    HW1 1874   1.128   3.678   2.449
  325SOL    HW2 1875   1.188   3.763   2.322
  326SOL     OW 1876   1.680   5.338   6.467
  326SOL    HW1 1877   1.674   5.420   6.411
  326SOL    HW2 1878   1.700   5.363   6.561
  327SOL     OW 1879   3.650   5.655   3.059
  327SOL    HW1 1880   3.721   5.616   3.000
  327SOL    HW2 1881   3.566   5.668   3.007
  328SOL     OW 1882   1.649   4.192   1.689
  328SOL    HW1 1883   1.579   4.121   1.693
  328SOL    HW2 1884   1.675   4.209   1.594
  329SOL     OW 1885   3.114   3.795   1.820
  329SOL    HW1 1886   3.085   3.890   1.803
  329SOL    HW2 1887   3.050   3.732   1.776
  330SOL     OW 1888   4.062   5.145   0.312
  330SOL    HW1 1889   3.983   5.126   0.254
  330SOL    HW2 1890   4.033   5.202   0.389
  331SOL     OW 1891   4.896   5.390   0.894
  331SOL    HW1 1892   4.818   5.412   0.834
  331SOL    HW2 1893   4.932   5.474   0.934
  332SOL     OW 1894   5.513   1.985   3.755
  332SOL    HW1 1895   5.498   1.937   3.841
  332SOL    HW2 1896   5.605   1.963   3.720
  333SOL     OW 1897   3.993   0.645   5.055
  333SOL    HW1 1898   4.076   0.590   5.052
  333SOL    HW2 1899   4.017   0.742   5.046
  334SOL     OW 1900   4.035   3.231   2.895
  334SOL    HW1 1901   3.936   3.214   2.892
  334SOL    HW2 1902   4.051   3.330   2.891
  335SOL     OW 1903   3.587   6.483   0.319
  335SOL    HW1 1904   3.601   6.397   0.369
  335SOL    HW2 1905   3.528   6.544   0.372
  336SOL     OW 1906   2.798   0.990   3.661
  336SOL    HW1 1907   2.765   1.059   3.725
  336SOL    HW2 1908   2.883   1.021   3.619
  337SOL     OW 1909   1.637   1.563   5.526
  337SOL    HW1 1910   1.569   1.497   5.495
  337SOL    HW2 1911   1.646   1.636   5.458
  338SOL     OW 1912   4.167   3.527   1.429
  338SOL    HW1 1913   4.227   3.567   1.360
  338SOL    HW2 1914   4.210   3.444   1.465
  339SOL     OW 1915   4.040   4.852   4.466
  339SOL    HW1 1916   3.997   4.864   4.376
  339SOL    HW2 1917   3.980   4.889   4.537
  340SOL     OW 1918   5.220   2.864   4.798
  340SOL    HW1 1919   5.143   2.883   4.738
  340SOL    HW2 1920   5.192   2.875   4.893
  341SOL     OW 1921   5.727   6.007   4.089
  341SOL    HW1 1922   5.674   5.947   4.148
  341SOL    HW2 1923   5.822   6.007   4.119
  342SOL     OW 1924   4.908   3.455   0.412
  342SOL    HW1 1925   4.836   3.417   0.470
  342SOL    HW2 1926   4.870   3.525   0.353
  343SOL     OW 1927   0.671   5.822   2.540
  343SOL    HW1 1928   0.745   5.768   2.500
  343SOL    HW2 1929   0.620   5.868   2.468
  344SOL     OW 1930   1.130   1.589   1.473
  344SOL    HW1 1931   1.110   1.677   1.515
  344SOL    HW2 1932   1.044   1.545   1.445
  345SOL     OW 1933   0.066   2.478   4.149
  345SOL    HW1 1934   0.145   2.441   4.101
  345SOL    HW2 1935   0.074   2.577   4.155
  346SOL     OW 1936   1.748   0.229   2.576
  346SOL    HW1 1937   1.717   0.267   2.663
  346SOL    HW2 1938   1.815   0.157   2.593
  347SOL     OW 1939   2.510   5.717   0.472
  347SOL    HW1 1940   2.594   5.685   0.427
  347SOL    HW2 1941   2.522   5.811   0.501
  348SOL     OW 1942   4.791   4.825   2.483
  348SOL    HW1 1943   4.877   4.776   2.465
  348SOL    HW2 1944   4.805   4.889   2.558
  349SOL     OW 1945   6.938   4.132   1.361
  349SOL    HW1 1946   6.947   4.034   1.382
  349SOL    HW2 1947   6.986   4.152   1.276
  350SOL     OW 1948   3.487   2.963   0.164
  350SOL    HW1 1949   3.391   2.939   0.147
  350SOL    HW2 1950   3.535   2.971   0.076
  351SOL     OW 1951   3.552   4.058   0.300
  351SOL    HW1 1952   3.485   4.034   0.230
  351SOL    HW2 1953   3.505   4.102   0.377
  352SOL     OW 1954   4.469   6.133   3.836
  352SOL    HW1 1955   4.517   6.045   3.829
  352SOL    HW2 1956   4.371   6.118   3.824
  353SOL     OW 1957   3.259   6.869   5.964
  353SOL    HW1 1958   3.337   6.931   5.964
  353SOL    HW2 1959   3.176   6.921   5.986
  354SOL     OW 1960   5.955   2.824   1.179
  354SOL    HW1 1961   6.026   2.841   1.111
  354SOL    HW2 1962   5.996   2.816   1.269
  355SOL     OW 1963   2.099   3.287   2.769
  355SOL    HW1 1964   2.110   3.348   2.691
  355SOL    HW2 1965   2.015   3.311   2.819
  356SOL     OW 1966   1.909   0.645   5.127
  356SOL    HW1 1967   1.942   0.650   5.222
  356SOL    HW2 1968   1.828   0.703   5.117
  357SOL     OW 1969   6.771   6.278   4.354
  357SOL    HW1 1970   6.761   6.314   4.261
  357SOL    HW2 1971   6.868   6.265   4.374
  358SOL     OW 1972   4.811   5.963   1.182
  358SOL    HW1 1973   4.848   5.872   1.200
  358SOL    HW2 1974   4.717   5.956   1.149
  359SOL     OW 1975   3.509   0.981   2.181
  359SOL    HW1 1976   3.505   0.923   2.263
  359SOL    HW2 1977   3.430   1.042   2.180
  360SOL     OW 1978   1.147   4.642   4.463
  360SOL    HW1 1979   1.229   4.700   4.459
  360SOL    HW2 1980   1.163   4.558   4.412
  361SOL     OW 1981   6.495   6.272   2.888
  361SOL    HW1 1982   6.439   6.355   2.888
  361SOL    HW2 1983   6.441   6.194   2.920
  362SOL     OW 1984   3.986   4.008   0.548
  362SOL    HW1 1985   3.906   4.005   0.608
  362SOL    HW2 1986   4.066   4.039   0.600
  363SOL     OW 1987   6.250   4.766   2.630
  363SOL    HW1 1988   6.274   4.674   2.659
  363SOL    HW2 1989   6.315   4.798   2.562
  364SOL     OW 1990   0.463   4.760   6.752
  364SOL    HW1 1991   0.443   4.663   6.749
  364SOL    HW2 1992   0.528   4.779   6.825
  365SOL     OW 1993   3.596   0.359   1.881
  365SOL    HW1 1994   3.497   0.375   1.881
  365SOL    HW2 1995   3.635   0.397   1.965
  366SOL     OW 1996   6.126   3.347   6.740
  366SOL    HW1 1997   6.060   3.377   6.808
  366SOL    HW2 1998   6.187   3.422   6.717
  367SOL     OW 1999   5.208   2.297   5.883
  367SOL    HW1 2000   5.219   2.397   5.878
  367SOL    HW2 2001   5.292   2.253   5.852
  368SOL     OW 2002   6.760   2.333   6.107
  368SOL    HW1 2003   6.728   2.409   6.163
  368SOL    HW2 2004   6.717   2.248   6.138
  369SOL     OW 2005   5.673   3.981   2.940
  369SOL    HW1 2006   5.627   4.066   2.913
  369SOL    HW2 2007   5.638   3.951   3.028
  370SOL     OW 2008   1.819   2.073   3.972
  370SOL    HW1 2009   1.828   2.077   4.072
  370SOL    HW2 2010   1.909   2.055   3.932
  371SOL     OW 2011   2.121   4.187   6.955
  371SOL    HW1 2012   2.182   4.267   6.961
  371SOL    HW2 2013   2.136   4.128   0.009
  372SOL     OW 2014   1.831   6.856   4.984
  372SOL    HW1 2015   1.894   6.792   5.028
  372SOL    HW2 2016   1.760   6.882   5.049
  373SOL     OW 2017   5.935   6.729   5.399
  373SOL    HW1 2018   6.020   6.755   5.446
  373SOL    HW2 2019   5.934   6.770   5.308
  374SOL     OW 2020   2.069   1.616   2.542
  374SOL    HW1 2021   2.141   1.678   2.512
  374SOL    HW2 2022   2.069   1.612   2.642
  375SOL     OW 2023   0.548   5.409   4.958
  375SOL    HW1 2024   0.488   5.487   4.944
  375SOL    HW2 2025   0.494   5.325   4.965
  376SOL     OW 2026   2.102   0.928   4.936
  376SOL    HW1 2027   2.106   0.993   5.012
  376SOL    HW2 2028   2.156   0.847   4.959
  377SOL     OW 2029   1.921   2.490   0.238
  377SOL    HW1 2030   1.955   2.456   0.150
  377SOL    HW2 2031   1.952   2.430   0.311
  378SOL     OW 2032   3.661   1.256   6.622
  378SOL    HW1 2033   3.598   1.308   6.565
  378SOL    HW2 2034   3.671   1.163   6.585
  379SOL     OW 2035   5.593   2.401   0.183
  379SOL    HW1 2036   5.500   2.434   0.164
  379SOL    HW2 2037   5.659   2.472   0.158
  380SOL     OW 2038   3.108   1.601   1.232
  380SOL    HW1 2039   3.058   1.632   1.313
  380SOL    HW2 2040   3.144   1.680   1.182
  381SOL     OW 2041   2.200   4.106   4.575
  381SOL    HW1 2042   2.174   4.057   4.658
  381SOL    HW2 2043   2.235   4.196   4.600
  382SOL     OW 2044   6.308   0.521   0.352
  382SOL    HW1 2045   6.375   0.454   0.385
  382SOL    HW2 2046   6.319   0.607   0.403
  383SOL     OW 2047   4.378   3.114   0.311
  383SOL    HW1 2048   4.413   3.206   0.295
  383SOL    HW2 2049   4.311   3.116   0.385
  384SOL     OW 2050   0.257   3.682   4.043
  384SOL    HW1 2051   0.347   3.646   4.069
  384SOL    HW2 2052   0.204   3.701   4.126
  385SOL     OW 2053   3.697   5.864   6.083
  385SOL    HW1 2054   3.760   5.792   6.113
  385SOL    HW2 2055   3.698   5.868   5.983
  386SOL     OW 2056   3.950   0.630   4.174
  386SOL    HW1 2057   4.007   0.643   4.255
  386SOL    HW2 2058   3.853   0.629   4.200
  387SOL     OW 2059   1.302   5.297   2.527
  387SOL    HW1 2060   1.306   5.324   2.623
  387SOL    HW2 2061   1.233   5.225   2.516
  388SOL     OW 2062   1.946   2.444   6.752
  388SOL    HW1 2063   1.947   2.543   6.745
  388SOL    HW2 2064   2.007   2.405   6.683
  389SOL     OW 2065   3.722   3.299   2.871
  389SOL    HW1 2066   3.642   3.356   2.886
  389SOL    HW2 2067   3.729   3.277   2.773
  390SOL     OW 2068   2.726   0.699   3.641
  390SOL    HW1 2069   2.661   0.674   3.713
  390SOL    HW2 2070   2.782   0.776   3.672
  391SOL     OW 2071   1.978   3.041   6.467
  391SOL    HW1 2072   1.909   3.000   6.527
  391SOL    HW2 2073   2.056   2.978   6.458
  392SOL     OW 2074   1.849   5.372   1.021
  392SOL    HW1 2075   1.790   5.390   0.943
  392SOL    HW2 2076   1.811   5.417   1.102
  393SOL     OW 2077   6.642   4.387   5.784
  393SOL    HW1 2078   6.603   4.467   5.738
  393SOL    HW2 2079   6.703   4.418   5.857
  394SOL     OW 2080   0.337   6.844   0.184
  394SOL    HW1 2081   0.378   6.935   0.188
  394SOL    HW2 2082   0.239   6.851   0.198
  395SOL     OW 2083   4.661   4.283   2.426
  395SOL    HW1 2084   4.730   4.214   2.444
  395SOL    HW2 2085   4.641   4.287   2.328
  396SOL     OW 2086   4.120   3.802   2.673
  396SOL    HW1 2087   4.207   3.830   2.632
  396SOL    HW2 2088   4.095   3.712   2.637
  397SOL     OW 2089   4.123   3.032   5.590
  397SOL    HW1 2090   4.139   2.994   5.681
  397SOL    HW2 2091   4.051   2.980   5.544
  398SOL     OW 2092   0.830   5.850   1.822
  398SOL    HW1 2093   0.745   5.827   1.870
  398SOL    HW2 2094   0.854   5.776   1.760
  399SOL     OW 2095   5.559   5.908   2.803
  399SOL    HW1 2096   5.499   5.945   2.873
  399SOL    HW2 2097   5.619   5.839   2.844
  400SOL     OW 2098   0.001   0.538   6.130
  400SOL    HW1 2099   0.041   0.589   6.206
  400SOL    HW2 2100   6.979   0.601   6.069
  401SOL     OW 2101   4.622   0.826   5.822
  401SOL    HW1 2102   4.687   0.844   5.748
  401SOL    HW2 2103   4.609   0.909   5.875
  402SOL     OW 2104   6.290   6.469   2.841
  402SOL    HW1 2105   6.285   6.522   2.756
  402SOL    HW2 2106   6.206   6.483   2.894
  403SOL     OW 2107   4.223   2.346   6.106
  403SOL    HW1 2108   4.168   2.316   6.028
  403SOL    HW2 2109   4.221   2.275   6.177
  404SOL     OW 2110   1.496   6.778   3.897
  404SOL    HW1 2111   1.396   6.771   3.887
  404SOL    HW2 2112   1.525   6.721   3.973
  405SOL     OW 2113   2.226   3.015   1.254
  405SOL    HW1 2114   2.224   2.991   1.351
  405SOL    HW2 2115   2.241   2.932   1.200
  406SOL     OW 2116   1.091   2.861   3.788
  406SOL    HW1 2117   1.004   2.912   3.792
  406SOL    HW2 2118   1.082   2.777   3.841
  407SOL     OW 2119   2.361   0.474   3.851
  407SOL    HW1 2120   2.315   0.388   3.874
  407SOL    HW2 2121   2.367   0.482   3.751
  408SOL     OW 2122   1.033   1.161   3.363
  408SOL    HW1 2123   1.098   1.138   3.291
  408SOL    HW2 2124   1.072   1.232   3.421
  409SOL     OW 2125   5.652   3.070   2.105
  409SOL    HW1 2126   5.737   3.025   2.132
  409SOL    HW2 2127   5.592   3.078   2.184
  410SOL     OW 2128   2.410   0.300   6.852
  410SOL    HW1 2129   2.504   0.329   6.838
  410SOL    HW2 2130   2.351   0.345   6.784
  411SOL     OW 2131   5.939   6.466   6.848
  411SOL    HW1 2132   5.919   6.561   6.872
  411SOL    HW2 2133   5.963   6.460   6.751
  412SOL     OW 2134   4.700   0.104   3.482
  412SOL    HW1 2135   4.775   0.043   3.504
  412SOL    HW2 2136   4.673   0.091   3.386
  413SOL     OW 2137   4.830   4.538   1.565
  413SOL    HW1 2138   4.765   4.507   1.634
  413SOL    HW2 2139   4.864   4.459   1.513
  414SOL     OW 2140   3.779   5.124   3.101
  414SOL    HW1 2141   3.869   5.133   3.059
  414SOL    HW2 2142   3.723   5.060   3.048
  415SOL     OW 2143   1.102   6.067   0.495
  415SOL    HW1 2144   1.082   6.156   0.453
  415SOL    HW2 2145   1.201   6.053   0.497
  416SOL     OW 2146   4.729   5.590   4.793
  416SOL    HW1 2147   4.648   5.577   4.734
  416SOL    HW2 2148   4.732   5.517   4.861
  417SOL     OW 2149   2.566   6.377   0.621
  417SOL    HW1 2150   2.501   6.403   0.692
  417SOL    HW2 2151   2.658   6.404   0.649
  418SOL     OW 2152   4.856   6.221   1.173
  418SOL    HW1 2153   4.838   6.124   1.186
  418SOL    HW2 2154   4.810   6.253   1.090
  419SOL     OW 2155   1.200   0.400   1.559
  419SOL    HW1 2156   1.130   0.472   1.564
  419SOL    HW2 2157   1.252   0.411   1.475
  420SOL     OW 2158   6.440   3.360   1.276
  420SOL    HW1 2159   6.435   3.311   1.363
  420SOL    HW2 2160   6.359   3.418   1.266
  421SOL     OW 2161   0.764   5.288   6.461
  421SOL    HW1 2162   0.772   5.284   6.361
  421SOL    HW2 2163   0.777   5.196   6.498
  422SOL     OW 2164   6.247   5.531   0.852
  422SOL    HW1 2165   6.247   5.501   0.947
  422SOL    HW2 2166   6.196   5.617   0.845
  423SOL     OW 2167   6.844   2.852   0.048
  423SOL    HW1 2168   6.863   2.776   0.109
  423SOL    HW2 2169   6.929   2.897   0.022
  424SOL     OW 2170   3.003   3.905   0.800
  424SOL    HW1 2171   2.983   3.961   0.881
  424SOL    HW2 2172   2.939   3.827   0.797
  425SOL     OW 2173   5.201   1.199   2.399
  425SOL    HW1 2174   5.211   1.101   2.410
  425SOL    HW2 2175   5.231   1.246   2.482
  426SOL     OW 2176   5.273   2.391   4.707
  426SOL    HW1 2177   5.331   2.313   4.682
  426SOL    HW2 2178   5.314   2.438   4.785
  427SOL     OW 2179   5.483   5.128   2.354
  427SOL    HW1 2180   5.555   5.098   2.417
  427SOL    HW2 2181   5.402   5.154   2.406
  428SOL     OW 2182   4.475   6.814   4.924
  428SOL    HW1 2183   4.567   6.825   4.962
  428SOL    HW2 2184   4.480   6.811   4.824
  429SOL     OW 2185   2.381   4.857   1.706
  429SOL    HW1 2186   2.465   4.901   1.739
  429SOL    HW2 2187   2.406   4.776   1.652
  430SOL     OW 2188   0.654   6.916   4.588
  430SOL    HW1 2189   0.663   6.896   4.491
  430SOL    HW2 2190   0.734   6.968   4.619
  431SOL     OW 2191   3.744   0.172   0.454
  431SOL    HW1 2192   3.783   0.125   0.533
  431SOL    HW2 2193   3.794   0.147   0.371
  432SOL     OW 2194   6.839   2.549   1.897
  432SOL    HW1 2195   6.836   2.542   1.996
  432SOL    HW2 2196   6.849   2.458   1.857
  433SOL     OW 2197   3.026   6.229   3.780
  433SOL    HW1 2198   2.927   6.218   3.788
  433SOL    HW2 2199   3.049   6.326   3.780
  434SOL     OW 2200   4.932   5.133   1.581
  434SOL    HW1 2201   4.909   5.212   1.638
  434SOL    HW2 2202   4.870   5.130   1.502
  435SOL     OW 2203   3.728   2.376   5.342
  435SOL    HW1 2204   3.676   2.370   5.428
  435SOL    HW2 2205   3.816   2.421   5.359
  436SOL     OW 2206   2.784   6.624   1.376
  436SOL    HW1 2207   2.734   6.597   1.458
  436SOL    HW2 2208   2.882   6.631   1.397
  437SOL     OW 2209   0.809   7.023   6.471
  437SOL    HW1 2210   0.799   0.087   6.515
  437SOL    HW2 2211   0.901   6.989   6.486
  438SOL     OW 2212   1.795   3.234   2.175
  438SOL    HW1 2213   1.861   3.173   2.218
  438SOL    HW2 2214   1.842   3.288   2.105
  439SOL     OW 2215   5.995   4.306   3.431
  439SOL    HW1 2216   6.003   4.215   3.473
  439SOL    HW2 2217   6.052   4.371   3.482
  440SOL     OW 2218   1.018   1.882   4.582
  440SOL    HW1 2219   1.089   1.931   4.633
  440SOL    HW2 2220   1.028   1.901   4.484
  441SOL     OW 2221   0.593   2.025   3.302
  441SOL    HW1 2222   0.556   2.081   3.376
  441SOL    HW2 2223   0.606   2.082   3.221
  442SOL     OW 2224   2.083   5.173   6.958
  442SOL    HW1 2225   2.086   5.234   0.011
  442SOL    HW2 2226   2.091   5.078   6.988
  443SOL     OW 2227   0.806   3.957   5.025
  443SOL    HW1 2228   0.751   3.923   5.101
  443SOL    HW2 2229   0.883   3.895   5.008
  444SOL     OW 2230   5.525   2.417   5.865
  444SOL    HW1 2231   5.550   2.320   5.873
  444SOL    HW2 2232   5.426   2.426   5.853
  445SOL     OW 2233   1.573   5.274   3.591
  445SOL    HW1 2234   1.517   5.326   3.655
  445SOL    HW2 2235   1.670   5.284   3.615
  446SOL     OW 2236   4.152   5.266   3.299
  446SOL    HW1 2237   4.191   5.193   3.356
  446SOL    HW2 2238   4.065   5.295   3.338
  447SOL     OW 2239   0.351   3.231   6.895
  447SOL    HW1 2240   0.321   3.166   6.826
  447SOL    HW2 2241   0.285   3.234   6.970
  448SOL     OW 2242   2.999   0.317   4.976
  448SOL    HW1 2243   2.943   0.334   5.057
  448SOL    HW2 2244   3.007   0.401   4.923
  449SOL     OW 2245   4.145   0.384   5.457
  449SOL    HW1 2246   4.137   0.418   5.551
  449SOL    HW2 2247   4.094   0.445   5.396
  450SOL     OW 2248   1.094   5.449   3.609
  450SOL    HW1 2249   1.149   5.374   3.573
  450SOL    HW2 2250   1.101   5.450   3.709
  451SOL     OW 2251   1.930   2.018   3.218
  451SOL    HW1 2252   1.975   2.103   3.191
  451SOL    HW2 2253   1.999   1.947   3.232
  452SOL     OW 2254   6.402   5.834   1.096
  452SOL    HW1 2255   6.413   5.739   1.124
  452SOL    HW2 2256   6.319   5.843   1.041
  453SOL     OW 2257   3.163   0.161   4.741
  453SOL    HW1 2258   3.112   0.131   4.659
  453SOL    HW2 2259   3.168   0.261   4.742
  454SOL     OW 2260   0.259   5.282   6.369
  454SOL    HW1 2261   0.159   5.279   6.360
  454SOL    HW2 2262   0.285   5.363   6.421
  455SOL     OW 2263   6.861   1.357   3.898
  455SOL    HW1 2264   6.953   1.394   3.914
  455SOL    HW2 2265   6.815   1.344   3.986
  456SOL     OW 2266   4.963   5.298   4.374
  456SOL    HW1 2267   4.951   5.248   4.460
  456SOL    HW2 2268   5.038   5.363   4.383
  457SOL     OW 2269   2.053   3.186   3.322
  457SOL    HW1 2270   2.135   3.196   3.378
  457SOL    HW2 2271   2.076   3.135   3.239
  458SOL     OW 2272   4.860   6.333   4.441
  458SOL    HW1 2273   4.834   6.258   4.380
  458SOL    HW2 2274   4.813   6.321   4.529
  459SOL     OW 2275   1.836   6.649   3.949
  459SOL    HW1 2276   1.769   6.671   4.020
  459SOL    HW2 2277   1.802   6.678   3.860
  460SOL     OW 2278   1.344   0.546   2.878
  460SOL    HW1 2279   1.373   0.595   2.960
  460SOL    HW2 2280   1.359   0.448   2.890
  461SOL     OW 2281   5.925   6.956   4.642
  461SOL    HW1 2282   5.983   6.982   4.565
  461SOL    HW2 2283   5.898   6.860   4.632
  462SOL     OW 2284   4.174   2.552   5.845
  462SOL    HW1 2285   4.124   2.594   5.920
  462SOL    HW2 2286   4.109   2.510   5.781
  463SOL     OW 2287   6.508   5.557   3.490
  463SOL    HW1 2288   6.460   5.638   3.524
  463SOL    HW2 2289   6.481   5.539   3.396
  464SOL     OW 2290   2.574   1.833   6.338
  464SOL    HW1 2291   2.545   1.737   6.340
  464SOL    HW2 2292   2.661   1.842   6.387
  465SOL     OW 2293   1.166   2.534   4.353
  465SOL    HW1 2294   1.151   2.506   4.447
  465SOL    HW2 2295   1.263   2.556   4.340
  466SOL     OW 2296   0.601   4.932   3.228
  466SOL    HW1 2297   0.525   4.889   3.179
  466SOL    HW2 2298   0.568   4.972   3.313
  467SOL     OW 2299   1.177   0.704   6.255
  467SOL    HW1 2300   1.192   0.607   6.273
  467SOL    HW2 2301   1.214   0.758   6.330
  468SOL     OW 2302   3.161   6.531   6.537
  468SOL    HW1 2303   3.217   6.542   6.619
  468SOL    HW2 2304   3.088   6.465   6.555
  469SOL     OW 2305   2.837   4.611   0.422
  469SOL    HW1 2306   2.852   4.585   0.327
  469SOL    HW2 2307   2.918   4.658   0.457
  470SOL     OW 2308   3.915   0.346   2.604
  470SOL    HW1 2309   3.878   0.382   2.689
  470SOL    HW2 2310   3.891   0.250   2.594
  471SOL     OW 2311   1.992   2.375   4.078
  471SOL    HW1 2312   2.079   2.345   4.040
  471SOL    HW2 2313   1.977   2.329   4.165
  472SOL     OW 2314   5.327   4.294   6.625
  472SOL    HW1 2315   5.341   4.278   6.723
  472SOL    HW2 2316   5.338   4.209   6.575
  473SOL     OW 2317   0.737   3.475   1.862
  473SOL    HW1 2318   0.720   3.428   1.948
  473SOL    HW2 2319   0.697   3.421   1.787
  474SOL     OW 2320   5.068   4.814   3.881
  474SOL    HW1 2321   5.138   4.744   3.891
  474SOL    HW2 2322   5.066   4.845   3.786
  475SOL     OW 2323   5.698   1.304   6.163
  475SOL    HW1 2324   5.610   1.324   6.120
  475SOL    HW2 2325   5.698   1.339   6.257
  476SOL     OW 2326   0.243   4.052   2.398
  476SOL    HW1 2327   0.231   4.151   2.395
  476SOL    HW2 2328   0.278   4.025   2.488
  477SOL     OW 2329   1.773   4.890   5.219
  477SOL    HW1 2330   1.733   4.981   5.209
  477SOL    HW2 2331   1.700   4.822   5.224
  478SOL     OW 2332   3.250   6.893   2.841
  478SOL    HW1 2333   3.188   6.950   2.788
  478SOL    HW2 2334   3.202   6.810   2.870
  479SOL     OW 2335   4.487   2.066   6.964
  479SOL    HW1 2336   4.449   2.120   6.889
  479SOL    HW2 2337   4.413   2.039   7.025
  480SOL     OW 2338   2.237   1.054   6.984
  480SOL    HW1 2339   2.214   0.999   0.038
  480SOL    HW2 2340   2.287   1.136   7.013
  481SOL     OW 2341   1.926   0.715   6.934
  481SOL    HW1 2342   1.898   0.631   6.889
  481SOL    HW2 2343   1.881   0.793   6.889
  482SOL     OW 2344   4.442   4.620   3.215
  482SOL    HW1 2345   4.358   4.624   3.160
  482SOL    HW2 2346   4.518   4.593   3.156
  483SOL     OW 2347   6.684   1.815   2.386
  483SOL    HW1 2348   6.753   1.762   2.435
  483SOL    HW2 2349   6.670   1.775   2.295
  484SOL     OW 2350   1.374   2.739   5.194
  484SOL    HW1 2351   1.467   2.708   5.217
  484SOL    HW2 2352   1.347   2.700   5.106
  485SOL     OW 2353   4.247   5.300   2.492
  485SOL    HW1 2354   4.318   5.233   2.513
  485SOL    HW2 2355   4.214   5.285   2.399
  486SOL     OW 2356   0.095   1.673   1.323
  486SOL    HW1 2357   0.183   1.625   1.327
  486SOL    HW2 2358   0.071   1.690   1.228
  487SOL     OW 2359   0.902   1.695   0.609
  487SOL    HW1 2360   0.872   1.643   0.529
  487SOL    HW2 2361   0.896   1.793   0.590
  488SOL     OW 2362   0.682   1.352   1.335
  488SOL    HW1 2363   0.649   1.274   1.282
  488SOL    HW2 2364   0.627   1.361   1.418
  489SOL     OW 2365   3.616   6.561   6.307
  489SOL    HW1 2366   3.586   6.473   6.268
  489SOL    HW2 2367   3.674   6.609   6.241
  490SOL     OW 2368   6.981   5.643   3.275
  490SOL    HW1 2369   6.992   5.563   3.217
  490SOL    HW2 2370   0.021   5.639   3.350
  491SOL     OW 2371   6.924   3.028   2.022
  491SOL    HW1 2372   6.924   2.928   2.032
  491SOL    HW2 2373   6.882   3.070   2.102
  492SOL     OW 2374   2.857   0.070   4.790
  492SOL    HW1 2375   2.784   0.137   4.776
  492SOL    HW2 2376   2.946   0.114   4.774
  493SOL     OW 2377   5.551   6.545   5.466
  493SOL    HW1 2378   5.471   6.535   5.406
  493SOL    HW2 2379   5.521   6.564   5.559
  494SOL     OW 2380   0.174   0.598   6.528
  494SOL    HW1 2381   0.243   0.612   6.458
  494SOL    HW2 2382   0.085   0.630   6.495
  495SOL     OW 2383   4.490   5.656   3.052
  495SOL    HW1 2384   4.589   5.650   3.066
  495SOL    HW2 2385   4.444   5.588   3.109
  496SOL     OW 2386   5.376   3.762   2.674
  496SOL    HW1 2387   5.349   3.726   2.584
  496SOL    HW2 2388   5.403   3.686   2.733
  497SOL     OW 2389   3.635   0.795   5.198
  497SOL    HW1 2390   3.675   0.734   5.129
  497SOL    HW2 2391   3.587   0.869   5.152
  498SOL     OW 2392   1.496   4.162   1.336
  498SOL    HW1 2393   1.504   4.196   1.242
  498SOL    HW2 2394   1.411   4.196   1.376
  499SOL     OW 2395   2.963   0.224   4.128
  499SOL    HW1 2396   3.030   0.211   4.055
  499SOL    HW2 2397   2.969   0.318   4.163
  500SOL     OW 2398   0.912   3.362   2.804
  500SOL    HW1 2399   0.953   3.359   2.895
  500SOL    HW2 2400   0.812   3.366   2.813
  501SOL     OW 2401   2.850   6.509   0.163
  501SOL    HW1 2402   2.934   6.556   0.136
  501SOL    HW2 2403   2.821   6.448   0.089
  502SOL     OW 2404   6.798   4.409   6.497
  502SOL    HW1 2405   6.778   4.330   6.438
  502SOL    HW2 2406   6.716   4.434   6.548
  503SOL     OW 2407   5.442   6.012   6.194
  503SOL    HW1 2408   5.414   5.992   6.100
  503SOL    HW2 2409   5.377   5.969   6.257
  504SOL     OW 2410   2.101   5.014   3.252
  504SOL    HW1 2411   2.043   5.077   3.304
  504SOL    HW2 2412   2.059   4.923   3.253
  505SOL     OW 2413   3.742   6.155   4.711
  505SOL    HW1 2414   3.709   6.070   4.752
  505SOL    HW2 2415   3.734   6.148   4.611
  506SOL     OW 2416   1.654   5.259   4.967
  506SOL    HW1 2417   1.634   5.348   5.009
  506SOL    HW2 2418   1.697   5.273   4.878
  507SOL     OW 2419   2.937   0.679   3.481
  507SOL    HW1 2420   2.900   0.748   3.418
  507SOL    HW2 2421   2.869   0.660   3.553
  508SOL     OW 2422   6.528   3.393   2.478
  508SOL    HW1 2423   6.526   3.373   2.380
  508SOL    HW2 2424   6.613   3.359   2.517
  509SOL     OW 2425   3.335   1.451   1.362
  509SOL    HW1 2426   3.254   1.479   1.311
  509SOL    HW2 2427   3.417   1.467   1.306
  510SOL     OW 2428   6.800   4.922   6.305
  510SOL    HW1 2429   6.737   4.956   6.236
  510SOL    HW2 2430   6.859   4.851   6.266
  511SOL     OW 2431   0.084   0.292   6.722
  511SOL    HW1 2432   0.112   0.294   6.818
  511SOL    HW2 2433   0.165   0.282   6.664
  512SOL     OW 2434   0.173   3.236   0.077
  512SOL    HW1 2435   0.073   3.227   0.080
  512SOL    HW2 2436   0.210   3.222   0.168
  513SOL     OW 2437   5.809   5.894   3.185
  513SOL    HW1 2438   5.782   5.979   3.230
  513SOL    HW2 2439   5.826   5.823   3.254
  514SOL     OW 2440   0.127   2.812   3.842
  514SOL    HW1 2441   0.045   2.770   3.880
  514SOL    HW2 2442   0.102   2.898   3.796
  515SOL     OW 2443   2.145   0.825   6.436
  515SOL    HW1 2444   2.126   0.745   6.492
  515SOL    HW2 2445   2.063   0.883   6.432
  516SOL     OW 2446   2.590   4.448   1.808
  516SOL    HW1 2447   2.655   4.498   1.865
  516SOL    HW2 2448   2.506   4.432   1.859
  517SOL     OW 2449   4.828   5.574   2.116
  517SOL    HW1 2450   4.745   5.630   2.116
  517SOL    HW2 2451   4.841   5.534   2.207
  518SOL     OW 2452   2.426   2.559   2.445
  518SOL    HW1 2453   2.345   2.501   2.442
  518SOL    HW2 2454   2.494   2.525   2.380
  519SOL     OW 2455   0.778   1.079   4.736
  519SOL    HW1 2456   0.728   1.165   4.730
  519SOL    HW2 2457   0.877   1.097   4.734
  520SOL     OW 2458   6.257   4.820   0.236
  520SOL    HW1 2459   6.216   4.742   0.283
  520SOL    HW2 2460   6.282   4.890   0.303
  521SOL     OW 2461   6.674   3.392   6.416
  521SOL    HW1 2462   6.619   3.394   6.499
  521SOL    HW2 2463   6.722   3.480   6.405
  522SOL     OW 2464   3.462   3.931   5.503
  522SOL    HW1 2465   3.422   3.851   5.459
  522SOL    HW2 2466   3.392   4.003   5.511
  523SOL     OW 2467   0.875   4.483   1.819
  523SOL    HW1 2468   0.851   4.525   1.731
  523SOL    HW2 2469   0.824   4.529   1.892
  524SOL     OW 2470   1.614   0.708   6.770
  524SOL    HW1 2471   1.656   0.790   6.732
  524SOL    HW2 2472   1.535   0.733   6.825
  525SOL     OW 2473   2.620   3.917   6.626
  525SOL    HW1 2474   2.551   3.987   6.604
  525SOL    HW2 2475   2.574   3.829   6.640
  526SOL     OW 2476   3.732   0.149   4.023
  526SOL    HW1 2477   3.772   0.071   4.070
  526SOL    HW2 2478   3.805   0.205   3.983
  527SOL     OW 2479   6.388   3.159   6.059
  527SOL    HW1 2480   6.403   3.103   5.978
  527SOL    HW2 2481   6.323   3.232   6.038
  528SOL     OW 2482   0.934   1.395   3.870
  528SOL    HW1 2483   1.029   1.392   3.899
  528SOL    HW2 2484   0.928   1.382   3.771
  529SOL     OW 2485   0.639   6.293   4.635
  529SOL    HW1 2486   0.597   6.253   4.716
  529SOL    HW2 2487   0.615   6.390   4.630
  530SOL     OW 2488   2.570   3.134   5.428
  530SOL    HW1 2489   2.532   3.125   5.336
  530SOL    HW2 2490   2.625   3.217   5.434
  531SOL     OW 2491   0.175   0.710   1.749
  531SOL    HW1 2492   0.272   0.686   1.750
  531SOL    HW2 2493   0.133   0.677   1.664
  532SOL     OW 2494   1.253   2.217   7.000
  532SOL    HW1 2495   1.261   2.153   0.050
  532SOL    HW2 2496   1.303   2.301   7.022
  533SOL     OW 2497   3.979   6.423   3.832
  533SOL    HW1 2498   3.900   6.362   3.830
  533SOL    HW2 2499   3.970   6.492   3.760
  534SOL     OW 2500   5.363   5.077   3.339
  534SOL    HW1 2501   5.291   5.145   3.327
  534SOL    HW2 2502   5.331   5.006   3.402
  535SOL     OW 2503   0.358   3.749   4.603
  535SOL    HW1 2504   0.435   3.778   4.545
  535SOL    HW2 2505   0.303   3.681   4.555
  536SOL     OW 2506   0.332   4.730   2.013
  536SOL    HW1 2507   0.397   4.693   1.947
  536SOL    HW2 2508   0.286   4.655   2.061
  537SOL     OW 2509   1.610   6.173   3.483
  537SOL    HW1 2510   1.660   6.109   3.541
  537SOL    HW2 2511   1.550   6.230   3.539
  538SOL     OW 2512   1.900   4.132   3.809
  538SOL    HW1 2513   1.960   4.209   3.790
  538SOL    HW2 2514   1.865   4.139   3.902
  539SOL     OW 2515   0.832   6.023   0.253
  539SOL    HW1 2516   0.741   5.996   0.285
  539SOL    HW2 2517   0.897   5.949   0.272
  540SOL     OW 2518   6.680   1.094   1.952
  540SOL    HW1 2519   6.750   1.029   1.983
  540SOL    HW2 2520   6.650   1.149   2.030
  541SOL     OW 2521   3.002   6.625   3.961
  541SOL    HW1 2522   2.909   6.606   3.930
  541SOL    HW2 2523   3.066   6.563   3.917
  542SOL     OW 2524   6.646   0.318   0.136
  542SOL    HW1 2525   6.676   0.380   0.064
  542SOL    HW2 2526   6.558   0.277   0.111
  543SOL     OW 2527   1.275   5.286   4.889
  543SOL    HW1 2528   1.340   5.254   4.957
  543SOL    HW2 2529   1.183   5.255   4.914
  544SOL     OW 2530   1.983   4.438   0.971
  544SOL    HW1 2531   1.886   4.421   0.991
  544SOL    HW2 2532   1.991   4.505   0.897
  545SOL     OW 2533   3.254   0.896   3.611
  545SOL    HW1 2534   3.315   0.976   3.612
  545SOL    HW2 2535   3.159   0.926   3.609
  546SOL     OW 2536   1.636   3.190   0.178
  546SOL    HW1 2537   1.624   3.277   0.129
  546SOL    HW2 2538   1.589   3.117   0.128
  547SOL     OW 2539   2.952   1.099   6.344
  547SOL    HW1 2540   2.988   1.029   6.406
  547SOL    HW2 2541   2.867   1.066   6.302
  548SOL     OW 2542   3.842   2.958   2.806
  548SOL    HW1 2543   3.798   2.902   2.736
  548SOL    HW2 2544   3.942   2.948   2.798
  549SOL     OW 2545   4.472   3.104   1.122
  549SOL    HW1 2546   4.467   3.044   1.202
  549SOL    HW2 2547   4.430   3.192   1.143
  550SOL     OW 2548   6.575   4.245   3.502
  550SOL    HW1 2549   6.530   4.156   3.511
  550SOL    HW2 2550   6.575   4.292   3.590
  551SOL     OW 2551   0.351   1.104   1.099
  551SOL    HW1 2552   0.450   1.107   1.103
  551SOL    HW2 2553   0.312   1.170   1.164
  552SOL     OW 2554   4.515   5.414   0.927
  552SOL    HW1 2555   4.587   5.397   0.860
  552SOL    HW2 2556   4.430   5.371   0.896
  553SOL     OW 2557   2.150   0.021   1.936
  553SOL    HW1 2558   2.072   6.985   1.943
  553SOL    HW2 2559   2.230   7.005   1.979
  554SOL     OW 2560   4.868   6.223   6.025
  554SOL    HW1 2561   4.893   6.310   6.066
  554SOL    HW2 2562   4.876   6.150   6.093
  555SOL     OW 2563   1.935   5.259   4.264
  555SOL    HW1 2564   1.993   5.236   4.187
  555SOL    HW2 2565   1.911   5.356   4.260
  556SOL     OW 2566   5.725   2.238   3.989
  556SOL    HW1 2567   5.639   2.205   3.949
  556SOL    HW2 2568   5.731   2.337   3.978
  557SOL     OW 2569   0.508   5.487   6.924
  557SOL    HW1 2570   0.540   5.512   7.015
  557SOL    HW2 2571   0.586   5.478   6.862
  558SOL     OW 2572   3.473   4.094   4.419
  558SOL    HW1 2573   3.386   4.129   4.453
  558SOL    HW2 2574   3.540   4.091   4.493
  559SOL     OW 2575   5.869   6.688   0.203
  559SOL    HW1 2576   5.779   6.706   0.163
  559SOL    HW2 2577   5.894   6.593   0.186
  560SOL     OW 2578   3.719   6.227   0.490
  560SOL    HW1 2579   3.653   6.161   0.453
  560SOL    HW2 2580   3.670   6.302   0.533
  561SOL     OW 2581   6.694   0.552   0.019
  561SOL    HW1 2582   6.663   0.582   6.955
  561SOL    HW2 2583   6.745   0.627   0.062
  562SOL     OW 2584   4.928   0.320   6.639
  562SOL    HW1 2585   4.962   0.387   6.705
  562SOL    HW2 2586   4.829   0.331   6.628
  563SOL     OW 2587   2.666   0.608   3.146
  563SOL    HW1 2588   2.753   0.561   3.133
  563SOL    HW2 2589   2.599   0.545   3.186
  564SOL     OW 2590   2.201   2.193   6.217
  564SOL    HW1 2591   2.223   2.278   6.171
  564SOL    HW2 2592   2.108   2.197   6.253
  565SOL     OW 2593   4.196   3.127   5.319
  565SOL    HW1 2594   4.175   3.089   5.409
  565SOL    HW2 2595   4.111   3.153   5.272
  566SOL     OW 2596   5.570   3.952   3.581
  566SOL    HW1 2597   5.598   4.020   3.513
  566SOL    HW2 2598   5.522   3.998   3.656
  567SOL     OW 2599   2.908   3.591   3.164
  567SOL    HW1 2600   2.832   3.526   3.174
  567SOL    HW2 2601   2.994   3.545   3.187
  568SOL     OW 2602   3.424   2.361   1.311
  568SOL    HW1 2603   3.438   2.281   1.370
  568SOL    HW2 2604   3.481   2.352   1.229
  569SOL     OW 2605   1.991   3.322   0.708
  569SOL    HW1 2606   1.959   3.416   0.695
  569SOL    HW2 2607   1.912   3.262   0.721
  570SOL     OW 2608   2.246   6.442   5.458
  570SOL    HW1 2609   2.208   6.368   5.403
  570SOL    HW2 2610   2.314   6.405   5.522
  571SOL     OW 2611   3.640   6.887   2.916
  571SOL    HW1 2612   3.567   6.920   2.856
  571SOL    HW2 2613   3.653   6.789   2.903
  572SOL     OW 2614   2.784   4.952   6.083
  572SOL    HW1 2615   2.710   4.939   6.018
  572SOL    HW2 2616   2.869   4.917   6.044
  573SOL     OW 2617   4.091   1.964   5.377
  573SOL    HW1 2618   4.160   2.030   5.406
  573SOL    HW2 2619   4.097   1.882   5.435
  574SOL     OW 2620   2.276   2.010   3.359
  574SOL    HW1 2621   2.199   1.991   3.420
  574SOL    HW2 2622   2.249   1.989   3.265
  575SOL     OW 2623   6.002   4.044   5.945
  575SOL    HW1 2624   5.938   4.106   5.899
  575SOL    HW2 2625   5.964   3.951   5.943
  576SOL     OW 2626   1.591   1.997   2.166
  576SOL    HW1 2627   1.565   2.036   2.254
  576SOL    HW2 2628   1.631   2.068   2.109
  577SOL     OW 2629   2.589   0.863   3.039
  577SOL    HW1 2630   2.545   0.907   3.117
  577SOL    HW2 2631   2.592   0.764   3.054
  578SOL     OW 2632   6.397   3.417   3.360
  578SOL    HW1 2633   6.462   3.349   3.325
  578SOL    HW2 2634   6.431   3.508   3.340
  579SOL     OW 2635   3.446   2.111   1.107
  579SOL    HW1 2636   3.526   2.169   1.088
  579SOL    HW2 2637   3.363   2.158   1.076
  580SOL     OW 2638   0.784   4.530   6.622
  580SOL    HW1 2639   0.826   4.547   6.711
  580SOL    HW2 2640   0.780   4.615   6.570
  581SOL     OW 2641   3.370   3.287   2.754
  581SOL    HW1 2642   3.402   3.354   2.820
  581SOL    HW2 2643   3.449   3.252   2.703
  582SOL     OW 2644   5.454   5.013   2.781
  582SOL    HW1 2645   5.539   5.025   2.831
  582SOL    HW2 2646   5.409   4.928   2.811
  583SOL     OW 2647   3.035   5.173   6.629
  583SOL    HW1 2648   2.945   5.140   6.660
  583SOL    HW2 2649   3.028   5.269   6.603
  584SOL     OW 2650   1.009   5.624   5.449
  584SOL    HW1 2651   0.946   5.645   5.524
  584SOL    HW2 2652   0.982   5.537   5.407
  585SOL     OW 2653   6.441   3.047   5.813
  585SOL    HW1 2654   6.456   3.122   5.748
  585SOL    HW2 2655   6.363   2.992   5.784
  586SOL     OW 2656   3.251   0.156   0.056
  586SOL    HW1 2657   3.218   0.064   0.036
  586SOL    HW2 2658   3.351   0.154   0.060
  587SOL     OW 2659   2.109   2.240   5.363
  587SOL    HW1 2660   2.128   2.265   5.458
  587SOL    HW2 2661   2.020   2.195   5.357
  588SOL     OW 2662   3.264   6.103   1.011
  588SOL    HW1 2663   3.171   6.094   1.047
  588SOL    HW2 2664   3.273   6.050   0.927
  589SOL     OW 2665   3.888   5.291   2.090
  589SOL    HW1 2666   3.839   5.344   2.159
  589SOL    HW2 2667   3.981   5.273   2.123
  590SOL     OW 2668   6.315   2.671   1.752
  590SOL    HW1 2669   6.251   2.734   1.796
  590SOL    HW2 2670   6.391   2.722   1.713
  591SOL     OW 2671   3.767   6.929   3.835
  591SOL    HW1 2672   3.766   7.007   3.899
  591SOL    HW2 2673   3.786   6.845   3.885
  592SOL     OW 2674   4.254   0.125   0.799
  592SOL    HW1 2675   4.269   0.145   0.703
  592SOL    HW2 2676   4.334   0.155   0.852
  593SOL     OW 2677   4.574   2.023   3.545
  593SOL    HW1 2678   4.516   2.094   3.504
  593SOL    HW2 2679   4.518   1.944   3.570
  594SOL     OW 2680   4.309   2.891   6.544
  594SOL    HW1 2681   4.374   2.815   6.539
  594SOL    HW2 2682   4.316   2.935   6.634
  595SOL     OW 2683   4.909   6.413   3.798
  595SOL    HW1 2684   4.983   6.374   3.854
  595SOL    HW2 2685   4.822   6.403   3.846
  596SOL     OW 2686   1.272   3.612   1.118
  596SOL    HW1 2687   1.318   3.530   1.083
  596SOL    HW2 2688   1.220   3.654   1.044
  597SOL     OW 2689   4.678   0.143   5.818
  597SOL    HW1 2690   4.649   0.099   5.903
  597SOL    HW2 2691   4.598   0.177   5.769
  598SOL     OW 2692   3.776   4.197   0.394
  598SOL    HW1 2693   3.695   4.144   0.369
  598SOL    HW2 2694   3.847   4.135   0.427
  599SOL     OW 2695   0.420   0.482   3.204
  599SOL    HW1 2696   0.440   0.442   3.115
  599SOL    HW2 2697   0.480   0.442   3.273
  600SOL     OW 2698   0.682   6.893   0.872
  600SOL    HW1 2699   0.634   6.954   0.935
  600SOL    HW2 2700   0.695   6.804   0.917
  601SOL     OW 2701   3.015   5.930   3.637
  601SOL    HW1 2702   2.977   6.017   3.668
  601SOL    HW2 2703   2.978   5.856   3.694
  602SOL     OW 2704   0.926   1.498   0.371
  602SOL    HW1 2705   1.002   1.524   0.312
  602SOL    HW2 2706   0.844   1.483   0.315
  603SOL     OW 2707   4.137   1.885   3.988
  603SOL    HW1 2708   4.059   1.824   3.996
  603SOL    HW2 2709   4.222   1.831   3.990
  604SOL     OW 2710   0.565   3.161   1.036
  604SOL    HW1 2711   0.593   3.090   1.101
  604SOL    HW2 2712   0.613   3.246   1.057
  605SOL     OW 2713   6.773   5.265   2.895
  605SOL    HW1 2714   6.730   5.310   2.974
  605SOL    HW2 2715   6.819   5.334   2.839
  606SOL     OW 2716   4.823   0.862   5.573
  606SOL    HW1 2717   4.872   0.813   5.502
  606SOL    HW2 2718   4.889   0.905   5.635
  607SOL     OW 2719   5.635   0.800   4.616
  607SOL    HW1 2720   5.578   0.733   4.568
  607SOL    HW2 2721   5.732   0.782   4.595
  608SOL     OW 2722   3.614   6.890   0.569
  608SOL    HW1 2723   3.576   6.981   0.585
  608SOL    HW2 2724   3.695   6.878   0.626
  609SOL     OW 2725   3.405   3.420   4.277
  609SOL    HW1 2726   3.385   3.384   4.186
  609SOL    HW2 2727   3.358   3.508   4.289
  610SOL     OW 2728   5.635   2.228   3.397
  610SOL    HW1 2729   5.690   2.261   3.319
  610SOL    HW2 2730   5.641   2.129   3.402
  611SOL     OW 2731   0.885   0.486   6.882
  611SOL    HW1 2732   0.882   0.577   6.842
  611SOL    HW2 2733   0.802   0.436   6.858
  612SOL     OW 2734   3.262   5.720   6.204
  612SOL    HW1 2735   3.345   5.731   6.149
  612SOL    HW2 2736   3.185   5.760   6.155
  613SOL     OW 2737   4.855   0.549   5.476
  613SOL    HW1 2738   4.874   0.546   5.574
  613SOL    HW2 2739   4.904   0.475   5.430
  614SOL     OW 2740   5.506   4.647   1.272
  614SOL    HW1 2741   5.604   4.631   1.265
  614SOL    HW2 2742   5.490   4.745   1.284
  615SOL     OW 2743   1.222   0.584   0.091
  615SOL    HW1 2744   1.173   0.527   0.025
  615SOL    HW2 2745   1.229   0.678   0.055
  616SOL     OW 2746   6.112   1.994   3.676
  616SOL    HW1 2747   6.027   1.991   3.729
  616SOL    HW2 2748   6.189   1.972   3.735
  617SOL     OW 2749   0.491   4.074   6.808
  617SOL    HW1 2750   0.429   4.025   6.747
  617SOL    HW2 2751   0.540   4.145   6.757
  618SOL     OW 2752   5.636   3.534   0.895
  618SOL    HW1 2753   5.586   3.454   0.928
  618SOL    HW2 2754   5.607   3.614   0.946
  619SOL     OW 2755   3.510   6.776   6.817
  619SOL    HW1 2756   3.558   6.862   6.832
  619SOL    HW2 2757   3.430   6.792   6.759
  620SOL     OW 2758   5.477   3.088   1.266
  620SOL    HW1 2759   5.576   3.103   1.255
  620SOL    HW2 2760   5.449   3.007   1.215
  621SOL     OW 2761   2.664   0.212   5.141
  621SOL    HW1 2762   2.664   0.112   5.135
  621SOL    HW2 2763   2.665   0.240   5.237
  622SOL     OW 2764   1.105   2.192   4.962
  622SOL    HW1 2765   1.005   2.192   4.953
  622SOL    HW2 2766   1.140   2.101   4.939
  623SOL     OW 2767   6.436   6.958   5.188
  623SOL    HW1 2768   6.345   6.996   5.205
  623SOL    HW2 2769   6.446   6.940   5.091
  624SOL     OW 2770   6.778   1.412   6.812
  624SOL    HW1 2771   6.802   1.340   6.878
  624SOL    HW2 2772   6.850   1.481   6.810
  625SOL     OW 2773   1.461   0.852   0.193
  625SOL    HW1 2774   1.389   0.840   0.261
  625SOL    HW2 2775   1.474   0.950   0.176
  626SOL     OW 2776   0.762   5.498   2.641
  626SOL    HW1 2777   0.854   5.498   2.601
  626SOL    HW2 2778   0.694   5.512   2.569
  627SOL     OW 2779   6.786   6.334   0.360
  627SOL    HW1 2780   6.789   6.265   0.288
  627SOL    HW2 2781   6.772   6.424   0.319
  628SOL     OW 2782   5.683   4.039   4.821
  628SOL    HW1 2783   5.590   4.005   4.834
  628SOL    HW2 2784   5.687   4.136   4.843
  629SOL     OW 2785   0.125   1.118   0.287
  629SOL    HW1 2786   0.057   1.079   0.225
  629SOL    HW2 2787   0.097   1.209   0.315
  630SOL     OW 2788   6.382   1.514   0.441
  630SOL    HW1 2789   6.370   1.583   0.512
  630SOL    HW2 2790   6.355   1.424   0.478
  631SOL     OW 2791   3.177   1.646   4.215
  631SOL    HW1 2792   3.246   1.682   4.152
  631SOL    HW2 2793   3.131   1.723   4.260
  632SOL     OW 2794   4.257   2.831   0.301
  632SOL    HW1 2795   4.272   2.795   0.393
  632SOL    HW2 2796   4.294   2.924   0.296
  633SOL     OW 2797   2.526   4.686   0.808
  633SOL    HW1 2798   2.439   4.720   0.844
  633SOL    HW2 2799   2.520   4.682   0.708
  634SOL     OW 2800   3.703   3.515   3.936
  634SOL    HW1 2801   3.604   3.524   3.936
  634SOL    HW2 2802   3.744   3.599   3.900
  635SOL     OW 2803   4.744   7.007   6.807
  635SOL    HW1 2804   4.833   0.008   6.844
  635SOL    HW2 2805   4.758   6.948   6.728
  636SOL     OW 2806   3.516   0.230   5.059
  636SOL    HW1 2807   3.491   0.324   5.038
  636SOL    HW2 2808   3.488   0.170   4.984
  637SOL     OW 2809   6.026   1.740   2.470
  637SOL    HW1 2810   5.980   1.749   2.559
  637SOL    HW2 2811   6.034   1.830   2.427
  638SOL     OW 2812   5.801   3.613   3.816
  638SOL    HW1 2813   5.897   3.613   3.844
  638SOL    HW2 2814   5.746   3.658   3.887
  639SOL     OW 2815   5.382   4.382   3.449
  639SOL    HW1 2816   5.392   4.412   3.354
  639SOL    HW2 2817   5.313   4.438   3.494
  640SOL     OW 2818   0.172   3.779   3.445
  640SOL    HW1 2819   0.134   3.871   3.453
  640SOL    HW2 2820   0.251   3.780   3.383
  641SOL     OW 2821   1.747   4.965   5.736
  641SOL    HW1 2822   1.662   4.981   5.687
  641SOL    HW2 2823   1.807   5.045   5.727
  642SOL     OW 2824   1.621   3.325   4.710
  642SOL    HW1 2825   1.718   3.316   4.730
  642SOL    HW2 2826   1.609   3.375   4.624
  643SOL     OW 2827   6.489   0.008   6.868
  643SOL    HW1 2828   6.524   0.029   6.777
  643SOL    HW2 2829   6.493   6.935   6.883
  644SOL     OW 2830   0.957   0.830   4.452
  644SOL    HW1 2831   0.939   0.838   4.353
  644SOL    HW2 2832   1.018   0.904   4.481
  645SOL     OW 2833   3.419   5.097   3.154
  645SOL    HW1 2834   3.440   5.067   3.247
  645SOL    HW2 2835   3.482   5.054   3.090
  646SOL     OW 2836   3.817   0.979   4.805
  646SOL    HW1 2837   3.801   1.057   4.866
  646SOL    HW2 2838   3.762   0.991   4.722
  647SOL     OW 2839   4.987   2.001   4.846
  647SOL    HW1 2840   4.890   1.987   4.869
  647SOL    HW2 2841   5.017   1.929   4.783
  648SOL     OW 2842   6.664   3.037   3.194
  648SOL    HW1 2843   6.722   3.016   3.114
  648SOL    HW2 2844   6.593   2.968   3.202
  649SOL     OW 2845   2.098   4.689   0.025
  649SOL    HW1 2846   2.150   4.771   0.047
  649SOL    HW2 2847   2.029   4.673   0.096
  650SOL     OW 2848   0.052   5.585   0.604
  650SOL    HW1 2849   6.985   5.589   0.639
  650SOL    HW2 2850   0.094   5.676   0.612
  651SOL     OW 2851   1.999   0.483   5.881
  651SOL    HW1 2852   1.973   0.414   5.948
  651SOL    HW2 2853   1.922   0.544   5.864
  652SOL     OW 2854   4.169   6.681   1.801
  652SOL    HW1 2855   4.121   6.597   1.824
  652SOL    HW2 2856   4.212   6.719   1.883
  653SOL     OW 2857   0.662   6.648   0.319
  653SOL    HW1 2858   0.761   6.651   0.306
  653SOL    HW2 2859   0.641   6.630   0.415
  654SOL     OW 2860   6.919   6.629   6.208
  654SOL    HW1 2861   6.977   6.703   6.174
  654SOL    HW2 2862   6.950   6.542   6.171
  655SOL     OW 2863   0.119   5.458   1.789
  655SOL    HW1 2864   0.042   5.404   1.753
  655SOL    HW2 2865   0.167   5.405   1.859
  656SOL     OW 2866   2.418   6.383   0.832
  656SOL    HW1 2867   2.321   6.393   0.806
  656SOL    HW2 2868   2.424   6.361   0.929
  657SOL     OW 2869   3.157   3.676   1.033
  657SOL    HW1 2870   3.126   3.657   1.126
  657SOL    HW2 2871   3.232   3.614   1.010
  658SOL     OW 2872   1.941   4.242   5.670
  658SOL    HW1 2873   1.964   4.247   5.572
  658SOL    HW2 2874   1.963   4.329   5.714
  659SOL     OW 2875   2.934   5.547   4.735
  659SOL    HW1 2876   2.931   5.591   4.824
  659SOL    HW2 2877   2.987   5.604   4.672
  660SOL     OW 2878   4.998   5.030   1.917
  660SOL    HW1 2879   4.994   5.126   1.890
  660SOL    HW2 2880   4.907   4.989   1.907
  661SOL     OW 2881   4.745   4.226   4.639
  661SOL    HW1 2882   4.715   4.235   4.544
  661SOL    HW2 2883   4.807   4.300   4.663
  662SOL     OW 2884   4.280   2.010   6.407
  662SOL    HW1 2885   4.337   2.000   6.489
  662SOL    HW2 2886   4.212   1.937   6.405
  663SOL     OW 2887   0.638   4.802   6.941
  663SOL    HW1 2888   0.732   4.795   6.906
  663SOL    HW2 2889   0.636   4.857   7.024
  664SOL     OW 2890   1.834   5.422   6.999
  664SOL    HW1 2891   1.778   5.375   6.931
  664SOL    HW2 2892   1.906   5.475   6.953
  665SOL     OW 2893   4.218   5.485   1.285
  665SOL    HW1 2894   4.283   5.560   1.266
  665SOL    HW2 2895   4.215   5.423   1.206
  666SOL     OW 2896   3.851   1.863   0.636
  666SOL    HW1 2897   3.751   1.856   0.636
  666SOL    HW2 2898   3.890   1.771   0.638
  667SOL     OW 2899   0.774   2.534   4.103
  667SOL    HW1 2900   0.702   2.538   4.034
  667SOL    HW2 2901   0.750   2.464   4.171
  668SOL     OW 2902   4.570   5.773   6.847
  668SOL    HW1 2903   4.620   5.688   6.836
  668SOL    HW2 2904   4.491   5.758   6.907
  669SOL     OW 2905   1.595   6.812   3.298
  669SOL    HW1 2906   1.527   6.822   3.225
  669SOL    HW2 2907   1.577   6.879   3.370
  670SOL     OW 2908   3.030   3.715   2.670
  670SOL    HW1 2909   3.002   3.642   2.607
  670SOL    HW2 2910   2.993   3.697   2.761
  671SOL     OW 2911   2.171   6.038   6.049
  671SOL    HW1 2912   2.265   6.073   6.050
  671SOL    HW2 2913   2.147   6.005   6.140
  672SOL     OW 2914   1.332   3.377   3.713
  672SOL    HW1 2915   1.285   3.430   3.785
  672SOL    HW2 2916   1.297   3.283   3.714
  673SOL     OW 2917   4.555   6.819   0.018
  673SOL    HW1 2918   4.474   6.878   0.022
  673SOL    HW2 2919   4.620   6.847   0.088
  674SOL     OW 2920   0.197   3.149   3.995
  674SOL    HW1 2921   0.202   3.214   4.071
  674SOL    HW2 2922   0.183   3.199   3.910
  675SOL     OW 2923   0.762   1.899   5.111
  675SOL    HW1 2924   0.678   1.852   5.137
  675SOL    HW2 2925   0.835   1.872   5.173
  676SOL     OW 2926   3.161   4.922   4.047
  676SOL    HW1 2927   3.250   4.934   4.004
  676SOL    HW2 2928   3.118   5.011   4.063
  677SOL     OW 2929   6.020   1.011   0.351
  677SOL    HW1 2930   5.964   1.093   0.341
  677SOL    HW2 2931   6.112   1.037   0.382
  678SOL     OW 2932   2.772   1.470   4.868
  678SOL    HW1 2933   2.689   1.416   4.849
  678SOL    HW2 2934   2.848   1.408   4.889
  679SOL     OW 2935   4.100   1.068   4.827
  679SOL    HW1 2936   4.124   1.162   4.851
  679SOL    HW2 2937   4.005   1.063   4.798
  680SOL     OW 2938   5.738   4.662   5.737
  680SOL    HW1 2939   5.837   4.677   5.736
  680SOL    HW2 2940   5.717   4.575   5.692
  681SOL     OW 2941   6.499   0.040   0.979
  681SOL    HW1 2942   6.521   7.020   1.065
  681SOL    HW2 2943   6.571   0.024   0.913
  682SOL     OW 2944   2.661   6.693   6.262
  682SOL    HW1 2945   2.575   6.643   6.250
  682SOL    HW2 2946   2.738   6.628   6.259
  683SOL     OW 2947   3.351   0.397   5.862
  683SOL    HW1 2948   3.342   0.462   5.787
  683SOL    HW2 2949   3.317   0.308   5.833
  684SOL     OW 2950   6.151   1.566   6.152
  684SOL    HW1 2951   6.234   1.599   6.197
  684SOL    HW2 2952   6.083   1.544   6.221
  685SOL     OW 2953   4.960   0.513   5.737
  685SOL    HW1 2954   5.027   0.440   5.748
  685SOL    HW2 2955   4.880   0.495   5.795
  686SOL     OW 2956   5.885   3.116   3.163
  686SOL    HW1 2957   5.870   3.110   3.064
  686SOL    HW2 2958   5.896   3.024   3.200
  687SOL     OW 2959   7.002   3.079   6.114
  687SOL    HW1 2960   6.920   3.028   6.139
  687SOL    HW2 2961   6.983   3.177   6.119
  688SOL     OW 2962   2.029   3.606   0.146
  688SOL    HW1 2963   2.006   3.513   0.117
  688SOL    HW2 2964   2.129   3.614   0.155
  689SOL     OW 2965   0.971   4.326   5.863
  689SOL    HW1 2966   0.981   4.383   5.782
  689SOL    HW2 2967   0.972   4.384   5.945
  690SOL     OW 2968   0.814   3.169   3.273
  690SOL    HW1 2969   0.890   3.146   3.212
  690SOL    HW2 2970   0.816   3.109   3.353
  691SOL     OW 2971   2.306   1.690   6.562
  691SOL    HW1 2972   2.231   1.652   6.615
  691SOL    HW2 2973   2.273   1.768   6.508
  692SOL     OW 2974   3.074   0.101   3.643
  692SOL    HW1 2975   3.146   0.144   3.698
  692SOL    HW2 2976   3.113   0.028   3.587
  693SOL     OW 2977   6.249   1.580   3.706
  693SOL    HW1 2978   6.279   1.580   3.802
  693SOL    HW2 2979   6.307   1.643   3.654
  694SOL     OW 2980   3.508   5.803   2.568
  694SOL    HW1 2981   3.579   5.868   2.595
  694SOL    HW2 2982   3.435   5.802   2.637
  695SOL     OW 2983   5.059   4.913   5.211
  695SOL    HW1 2984   5.016   4.866   5.289
  695SOL    HW2 2985   5.027   4.873   5.126
  696SOL     OW 2986   3.045   5.115   2.342
  696SOL    HW1 2987   3.088   5.024   2.335
  696SOL    HW2 2988   2.999   5.123   2.430
  697SOL     OW 2989   1.119   3.582   6.260
  697SOL    HW1 2990   1.077   3.511   6.203
  697SOL    HW2 2991   1.119   3.553   6.355
  698SOL     OW 2992   5.862   0.169   4.776
  698SOL    HW1 2993   5.879   0.087   4.721
  698SOL    HW2 2994   5.845   0.142   4.870
  699SOL     OW 2995   1.190   4.435   0.272
  699SOL    HW1 2996   1.135   4.497   0.327
  699SOL    HW2 2997   1.264   4.485   0.228
  700SOL     OW 2998   2.864   2.334   3.526
  700SOL    HW1 2999   2.812   2.413   3.559
  700SOL    HW2 3000   2.801   2.258   3.509
  701SOL     OW 3001   1.250   5.007   0.053
  701SOL    HW1 3002   1.263   5.101   0.084
  701SOL    HW2 3003   1.258   5.003   6.979
  702SOL     OW 3004   5.950   6.115   6.372
  702SOL    HW1 3005   5.962   6.209   6.339
  702SOL    HW2 3006   5.861   6.081   6.343
  703SOL     OW 3007   4.301   3.336   0.015
  703SOL    HW1 3008   4.207   3.328   7.008
  703SOL    HW2 3009   4.344   3.246   0.019
  704SOL     OW 3010   1.837   1.101   6.139
  704SOL    HW1 3011   1.741   1.073   6.133
  704SOL    HW2 3012   1.855   1.173   6.072
  705SOL     OW 3013   5.104   7.014   3.699
  705SOL    HW1 3014   5.122   0.086   3.686
  705SOL    HW2 3015   5.069   6.998   3.791
  706SOL     OW 3016   4.238   1.609   3.825
  706SOL    HW1 3017   4.312   1.625   3.891
  706SOL    HW2 3018   4.260   1.530   3.768
  707SOL     OW 3019   4.222   6.752   2.074
  707SOL    HW1 3020   4.178   6.792   2.155
  707SOL    HW2 3021   4.304   6.805   2.052
  708SOL     OW 3022   4.524   0.217   0.939
  708SOL    HW1 3023   4.535   0.306   0.894
  708SOL    HW2 3024   4.492   0.230   1.033
  709SOL     OW 3025   1.386   5.582   1.125
  709SOL    HW1 3026   1.414   5.641   1.050
  709SOL    HW2 3027   1.379   5.487   1.093
  710SOL     OW 3028   3.544   3.887   2.896
  710SOL    HW1 3029   3.528   3.832   2.977
  710SOL    HW2 3030   3.556   3.983   2.922
  711SOL     OW 3031   0.465   2.009   5.839
  711SOL    HW1 3032   0.511   2.093   5.868
  711SOL    HW2 3033   0.491   1.934   5.900
  712SOL     OW 3034   1.703   4.418   0.806
  712SOL    HW1 3035   1.771   4.349   0.781
  712SOL    HW2 3036   1.666   4.397   0.897
  713SOL     OW 3037   3.272   4.325   0.664
  713SOL    HW1 3038   3.256   4.419   0.695
  713SOL    HW2 3039   3.207   4.264   0.711
  714SOL     OW 3040   5.854   4.310   5.182
  714SOL    HW1 3041   5.887   4.276   5.094
  714SOL    HW2 3042   5.859   4.410   5.184
  715SOL     OW 3043   4.784   5.853   6.998
  715SOL    HW1 3044   4.712   5.818   6.938
  715SOL    HW2 3045   4.861   5.789   6.998
  716SOL     OW 3046   1.012   5.571   1.291
  716SOL    HW1 3047   1.108   5.555   1.316
  716SOL    HW2 3048   0.957   5.492   1.315
  717SOL     OW 3049   6.178   4.843   6.544
  717SOL    HW1 3050   6.235   4.817   6.467
  717SOL    HW2 3051   6.156   4.761   6.598
  718SOL     OW 3052   3.562   2.116   6.251
  718SOL    HW1 3053   3.632   2.080   6.313
  718SOL    HW2 3054   3.592   2.104   6.157
  719SOL     OW 3055   6.536   2.107   2.091
  719SOL    HW1 3056   6.584   2.185   2.051
  719SOL    HW2 3057   6.544   2.110   2.191
  720SOL     OW 3058   2.722   1.530   5.999
  720SOL    HW1 3059   2.813   1.493   5.982
  720SOL    HW2 3060   2.689   1.498   6.087
  721SOL     OW 3061   1.271   0.545   4.812
  721SOL    HW1 3062   1.237   0.451   4.806
  721SOL    HW2 3063   1.265   0.589   4.722
  722SOL     OW 3064   4.428   6.501   5.027
  722SOL    HW1 3065   4.473   6.481   4.940
  722SOL    HW2 3066   4.491   6.481   5.102
  723SOL     OW 3067   2.256   3.044   1.761
  723SOL    HW1 3068   2.323   3.115   1.739
  723SOL    HW2 3069   2.180   3.085   1.811
  724SOL     OW 3070   1.491   1.464   4.877
  724SOL    HW1 3071   1.450   1.430   4.962
  724SOL    HW2 3072   1.577   1.510   4.898
  725SOL     OW 3073   2.745   5.127   2.292
  725SOL    HW1 3074   2.763   5.201   2.228
  725SOL    HW2 3075   2.647   5.110   2.297
  726SOL     OW 3076   3.979   4.698   0.312
  726SOL    HW1 3077   4.011   4.613   0.269
  726SOL    HW2 3078   3.942   4.677   0.402
  727SOL     OW 3079   4.617   5.987   4.128
  727SOL    HW1 3080   4.709   5.967   4.094
  727SOL    HW2 3081   4.579   5.905   4.171
  728SOL     OW 3082   0.295   4.369   5.153
  728SOL    HW1 3083   0.344   4.282   5.142
  728SOL    HW2 3084   0.360   4.444   5.152
  729SOL     OW 3085   2.523   0.640   0.347
  729SOL    HW1 3086   2.476   0.728   0.350
  729SOL    HW2 3087   2.549   0.618   0.253
  730SOL     OW 3088   5.792   0.097   3.307
  730SOL    HW1 3089   5.724   0.119   3.237
  730SOL    HW2 3090   5.832   0.007   3.288
  731SOL     OW 3091   5.422   3.311   6.333
  731SOL    HW1 3092   5.461   3.393   6.376
  731SOL    HW2 3093   5.404   3.242   6.404
  732SOL     OW 3094   0.433   3.580   0.955
  732SOL    HW1 3095   0.479   3.492   0.967
  732SOL    HW2 3096   0.365   3.572   0.882
  733SOL     OW 3097   5.472   4.282   4.625
  733SOL    HW1 3098   5.438   4.371   4.595
  733SOL    HW2 3099   5.501   4.229   4.546
  734SOL     OW 3100   6.407   4.377   2.634
  734SOL    HW1 3101   6.453   4.374   2.722
  734SOL    HW2 3102   6.468   4.417   2.565
  735SOL     OW 3103   3.300   2.542   1.031
  735SOL    HW1 3104   3.227   2.496   1.080
  735SOL    HW2 3105   3.355   2.595   1.095
  736SOL     OW 3106   0.051   6.512   2.691
  736SOL    HW1 3107   0.119   6.544   2.757
  736SOL    HW2 3108   0.062   6.414   2.677
  737SOL     OW 3109   4.895   3.431   1.079
  737SOL    HW1 3110   4.835   3.361   1.042
  737SOL    HW2 3111   4.952   3.392   1.151
  738SOL     OW 3112   1.590   5.087   3.922
  738SOL    HW1 3113   1.506   5.071   3.976
  738SOL    HW2 3114   1.617   5.001   3.878
  739SOL     OW 3115   4.993   6.063   5.486
  739SOL    HW1 3116   5.009   6.015   5.572
  739SOL    HW2 3117   4.988   5.997   5.411
  740SOL     OW 3118   5.435   0.535   0.799
  740SOL    HW1 3119   5.421   0.600   0.725
  740SOL    HW2 3120   5.443   0.584   0.886
  741SOL     OW 3121   1.933   6.477   3.674
  741SOL    HW1 3122   1.883   6.481   3.587
  741SOL    HW2 3123   1.885   6.416   3.737
  742SOL     OW 3124   2.039   0.101   2.398
  742SOL    HW1 3125   2.006   0.078   2.489
  742SOL    HW2 3126   2.112   0.038   2.372
  743SOL     OW 3127   1.705   4.355   4.520
  743SOL    HW1 3128   1.796   4.313   4.529
  743SOL    HW2 3129   1.711   4.432   4.457
  744SOL     OW 3130   6.668   6.952   6.379
  744SOL    HW1 3131   6.664   6.852   6.375
  744SOL    HW2 3132   6.607   6.991   6.310
  745SOL     OW 3133   0.960   6.298   4.329
  745SOL    HW1 3134   0.987   6.210   4.291
  745SOL    HW2 3135   0.957   6.366   4.256
  746SOL     OW 3136   0.190   6.703   5.143
  746SOL    HW1 3137   0.168   6.766   5.217
  746SOL    HW2 3138   0.165   6.743   5.055
  747SOL     OW 3139   4.617   5.088   4.321
  747SOL    HW1 3140   4.567   5.026   4.261
  747SOL    HW2 3141   4.674   5.149   4.266
  748SOL     OW 3142   4.211   5.072   2.635
  748SOL    HW1 3143   4.165   5.144   2.688
  748SOL    HW2 3144   4.202   4.985   2.683
  749SOL     OW 3145   6.899   3.538   4.991
  749SOL    HW1 3146   6.892   3.446   5.030
  749SOL    HW2 3147   6.973   3.587   5.036
  750SOL     OW 3148   1.752   3.155   0.688
  750SOL    HW1 3149   1.708   3.175   0.775
  750SOL    HW2 3150   1.689   3.105   0.629
  751SOL     OW 3151   3.883   1.862   6.098
  751SOL    HW1 3152   3.848   1.794   6.033
  751SOL    HW2 3153   3.945   1.818   6.163
  752SOL     OW 3154   4.377   2.331   2.034
  752SOL    HW1 3155   4.323   2.356   1.954
  752SOL    HW2 3156   4.450   2.397   2.046
  753SOL     OW 3157   2.169   3.473   4.244
  753SOL    HW1 3158   2.122   3.406   4.302
  753SOL    HW2 3159   2.197   3.429   4.158
  754SOL     OW 3160   5.949   3.634   6.635
  754SOL    HW1 3161   5.902   3.647   6.722
  754SOL    HW2 3162   5.883   3.610   6.564
  755SOL     OW 3163   1.184   6.016   0.149
  755SOL    HW1 3164   1.143   6.017   0.058
  755SOL    HW2 3165   1.132   5.954   0.208
  756SOL     OW 3166   5.071   6.739   1.186
  756SOL    HW1 3167   4.987   6.684   1.182
  756SOL    HW2 3168   5.132   6.702   1.255
  757SOL     OW 3169   0.752   5.973   3.369
  757SOL    HW1 3170   0.660   5.977   3.408
  757SOL    HW2 3171   0.745   5.982   3.269
  758SOL     OW 3172   3.948   1.129   1.250
  758SOL    HW1 3173   3.892   1.132   1.166
  758SOL    HW2 3174   3.916   1.054   1.308
  759SOL     OW 3175   6.763   1.116   0.682
  759SOL    HW1 3176   6.823   1.113   0.761
  759SOL    HW2 3177   6.715   1.028   0.673
  760SOL     OW 3178   4.086   1.591   6.477
  760SOL    HW1 3179   4.110   1.525   6.406
  760SOL    HW2 3180   4.152   1.666   6.476
  761SOL     OW 3181   4.926   3.921   6.745
  761SOL    HW1 3182   4.864   3.927   6.824
  761SOL    HW2 3183   4.895   3.849   6.683
  762SOL     OW 3184   2.338   6.327   3.375
  762SOL    HW1 3185   2.345   6.227   3.385
  762SOL    HW2 3186   2.308   6.367   3.462
  763SOL     OW 3187   4.246   5.636   6.386
  763SOL    HW1 3188   4.185   5.711   6.359
  763SOL    HW2 3189   4.315   5.670   6.450
  764SOL     OW 3190   4.720   0.069   4.268
  764SOL    HW1 3191   4.680   0.143   4.214
  764SOL    HW2 3192   4.727   7.012   4.212
  765SOL     OW 3193   1.478   6.280   1.482
  765SOL    HW1 3194   1.479   6.257   1.384
  765SOL    HW2 3195   1.503   6.198   1.535
  766SOL     OW 3196   0.371   1.804   0.105
  766SOL    HW1 3197   0.404   1.796   0.011
  766SOL    HW2 3198   0.279   1.765   0.112
  767SOL     OW 3199   0.521   6.037   2.287
  767SOL    HW1 3200   0.546   6.134   2.282
  767SOL    HW2 3201   0.447   6.025   2.354
  768SOL     OW 3202   2.080   0.787   2.524
  768SOL    HW1 3203   2.161   0.844   2.512
  768SOL    HW2 3204   2.046   0.759   2.434
  769SOL     OW 3205   2.951   6.885   3.921
  769SOL    HW1 3206   3.029   6.945   3.902
  769SOL    HW2 3207   2.982   6.791   3.931
  770SOL     OW 3208   1.888   4.632   2.849
  770SOL    HW1 3209   1.934   4.679   2.924
  770SOL    HW2 3210   1.934   4.546   2.829
  771SOL     OW 3211   1.857   5.412   2.524
  771SOL    HW1 3212   1.837   5.403   2.426
  771SOL    HW2 3213   1.848   5.322   2.568
  772SOL     OW 3214   6.601   5.088   0.677
  772SOL    HW1 3215   6.688   5.136   0.684
  772SOL    HW2 3216   6.530   5.139   0.725
  773SOL     OW 3217   0.566   3.671   3.713
  773SOL    HW1 3218   0.618   3.591   3.684
  773SOL    HW2 3219   0.580   3.686   3.811
  774SOL     OW 3220   1.038   1.555   2.263
  774SOL    HW1 3221   0.945   1.546   2.229
  774SOL    HW2 3222   1.056   1.650   2.289
  775SOL     OW 3223   1.080   1.992   3.562
  775SOL    HW1 3224   1.102   1.975   3.658
  775SOL    HW2 3225   1.072   2.090   3.546
  776SOL     OW 3226   6.858   1.107   6.303
  776SOL    HW1 3227   6.844   1.009   6.318
  776SOL    HW2 3228   6.922   1.143   6.370
  777SOL     OW 3229   3.166   6.940   1.106
  777SOL    HW1 3230   3.092   6.957   1.171
  777SOL    HW2 3231   3.186   7.024   1.055
  778SOL     OW 3232   3.585   1.522   3.931
  778SOL    HW1 3233   3.660   1.460   3.950
  778SOL    HW2 3234   3.621   1.612   3.907
  779SOL     OW 3235   0.810   1.997   2.921
  779SOL    HW1 3236   0.784   1.926   2.855
  779SOL    HW2 3237   0.907   1.987   2.944
  780SOL     OW 3238   5.990   3.595   4.778
  780SOL    HW1 3239   6.020   3.678   4.825
  780SOL    HW2 3240   6.063   3.563   4.718
  781SOL     OW 3241   6.122   1.354   5.984
  781SOL    HW1 3242   6.051   1.300   6.027
  781SOL    HW2 3243   6.153   1.426   6.047
  782SOL     OW 3244   1.257   4.173   0.271
  782SOL    HW1 3245   1.231   4.268   0.288
  782SOL    HW2 3246   1.204   4.136   0.195
  783SOL     OW 3247   4.033   4.315   0.694
  783SOL    HW1 3248   4.044   4.362   0.606
  783SOL    HW2 3249   3.962   4.361   0.747
  784SOL     OW 3250   5.327   6.882   5.656
  784SOL    HW1 3251   5.306   6.796   5.609
  784SOL    HW2 3252   5.345   6.863   5.753
  785SOL     OW 3253   6.958   2.148   3.139
  785SOL    HW1 3254   6.997   2.058   3.121
  785SOL    HW2 3255   6.872   2.158   3.088
  786SOL     OW 3256   1.081   0.558   0.821
  786SOL    HW1 3257   1.042   0.497   0.891
  786SOL    HW2 3258   1.010   0.622   0.790
  787SOL     OW 3259   3.431   1.571   6.401
  787SOL    HW1 3260   3.468   1.504   6.465
  787SOL    HW2 3261   3.485   1.569   6.316
  788SOL     OW 3262   2.337   2.546   5.031
  788SOL    HW1 3263   2.345   2.531   5.130
  788SOL    HW2 3264   2.339   2.458   4.984
  789SOL     OW 3265   5.818   4.350   1.410
  789SOL    HW1 3266   5.914   4.321   1.406
  789SOL    HW2 3267   5.774   4.333   1.322
  790SOL     OW 3268   2.256   1.475   3.897
  790SOL    HW1 3269   2.316   1.428   3.962
  790SOL    HW2 3270   2.207   1.549   3.943
  791SOL     OW 3271   3.658   0.297   3.678
  791SOL    HW1 3272   3.676   0.368   3.610
  791SOL    HW2 3273   3.710   0.317   3.762
  792SOL     OW 3274   0.058   0.262   1.255
  792SOL    HW1 3275   0.154   0.233   1.264
  792SOL    HW2 3276   0.052   0.361   1.266
  793SOL     OW 3277   4.023   6.235   2.259
  793SOL    HW1 3278   3.987   6.175   2.188
  793SOL    HW2 3279   4.039   6.326   2.220
  794SOL     OW 3280   2.353   3.770   5.344
  794SOL    HW1 3281   2.422   3.699   5.347
  794SOL    HW2 3282   2.384   3.846   5.287
  795SOL     OW 3283   2.688   5.388   5.194
  795SOL    HW1 3284   2.645   5.437   5.118
  795SOL    HW2 3285   2.642   5.301   5.208
  796SOL     OW 3286   0.803   2.329   6.484
  796SOL    HW1 3287   0.704   2.329   6.468
  796SOL    HW2 3288   0.849   2.369   6.405
  797SOL     OW 3289   5.453   2.621   2.559
  797SOL    HW1 3290   5.380   2.616   2.627
  797SOL    HW2 3291   5.541   2.604   2.604
  798SOL     OW 3292   5.162   0.123   1.214
  798SOL    HW1 3293   5.197   0.182   1.142
  798SOL    HW2 3294   5.239   0.077   1.260
  799SOL     OW 3295   6.744   1.053   4.027
  799SOL    HW1 3296   6.809   1.013   3.963
  799SOL    HW2 3297   6.770   1.148   4.047
  800SOL     OW 3298   5.730   1.354   2.675
  800SOL    HW1 3299   5.687   1.438   2.708
  800SOL    HW2 3300   5.754   1.365   2.579
  801SOL     OW 3301   1.315   3.822   2.860
  801SOL    HW1 3302   1.285   3.906   2.906
  801SOL    HW2 3303   1.383   3.846   2.790
  802SOL     OW 3304   4.223   0.671   0.351
  802SOL    HW1 3305   4.239   0.589   0.406
  802SOL    HW2 3306   4.181   0.645   0.265
  803SOL     OW 3307   6.972   5.901   5.138
  803SOL    HW1 3308   6.895   5.899   5.074
  803SOL    HW2 3309   6.937   5.884   5.231
  804SOL     OW 3310   6.195   6.395   6.946
  804SOL    HW1 3311   6.098   6.420   6.939
  804SOL    HW2 3312   6.251   6.466   6.905
  805SOL     OW 3313   4.015   2.276   5.883
  805SOL    HW1 3314   3.930   2.328   5.873
  805SOL    HW2 3315   4.012   2.223   5.968
  806SOL     OW 3316   4.100   1.338   4.912
  806SOL    HW1 3317   4.194   1.369   4.899
  806SOL    HW2 3318   4.037   1.406   4.875
  807SOL     OW 3319   0.697   1.744   3.561
  807SOL    HW1 3320   0.723   1.725   3.656
  807SOL    HW2 3321   0.764   1.703   3.499
  808SOL     OW 3322   4.854   3.724   6.568
  808SOL    HW1 3323   4.876   3.785   6.492
  808SOL    HW2 3324   4.852   3.630   6.534
  809SOL     OW 3325   0.786   4.612   1.605
  809SOL    HW1 3326   0.727   4.588   1.528
  809SOL    HW2 3327   0.772   4.709   1.628
  810SOL     OW 3328   4.341   2.687   1.190
  810SOL    HW1 3329   4.294   2.709   1.104
  810SOL    HW2 3330   4.273   2.669   1.261
  811SOL     OW 3331   4.838   5.060   3.540
  811SOL    HW1 3332   4.899   5.041   3.464
  811SOL    HW2 3333   4.744   5.069   3.506
  812SOL     OW 3334   0.070   1.237   1.958
  812SOL    HW1 3335   0.028   1.222   2.047
  812SOL    HW2 3336   0.103   1.150   1.921
  813SOL     OW 3337   4.043   5.100   4.078
  813SOL    HW1 3338   4.139   5.119   4.096
  813SOL    HW2 3339   4.021   5.123   3.983
  814SOL     OW 3340   5.396   6.519   3.453
  814SOL    HW1 3341   5.363   6.436   3.408
  814SOL    HW2 3342   5.318   6.572   3.487
  815SOL     OW 3343   6.398   2.992   2.242
  815SOL    HW1 3344   6.304   2.962   2.255
  815SOL    HW2 3345   6.460   2.917   2.265
  816SOL     OW 3346   0.085   0.072   7.019
  816SOL    HW1 3347   0.039   0.131   0.059
  816SOL    HW2 3348   0.166   0.119   6.983
  817SOL     OW 3349   1.952   3.429   2.069
  817SOL    HW1 3350   1.938   3.457   2.164
  817SOL    HW2 3351   2.047   3.448   2.043
  818SOL     OW 3352   6.583   3.256   1.068
  818SOL    HW1 3353   6.635   3.173   1.090
  818SOL    HW2 3354   6.535   3.287   1.150
  819SOL     OW 3355   6.000   3.301   3.950
  819SOL    HW1 3356   6.047   3.217   3.926
  819SOL    HW2 3357   6.037   3.376   3.895
  820SOL     OW 3358   1.265   2.808   6.145
  820SOL    HW1 3359   1.206   2.744   6.097
  820SOL    HW2 3360   1.361   2.788   6.123
  821SOL     OW 3361   2.793   4.605   0.132
  821SOL    HW1 3362   2.864   4.675   0.139
  821SOL    HW2 3363   2.788   4.572   0.038
  822SOL     OW 3364   1.125   4.785   4.780
  822SOL    HW1 3365   1.187   4.826   4.847
  822SOL    HW2 3366   1.178   4.743   4.707
  823SOL     OW 3367   4.763   4.464   0.026
  823SOL    HW1 3368   4.793   4.444   6.959
  823SOL    HW2 3369   4.811   4.544   0.060
  824SOL     OW 3370   5.444   1.002   5.667
  824SOL    HW1 3371   5.495   0.967   5.589
  824SOL    HW2 3372   5.474   1.096   5.687
  825SOL     OW 3373   1.910   3.728   1.607
  825SOL    HW1 3374   2.007   3.709   1.592
  825SOL    HW2 3375   1.878   3.678   1.687
  826SOL     OW 3376   5.496   4.058   0.712
  826SOL    HW1 3377   5.424   3.990   0.724
  826SOL    HW2 3378   5.481   4.110   0.628
  827SOL     OW 3379   2.878   5.355   5.623
  827SOL    HW1 3380   2.835   5.265   5.632
  827SOL    HW2 3381   2.810   5.426   5.640
  828SOL     OW 3382   6.395   0.610   5.404
  828SOL    HW1 3383   6.396   0.637   5.308
  828SOL    HW2 3384   6.453   0.672   5.457
  829SOL     OW 3385   3.023   3.838   4.254
  829SOL    HW1 3386   3.061   3.903   4.188
  829SOL    HW2 3387   3.057   3.859   4.345
  830SOL     OW 3388   5.100   4.546   5.931
  830SOL    HW1 3389   5.099   4.462   5.877
  830SOL    HW2 3390   5.186   4.594   5.917
  831SOL     OW 3391   6.957   0.375   4.786
  831SOL    HW1 3392   7.022   0.398   4.713
  831SOL    HW2 3393   7.008   0.350   4.868
  832SOL     OW 3394   1.894   0.901   6.722
  832SOL    HW1 3395   1.836   0.865   6.649
  832SOL    HW2 3396   1.943   0.981   6.689
  833SOL     OW 3397   0.565   5.891   6.105
  833SOL    HW1 3398   0.607   5.800   6.098
  833SOL    HW2 3399   0.634   5.961   6.090
  834SOL     OW 3400   3.943   3.980   1.866
  834SOL    HW1 3401   3.879   4.028   1.805
  834SOL    HW2 3402   3.900   3.968   1.956
  835SOL     OW 3403   3.538   6.946   4.286
  835SOL    HW1 3404   3.633   6.969   4.305
  835SOL    HW2 3405   3.482   6.966   4.367
  836SOL     OW 3406   3.012   6.286   6.598
  836SOL    HW1 3407   2.928   6.247   6.562
  836SOL    HW2 3408   3.090   6.235   6.563
  837SOL     OW 3409   5.077   6.689   6.541
  837SOL    HW1 3410   5.082   6.595   6.576
  837SOL    HW2 3411   5.166   6.733   6.552
  838SOL     OW 3412   0.562   0.312   4.742
  838SOL    HW1 3413   0.598   0.222   4.768
  838SOL    HW2 3414   0.637   0.378   4.737
  839SOL     OW 3415   2.500   1.676   2.129
  839SOL    HW1 3416   2.510   1.643   2.036
  839SOL    HW2 3417   2.577   1.643   2.184
  840SOL     OW 3418   5.832   0.624   5.672
  840SOL    HW1 3419   5.871   0.539   5.637
  840SOL    HW2 3420   5.774   0.666   5.602
  841SOL     OW 3421   5.937   4.465   0.571
  841SOL    HW1 3422   5.866   4.411   0.616
  841SOL    HW2 3423   6.025   4.416   0.577
  842SOL     OW 3424   4.379   5.193   3.969
  842SOL    HW1 3425   4.317   5.270   3.986
  842SOL    HW2 3426   4.472   5.228   3.958
  843SOL     OW 3427   4.825   2.185   0.345
  843SOL    HW1 3428   4.797   2.095   0.314
  843SOL    HW2 3429   4.807   2.253   0.274
  844SOL     OW 3430   4.842   6.607   1.095
  844SOL    HW1 3431   4.747   6.628   1.072
  844SOL    HW2 3432   4.844   6.553   1.180
  845SOL     OW 3433   6.508   3.320   4.303
  845SOL    HW1 3434   6.500   3.410   4.259
  845SOL    HW2 3435   6.455   3.253   4.251
  846SOL     OW 3436   5.365   1.477   6.556
  846SOL    HW1 3437   5.298   1.409   6.588
  846SOL    HW2 3438   5.337   1.568   6.586
  847SOL     OW 3439   6.099   3.357   0.967
  847SOL    HW1 3440   6.112   3.404   1.054
  847SOL    HW2 3441   6.047   3.415   0.905
  848SOL     OW 3442   5.848   1.224   6.652
  848SOL    HW1 3443   5.909   1.301   6.671
  848SOL    HW2 3444   5.767   1.257   6.605
  849SOL     OW 3445   0.711   5.604   5.314
  849SOL    HW1 3446   0.729   5.523   5.258
  849SOL    HW2 3447   0.780   5.673   5.297
  850SOL     OW 3448   5.053   0.759   3.389
  850SOL    HW1 3449   4.998   0.746   3.472
  850SOL    HW2 3450   5.143   0.793   3.413
  851SOL     OW 3451   6.970   1.362   0.667
  851SOL    HW1 3452   6.886   1.396   0.711
  851SOL    HW2 3453   7.015   1.298   0.728
  852SOL     OW 3454   2.249   2.692   0.065
  852SOL    HW1 3455   2.244   2.597   0.033
  852SOL    HW2 3456   2.213   2.753   7.020
  853SOL     OW 3457   0.980   3.615   3.719
  853SOL    HW1 3458   1.065   3.658   3.688
  853SOL    HW2 3459   0.953   3.653   3.807
  854SOL     OW 3460   5.226   6.059   2.287
  854SOL    HW1 3461   5.158   5.995   2.323
  854SOL    HW2 3462   5.308   6.009   2.260
  855SOL     OW 3463   5.918   6.804   1.198
  855SOL    HW1 3464   5.956   6.878   1.144
  855SOL    HW2 3465   5.819   6.817   1.207
  856SOL     OW 3466   1.921   0.953   5.226
  856SOL    HW1 3467   2.020   0.968   5.222
  856SOL    HW2 3468   1.901   0.876   5.287
  857SOL     OW 3469   5.941   5.294   1.239
  857SOL    HW1 3470   5.941   5.337   1.149
  857SOL    HW2 3471   5.869   5.225   1.244
  858SOL     OW 3472   2.532   4.552   2.158
  858SOL    HW1 3473   2.472   4.621   2.118
  858SOL    HW2 3474   2.622   4.556   2.114
  859SOL     OW 3475   5.721   5.433   6.435
  859SOL    HW1 3476   5.742   5.338   6.458
  859SOL    HW2 3477   5.805   5.487   6.437
  860SOL     OW 3478   4.695   4.384   0.601
  860SOL    HW1 3479   4.673   4.294   0.638
  860SOL    HW2 3480   4.773   4.423   0.651
  861SOL     OW 3481   2.136   0.036   4.397
  861SOL    HW1 3482   2.229   0.022   4.430
  861SOL    HW2 3483   2.072   0.025   4.473
  862SOL     OW 3484   6.074   3.823   4.911
  862SOL    HW1 3485   6.078   3.915   4.870
  862SOL    HW2 3486   6.160   3.805   4.959
  863SOL     OW 3487   1.236   0.261   0.490
  863SOL    HW1 3488   1.297   0.341   0.493
  863SOL    HW2 3489   1.290   0.178   0.506
  864SOL     OW 3490   5.237   4.586   3.762
  864SOL    HW1 3491   5.305   4.646   3.804
  864SOL    HW2 3492   5.248   4.586   3.663
  865SOL     OW 3493   0.780   6.696   5.001
  865SOL    HW1 3494   0.761   6.617   5.059
  865SOL    HW2 3495   0.697   6.720   4.950
  866SOL     OW 3496   2.210   1.684   1.948
  866SOL    HW1 3497   2.197   1.585   1.943
  866SOL    HW2 3498   2.196   1.724   1.858
  867SOL     OW 3499   3.097   2.504   1.261
  867SOL    HW1 3500   3.114   2.416   1.304
  867SOL    HW2 3501   3.154   2.574   1.304
  868SOL     OW 3502   5.933   6.462   1.343
  868SOL    HW1 3503   5.999   6.466   1.419
  868SOL    HW2 3504   5.981   6.477   1.257
  869SOL     OW 3505   6.284   5.337   2.972
  869SOL    HW1 3506   6.249   5.310   3.062
  869SOL    HW2 3507   6.337   5.422   2.981
  870SOL     OW 3508   6.093   3.924   1.363
  870SOL    HW1 3509   6.083   3.934   1.462
  870SOL    HW2 3510   6.138   4.005   1.326
  871SOL     OW 3511   6.934   3.294   1.938
  871SOL    HW1 3512   6.925   3.211   1.993
  871SOL    HW2 3513   6.878   3.287   1.856
  872SOL     OW 3514   6.630   3.660   4.378
  872SOL    HW1 3515   6.719   3.696   4.406
  872SOL    HW2 3516   6.634   3.631   4.283
  873SOL     OW 3517   4.283   0.699   2.814
  873SOL    HW1 3518   4.380   0.708   2.793
  873SOL    HW2 3519   4.267   0.725   2.909
  874SOL     OW 3520   1.358   4.053   5.318
  874SOL    HW1 3521   1.386   4.147   5.337
  874SOL    HW2 3522   1.259   4.048   5.309
  875SOL     OW 3523   4.876   4.488   0.786
  875SOL    HW1 3524   4.925   4.514   0.870
  875SOL    HW2 3525   4.861   4.569   0.730
  876SOL     OW 3526   6.608   4.572   3.538
  876SOL    HW1 3527   6.670   4.596   3.464
  876SOL    HW2 3528   6.661   4.552   3.621
  877SOL     OW 3529   4.859   4.953   0.013
  877SOL    HW1 3530   4.912   4.870   0.029
  877SOL    HW2 3531   4.910   5.014   6.978
  878SOL     OW 3532   4.118   5.309   6.919
  878SOL    HW1 3533   4.104   5.368   6.839
  878SOL    HW2 3534   4.185   5.238   6.897
  879SOL     OW 3535   4.051   1.592   2.529
  879SOL    HW1 3536   4.076   1.689   2.529
  879SOL    HW2 3537   4.134   1.536   2.534
  880SOL     OW 3538   3.380   4.215   0.027
  880SOL    HW1 3539   3.388   4.291   0.092
  880SOL    HW2 3540   3.364   4.130   0.076
  881SOL     OW 3541   4.196   4.806   4.882
  881SOL    HW1 3542   4.246   4.727   4.916
  881SOL    HW2 3543   4.205   4.810   4.782
  882SOL     OW 3544   1.815   1.423   4.026
  882SOL    HW1 3545   1.752   1.347   4.010
  882SOL    HW2 3546   1.788   1.471   4.110
  883SOL     OW 3547   4.350   5.022   5.370
  883SOL    HW1 3548   4.303   5.063   5.448
  883SOL    HW2 3549   4.426   5.082   5.342
  884SOL     OW 3550   6.804   3.227   2.212
  884SOL    HW1 3551   6.711   3.206   2.241
  884SOL    HW2 3552   6.812   3.324   2.191
  885SOL     OW 3553   5.748   6.676   0.470
  885SOL    HW1 3554   5.829   6.646   0.521
  885SOL    HW2 3555   5.771   6.687   0.374
  886SOL     OW 3556   4.135   1.030   0.343
  886SOL    HW1 3557   4.207   0.962   0.347
  886SOL    HW2 3558   4.140   1.080   0.256
  887SOL     OW 3559   4.217   6.500   5.978
  887SOL    HW1 3560   4.223   6.500   5.878
  887SOL    HW2 3561   4.207   6.593   6.011
  888SOL     OW 3562   7.015   6.153   3.613
  888SOL    HW1 3563   0.043   6.234   3.635
  888SOL    HW2 3564   6.936   6.148   3.675
  889SOL     OW 3565   0.030   0.061   6.027
  889SOL    HW1 3566   6.964   0.024   6.013
  889SOL    HW2 3567   0.027   0.161   6.014
  890SOL     OW 3568   2.806   4.711   2.263
  890SOL    HW1 3569   2.846   4.794   2.224
  890SOL    HW2 3570   2.774   4.652   2.189
  891SOL     OW 3571   5.910   3.531   1.334
  891SOL    HW1 3572   5.944   3.604   1.394
  891SOL    HW2 3573   5.817   3.507   1.362
  892SOL     OW 3574   3.918   3.815   0.266
  892SOL    HW1 3575   3.982   3.835   0.340
  892SOL    HW2 3576   3.825   3.807   0.304
  893SOL     OW 3577   1.621   0.774   0.982
  893SOL    HW1 3578   1.609   0.690   1.035
  893SOL    HW2 3579   1.535   0.825   0.981
  894SOL     OW 3580   2.025   4.428   4.312
  894SOL    HW1 3581   1.954   4.493   4.284
  894SOL    HW2 3582   2.106   4.479   4.342
  895SOL     OW 3583   1.860   6.862   4.467
  895SOL    HW1 3584   1.944   6.810   4.452
  895SOL    HW2 3585   1.868   6.915   4.551
  896SOL     OW 3586   5.985   5.978   4.170
  896SOL    HW1 3587   6.034   6.065   4.163
  896SOL    HW2 3588   6.017   5.916   4.099
  897SOL     OW 3589   4.719   1.251   0.536
  897SOL    HW1 3590   4.803   1.198   0.547
  897SOL    HW2 3591   4.739   1.339   0.494
  898SOL     OW 3592   5.158   6.014   4.043
  898SOL    HW1 3593   5.248   6.037   4.081
  898SOL    HW2 3594   5.134   6.081   3.973
  899SOL     OW 3595   0.686   4.941   0.160
  899SOL    HW1 3596   0.773   4.977   0.194
  899SOL    HW2 3597   0.642   4.886   0.231
  900SOL     OW 3598   6.234   5.982   1.950
  900SOL    HW1 3599   6.212   6.039   2.029
  900SOL    HW2 3600   6.326   5.945   1.960
  901SOL     OW 3601   0.342   1.836   4.614
  901SOL    HW1 3602   0.331   1.739   4.632
  901SOL    HW2 3603   0.346   1.886   4.700
  902SOL     OW 3604   0.168   0.969   6.390
  902SOL    HW1 3605   0.222   0.894   6.425
  902SOL    HW2 3606   0.200   0.994   6.298
  903SOL     OW 3607   6.372   4.539   0.410
  903SOL    HW1 3608   6.384   4.630   0.450
  903SOL    HW2 3609   6.453   4.515   0.357
  904SOL     OW 3610   1.639   1.707   3.870
  904SOL    HW1 3611   1.677   1.787   3.823
  904SOL    HW2 3612   1.595   1.736   3.955
  905SOL     OW 3613   5.150   2.349   0.294
  905SOL    HW1 3614   5.199   2.428   0.331
  905SOL    HW2 3615   5.123   2.289   0.369
  906SOL     OW 3616   0.233   4.356   6.914
  906SOL    HW1 3617   0.297   4.308   6.974
  906SOL    HW2 3618   0.175   4.290   6.866
  907SOL     OW 3619   5.981   2.164   3.014
  907SOL    HW1 3620   6.040   2.126   3.086
  907SOL    HW2 3621   5.889   2.126   3.023
  908SOL     OW 3622   1.017   6.799   4.224
  908SOL    HW1 3623   1.018   6.898   4.237
  908SOL    HW2 3624   1.096   6.758   4.269
  909SOL     OW 3625   2.734   1.090   0.486
  909SOL    HW1 3626   2.696   1.054   0.401
  909SOL    HW2 3627   2.761   1.013   0.545
  910SOL     OW 3628   2.074   0.374   0.739
  910SOL    HW1 3629   2.117   0.461   0.713
  910SOL    HW2 3630   1.980   0.392   0.771
  911SOL     OW 3631   0.243   5.064   1.447
  911SOL    HW1 3632   0.281   4.971   1.446
  911SOL    HW2 3633   0.237   5.096   1.542
  912SOL     OW 3634   0.722   1.331   5.700
  912SOL    HW1 3635   0.717   1.357   5.797
  912SOL    HW2 3636   0.671   1.397   5.645
  913SOL     OW 3637   1.720   0.551   3.502
  913SOL    HW1 3638   1.681   0.556   3.409
  913SOL    HW2 3639   1.693   0.633   3.553
  914SOL     OW 3640   2.293   5.640   4.718
  914SOL    HW1 3641   2.367   5.707   4.716
  914SOL    HW2 3642   2.233   5.654   4.639
  915SOL     OW 3643   0.690   3.412   0.616
  915SOL    HW1 3644   0.686   3.467   0.533
  915SOL    HW2 3645   0.785   3.388   0.635
  916SOL     OW 3646   2.116   2.083   2.132
  916SOL    HW1 3647   2.166   1.997   2.141
  916SOL    HW2 3648   2.061   2.099   2.214
  917SOL     OW 3649   3.791   0.839   1.518
  917SOL    HW1 3650   3.879   0.842   1.565
  917SOL    HW2 3651   3.782   0.750   1.472
  918SOL     OW 3652   3.210   6.134   6.484
  918SOL    HW1 3653   3.270   6.159   6.560
  918SOL    HW2 3654   3.240   6.047   6.445
  919SOL     OW 3655   1.468   6.587   1.910
  919SOL    HW1 3656   1.460   6.686   1.898
  919SOL    HW2 3657   1.390   6.542   1.866
  920SOL     OW 3658   2.401   0.594   2.872
  920SOL    HW1 3659   2.494   0.571   2.844
  920SOL    HW2 3660   2.401   0.685   2.914
  921SOL     OW 3661   6.048   4.516   4.100
  921SOL    HW1 3662   6.134   4.560   4.072
  921SOL    HW2 3663   6.061   4.470   4.188
  922SOL     OW 3664   3.595   3.773   6.859
  922SOL    HW1 3665   3.676   3.713   6.861
  922SOL    HW2 3666   3.622   3.866   6.883
  923SOL     OW 3667   2.743   5.707   0.335
  923SOL    HW1 3668   2.742   5.668   0.243
  923SOL    HW2 3669   2.806   5.656   0.393
  924SOL     OW 3670   5.426   2.858   2.399
  924SOL    HW1 3671   5.461   2.767   2.420
  924SOL    HW2 3672   5.456   2.922   2.471
  925SOL     OW 3673   6.567   1.790   6.056
  925SOL    HW1 3674   6.664   1.766   6.059
  925SOL    HW2 3675   6.544   1.845   6.136
  926SOL     OW 3676   5.623   0.026   0.729
  926SOL    HW1 3677   5.543   7.000   0.760
  926SOL    HW2 3678   5.636   0.011   0.631
  927SOL     OW 3679   4.788   3.976   3.579
  927SOL    HW1 3680   4.725   4.023   3.518
  927SOL    HW2 3681   4.877   3.968   3.535
  928SOL     OW 3682   1.558   0.042   0.798
  928SOL    HW1 3683   1.596   7.005   0.865
  928SOL    HW2 3684   1.633   0.083   0.746
  929SOL     OW 3685   0.251   3.034   2.043
  929SOL    HW1 3686   0.186   3.101   2.079
  929SOL    HW2 3687   0.201   2.961   1.996
  930SOL     OW 3688   6.021   4.866   4.168
  930SOL    HW1 3689   6.087   4.916   4.111
  930SOL    HW2 3690   5.929   4.878   4.131
  931SOL     OW 3691   0.200   3.130   3.400
  931SOL    HW1 3692   0.140   3.058   3.367
  931SOL    HW2 3693   0.287   3.127   3.351
  932SOL     OW 3694   3.581   6.313   2.174
  932SOL    HW1 3695   3.549   6.341   2.265
  932SOL    HW2 3696   3.600   6.215   2.175
  933SOL     OW 3697   1.021   4.326   3.220
  933SOL    HW1 3698   0.994   4.376   3.137
  933SOL    HW2 3699   0.944   4.271   3.253
  934SOL     OW 3700   2.549   1.304   4.780
  934SOL    HW1 3701   2.476   1.253   4.824
  934SOL    HW2 3702   2.611   1.241   4.733
  935SOL     OW 3703   4.810   3.918   6.343
  935SOL    HW1 3704   4.748   3.858   6.292
  935SOL    HW2 3705   4.775   4.011   6.342
  936SOL     OW 3706   0.411   6.618   1.116
  936SOL    HW1 3707   0.442   6.652   1.205
  936SOL    HW2 3708   0.399   6.696   1.054
  937SOL     OW 3709   5.150   1.637   4.457
  937SOL    HW1 3710   5.221   1.584   4.410
  937SOL    HW2 3711   5.068   1.641   4.399
  938SOL     OW 3712   0.589   4.285   6.604
  938SOL    HW1 3713   0.630   4.359   6.657
  938SOL    HW2 3714   0.661   4.228   6.565
  939SOL     OW 3715   5.088   1.304   6.349
  939SOL    HW1 3716   5.101   1.325   6.446
  939SOL    HW2 3717   5.071   1.206   6.338
  940SOL     OW 3718   0.242   1.581   2.649
  940SOL    HW1 3719   0.186   1.592   2.731
  940SOL    HW2 3720   0.258   1.484   2.632
  941SOL     OW 3721   5.731   1.376   3.928
  941SOL    HW1 3722   5.810   1.327   3.890
  941SOL    HW2 3723   5.706   1.451   3.867
  942SOL     OW 3724   4.919   0.096   5.028
  942SOL    HW1 3725   4.966   0.074   5.113
  942SOL    HW2 3726   4.820   0.092   5.043
  943SOL     OW 3727   0.115   3.487   2.413
  943SOL    HW1 3728   0.044   3.463   2.347
  943SOL    HW2 3729   0.204   3.457   2.378
  944SOL     OW 3730   6.373   3.444   4.754
  944SOL    HW1 3731   6.439   3.380   4.713
  944SOL    HW2 3732   6.316   3.483   4.682
  945SOL     OW 3733   4.705   4.654   4.137
  945SOL    HW1 3734   4.743   4.600   4.062
  945SOL    HW2 3735   4.733   4.613   4.224
  946SOL     OW 3736   6.250   2.700   6.416
  946SOL    HW1 3737   6.158   2.693   6.378
  946SOL    HW2 3738   6.259   2.638   6.494
  947SOL     OW 3739   3.294   3.626   6.149
  947SOL    HW1 3740   3.305   3.701   6.214
  947SOL    HW2 3741   3.378   3.572   6.147
  948SOL     OW 3742   3.769   0.976   0.148
  948SOL    HW1 3743   3.771   1.073   0.123
  948SOL    HW2 3744   3.691   0.932   0.104
  949SOL     OW 3745   6.707   5.784   6.080
  949SOL    HW1 3746   6.780   5.761   6.016
  949SOL    HW2 3747   6.678   5.878   6.066
  950SOL     OW 3748   4.007   5.033   2.376
  950SOL    HW1 3749   3.994   5.126   2.343
  950SOL    HW2 3750   4.104   5.018   2.397
  951SOL     OW 3751   0.568   0.393   1.937
  951SOL    HW1 3752   0.564   0.373   2.035
  951SOL    HW2 3753   0.662   0.384   1.905
  952SOL     OW 3754   5.418   1.976   2.551
  952SOL    HW1 3755   5.480   1.899   2.568
  952SOL    HW2 3756   5.331   1.941   2.518
  953SOL     OW 3757   4.589   5.998   5.594
  953SOL    HW1 3758   4.649   6.035   5.664
  953SOL    HW2 3759   4.533   5.925   5.633
  954SOL     OW 3760   5.946   0.125   1.392
  954SOL    HW1 3761   5.860   0.141   1.343
  954SOL    HW2 3762   5.927   0.109   1.489
  955SOL     OW 3763   0.778   4.934   3.939
  955SOL    HW1 3764   0.687   4.958   3.906
  955SOL    HW2 3765   0.782   4.945   4.039
  956SOL     OW 3766   1.019   1.544   1.096
  956SOL    HW1 3767   1.095   1.590   1.141
  956SOL    HW2 3768   0.987   1.599   1.018
  957SOL     OW 3769   1.525   5.043   5.614
  957SOL    HW1 3770   1.434   5.011   5.590
  957SOL    HW2 3771   1.557   5.107   5.544
  958SOL     OW 3772   5.223   2.003   0.748
  958SOL    HW1 3773   5.254   1.985   0.654
  958SOL    HW2 3774   5.160   1.931   0.777
  959SOL     OW 3775   2.605   4.706   2.987
  959SOL    HW1 3776   2.538   4.631   2.991
  959SOL    HW2 3777   2.642   4.722   3.078
  960SOL     OW 3778   1.137   6.080   4.245
  960SOL    HW1 3779   1.149   5.983   4.225
  960SOL    HW2 3780   1.223   6.117   4.282
  961SOL     OW 3781   4.110   6.892   2.284
  961SOL    HW1 3782   4.189   6.927   2.334
  961SOL    HW2 3783   4.027   6.939   2.315
  962SOL     OW 3784   1.464   1.122   3.702
  962SOL    HW1 3785   1.537   1.062   3.734
  962SOL    HW2 3786   1.445   1.103   3.606
  963SOL     OW 3787   6.190   0.347   0.678
  963SOL    HW1 3788   6.090   0.346   0.670
  963SOL    HW2 3789   6.216   0.327   0.772
  964SOL     OW 3790   5.440   3.089   0.883
  964SOL    HW1 3791   5.388   3.175   0.884
  964SOL    HW2 3792   5.403   3.027   0.952
  965SOL     OW 3793   6.087   1.797   0.971
  965SOL    HW1 3794   6.064   1.831   0.879
  965SOL    HW2 3795   6.003   1.767   1.017
  966SOL     OW 3796   6.207   1.398   2.786
  966SOL    HW1 3797   6.118   1.444   2.782
  966SOL    HW2 3798   6.278   1.466   2.805
  967SOL     OW 3799   1.556   5.659   0.868
  967SOL    HW1 3800   1.618   5.712   0.925
  967SOL    HW2 3801   1.507   5.719   0.805
  968SOL     OW 3802   4.899   2.554   2.421
  968SOL    HW1 3803   4.894   2.526   2.325
  968SOL    HW2 3804   4.816   2.603   2.446
  969SOL     OW 3805   3.350   5.927   5.561
  969SOL    HW1 3806   3.380   5.832   5.553
  969SOL    HW2 3807   3.371   5.976   5.476
  970SOL     OW 3808   4.410   1.723   5.335
  970SOL    HW1 3809   4.426   1.744   5.431
  970SOL    HW2 3810   4.402   1.624   5.324
  971SOL     OW 3811   7.020   0.974   2.452
  971SOL    HW1 3812   0.036   0.893   2.493
  971SOL    HW2 3813   6.928   0.987   2.490
  972SOL     OW 3814   5.946   4.609   0.971
  972SOL    HW1 3815   5.877   4.617   0.899
  972SOL    HW2 3816   5.949   4.694   1.024
  973SOL     OW 3817   0.685   4.827   6.590
  973SOL    HW1 3818   0.599   4.796   6.630
  973SOL    HW2 3819   0.698   4.924   6.610
  974SOL     OW 3820   3.427   0.907   2.475
  974SOL    HW1 3821   3.463   0.881   2.564
  974SOL    HW2 3822   3.371   0.990   2.484
  975SOL     OW 3823   3.169   6.292   6.274
  975SOL    HW1 3824   3.188   6.235   6.354
  975SOL    HW2 3825   3.173   6.388   6.301
  976SOL     OW 3826   6.793   2.882   2.291
  976SOL    HW1 3827   6.709   2.884   2.236
  976SOL    HW2 3828   6.798   2.795   2.340
  977SOL     OW 3829   1.862   1.063   4.050
  977SOL    HW1 3830   1.800   1.059   3.972
  977SOL    HW2 3831   1.811   1.048   4.135
  978SOL     OW 3832   5.181   3.893   4.724
  978SOL    HW1 3833   5.211   3.988   4.714
  978SOL    HW2 3834   5.104   3.889   4.788
  979SOL     OW 3835   6.202   1.344   3.595
  979SOL    HW1 3836   6.224   1.435   3.630
  979SOL    HW2 3837   6.167   1.352   3.502
  980SOL     OW 3838   5.197   2.444   3.708
  980SOL    HW1 3839   5.245   2.480   3.788
  980SOL    HW2 3840   5.231   2.490   3.626
  981SOL     OW 3841   1.436   1.835   4.883
  981SOL    HW1 3842   1.411   1.817   4.788
  981SOL    HW2 3843   1.497   1.914   4.887
  982SOL     OW 3844   2.005   2.680   2.534
  982SOL    HW1 3845   2.101   2.682   2.506
  982SOL    HW2 3846   1.954   2.752   2.486
  983SOL     OW 3847   5.905   2.618   3.608
  983SOL    HW1 3848   5.903   2.518   3.612
  983SOL    HW2 3849   5.826   2.651   3.557
  984SOL     OW 3850   4.149   0.340   4.779
  984SOL    HW1 3851   4.178   0.430   4.811
  984SOL    HW2 3852   4.111   0.288   4.855
  985SOL     OW 3853   4.584   5.033   6.972
  985SOL    HW1 3854   4.676   5.006   7.000
  985SOL    HW2 3855   4.519   4.961   6.998
  986SOL     OW 3856   5.579   5.756   6.668
  986SOL    HW1 3857   5.571   5.719   6.761
  986SOL    HW2 3858   5.526   5.699   6.605
  987SOL     OW 3859   3.670   6.526   1.449
  987SOL    HW1 3860   3.768   6.528   1.467
  987SOL    HW2 3861   3.623   6.476   1.521
  988SOL     OW 3862   4.276   2.257   1.145
  988SOL    HW1 3863   4.223   2.178   1.176
  988SOL    HW2 3864   4.372   2.230   1.134
  989SOL     OW 3865   0.692   0.799   5.669
  989SOL    HW1 3866   0.718   0.720   5.724
  989SOL    HW2 3867   0.634   0.770   5.593
  990SOL     OW 3868   5.310   6.697   3.727
  990SOL    HW1 3869   5.256   6.661   3.651
  990SOL    HW2 3870   5.263   6.775   3.768
  991SOL     OW 3871   1.917   1.888   4.745
  991SOL    HW1 3872   1.993   1.847   4.694
  991SOL    HW2 3873   1.835   1.833   4.732
  992SOL     OW 3874   0.566   3.124   0.014
  992SOL    HW1 3875   0.491   3.141   6.977
  992SOL    HW2 3876   0.650   3.107   6.987
  993SOL     OW 3877   2.219   5.646   2.651
  993SOL    HW1 3878   2.207   5.743   2.630
  993SOL    HW2 3879   2.270   5.602   2.577
  994SOL     OW 3880   3.552   3.669   2.749
  994SOL    HW1 3881   3.648   3.648   2.729
  994SOL    HW2 3882   3.547   3.743   2.817
  995SOL     OW 3883   2.269   2.475   6.083
  995SOL    HW1 3884   2.245   2.566   6.051
  995SOL    HW2 3885   2.368   2.462   6.076
  996SOL     OW 3886   1.684   3.819   4.005
  996SOL    HW1 3887   1.634   3.797   3.922
  996SOL    HW2 3888   1.719   3.913   3.999
  997SOL     OW 3889   6.978   0.036   1.724
  997SOL    HW1 3890   6.985   0.132   1.696
  997SOL    HW2 3891   6.911   7.016   1.667
  998SOL     OW 3892   4.758   6.895   3.236
  998SOL    HW1 3893   4.693   6.935   3.172
  998SOL    HW2 3894   4.848   6.936   3.222
  999SOL     OW 3895   5.349   5.822   1.452
  999SOL    HW1 3896   5.270   5.879   1.428
  999SOL    HW2 3897   5.369   5.833   1.549
 1000SOL     OW 3898   0.804   1.660   2.432
 1000SOL    HW1 3899   0.882   1.721   2.445
 1000SOL    HW2 3900   0.828   1.568   2.464
 1001SOL     OW 3901   4.152   6.653   6.575
 1001SOL    HW1 3902   4.076   6.706   6.538
 1001SOL    HW2 3903   4.231   6.713   6.588
 1002SOL     OW 3904   5.588   1.617   6.637
 1002SOL    HW1 3905   5.573   1.706   6.681
 1002SOL    HW2 3906   5.542   1.615   6.548
 1003SOL     OW 3907   2.670   0.213   1.866
 1003SOL    HW1 3908   2.611   0.188   1.943
 1003SOL    HW2 3909   2.623   0.281   1.810
 1004SOL     OW 3910   6.980   0.587   0.292
 1004SOL    HW1 3911   6.887   0.559   0.314
 1004SOL    HW2 3912   0.016   0.556   0.365
 1005SOL     OW 3913   6.806   0.832   3.295
 1005SOL    HW1 3914   6.754   0.801   3.216
 1005SOL    HW2 3915   6.810   0.932   3.294
 1006SOL     OW 3916   2.336   6.045   1.262
 1006SOL    HW1 3917   2.267   6.105   1.223
 1006SOL    HW2 3918   2.331   6.048   1.362
 1007SOL     OW 3919   5.887   6.774   3.618
 1007SOL    HW1 3920   5.980   6.795   3.648
 1007SOL    HW2 3921   5.840   6.859   3.592
 1008SOL     OW 3922   1.423   2.916   4.349
 1008SOL    HW1 3923   1.458   2.993   4.402
 1008SOL    HW2 3924   1.456   2.923   4.254
 1009SOL     OW 3925   6.848   5.256   3.762
 1009SOL    HW1 3926   6.774   5.315   3.730
 1009SOL    HW2 3927   6.835   5.164   3.726
 1010SOL     OW 3928   4.371   2.412   0.110
 1010SOL    HW1 3929   4.436   2.483   0.083
 1010SOL    HW2 3930   4.414   2.351   0.177
 1011SOL     OW 3931   3.169   5.085   2.965
 1011SOL    HW1 3932   3.131   4.994   2.980
 1011SOL    HW2 3933   3.212   5.118   3.049
 1012SOL     OW 3934   6.355   5.324   0.375
 1012SOL    HW1 3935   6.261   5.293   0.360
 1012SOL    HW2 3936   6.355   5.414   0.418
 1013SOL     OW 3937   0.287   1.630   6.705
 1013SOL    HW1 3938   0.243   1.653   6.618
 1013SOL    HW2 3939   0.236   1.557   6.750
 1014SOL     OW 3940   5.466   5.534   6.520
 1014SOL    HW1 3941   5.397   5.463   6.534
 1014SOL    HW2 3942   5.556   5.492   6.516
 1015SOL     OW 3943   3.786   6.657   4.846
 1015SOL    HW1 3944   3.762   6.658   4.943
 1015SOL    HW2 3945   3.739   6.580   4.802
 1016SOL     OW 3946   2.218   3.002   0.895
 1016SOL    HW1 3947   2.196   3.076   0.959
 1016SOL    HW2 3948   2.215   3.038   0.802
 1017SOL     OW 3949   4.586   2.443   0.502
 1017SOL    HW1 3950   4.517   2.514   0.518
 1017SOL    HW2 3951   4.548   2.374   0.440
 1018SOL     OW 3952   1.827   3.589   3.936
 1018SOL    HW1 3953   1.814   3.685   3.958
 1018SOL    HW2 3954   1.919   3.575   3.899
 1019SOL     OW 3955   0.563   0.908   0.338
 1019SOL    HW1 3956   0.571   0.908   0.238
 1019SOL    HW2 3957   0.605   0.825   0.375
 1020SOL     OW 3958   1.064   6.816   1.085
 1020SOL    HW1 3959   1.078   6.731   1.034
 1020SOL    HW2 3960   1.153   6.853   1.112
 1021SOL     OW 3961   5.863   1.227   1.212
 1021SOL    HW1 3962   5.909   1.162   1.273
 1021SOL    HW2 3963   5.773   1.250   1.249
 1022SOL     OW 3964   4.342   5.072   6.105
 1022SOL    HW1 3965   4.287   5.009   6.160
 1022SOL    HW2 3966   4.438   5.064   6.131
 1023SOL     OW 3967   7.015   0.208   3.008
 1023SOL    HW1 3968   0.045   0.255   3.076
 1023SOL    HW2 3969   6.918   0.221   3.031
 1024SOL     OW 3970   6.641   2.686   4.399
 1024SOL    HW1 3971   6.550   2.724   4.384
 1024SOL    HW2 3972   6.684   2.668   4.310
 1025SOL     OW 3973   3.722   4.709   0.177
 1025SOL    HW1 3974   3.764   4.623   0.148
 1025SOL    HW2 3975   3.787   4.758   0.236
 1026SOL     OW 3976   1.281   1.104   0.683
 1026SOL    HW1 3977   1.333   1.060   0.756
 1026SOL    HW2 3978   1.322   1.192   0.661
 1027SOL     OW 3979   2.984   5.743   1.772
 1027SOL    HW1 3980   2.962   5.730   1.869
 1027SOL    HW2 3981   3.083   5.738   1.760
 1028SOL     OW 3982   2.976   6.190   0.223
 1028SOL    HW1 3983   3.002   6.251   0.298
 1028SOL    HW2 3984   2.917   6.240   0.158
 1029SOL     OW 3985   2.127   0.949   0.187
 1029SOL    HW1 3986   2.081   0.860   0.183
 1029SOL    HW2 3987   2.063   1.019   0.216
 1030SOL     OW 3988   3.675   2.888   3.252
 1030SOL    HW1 3989   3.767   2.902   3.287
 1030SOL    HW2 3990   3.611   2.879   3.329
 1031SOL     OW 3991   4.537   5.405   1.204
 1031SOL    HW1 3992   4.515   5.423   1.109
 1031SOL    HW2 3993   4.512   5.311   1.227
 1032SOL     OW 3994   1.970   1.461   5.180
 1032SOL    HW1 3995   1.935   1.552   5.160
 1032SOL    HW2 3996   1.923   1.423   5.260
 1033SOL     OW 3997   1.678   6.832   1.537
 1033SOL    HW1 3998   1.654   6.764   1.468
 1033SOL    HW2 3999   1.724   6.909   1.493
 1034SOL     OW 4000   2.097   6.406   4.634
 1034SOL    HW1 4001   2.121   6.492   4.588
 1034SOL    HW2 4002   2.076   6.424   4.730
 1035SOL     OW 4003   2.661   1.756   3.404
 1035SOL    HW1 4004   2.730   1.684   3.402
 1035SOL    HW2 4005   2.625   1.771   3.312
 1036SOL     OW 4006   3.553   0.294   0.986
 1036SOL    HW1 4007   3.493   0.244   1.048
 1036SOL    HW2 4008   3.649   0.271   1.005
 1037SOL     OW 4009   1.169   1.126   1.317
 1037SOL    HW1 4010   1.078   1.164   1.305
 1037SOL    HW2 4011   1.171   1.070   1.400
 1038SOL     OW 4012   0.698   1.243   5.365
 1038SOL    HW1 4013   0.743   1.304   5.300
 1038SOL    HW2 4014   0.741   1.253   5.455
 1039SOL     OW 4015   4.465   1.754   5.599
 1039SOL    HW1 4016   4.563   1.745   5.615
 1039SOL    HW2 4017   4.434   1.843   5.634
 1040SOL     OW 4018   5.485   2.991   3.336
 1040SOL    HW1 4019   5.533   2.977   3.250
 1040SOL    HW2 4020   5.490   3.088   3.362
 1041SOL     OW 4021   6.753   0.354   4.351
 1041SOL    HW1 4022   6.686   0.429   4.356
 1041SOL    HW2 4023   6.705   0.266   4.354
 1042SOL     OW 4024   3.819   5.073   2.601
 1042SOL    HW1 4025   3.726   5.036   2.605
 1042SOL    HW2 4026   3.846   5.087   2.506
 1043SOL     OW 4027   4.262   1.047   6.345
 1043SOL    HW1 4028   4.306   1.042   6.255
 1043SOL    HW2 4029   4.249   0.955   6.382
 1044SOL     OW 4030   4.384   2.747   1.654
 1044SOL    HW1 4031   4.434   2.720   1.737
 1044SOL    HW2 4032   4.333   2.831   1.671
 1045SOL     OW 4033   3.154   0.276   1.814
 1045SOL    HW1 4034   3.231   0.328   1.851
 1045SOL    HW2 4035   3.071   0.332   1.819
 1046SOL     OW 4036   2.756   6.937   6.079
 1046SOL    HW1 4037   2.818   6.895   6.145
 1046SOL    HW2 4038   2.677   6.877   6.064
 1047SOL     OW 4039   1.616   5.342   2.765
 1047SOL    HW1 4040   1.586   5.264   2.710
 1047SOL    HW2 4041   1.597   5.427   2.716
 1048SOL     OW 4042   4.960   5.475   5.248
 1048SOL    HW1 4043   5.034   5.539   5.229
 1048SOL    HW2 4044   4.881   5.524   5.286
 1049SOL     OW 4045   0.603   4.068   4.879
 1049SOL    HW1 4046   0.679   4.035   4.934
 1049SOL    HW2 4047   0.614   4.037   4.784
 1050SOL     OW 4048   3.111   5.239   0.853
 1050SOL    HW1 4049   3.039   5.174   0.874
 1050SOL    HW2 4050   3.079   5.332   0.869
 1051SOL     OW 4051   4.079   4.433   0.453
 1051SOL    HW1 4052   4.019   4.507   0.486
 1051SOL    HW2 4053   4.127   4.463   0.371
 1052SOL     OW 4054   4.409   0.871   3.952
 1052SOL    HW1 4055   4.329   0.857   3.894
 1052SOL    HW2 4056   4.457   0.783   3.963
 1053SOL     OW 4057   6.063   5.730   3.420
 1053SOL    HW1 4058   6.122   5.681   3.356
 1053SOL    HW2 4059   6.081   5.828   3.413
 1054SOL     OW 4060   2.544   4.925   5.929
 1054SOL    HW1 4061   2.523   4.848   5.988
 1054SOL    HW2 4062   2.508   4.908   5.837
 1055SOL     OW 4063   5.562   5.819   4.806
 1055SOL    HW1 4064   5.562   5.734   4.860
 1055SOL    HW2 4065   5.482   5.819   4.745
 1056SOL     OW 4066   1.521   6.348   5.485
 1056SOL    HW1 4067   1.606   6.359   5.434
 1056SOL    HW2 4068   1.532   6.387   5.577
 1057SOL     OW 4069   3.075   3.882   3.037
 1057SOL    HW1 4070   3.160   3.915   2.998
 1057SOL    HW2 4071   3.094   3.829   3.119
 1058SOL     OW 4072   4.736   1.048   2.480
 1058SOL    HW1 4073   4.795   1.128   2.485
 1058SOL    HW2 4074   4.647   1.074   2.443
 1059SOL     OW 4075   3.442   0.798   1.818
 1059SOL    HW1 4076   3.445   0.709   1.773
 1059SOL    HW2 4077   3.351   0.839   1.805
 1060SOL     OW 4078   6.936   3.754   5.733
 1060SOL    HW1 4079   7.006   3.764   5.804
 1060SOL    HW2 4080   6.978   3.716   5.651
 1061SOL     OW 4081   4.220   4.489   0.773
 1061SOL    HW1 4082   4.189   4.568   0.826
 1061SOL    HW2 4083   4.141   4.431   0.750
 1062SOL     OW 4084   7.009   5.994   5.759
 1062SOL    HW1 4085   6.961   5.915   5.797
 1062SOL    HW2 4086   6.970   6.017   5.670
 1063SOL     OW 4087   1.319   4.216   0.645
 1063SOL    HW1 4088   1.399   4.270   0.618
 1063SOL    HW2 4089   1.281   4.171   0.564
 1064SOL     OW 4090   1.128   4.005   2.468
 1064SOL    HW1 4091   1.164   3.913   2.455
 1064SOL    HW2 4092   1.035   4.011   2.434
 1065SOL     OW 4093   4.383   0.770   4.501
 1065SOL    HW1 4094   4.375   0.820   4.588
 1065SOL    HW2 4095   4.457   0.704   4.508
 1066SOL     OW 4096   5.096   0.531   4.160
 1066SOL    HW1 4097   5.039   0.449   4.159
 1066SOL    HW2 4098   5.087   0.578   4.072
 1067SOL     OW 4099   1.223   2.945   0.736
 1067SOL    HW1 4100   1.235   2.945   0.835
 1067SOL    HW2 4101   1.130   2.917   0.713
 1068SOL     OW 4102   6.247   3.490   1.563
 1068SOL    HW1 4103   6.180   3.443   1.506
 1068SOL    HW2 4104   6.224   3.476   1.660
 1069SOL     OW 4105   4.588   4.779   1.020
 1069SOL    HW1 4106   4.539   4.747   0.939
 1069SOL    HW2 4107   4.560   4.725   1.100
 1070SOL     OW 4108   1.709   0.860   6.506
 1070SOL    HW1 4109   1.625   0.911   6.527
 1070SOL    HW2 4110   1.780   0.923   6.477
 1071SOL     OW 4111   3.707   0.502   3.486
 1071SOL    HW1 4112   3.793   0.552   3.477
 1071SOL    HW2 4113   3.630   0.567   3.485
 1072SOL     OW 4114   2.145   6.362   2.310
 1072SOL    HW1 4115   2.130   6.439   2.372
 1072SOL    HW2 4116   2.062   6.345   2.258
 1073SOL     OW 4117   3.284   5.930   2.380
 1073SOL    HW1 4118   3.196   5.964   2.350
 1073SOL    HW2 4119   3.277   5.832   2.402
 1074SOL     OW 4120   2.154   5.872   1.697
 1074SOL    HW1 4121   2.132   5.780   1.730
 1074SOL    HW2 4122   2.167   5.933   1.775
 1075SOL     OW 4123   5.018   4.986   3.324
 1075SOL    HW1 4124   5.097   4.927   3.308
 1075SOL    HW2 4125   4.973   5.007   3.237
 1076SOL     OW 4126   0.530   4.467   5.086
 1076SOL    HW1 4127   0.627   4.446   5.071
 1076SOL    HW2 4128   0.508   4.555   5.046
 1077SOL     OW 4129   5.910   6.940   0.139
 1077SOL    HW1 4130   5.896   6.843   0.156
 1077SOL    HW2 4131   5.860   6.994   0.207
 1078SOL     OW 4132   1.636   1.203   2.178
 1078SOL    HW1 4133   1.714   1.162   2.130
 1078SOL    HW2 4134   1.627   1.299   2.150
 1079SOL     OW 4135   2.226   4.917   3.633
 1079SOL    HW1 4136   2.136   4.890   3.666
 1079SOL    HW2 4137   2.274   4.838   3.596
 1080SOL     OW 4138   2.019   4.748   3.309
 1080SOL    HW1 4139   1.939   4.687   3.314
 1080SOL    HW2 4140   2.042   4.780   3.400
 1081SOL     OW 4141   0.332   1.841   5.344
 1081SOL    HW1 4142   0.309   1.791   5.427
 1081SOL    HW2 4143   0.255   1.839   5.280
 1082SOL     OW 4144   1.772   0.303   5.587
 1082SOL    HW1 4145   1.732   0.356   5.512
 1082SOL    HW2 4146   1.726   0.326   5.673
 1083SOL     OW 4147   4.004   3.758   2.150
 1083SOL    HW1 4148   4.051   3.749   2.063
 1083SOL    HW2 4149   4.024   3.679   2.208
 1084SOL     OW 4150   6.654   5.618   0.930
 1084SOL    HW1 4151   6.584   5.587   0.864
 1084SOL    HW2 4152   6.651   5.717   0.937
 1085SOL     OW 4153   1.716   4.220   4.002
 1085SOL    HW1 4154   1.637   4.275   3.976
 1085SOL    HW2 4155   1.796   4.280   4.013
 1086SOL     OW 4156   6.307   5.603   3.247
 1086SOL    HW1 4157   6.364   5.610   3.165
 1086SOL    HW2 4158   6.271   5.510   3.254
 1087SOL     OW 4159   4.851   2.841   5.708
 1087SOL    HW1 4160   4.802   2.887   5.783
 1087SOL    HW2 4161   4.823   2.881   5.621
 1088SOL     OW 4162   5.759   4.383   3.350
 1088SOL    HW1 4163   5.707   4.312   3.304
 1088SOL    HW2 4164   5.846   4.346   3.381
 1089SOL     OW 4165   0.609   0.749   4.379
 1089SOL    HW1 4166   0.559   0.757   4.465
 1089SOL    HW2 4167   0.663   0.664   4.380
 1090SOL     OW 4168   2.905   1.126   4.569
 1090SOL    HW1 4169   2.825   1.162   4.523
 1090SOL    HW2 4170   2.964   1.078   4.503
 1091SOL     OW 4171   1.849   1.860   3.661
 1091SOL    HW1 4172   1.931   1.808   3.687
 1091SOL    HW2 4173   1.863   1.956   3.684
 1092SOL     OW 4174   2.304   3.902   1.695
 1092SOL    HW1 4175   2.312   3.924   1.598
 1092SOL    HW2 4176   2.250   3.819   1.706
 1093SOL     OW 4177   1.658   1.492   2.636
 1093SOL    HW1 4178   1.661   1.569   2.698
 1093SOL    HW2 4179   1.750   1.456   2.622
 1094SOL     OW 4180   0.096   6.412   2.314
 1094SOL    HW1 4181   7.024   6.423   2.329
 1094SOL    HW2 4182   0.124   6.458   2.230
 1095SOL     OW 4183   6.055   2.190   6.341
 1095SOL    HW1 4184   6.086   2.285   6.334
 1095SOL    HW2 4185   6.016   2.161   6.254
 1096SOL     OW 4186   3.830   5.167   1.580
 1096SOL    HW1 4187   3.898   5.134   1.646
 1096SOL    HW2 4188   3.825   5.102   1.503
 1097SOL     OW 4189   1.317   4.863   4.954
 1097SOL    HW1 4190   1.292   4.954   4.986
 1097SOL    HW2 4191   1.398   4.831   5.003
 1098SOL     OW 4192   5.117   2.333   0.986
 1098SOL    HW1 4193   5.101   2.282   0.902
 1098SOL    HW2 4194   5.156   2.422   0.964
 1099SOL     OW 4195   4.253   1.611   4.922
 1099SOL    HW1 4196   4.265   1.619   4.823
 1099SOL    HW2 4197   4.156   1.623   4.944
 1100SOL     OW 4198   0.692   1.737   6.384
 1100SOL    HW1 4199   0.643   1.700   6.462
 1100SOL    HW2 4200   0.693   1.837   6.389
 1101SOL     OW 4201   5.506   3.293   1.502
 1101SOL    HW1 4202   5.480   3.250   1.589
 1101SOL    HW2 4203   5.492   3.228   1.428
 1102SOL     OW 4204   0.952   4.648   3.974
 1102SOL    HW1 4205   0.887   4.595   3.921
 1102SOL    HW2 4206   0.905   4.695   4.049
 1103SOL     OW 4207   2.176   1.364   1.584
 1103SOL    HW1 4208   2.201   1.372   1.488
 1103SOL    HW2 4209   2.180   1.454   1.627
 1104SOL     OW 4210   1.877   4.452   6.204
 1104SOL    HW1 4211   1.975   4.471   6.197
 1104SOL    HW2 4212   1.840   4.436   6.113
 1105SOL     OW 4213   4.688   4.091   6.632
 1105SOL    HW1 4214   4.672   4.117   6.537
 1105SOL    HW2 4215   4.633   4.149   6.692
 1106SOL     OW 4216   1.090   1.984   6.298
 1106SOL    HW1 4217   1.124   2.016   6.386
 1106SOL    HW2 4218   1.144   2.025   6.224
 1107SOL     OW 4219   0.839   0.254   6.575
 1107SOL    HW1 4220   0.796   0.248   6.665
 1107SOL    HW2 4221   0.839   0.349   6.544
 1108SOL     OW 4222   2.428   0.907   5.325
 1108SOL    HW1 4223   2.453   0.819   5.283
 1108SOL    HW2 4224   2.405   0.973   5.253
 1109SOL     OW 4225   3.840   5.634   4.527
 1109SOL    HW1 4226   3.812   5.581   4.448
 1109SOL    HW2 4227   3.789   5.720   4.529
 1110SOL     OW 4228   3.099   2.027   1.690
 1110SOL    HW1 4229   3.048   2.052   1.608
 1110SOL    HW2 4230   3.196   2.045   1.676
 1111SOL     OW 4231   5.403   6.350   6.874
 1111SOL    HW1 4232   5.481   6.405   6.845
 1111SOL    HW2 4233   5.434   6.276   6.933
 1112SOL     OW 4234   6.110   1.045   3.073
 1112SOL    HW1 4235   6.062   0.994   3.145
 1112SOL    HW2 4236   6.066   1.028   2.985
 1113SOL     OW 4237   5.929   3.289   2.267
 1113SOL    HW1 4238   5.955   3.305   2.172
 1113SOL    HW2 4239   5.833   3.314   2.280
 1114SOL     OW 4240   4.758   0.637   6.268
 1114SOL    HW1 4241   4.833   0.599   6.214
 1114SOL    HW2 4242   4.670   0.606   6.231
 1115SOL     OW 4243   4.191   2.551   0.387
 1115SOL    HW1 4244   4.179   2.650   0.383
 1115SOL    HW2 4245   4.193   2.515   0.294
 1116SOL     OW 4246   5.610   5.247   4.046
 1116SOL    HW1 4247   5.661   5.224   4.130
 1116SOL    HW2 4248   5.674   5.271   3.974
 1117SOL     OW 4249   2.768   3.031   1.454
 1117SOL    HW1 4250   2.707   3.092   1.403
 1117SOL    HW2 4251   2.734   3.019   1.547
 1118SOL     OW 4252   0.784   4.806   2.698
 1118SOL    HW1 4253   0.721   4.823   2.774
 1118SOL    HW2 4254   0.860   4.749   2.730
 1119SOL     OW 4255   3.708   4.127   1.776
 1119SOL    HW1 4256   3.691   4.143   1.873
 1119SOL    HW2 4257   3.632   4.165   1.722
 1120SOL     OW 4258   5.486   6.991   6.099
 1120SOL    HW1 4259   5.563   6.988   6.162
 1120SOL    HW2 4260   5.496   6.919   6.031
 1121SOL     OW 4261   5.194   2.979   2.334
 1121SOL    HW1 4262   5.133   2.922   2.388
 1121SOL    HW2 4263   5.287   2.941   2.335
 1122SOL     OW 4264   5.133   3.025   6.634
 1122SOL    HW1 4265   5.063   3.032   6.563
 1122SOL    HW2 4266   5.111   3.089   6.708
 1123SOL     OW 4267   4.553   1.303   1.937
 1123SOL    HW1 4268   4.546   1.210   1.974
 1123SOL    HW2 4269   4.510   1.306   1.847
 1124SOL     OW 4270   6.905   3.963   4.878
 1124SOL    HW1 4271   6.947   3.876   4.851
 1124SOL    HW2 4272   6.828   3.945   4.940
 1125SOL     OW 4273   2.754   2.142   5.118
 1125SOL    HW1 4274   2.847   2.160   5.086
 1125SOL    HW2 4275   2.750   2.050   5.157
 1126SOL     OW 4276   4.838   6.585   6.767
 1126SOL    HW1 4277   4.902   6.514   6.735
 1126SOL    HW2 4278   4.863   6.673   6.726
 1127SOL     OW 4279   2.997   4.326   5.814
 1127SOL    HW1 4280   2.999   4.402   5.879
 1127SOL    HW2 4281   3.003   4.362   5.721
 1128SOL     OW 4282   4.262   2.174   4.384
 1128SOL    HW1 4283   4.281   2.245   4.452
 1128SOL    HW2 4284   4.283   2.209   4.293
 1129SOL     OW 4285   3.556   6.926   0.285
 1129SOL    HW1 4286   3.502   6.846   0.258
 1129SOL    HW2 4287   3.598   6.908   0.374
 1130SOL     OW 4288   1.735   4.408   1.102
 1130SOL    HW1 4289   1.789   4.369   1.177
 1130SOL    HW2 4290   1.718   4.505   1.121
 1131SOL     OW 4291   0.500   6.531   5.733
 1131SOL    HW1 4292   0.584   6.582   5.715
 1131SOL    HW2 4293   0.490   6.517   5.831
 1132SOL     OW 4294   5.017   0.451   6.857
 1132SOL    HW1 4295   5.065   0.433   6.943
 1132SOL    HW2 4296   5.008   0.549   6.844
 1133SOL     OW 4297   0.181   1.881   1.652
 1133SOL    HW1 4298   0.155   1.902   1.557
 1133SOL    HW2 4299   0.179   1.965   1.706
 1134SOL     OW 4300   5.705   2.142   6.869
 1134SOL    HW1 4301   5.791   2.192   6.855
 1134SOL    HW2 4302   5.631   2.190   6.821
 1135SOL     OW 4303   3.216   2.181   3.088
 1135SOL    HW1 4304   3.297   2.189   3.029
 1135SOL    HW2 4305   3.149   2.121   3.044
 1136SOL     OW 4306   2.852   4.760   3.934
 1136SOL    HW1 4307   2.903   4.752   4.019
 1136SOL    HW2 4308   2.838   4.857   3.912
 1137SOL     OW 4309   0.918   2.457   6.846
 1137SOL    HW1 4310   1.010   2.487   6.820
 1137SOL    HW2 4311   0.918   2.358   6.861
 1138SOL     OW 4312   2.197   2.729   5.939
 1138SOL    HW1 4313   2.203   2.735   5.839
 1138SOL    HW2 4314   2.205   2.820   5.979
 1139SOL     OW 4315   1.828   6.201   3.073
 1139SOL    HW1 4316   1.892   6.236   3.141
 1139SOL    HW2 4317   1.829   6.101   3.074
 1140SOL     OW 4318   3.957   2.157   2.779
 1140SOL    HW1 4319   3.911   2.068   2.776
 1140SOL    HW2 4320   4.025   2.161   2.706
 1141SOL     OW 4321   5.822   5.759   5.818
 1141SOL    HW1 4322   5.768   5.683   5.781
 1141SOL    HW2 4323   5.771   5.844   5.806
 1142SOL     OW 4324   5.364   0.317   4.512
 1142SOL    HW1 4325   5.412   0.271   4.587
 1142SOL    HW2 4326   5.398   0.283   4.424
 1143SOL     OW 4327   3.971   2.033   2.358
 1143SOL    HW1 4328   3.885   2.068   2.320
 1143SOL    HW2 4329   4.046   2.094   2.333
 1144SOL     OW 4330   0.177   4.302   4.554
 1144SOL    HW1 4331   0.271   4.273   4.573
 1144SOL    HW2 4332   0.121   4.292   4.636
 1145SOL     OW 4333   0.030   5.252   3.369
 1145SOL    HW1 4334   0.056   5.230   3.275
 1145SOL    HW2 4335   0.102   5.306   3.412
 1146SOL     OW 4336   5.098   1.464   1.254
 1146SOL    HW1 4337   5.149   1.520   1.319
 1146SOL    HW2 4338   5.000   1.482   1.264
 1147SOL     OW 4339   1.787   3.808   0.905
 1147SOL    HW1 4340   1.760   3.819   1.000
 1147SOL    HW2 4341   1.718   3.754   0.856
 1148SOL     OW 4342   3.381   6.077   6.177
 1148SOL    HW1 4343   3.374   6.028   6.091
 1148SOL    HW2 4344   3.368   6.013   6.253
 1149SOL     OW 4345   5.821   3.447   2.644
 1149SOL    HW1 4346   5.871   3.377   2.695
 1149SOL    HW2 4347   5.850   3.537   2.675
 1150SOL     OW 4348   2.309   4.428   0.957
 1150SOL    HW1 4349   2.272   4.518   0.934
 1150SOL    HW2 4350   2.246   4.382   1.021
 1151SOL     OW 4351   5.780   5.690   6.287
 1151SOL    HW1 4352   5.828   5.764   6.240
 1151SOL    HW2 4353   5.752   5.722   6.378
 1152SOL     OW 4354   1.059   6.739   4.959
 1152SOL    HW1 4355   0.962   6.719   4.972
 1152SOL    HW2 4356   1.077   6.833   4.988
 1153SOL     OW 4357   1.968   6.634   2.748
 1153SOL    HW1 4358   1.925   6.574   2.681
 1153SOL    HW2 4359   1.898   6.675   2.807
 1154SOL     OW 4360   0.270   3.545   1.332
 1154SOL    HW1 4361   0.257   3.527   1.430
 1154SOL    HW2 4362   0.214   3.481   1.279
 1155SOL     OW 4363   3.403   6.017   6.837
 1155SOL    HW1 4364   3.416   5.933   6.891
 1155SOL    HW2 4365   3.490   6.042   6.795
 1156SOL     OW 4366   2.298   0.530   3.611
 1156SOL    HW1 4367   2.306   0.622   3.575
 1156SOL    HW2 4368   2.202   0.501   3.608
 1157SOL     OW 4369   6.975   2.483   4.741
 1157SOL    HW1 4370   0.040   2.449   4.716
 1157SOL    HW2 4371   6.905   2.427   4.696
 1158SOL     OW 4372   5.865   5.280   5.288
 1158SOL    HW1 4373   5.942   5.336   5.255
 1158SOL    HW2 4374   5.785   5.338   5.299
 1159SOL     OW 4375   4.181   0.320   2.622
 1159SOL    HW1 4376   4.082   0.329   2.614
 1159SOL    HW2 4377   4.209   0.338   2.716
 1160SOL     OW 4378   3.704   3.653   1.821
 1160SOL    HW1 4379   3.732   3.576   1.764
 1160SOL    HW2 4380   3.712   3.738   1.770
 1161SOL     OW 4381   5.313   0.126   5.284
 1161SOL    HW1 4382   5.300   0.206   5.225
 1161SOL    HW2 4383   5.399   0.081   5.262
 1162SOL     OW 4384   3.713   2.553   1.202
 1162SOL    HW1 4385   3.676   2.541   1.294
 1162SOL    HW2 4386   3.696   2.471   1.148
 1163SOL     OW 4387   5.393   2.265   2.152
 1163SOL    HW1 4388   5.348   2.326   2.218
 1163SOL    HW2 4389   5.487   2.296   2.137
 1164SOL     OW 4390   5.086   2.887   3.524
 1164SOL    HW1 4391   5.050   2.797   3.548
 1164SOL    HW2 4392   5.015   2.940   3.477
 1165SOL     OW 4393   1.593   3.493   3.740
 1165SOL    HW1 4394   1.508   3.446   3.717
 1165SOL    HW2 4395   1.668   3.453   3.687
 1166SOL     OW 4396   4.265   1.775   6.650
 1166SOL    HW1 4397   4.171   1.790   6.679
 1166SOL    HW2 4398   4.323   1.850   6.685
 1167SOL     OW 4399   3.689   0.042   5.541
 1167SOL    HW1 4400   3.721   7.015   5.462
 1167SOL    HW2 4401   3.668   7.006   5.616
 1168SOL     OW 4402   6.076   7.005   2.552
 1168SOL    HW1 4403   6.172   0.006   2.558
 1168SOL    HW2 4404   6.066   6.935   2.481
 1169SOL     OW 4405   6.924   2.910   0.613
 1169SOL    HW1 4406   6.974   2.882   0.695
 1169SOL    HW2 4407   6.879   2.997   0.630
 1170SOL     OW 4408   3.991   0.465   1.906
 1170SOL    HW1 4409   4.000   0.381   1.961
 1170SOL    HW2 4410   3.917   0.454   1.841
 1171SOL     OW 4411   2.840   5.712   1.008
 1171SOL    HW1 4412   2.746   5.733   0.981
 1171SOL    HW2 4413   2.860   5.757   1.095
 1172SOL     OW 4414   3.044   3.883   3.616
 1172SOL    HW1 4415   3.051   3.871   3.517
 1172SOL    HW2 4416   3.105   3.957   3.645
 1173SOL     OW 4417   3.514   0.175   5.684
 1173SOL    HW1 4418   3.513   0.275   5.680
 1173SOL    HW2 4419   3.583   0.140   5.621
 1174SOL     OW 4420   2.154   5.951   0.550
 1174SOL    HW1 4421   2.213   6.022   0.588
 1174SOL    HW2 4422   2.171   5.864   0.598
 1175SOL     OW 4423   5.510   4.858   7.005
 1175SOL    HW1 4424   5.433   4.915   0.009
 1175SOL    HW2 4425   5.477   4.766   6.984
 1176SOL     OW 4426   6.026   5.132   0.927
 1176SOL    HW1 4427   6.072   5.098   1.009
 1176SOL    HW2 4428   5.937   5.172   0.952
 1177SOL     OW 4429   0.399   2.560   5.318
 1177SOL    HW1 4430   0.341   2.480   5.332
 1177SOL    HW2 4431   0.409   2.610   5.404
 1178SOL     OW 4432   4.817   4.176   1.986
 1178SOL    HW1 4433   4.720   4.185   1.963
 1178SOL    HW2 4434   4.871   4.190   1.903
 1179SOL     OW 4435   2.144   4.349   0.527
 1179SOL    HW1 4436   2.231   4.371   0.571
 1179SOL    HW2 4437   2.152   4.363   0.429
 1180SOL     OW 4438   2.291   0.800   3.569
 1180SOL    HW1 4439   2.274   0.841   3.658
 1180SOL    HW2 4440   2.212   0.814   3.510
 1181SOL     OW 4441   1.000   4.061   4.675
 1181SOL    HW1 4442   1.072   4.049   4.607
 1181SOL    HW2 4443   0.938   4.134   4.646
 1182SOL     OW 4444   1.790   4.549   3.348
 1182SOL    HW1 4445   1.722   4.476   3.338
 1182SOL    HW2 4446   1.745   4.637   3.337
 1183SOL     OW 4447   4.393   5.600   1.848
 1183SOL    HW1 4448   4.297   5.624   1.863
 1183SOL    HW2 4449   4.417   5.522   1.906
 1184SOL     OW 4450   3.172   3.491   5.351
 1184SOL    HW1 4451   3.138   3.573   5.306
 1184SOL    HW2 4452   3.272   3.492   5.353
 1185SOL     OW 4453   2.108   0.493   0.276
 1185SOL    HW1 4454   2.029   0.552   0.257
 1185SOL    HW2 4455   2.172   0.497   0.200
 1186SOL     OW 4456   5.915   0.411   5.521
 1186SOL    HW1 4457   5.995   0.358   5.550
 1186SOL    HW2 4458   5.913   0.417   5.421
 1187SOL     OW 4459   5.547   5.976   5.349
 1187SOL    HW1 4460   5.517   5.923   5.428
 1187SOL    HW2 4461   5.475   6.041   5.323
 1188SOL     OW 4462   2.958   6.579   6.298
 1188SOL    HW1 4463   3.014   6.545   6.374
 1188SOL    HW2 4464   3.016   6.590   6.217
 1189SOL     OW 4465   4.947   1.569   2.495
 1189SOL    HW1 4466   4.894   1.619   2.426
 1189SOL    HW2 4467   4.899   1.572   2.583
 1190SOL     OW 4468   4.018   5.111   3.794
 1190SOL    HW1 4469   4.032   5.185   3.729
 1190SOL    HW2 4470   4.099   5.053   3.796
 1191SOL     OW 4471   3.691   5.449   5.871
 1191SOL    HW1 4472   3.716   5.499   5.954
 1191SOL    HW2 4473   3.679   5.352   5.894
 1192SOL     OW 4474   5.621   4.462   2.990
 1192SOL    HW1 4475   5.592   4.487   3.083
 1192SOL    HW2 4476   5.715   4.427   2.993
 1193SOL     OW 4477   5.723   0.050   4.490
 1193SOL    HW1 4478   5.674   6.989   4.494
 1193SOL    HW2 4479   5.763   0.069   4.580
 1194SOL     OW 4480   0.329   0.844   0.483
 1194SOL    HW1 4481   0.384   0.892   0.413
 1194SOL    HW2 4482   0.299   0.910   0.552
 1195SOL     OW 4483   6.188   1.658   0.178
 1195SOL    HW1 4484   6.265   1.666   0.114
 1195SOL    HW2 4485   6.102   1.656   0.127
 1196SOL     OW 4486   6.889   4.943   1.993
 1196SOL    HW1 4487   6.979   4.984   2.011
 1196SOL    HW2 4488   6.901   4.849   1.960
 1197SOL     OW 4489   4.165   5.776   5.661
 1197SOL    HW1 4490   4.090   5.727   5.704
 1197SOL    HW2 4491   4.170   5.869   5.697
 1198SOL     OW 4492   2.254   2.832   2.018
 1198SOL    HW1 4493   2.318   2.758   2.000
 1198SOL    HW2 4494   2.276   2.910   1.960
 1199SOL     OW 4495   4.021   3.867   3.144
 1199SOL    HW1 4496   4.084   3.808   3.194
 1199SOL    HW2 4497   3.983   3.935   3.206
 1200SOL     OW 4498   4.179   3.976   5.280
 1200SOL    HW1 4499   4.139   4.066   5.263
 1200SOL    HW2 4500   4.274   3.987   5.310
 1201SOL     OW 4501   1.202   1.335   4.777
 1201SOL    HW1 4502   1.231   1.300   4.865
 1201SOL    HW2 4503   1.200   1.435   4.780
 1202SOL     OW 4504   5.804   0.389   6.129
 1202SOL    HW1 4505   5.805   0.469   6.069
 1202SOL    HW2 4506   5.844   0.413   6.217
 1203SOL     OW 4507   5.435   0.156   1.080
 1203SOL    HW1 4508   5.389   0.245   1.072
 1203SOL    HW2 4509   5.402   0.095   1.007
 1204SOL     OW 4510   3.864   1.245   0.351
 1204SOL    HW1 4511   3.861   1.234   0.252
 1204SOL    HW2 4512   3.855   1.156   0.395
 1205SOL     OW 4513   5.575   3.117   0.087
 1205SOL    HW1 4514   5.572   3.206   0.040
 1205SOL    HW2 4515   5.481   3.087   0.105
 1206SOL     OW 4516   1.672   1.697   4.819
 1206SOL    HW1 4517   1.579   1.730   4.805
 1206SOL    HW2 4518   1.707   1.659   4.733
 1207SOL     OW 4519   6.616   6.316   0.556
 1207SOL    HW1 4520   6.583   6.399   0.601
 1207SOL    HW2 4521   6.676   6.341   0.480
 1208SOL     OW 4522   3.824   3.961   2.675
 1208SOL    HW1 4523   3.807   3.870   2.712
 1208SOL    HW2 4524   3.918   3.988   2.694
 1209SOL     OW 4525   6.428   6.041   5.590
 1209SOL    HW1 4526   6.473   5.960   5.629
 1209SOL    HW2 4527   6.347   6.063   5.643
 1210SOL     OW 4528   4.137   0.444   2.898
 1210SOL    HW1 4529   4.173   0.536   2.886
 1210SOL    HW2 4530   4.037   0.446   2.895
 1211SOL     OW 4531   1.648   3.763   3.652
 1211SOL    HW1 4532   1.738   3.786   3.690
 1211SOL    HW2 4533   1.627   3.667   3.670
 1212SOL     OW 4534   1.304   2.823   5.488
 1212SOL    HW1 4535   1.276   2.874   5.407
 1212SOL    HW2 4536   1.260   2.733   5.487
 1213SOL     OW 4537   6.151   2.759   5.156
 1213SOL    HW1 4538   6.073   2.813   5.124
 1213SOL    HW2 4539   6.168   2.684   5.092
 1214SOL     OW 4540   1.802   3.356   4.068
 1214SOL    HW1 4541   1.799   3.445   4.021
 1214SOL    HW2 4542   1.772   3.284   4.005
 1215SOL     OW 4543   2.151   4.223   2.503
 1215SOL    HW1 4544   2.145   4.281   2.422
 1215SOL    HW2 4545   2.143   4.127   2.477
 1216SOL     OW 4546   7.011   0.019   2.000
 1216SOL    HW1 4547   6.977   0.074   1.924
 1216SOL    HW2 4548   0.014   0.078   2.075
 1217SOL     OW 4549   0.995   6.497   0.450
 1217SOL    HW1 4550   0.981   6.561   0.375
 1217SOL    HW2 4551   1.024   6.409   0.414
 1218SOL     OW 4552   1.317   3.039   4.945
 1218SOL    HW1 4553   1.281   3.132   4.946
 1218SOL    HW2 4554   1.385   3.029   5.018
 1219SOL     OW 4555   4.271   4.963   0.952
 1219SOL    HW1 4556   4.288   4.882   0.895
 1219SOL    HW2 4557   4.350   5.024   0.948
 1220SOL     OW 4558   5.292   3.665   2.438
 1220SOL    HW1 4559   5.309   3.638   2.343
 1220SOL    HW2 4560   5.249   3.590   2.487
 1221SOL     OW 4561   6.028   3.658   6.952
 1221SOL    HW1 4562   6.059   3.670   0.020
 1221SOL    HW2 4563   6.067   3.731   6.895
 1222SOL     OW 4564   0.075   6.726   0.816
 1222SOL    HW1 4565   0.165   6.766   0.835
 1222SOL    HW2 4566   0.004   6.785   0.852
 1223SOL     OW 4567   5.862   0.331   0.418
 1223SOL    HW1 4568   5.923   0.401   0.381
 1223SOL    HW2 4569   5.771   0.342   0.377
 1224SOL     OW 4570   4.360   6.489   6.704
 1224SOL    HW1 4571   4.263   6.515   6.703
 1224SOL    HW2 4572   4.416   6.570   6.720
 1225SOL     OW 4573   3.938   1.520   0.895
 1225SOL    HW1 4574   4.023   1.566   0.921
 1225SOL    HW2 4575   3.917   1.542   0.799
 1226SOL     OW 4576   5.926   6.575   0.658
 1226SOL    HW1 4577   5.851   6.512   0.678
 1226SOL    HW2 4578   5.923   6.652   0.721
 1227SOL     OW 4579   5.996   4.722   5.486
 1227SOL    HW1 4580   5.899   4.746   5.479
 1227SOL    HW2 4581   6.007   4.651   5.557
 1228SOL     OW 4582   4.212   2.975   1.673
 1228SOL    HW1 4583   4.192   2.986   1.575
 1228SOL    HW2 4584   4.126   2.962   1.723
 1229SOL     OW 4585   0.441   6.940   2.214
 1229SOL    HW1 4586   0.541   6.937   2.218
 1229SOL    HW2 4587   0.404   6.868   2.271
 1230SOL     OW 4588   5.421   5.606   3.021
 1230SOL    HW1 4589   5.365   5.679   3.058
 1230SOL    HW2 4590   5.512   5.641   2.999
 1231SOL     OW 4591   1.833   2.711   6.022
 1231SOL    HW1 4592   1.837   2.784   6.090
 1231SOL    HW2 4593   1.873   2.743   5.937
 1232SOL     OW 4594   3.948   1.539   4.835
 1232SOL    HW1 4595   3.951   1.491   4.748
 1232SOL    HW2 4596   3.918   1.633   4.820
 1233SOL     OW 4597   1.041   4.953   3.347
 1233SOL    HW1 4598   1.061   4.856   3.334
 1233SOL    HW2 4599   1.088   4.987   3.428
 1234SOL     OW 4600   6.665   2.992   6.912
 1234SOL    HW1 4601   6.752   2.961   6.950
 1234SOL    HW2 4602   6.641   3.081   6.950
 1235SOL     OW 4603   6.093   4.980   6.943
 1235SOL    HW1 4604   6.145   4.973   6.858
 1235SOL    HW2 4605   6.040   4.896   6.956
 1236SOL     OW 4606   3.578   1.722   0.493
 1236SOL    HW1 4607   3.665   1.725   0.443
 1236SOL    HW2 4608   3.552   1.627   0.509
 1237SOL     OW 4609   1.626   0.153   4.778
 1237SOL    HW1 4610   1.610   0.206   4.696
 1237SOL    HW2 4611   1.665   0.211   4.849
 1238SOL     OW 4612   0.449   6.647   2.975
 1238SOL    HW1 4613   0.469   6.560   3.020
 1238SOL    HW2 4614   0.521   6.668   2.909
 1239SOL     OW 4615   6.850   4.940   4.441
 1239SOL    HW1 4616   6.869   4.981   4.530
 1239SOL    HW2 4617   6.886   4.847   4.438
 1240SOL     OW 4618   6.131   5.694   2.658
 1240SOL    HW1 4619   6.086   5.629   2.597
 1240SOL    HW2 4620   6.230   5.689   2.646
 1241SOL     OW 4621   0.170   4.778   4.341
 1241SOL    HW1 4622   0.184   4.679   4.350
 1241SOL    HW2 4623   0.144   4.816   4.429
 1242SOL     OW 4624   2.266   3.771   6.851
 1242SOL    HW1 4625   2.283   3.862   6.887
 1242SOL    HW2 4626   2.167   3.757   6.838
 1243SOL     OW 4627   0.804   2.755   5.211
 1243SOL    HW1 4628   0.755   2.696   5.275
 1243SOL    HW2 4629   0.807   2.848   5.246
 1244SOL     OW 4630   5.823   6.505   5.522
 1244SOL    HW1 4631   5.728   6.521   5.493
 1244SOL    HW2 4632   5.884   6.561   5.466
 1245SOL     OW 4633   5.667   5.728   1.376
 1245SOL    HW1 4634   5.692   5.785   1.455
 1245SOL    HW2 4635   5.744   5.668   1.353
 1246SOL     OW 4636   4.778   0.582   1.331
 1246SOL    HW1 4637   4.832   0.533   1.400
 1246SOL    HW2 4638   4.754   0.673   1.366
 1247SOL     OW 4639   6.384   6.779   4.256
 1247SOL    HW1 4640   6.458   6.827   4.303
 1247SOL    HW2 4641   6.330   6.845   4.203
 1248SOL     OW 4642   0.236   6.409   4.678
 1248SOL    HW1 4643   0.279   6.491   4.715
 1248SOL    HW2 4644   0.280   6.384   4.592
 1249SOL     OW 4645   0.430   4.009   1.350
 1249SOL    HW1 4646   0.500   3.937   1.357
 1249SOL    HW2 4647   0.357   3.990   1.415
 1250SOL     OW 4648   6.010   3.453   5.247
 1250SOL    HW1 4649   6.087   3.510   5.275
 1250SOL    HW2 4650   5.926   3.488   5.288
 1251SOL     OW 4651   2.127   1.646   2.832
 1251SOL    HW1 4652   2.063   1.715   2.798
 1251SOL    HW2 4653   2.209   1.691   2.867
 1252SOL     OW 4654   3.053   5.543   6.819
 1252SOL    HW1 4655   3.037   5.505   6.728
 1252SOL    HW2 4656   3.076   5.469   6.883
 1253SOL     OW 4657   3.039   0.926   1.185
 1253SOL    HW1 4658   3.097   0.867   1.241
 1253SOL    HW2 4659   2.954   0.945   1.234
 1254SOL     OW 4660   5.779   1.565   3.262
 1254SOL    HW1 4661   5.767   1.485   3.321
 1254SOL    HW2 4662   5.860   1.616   3.291
 1255SOL     OW 4663   5.686   2.537   5.084
 1255SOL    HW1 4664   5.769   2.560   5.136
 1255SOL    HW2 4665   5.712   2.481   5.005
 1256SOL     OW 4666   6.649   5.801   3.257
 1256SOL    HW1 4667   6.729   5.861   3.265
 1256SOL    HW2 4668   6.566   5.854   3.272
 1257SOL     OW 4669   0.238   4.492   4.345
 1257SOL    HW1 4670   0.209   4.441   4.426
 1257SOL    HW2 4671   0.243   4.431   4.266
 1258SOL     OW 4672   2.079   6.233   3.530
 1258SOL    HW1 4673   2.014   6.271   3.596
 1258SOL    HW2 4674   2.035   6.161   3.477
 1259SOL     OW 4675   4.678   0.050   5.133
 1259SOL    HW1 4676   4.662   0.030   5.229
 1259SOL    HW2 4677   4.608   0.113   5.100
 1260SOL     OW 4678   2.750   0.701   2.279
 1260SOL    HW1 4679   2.806   0.619   2.267
 1260SOL    HW2 4680   2.687   0.709   2.202
 1261SOL     OW 4681   0.078   3.431   6.843
 1261SOL    HW1 4682   0.136   3.497   6.891
 1261SOL    HW2 4683   0.117   3.414   6.752
 1262SOL     OW 4684   4.363   4.878   1.365
 1262SOL    HW1 4685   4.408   4.797   1.328
 1262SOL    HW2 4686   4.278   4.895   1.314
 1263SOL     OW 4687   6.642   2.109   1.232
 1263SOL    HW1 4688   6.593   2.183   1.278
 1263SOL    HW2 4689   6.581   2.063   1.167
 1264SOL     OW 4690   0.378   4.123   3.392
 1264SOL    HW1 4691   0.362   4.103   3.489
 1264SOL    HW2 4692   0.471   4.094   3.368
 1265SOL     OW 4693   0.304   3.981   4.002
 1265SOL    HW1 4694   0.281   3.884   4.014
 1265SOL    HW2 4695   0.269   4.014   3.915
 1266SOL     OW 4696   2.760   1.727   4.885
 1266SOL    HW1 4697   2.849   1.761   4.918
 1266SOL    HW2 4698   2.756   1.628   4.897
 1267SOL     OW 4699   6.607   5.997   2.304
 1267SOL    HW1 4700   6.664   6.050   2.367
 1267SOL    HW2 4701   6.564   5.922   2.353
 1268SOL     OW 4702   5.723   2.414   0.440
 1268SOL    HW1 4703   5.676   2.474   0.504
 1268SOL    HW2 4704   5.677   2.416   0.351
 1269SOL     OW 4705   6.556   6.808   5.415
 1269SOL    HW1 4706   6.495   6.842   5.344
 1269SOL    HW2 4707   6.651   6.821   5.387
 1270SOL     OW 4708   1.935   4.313   4.819
 1270SOL    HW1 4709   1.900   4.312   4.725
 1270SOL    HW2 4710   1.995   4.235   4.833
 1271SOL     OW 4711   3.618   1.773   3.271
 1271SOL    HW1 4712   3.707   1.819   3.261
 1271SOL    HW2 4713   3.547   1.841   3.289
 1272SOL     OW 4714   0.345   6.044   0.673
 1272SOL    HW1 4715   0.291   6.113   0.624
 1272SOL    HW2 4716   0.345   6.066   0.770
 1273SOL     OW 4717   2.245   3.979   0.456
 1273SOL    HW1 4718   2.337   3.977   0.418
 1273SOL    HW2 4719   2.182   4.019   0.389
 1274SOL     OW 4720   0.476   3.102   1.866
 1274SOL    HW1 4721   0.547   3.157   1.908
 1274SOL    HW2 4722   0.394   3.103   1.924
 1275SOL     OW 4723   4.304   0.462   3.874
 1275SOL    HW1 4724   4.387   0.512   3.897
 1275SOL    HW2 4725   4.247   0.453   3.956
 1276SOL     OW 4726   6.662   0.231   3.378
 1276SOL    HW1 4727   6.613   0.315   3.401
 1276SOL    HW2 4728   6.756   0.253   3.350
 1277SOL     OW 4729   0.511   1.085   4.577
 1277SOL    HW1 4730   0.474   0.992   4.587
 1277SOL    HW2 4731   0.602   1.080   4.537
 1278SOL     OW 4732   1.901   1.889   5.150
 1278SOL    HW1 4733   1.981   1.903   5.093
 1278SOL    HW2 4734   1.885   1.970   5.207
 1279SOL     OW 4735   2.305   6.962   0.756
 1279SOL    HW1 4736   2.358   0.002   0.810
 1279SOL    HW2 4737   2.250   6.905   0.817
 1280SOL     OW 4738   2.858   6.956   3.247
 1280SOL    HW1 4739   2.883   6.988   3.155
 1280SOL    HW2 4740   2.764   6.923   3.246
 1281SOL     OW 4741   0.733   5.406   3.041
 1281SOL    HW1 4742   0.722   5.382   3.137
 1281SOL    HW2 4743   0.830   5.420   3.021
 1282SOL     OW 4744   0.599   0.842   1.029
 1282SOL    HW1 4745   0.586   0.753   0.987
 1282SOL    HW2 4746   0.638   0.906   0.962
 1283SOL     OW 4747   5.538   3.591   5.738
 1283SOL    HW1 4748   5.533   3.626   5.832
 1283SOL    HW2 4749   5.576   3.663   5.679
 1284SOL     OW 4750   3.271   2.829   1.724
 1284SOL    HW1 4751   3.240   2.821   1.819
 1284SOL    HW2 4752   3.282   2.738   1.685
 1285SOL     OW 4753   5.404   3.679   6.660
 1285SOL    HW1 4754   5.307   3.700   6.654
 1285SOL    HW2 4755   5.457   3.764   6.661
 1286SOL     OW 4756   4.497   4.791   2.054
 1286SOL    HW1 4757   4.402   4.817   2.068
 1286SOL    HW2 4758   4.506   4.692   2.064
 1287SOL     OW 4759   5.763   4.845   6.944
 1287SOL    HW1 4760   5.781   4.869   6.849
 1287SOL    HW2 4761   5.664   4.850   6.961
 1288SOL     OW 4762   0.182   2.863   0.762
 1288SOL    HW1 4763   0.237   2.801   0.705
 1288SOL    HW2 4764   0.126   2.809   0.825
 1289SOL     OW 4765   0.227   5.641   1.410
 1289SOL    HW1 4766   0.289   5.637   1.488
 1289SOL    HW2 4767   0.142   5.593   1.432
 1290SOL     OW 4768   0.958   0.859   0.361
 1290SOL    HW1 4769   0.877   0.804   0.384
 1290SOL    HW2 4770   0.931   0.955   0.352
 1291SOL     OW 4771   1.533   4.583   6.388
 1291SOL    HW1 4772   1.554   4.626   6.300
 1291SOL    HW2 4773   1.542   4.652   6.461
 1292SOL     OW 4774   0.085   4.576   2.143
 1292SOL    HW1 4775   0.018   4.629   2.091
 1292SOL    HW2 4776   0.064   4.479   2.136
 1293SOL     OW 4777   3.223   1.191   6.199
 1293SOL    HW1 4778   3.124   1.177   6.189
 1293SOL    HW2 4779   3.254   1.256   6.131
 1294SOL     OW 4780   0.144   2.891   1.188
 1294SOL    HW1 4781   0.237   2.853   1.195
 1294SOL    HW2 4782   0.098   2.882   1.277
 1295SOL     OW 4783   6.220   3.721   2.600
 1295SOL    HW1 4784   6.151   3.736   2.670
 1295SOL    HW2 4785   6.205   3.786   2.525
 1296SOL     OW 4786   3.824   1.689   6.360
 1296SOL    HW1 4787   3.899   1.626   6.343
 1296SOL    HW2 4788   3.785   1.671   6.451
 1297SOL     OW 4789   5.437   1.042   6.058
 1297SOL    HW1 4790   5.375   1.062   5.982
 1297SOL    HW2 4791   5.525   1.087   6.042
 1298SOL     OW 4792   5.803   3.267   3.354
 1298SOL    HW1 4793   5.822   3.204   3.279
 1298SOL    HW2 4794   5.849   3.234   3.437
 1299SOL     OW 4795   1.710   3.975   3.429
 1299SOL    HW1 4796   1.662   3.987   3.516
 1299SOL    HW2 4797   1.657   4.017   3.356
 1300SOL     OW 4798   3.306   3.651   1.966
 1300SOL    HW1 4799   3.257   3.718   1.910
 1300SOL    HW2 4800   3.277   3.661   2.061
 1301SOL     OW 4801   1.090   6.345   2.577
 1301SOL    HW1 4802   1.109   6.251   2.547
 1301SOL    HW2 4803   1.001   6.374   2.542
 1302SOL     OW 4804   2.560   6.592   4.491
 1302SOL    HW1 4805   2.647   6.618   4.451
 1302SOL    HW2 4806   2.492   6.662   4.472
 1303SOL     OW 4807   3.832   0.963   0.757
 1303SOL    HW1 4808   3.751   0.916   0.722
 1303SOL    HW2 4809   3.914   0.923   0.716
 1304SOL     OW 4810   1.812   1.372   6.371
 1304SOL    HW1 4811   1.712   1.373   6.360
 1304SOL    HW2 4812   1.855   1.416   6.293
 1305SOL     OW 4813   6.006   5.549   6.056
 1305SOL    HW1 4814   5.949   5.623   6.092
 1305SOL    HW2 4815   5.986   5.464   6.105
 1306SOL     OW 4816   0.782   4.099   5.382
 1306SOL    HW1 4817   0.840   4.162   5.331
 1306SOL    HW2 4818   0.688   4.106   5.348
 1307SOL     OW 4819   1.977   2.960   4.367
 1307SOL    HW1 4820   1.884   2.980   4.335
 1307SOL    HW2 4821   1.973   2.920   4.459
 1308SOL     OW 4822   4.407   5.825   4.811
 1308SOL    HW1 4823   4.456   5.741   4.787
 1308SOL    HW2 4824   4.318   5.826   4.765
 1309SOL     OW 4825   5.551   3.334   5.266
 1309SOL    HW1 4826   5.482   3.335   5.194
 1309SOL    HW2 4827   5.610   3.254   5.255
 1310SOL     OW 4828   5.565   3.617   4.983
 1310SOL    HW1 4829   5.631   3.543   4.998
 1310SOL    HW2 4830   5.613   3.702   4.965
 1311SOL     OW 4831   6.607   6.283   4.004
 1311SOL    HW1 4832   6.568   6.374   4.016
 1311SOL    HW2 4833   6.534   6.215   4.004
 1312SOL     OW 4834   0.749   0.704   6.780
 1312SOL    HW1 4835   0.788   0.796   6.785
 1312SOL    HW2 4836   0.671   0.704   6.719
 1313SOL     OW 4837   2.389   5.767   5.679
 1313SOL    HW1 4838   2.446   5.840   5.717
 1313SOL    HW2 4839   2.447   5.700   5.632
 1314SOL     OW 4840   1.808   1.391   5.682
 1314SOL    HW1 4841   1.844   1.340   5.604
 1314SOL    HW2 4842   1.732   1.448   5.652
 1315SOL     OW 4843   0.973   1.173   0.328
 1315SOL    HW1 4844   0.892   1.225   0.358
 1315SOL    HW2 4845   1.035   1.235   0.279
 1316SOL     OW 4846   1.973   7.005   2.951
 1316SOL    HW1 4847   2.048   0.043   2.933
 1316SOL    HW2 4848   1.885   0.027   2.942
 1317SOL     OW 4849   0.671   4.454   4.545
 1317SOL    HW1 4850   0.617   4.514   4.486
 1317SOL    HW2 4851   0.738   4.508   4.596
 1318SOL     OW 4852   0.583   0.925   0.767
 1318SOL    HW1 4853   0.671   0.967   0.746
 1318SOL    HW2 4854   0.544   0.887   0.683
 1319SOL     OW 4855   6.429   1.907   0.310
 1319SOL    HW1 4856   6.463   1.813   0.310
 1319SOL    HW2 4857   6.337   1.909   0.350
 1320SOL     OW 4858   5.759   4.898   0.484
 1320SOL    HW1 4859   5.816   4.817   0.466
 1320SOL    HW2 4860   5.748   4.910   0.582
 1321SOL     OW 4861   3.971   2.664   0.175
 1321SOL    HW1 4862   4.022   2.585   0.142
 1321SOL    HW2 4863   4.006   2.747   0.131
 1322SOL     OW 4864   5.240   0.978   3.092
 1322SOL    HW1 4865   5.152   1.000   3.134
 1322SOL    HW2 4866   5.245   1.023   3.002
 1323SOL     OW 4867   5.582   1.934   5.444
 1323SOL    HW1 4868   5.592   1.859   5.379
 1323SOL    HW2 4869   5.594   1.900   5.537
 1324SOL     OW 4870   1.500   2.094   1.812
 1324SOL    HW1 4871   1.586   2.042   1.809
 1324SOL    HW2 4872   1.424   2.032   1.828
 1325SOL     OW 4873   2.465   6.632   3.061
 1325SOL    HW1 4874   2.387   6.633   2.999
 1325SOL    HW2 4875   2.507   6.541   3.061
 1326SOL     OW 4876   4.723   2.786   4.736
 1326SOL    HW1 4877   4.647   2.768   4.799
 1326SOL    HW2 4878   4.687   2.800   4.643
 1327SOL     OW 4879   2.999   5.494   2.745
 1327SOL    HW1 4880   3.070   5.512   2.812
 1327SOL    HW2 4881   2.937   5.424   2.780
 1328SOL     OW 4882   0.854   2.416   0.530
 1328SOL    HW1 4883   0.768   2.368   0.544
 1328SOL    HW2 4884   0.930   2.351   0.531
 1329SOL     OW 4885   6.544   1.562   0.965
 1329SOL    HW1 4886   6.528   1.532   1.059
 1329SOL    HW2 4887   6.518   1.658   0.956
 1330SOL     OW 4888   6.278   0.244   0.896
 1330SOL    HW1 4889   6.322   0.154   0.890
 1330SOL    HW2 4890   6.265   0.269   0.992
 1331SOL     OW 4891   5.086   2.051   3.140
 1331SOL    HW1 4892   5.105   1.952   3.139
 1331SOL    HW2 4893   5.024   2.072   3.216
 1332SOL     OW 4894   3.547   0.345   0.716
 1332SOL    HW1 4895   3.534   0.318   0.811
 1332SOL    HW2 4896   3.643   0.369   0.701
 1333SOL     OW 4897   3.714   4.400   5.603
 1333SOL    HW1 4898   3.649   4.404   5.679
 1333SOL    HW2 4899   3.665   4.419   5.517
 1334SOL     OW 4900   0.538   2.966   4.566
 1334SOL    HW1 4901   0.629   2.932   4.588
 1334SOL    HW2 4902   0.530   2.979   4.467
 1335SOL     OW 4903   1.895   6.209   2.759
 1335SOL    HW1 4904   1.976   6.152   2.747
 1335SOL    HW2 4905   1.884   6.231   2.856
 1336SOL     OW 4906   1.549   1.038   6.092
 1336SOL    HW1 4907   1.563   0.940   6.088
 1336SOL    HW2 4908   1.463   1.058   6.140
 1337SOL     OW 4909   1.179   2.475   4.956
 1337SOL    HW1 4910   1.131   2.520   4.881
 1337SOL    HW2 4911   1.142   2.384   4.970
 1338SOL     OW 4912   4.399   3.883   6.348
 1338SOL    HW1 4913   4.413   3.891   6.447
 1338SOL    HW2 4914   4.479   3.842   6.305
 1339SOL     OW 4915   6.699   5.251   6.774
 1339SOL    HW1 4916   6.677   5.347   6.755
 1339SOL    HW2 4917   6.785   5.228   6.727
 1340SOL     OW 4918   1.156   1.901   1.536
 1340SOL    HW1 4919   1.236   1.911   1.595
 1340SOL    HW2 4920   1.179   1.932   1.444
 1341SOL     OW 4921   4.536   0.764   5.205
 1341SOL    HW1 4922   4.583   0.694   5.260
 1341SOL    HW2 4923   4.553   0.854   5.246
 1342SOL     OW 4924   1.255   5.795   6.585
 1342SOL    HW1 4925   1.317   5.783   6.663
 1342SOL    HW2 4926   1.231   5.891   6.576
 1343SOL     OW 4927   3.553   6.684   2.309
 1343SOL    HW1 4928   3.480   6.751   2.303
 1343SOL    HW2 4929   3.579   6.653   2.217
 1344SOL     OW 4930   6.942   2.633   3.338
 1344SOL    HW1 4931   7.005   2.710   3.329
 1344SOL    HW2 4932   6.987   2.549   3.308
 1345SOL     OW 4933   0.502   1.189   3.740
 1345SOL    HW1 4934   0.509   1.287   3.755
 1345SOL    HW2 4935   0.521   1.169   3.644
 1346SOL     OW 4936   1.318   0.110   2.726
 1346SOL    HW1 4937   1.394   0.076   2.671
 1346SOL    HW2 4938   1.293   0.042   2.795
 1347SOL     OW 4939   6.241   6.262   3.783
 1347SOL    HW1 4940   6.246   6.354   3.821
 1347SOL    HW2 4941   6.332   6.233   3.755
 1348SOL     OW 4942   5.444   5.370   3.517
 1348SOL    HW1 4943   5.409   5.279   3.539
 1348SOL    HW2 4944   5.487   5.367   3.426
 1349SOL     OW 4945   5.038   2.589   6.635
 1349SOL    HW1 4946   5.020   2.562   6.541
 1349SOL    HW2 4947   4.963   2.646   6.669
 1350SOL     OW 4948   3.847   5.329   6.775
 1350SOL    HW1 4949   3.845   5.259   6.704
 1350SOL    HW2 4950   3.931   5.320   6.828
 1351SOL     OW 4951   0.887   0.953   2.659
 1351SOL    HW1 4952   0.801   0.984   2.700
 1351SOL    HW2 4953   0.916   0.868   2.702
 1352SOL     OW 4954   0.411   0.199   3.812
 1352SOL    HW1 4955   0.440   0.214   3.717
 1352SOL    HW2 4956   0.379   0.286   3.851
 1353SOL     OW 4957   6.790   4.410   6.069
 1353SOL    HW1 4958   6.762   4.316   6.088
 1353SOL    HW2 4959   6.843   4.445   6.147
 1354SOL     OW 4960   6.897   1.527   1.010
 1354SOL    HW1 4961   6.989   1.496   1.034
 1354SOL    HW2 4962   6.869   1.487   0.923
 1355SOL     OW 4963   5.384   3.974   0.190
 1355SOL    HW1 4964   5.453   3.978   0.118
 1355SOL    HW2 4965   5.336   3.886   0.186
 1356SOL     OW 4966   3.515   3.773   3.757
 1356SOL    HW1 4967   3.575   3.722   3.695
 1356SOL    HW2 4968   3.477   3.710   3.825
 1357SOL     OW 4969   2.299   3.334   6.048
 1357SOL    HW1 4970   2.356   3.257   6.018
 1357SOL    HW2 4971   2.306   3.408   5.982
 1358SOL     OW 4972   2.463   2.314   5.727
 1358SOL    HW1 4973   2.473   2.294   5.630
 1358SOL    HW2 4974   2.552   2.332   5.768
 1359SOL     OW 4975   6.636   3.887   1.385
 1359SOL    HW1 4976   6.580   3.920   1.309
 1359SOL    HW2 4977   6.733   3.901   1.363
 1360SOL     OW 4978   4.053   3.526   2.295
 1360SOL    HW1 4979   4.004   3.440   2.309
 1360SOL    HW2 4980   4.105   3.550   2.377
 1361SOL     OW 4981   0.315   0.019   6.345
 1361SOL    HW1 4982   0.231   0.020   6.400
 1361SOL    HW2 4983   0.333   6.952   6.313
 1362SOL     OW 4984   2.718   3.361   5.424
 1362SOL    HW1 4985   2.722   3.440   5.362
 1362SOL    HW2 4986   2.811   3.335   5.451
 1363SOL     OW 4987   6.489   5.708   3.870
 1363SOL    HW1 4988   6.443   5.748   3.950
 1363SOL    HW2 4989   6.448   5.619   3.849
 1364SOL     OW 4990   6.893   2.633   0.193
 1364SOL    HW1 4991   6.872   2.535   0.199
 1364SOL    HW2 4992   6.926   2.665   0.282
 1365SOL     OW 4993   0.678   3.705   5.402
 1365SOL    HW1 4994   0.718   3.629   5.350
 1365SOL    HW2 4995   0.725   3.713   5.490
 1366SOL     OW 4996   6.908   3.143   0.980
 1366SOL    HW1 4997   6.876   3.204   0.907
 1366SOL    HW2 4998   7.007   3.145   0.983
 1367SOL     OW 4999   1.256   4.998   3.587
 1367SOL    HW1 5000   1.339   5.013   3.534
 1367SOL    HW2 5001   1.268   4.919   3.647
 1368SOL     OW 5002   6.763   0.099   4.050
 1368SOL    HW1 5003   6.821   0.156   4.108
 1368SOL    HW2 5004   6.681   0.073   4.101
 1369SOL     OW 5005   2.507   6.145   1.676
 1369SOL    HW1 5006   2.441   6.112   1.609
 1369SOL    HW2 5007   2.561   6.219   1.635
 1370SOL     OW 5008   0.109   1.476   4.192
 1370SOL    HW1 5009   0.077   1.385   4.168
 1370SOL    HW2 5010   0.110   1.534   4.110
 1371SOL     OW 5011   4.887   1.541   5.003
 1371SOL    HW1 5012   4.807   1.532   5.062
 1371SOL    HW2 5013   4.951   1.466   5.022
 1372SOL     OW 5014   6.152   2.255   1.116
 1372SOL    HW1 5015   6.133   2.249   1.018
 1372SOL    HW2 5016   6.135   2.166   1.158
 1373SOL     OW 5017   5.259   1.709   0.893
 1373SOL    HW1 5018   5.263   1.796   0.942
 1373SOL    HW2 5019   5.176   1.705   0.838
 1374SOL     OW 5020   5.616   4.572   0.147
 1374SOL    HW1 5021   5.715   4.568   0.161
 1374SOL    HW2 5022   5.571   4.589   0.234
 1375SOL     OW 5023   6.975   6.372   6.108
 1375SOL    HW1 5024   0.007   6.328   6.040
 1375SOL    HW2 5025   6.992   6.331   6.198
 1376SOL     OW 5026   3.413   4.855   6.119
 1376SOL    HW1 5027   3.327   4.905   6.110
 1376SOL    HW2 5028   3.406   4.790   6.195
 1377SOL     OW 5029   1.215   2.592   3.990
 1377SOL    HW1 5030   1.311   2.586   4.015
 1377SOL    HW2 5031   1.160   2.539   4.055
 1378SOL     OW 5032   4.979   2.593   5.009
 1378SOL    HW1 5033   4.911   2.666   5.021
 1378SOL    HW2 5034   5.052   2.604   5.077
 1379SOL     OW 5035   5.032   5.574   2.826
 1379SOL    HW1 5036   5.075   5.663   2.840
 1379SOL    HW2 5037   4.975   5.552   2.905
 1380SOL     OW 5038   6.736   6.630   2.796
 1380SOL    HW1 5039   6.674   6.677   2.733
 1380SOL    HW2 5040   6.819   6.685   2.809
 1381SOL     OW 5041   5.617   1.954   6.487
 1381SOL    HW1 5042   5.681   1.918   6.419
 1381SOL    HW2 5043   5.646   1.925   6.578
 1382SOL     OW 5044   4.957   3.151   1.174
 1382SOL    HW1 5045   5.049   3.178   1.202
 1382SOL    HW2 5046   4.914   3.099   1.247
 1383SOL     OW 5047   0.689   0.390   1.398
 1383SOL    HW1 5048   0.720   0.401   1.493
 1383SOL    HW2 5049   0.646   0.300   1.387
 1384SOL     OW 5050   4.510   6.983   0.953
 1384SOL    HW1 5051   4.601   6.950   0.930
 1384SOL    HW2 5052   4.509   0.057   0.953
 1385SOL     OW 5053   1.839   4.643   3.718
 1385SOL    HW1 5054   1.824   4.557   3.669
 1385SOL    HW2 5055   1.828   4.627   3.817
 1386SOL     OW 5056   3.190   0.109   3.275
 1386SOL    HW1 5057   3.228   0.066   3.194
 1386SOL    HW2 5058   3.262   0.124   3.342
 1387SOL     OW 5059   2.908   5.637   2.012
 1387SOL    HW1 5060   2.815   5.669   2.031
 1387SOL    HW2 5061   2.904   5.559   1.950
 1388SOL     OW 5062   6.309   6.536   1.282
 1388SOL    HW1 5063   6.308   6.461   1.216
 1388SOL    HW2 5064   6.241   6.605   1.256
 1389SOL     OW 5065   6.005   2.385   3.325
 1389SOL    HW1 5066   5.937   2.457   3.314
 1389SOL    HW2 5067   5.996   2.343   3.415
 1390SOL     OW 5068   0.147   4.017   7.022
 1390SOL    HW1 5069   0.127   4.067   6.938
 1390SOL    HW2 5070   0.077   4.037   0.064
 1391SOL     OW 5071   6.567   0.130   4.282
 1391SOL    HW1 5072   6.578   0.041   4.326
 1391SOL    HW2 5073   6.486   0.128   4.222
 1392SOL     OW 5074   5.502   5.704   6.193
 1392SOL    HW1 5075   5.486   5.792   6.238
 1392SOL    HW2 5076   5.586   5.663   6.227
 1393SOL     OW 5077   6.180   4.635   5.312
 1393SOL    HW1 5078   6.109   4.666   5.375
 1393SOL    HW2 5079   6.185   4.535   5.313
 1394SOL     OW 5080   2.962   6.162   4.937
 1394SOL    HW1 5081   2.869   6.195   4.947
 1394SOL    HW2 5082   2.984   6.152   4.840
 1395SOL     OW 5083   2.590   4.069   5.869
 1395SOL    HW1 5084   2.512   4.074   5.807
 1395SOL    HW2 5085   2.562   4.025   5.954
 1396SOL     OW 5086   1.793   1.058   5.001
 1396SOL    HW1 5087   1.842   1.013   5.076
 1396SOL    HW2 5088   1.803   1.004   4.918
 1397SOL     OW 5089   0.391   0.421   3.988
 1397SOL    HW1 5090   0.317   0.424   4.056
 1397SOL    HW2 5091   0.466   0.480   4.018
 1398SOL     OW 5092   2.721   1.006   5.797
 1398SOL    HW1 5093   2.682   1.071   5.731
 1398SOL    HW2 5094   2.716   1.046   5.888
 1399SOL     OW 5095   3.391   6.202   0.637
 1399SOL    HW1 5096   3.294   6.216   0.659
 1399SOL    HW2 5097   3.436   6.159   0.716
 1400SOL     OW 5098   0.120   1.436   3.072
 1400SOL    HW1 5099   0.192   1.367   3.069
 1400SOL    HW2 5100   0.160   1.525   3.090
 1401SOL     OW 5101   6.980   2.178   4.761
 1401SOL    HW1 5102   6.983   2.188   4.860
 1401SOL    HW2 5103   6.907   2.236   4.724
 1402SOL     OW 5104   0.783   3.982   0.295
 1402SOL    HW1 5105   0.796   3.941   0.205
 1402SOL    HW2 5106   0.685   3.987   0.315
 1403SOL     OW 5107   2.681   2.251   1.692
 1403SOL    HW1 5108   2.747   2.192   1.738
 1403SOL    HW2 5109   2.720   2.343   1.682
 1404SOL     OW 5110   5.350   0.116   0.192
 1404SOL    HW1 5111   5.372   0.124   0.289
 1404SOL    HW2 5112   5.268   0.059   0.181
 1405SOL     OW 5113   2.188   3.734   1.057
 1405SOL    HW1 5114   2.126   3.686   0.995
 1405SOL    HW2 5115   2.261   3.778   1.005
 1406SOL     OW 5116   1.157   5.214   1.372
 1406SOL    HW1 5117   1.231   5.152   1.347
 1406SOL    HW2 5118   1.194   5.305   1.388
 1407SOL     OW 5119   0.536   1.737   2.377
 1407SOL    HW1 5120   0.468   1.750   2.450
 1407SOL    HW2 5121   0.622   1.707   2.417
 1408SOL     OW 5122   5.519   1.273   5.725
 1408SOL    HW1 5123   5.520   1.331   5.807
 1408SOL    HW2 5124   5.592   1.302   5.663
 1409SOL     OW 5125   0.537   0.875   4.866
 1409SOL    HW1 5126   0.563   0.790   4.911
 1409SOL    HW2 5127   0.616   0.936   4.861
 1410SOL     OW 5128   2.018   3.293   6.310
 1410SOL    HW1 5129   2.065   3.227   6.369
 1410SOL    HW2 5130   2.039   3.273   6.214
 1411SOL     OW 5131   2.717   6.682   1.832
 1411SOL    HW1 5132   2.751   6.774   1.850
 1411SOL    HW2 5133   2.719   6.629   1.916
 1412SOL     OW 5134   0.122   1.742   1.033
 1412SOL    HW1 5135   0.176   1.743   0.949
 1412SOL    HW2 5136   0.042   1.802   1.023
 1413SOL     OW 5137   1.749   1.113   5.433
 1413SOL    HW1 5138   1.656   1.134   5.402
 1413SOL    HW2 5139   1.797   1.062   5.362
 1414SOL     OW 5140   2.620   1.278   1.772
 1414SOL    HW1 5141   2.656   1.221   1.698
 1414SOL    HW2 5142   2.677   1.266   1.853
 1415SOL     OW 5143   2.335   0.632   4.732
 1415SOL    HW1 5144   2.406   0.676   4.787
 1415SOL    HW2 5145   2.296   0.555   4.783
 1416SOL     OW 5146   4.606   4.318   4.114
 1416SOL    HW1 5147   4.573   4.299   4.022
 1416SOL    HW2 5148   4.591   4.415   4.136
 1417SOL     OW 5149   3.457   1.715   0.233
 1417SOL    HW1 5150   3.472   1.616   0.222
 1417SOL    HW2 5151   3.486   1.743   0.324
 1418SOL     OW 5152   3.250   3.370   3.762
 1418SOL    HW1 5153   3.179   3.324   3.815
 1418SOL    HW2 5154   3.216   3.392   3.671
 1419SOL     OW 5155   2.428   6.258   5.003
 1419SOL    HW1 5156   2.392   6.166   4.989
 1419SOL    HW2 5157   2.403   6.316   4.926
 1420SOL     OW 5158   2.322   0.260   1.687
 1420SOL    HW1 5159   2.287   0.278   1.779
 1420SOL    HW2 5160   2.290   0.171   1.655
 1421SOL     OW 5161   1.794   3.374   3.619
 1421SOL    HW1 5162   1.881   3.421   3.632
 1421SOL    HW2 5163   1.772   3.369   3.522
 1422SOL     OW 5164   1.791   3.541   1.412
 1422SOL    HW1 5165   1.797   3.536   1.512
 1422SOL    HW2 5166   1.872   3.497   1.372
 1423SOL     OW 5167   5.475   6.438   3.123
 1423SOL    HW1 5168   5.430   6.389   3.198
 1423SOL    HW2 5169   5.469   6.536   3.139
 1424SOL     OW 5170   6.356   4.797   5.504
 1424SOL    HW1 5171   6.427   4.729   5.521
 1424SOL    HW2 5172   6.312   4.777   5.417
 1425SOL     OW 5173   1.121   6.461   4.756
 1425SOL    HW1 5174   1.046   6.399   4.782
 1425SOL    HW2 5175   1.193   6.456   4.825
 1426SOL     OW 5176   1.949   2.270   6.110
 1426SOL    HW1 5177   1.995   2.233   6.029
 1426SOL    HW2 5178   1.906   2.358   6.087
 1427SOL     OW 5179   0.337   6.445   3.390
 1427SOL    HW1 5180   0.375   6.528   3.349
 1427SOL    HW2 5181   0.254   6.419   3.341
 1428SOL     OW 5182   5.816   2.796   0.935
 1428SOL    HW1 5183   5.874   2.754   0.867
 1428SOL    HW2 5184   5.872   2.840   1.005
 1429SOL     OW 5185   5.404   2.240   0.510
 1429SOL    HW1 5186   5.306   2.231   0.498
 1429SOL    HW2 5187   5.424   2.272   0.603
 1430SOL     OW 5188   1.749   4.585   3.956
 1430SOL    HW1 5189   1.662   4.565   4.000
 1430SOL    HW2 5190   1.818   4.519   3.986
 1431SOL     OW 5191   2.206   1.917   0.659
 1431SOL    HW1 5192   2.287   1.962   0.697
 1431SOL    HW2 5193   2.189   1.950   0.566
 1432SOL     OW 5194   3.355   1.421   2.733
 1432SOL    HW1 5195   3.271   1.451   2.776
 1432SOL    HW2 5196   3.334   1.359   2.657
 1433SOL     OW 5197   4.050   1.448   5.337
 1433SOL    HW1 5198   3.984   1.395   5.285
 1433SOL    HW2 5199   4.002   1.509   5.400
 1434SOL     OW 5200   0.291   0.749   6.131
 1434SOL    HW1 5201   0.279   0.848   6.126
 1434SOL    HW2 5202   0.379   0.725   6.089
 1435SOL     OW 5203   6.051   0.055   2.989
 1435SOL    HW1 5204   6.096   0.131   3.037
 1435SOL    HW2 5205   5.956   0.078   2.972
 1436SOL     OW 5206   5.973   3.997   0.104
 1436SOL    HW1 5207   6.010   3.948   0.183
 1436SOL    HW2 5208   5.877   3.975   0.093
 1437SOL     OW 5209   2.574   2.448   3.154
 1437SOL    HW1 5210   2.538   2.516   3.089
 1437SOL    HW2 5211   2.545   2.472   3.247
 1438SOL     OW 5212   3.416   5.930   1.168
 1438SOL    HW1 5213   3.365   5.919   1.254
 1438SOL    HW2 5214   3.361   5.984   1.104
 1439SOL     OW 5215   6.869   5.697   1.207
 1439SOL    HW1 5216   6.926   5.773   1.237
 1439SOL    HW2 5217   6.863   5.697   1.107
 1440SOL     OW 5218   3.192   3.565   0.041
 1440SOL    HW1 5219   3.123   3.595   7.001
 1440SOL    HW2 5220   3.188   3.465   0.050
 1441SOL     OW 5221   5.909   0.948   3.226
 1441SOL    HW1 5222   5.852   0.928   3.146
 1441SOL    HW2 5223   5.911   0.868   3.286
 1442SOL     OW 5224   6.706   5.727   0.035
 1442SOL    HW1 5225   6.684   5.758   0.127
 1442SOL    HW2 5226   6.630   5.749   6.999
 1443SOL     OW 5227   0.338   3.152   2.606
 1443SOL    HW1 5228   0.412   3.101   2.649
 1443SOL    HW2 5229   0.264   3.166   2.672
 1444SOL     OW 5230   5.216   5.876   1.054
 1444SOL    HW1 5231   5.197   5.974   1.059
 1444SOL    HW2 5232   5.186   5.841   0.965
 1445SOL     OW 5233   0.621   2.697   2.862
 1445SOL    HW1 5234   0.631   2.733   2.955
 1445SOL    HW2 5235   0.692   2.736   2.804
 1446SOL     OW 5236   6.150   1.389   0.230
 1446SOL    HW1 5237   6.164   1.488   0.233
 1446SOL    HW2 5238   6.117   1.363   0.139
 1447SOL     OW 5239   6.179   6.188   4.062
 1447SOL    HW1 5240   6.204   6.197   4.159
 1447SOL    HW2 5241   6.260   6.164   4.009
 1448SOL     OW 5242   6.447   2.961   5.478
 1448SOL    HW1 5243   6.529   2.904   5.487
 1448SOL    HW2 5244   6.458   3.043   5.535
 1449SOL     OW 5245   1.285   3.563   5.409
 1449SOL    HW1 5246   1.343   3.633   5.367
 1449SOL    HW2 5247   1.254   3.595   5.499
 1450SOL     OW 5248   0.713   2.093   6.969
 1450SOL    HW1 5249   0.648   2.168   6.967
 1450SOL    HW2 5250   0.801   2.124   6.933
 1451SOL     OW 5251   1.345   6.524   2.350
 1451SOL    HW1 5252   1.319   6.493   2.441
 1451SOL    HW2 5253   1.280   6.487   2.282
 1452SOL     OW 5254   4.246   2.452   5.501
 1452SOL    HW1 5255   4.307   2.374   5.517
 1452SOL    HW2 5256   4.301   2.532   5.477
 1453SOL     OW 5257   0.641   4.041   6.111
 1453SOL    HW1 5258   0.694   4.055   6.027
 1453SOL    HW2 5259   0.703   4.043   6.190
 1454SOL     OW 5260   1.118   2.467   1.820
 1454SOL    HW1 5261   1.148   2.388   1.768
 1454SOL    HW2 5262   1.190   2.536   1.821
 1455SOL     OW 5263   1.568   6.804   2.361
 1455SOL    HW1 5264   1.593   6.722   2.310
 1455SOL    HW2 5265   1.651   6.849   2.395
 1456SOL     OW 5266   6.339   0.435   6.280
 1456SOL    HW1 5267   6.341   0.338   6.303
 1456SOL    HW2 5268   6.425   0.460   6.235
 1457SOL     OW 5269   1.080   5.834   0.764
 1457SOL    HW1 5270   1.014   5.909   0.761
 1457SOL    HW2 5271   1.042   5.755   0.716
 1458SOL     OW 5272   6.088   4.959   5.382
 1458SOL    HW1 5273   6.002   5.009   5.399
 1458SOL    HW2 5274   6.082   4.868   5.424
 1459SOL     OW 5275   4.216   6.667   5.318
 1459SOL    HW1 5276   4.142   6.624   5.369
 1459SOL    HW2 5277   4.275   6.718   5.381
 1460SOL     OW 5278   1.131   0.114   5.454
 1460SOL    HW1 5279   1.089   0.172   5.383
 1460SOL    HW2 5280   1.061   0.086   5.520
 1461SOL     OW 5281   6.783   3.879   2.924
 1461SOL    HW1 5282   6.882   3.892   2.923
 1461SOL    HW2 5283   6.747   3.892   2.832
 1462SOL     OW 5284   1.141   1.065   6.850
 1462SOL    HW1 5285   1.159   1.163   6.837
 1462SOL    HW2 5286   1.045   1.046   6.833
 1463SOL     OW 5287   0.892   5.262   5.622
 1463SOL    HW1 5288   0.882   5.213   5.536
 1463SOL    HW2 5289   0.834   5.344   5.621
 1464SOL     OW 5290   0.005   5.561   2.266
 1464SOL    HW1 5291   7.023   5.462   2.260
 1464SOL    HW2 5292   0.089   5.591   2.221
 1465SOL     OW 5293   1.703   0.622   4.091
 1465SOL    HW1 5294   1.699   0.652   4.187
 1465SOL    HW2 5295   1.751   0.690   4.037
 1466SOL     OW 5296   3.426   1.572   2.118
 1466SOL    HW1 5297   3.387   1.658   2.150
 1466SOL    HW2 5298   3.401   1.558   2.022
 1467SOL     OW 5299   1.469   1.418   3.629
 1467SOL    HW1 5300   1.540   1.444   3.563
 1467SOL    HW2 5301   1.450   1.320   3.619
 1468SOL     OW 5302   2.053   5.749   2.278
 1468SOL    HW1 5303   2.103   5.687   2.338
 1468SOL    HW2 5304   2.008   5.820   2.333
 1469SOL     OW 5305   6.746   0.253   3.032
 1469SOL    HW1 5306   6.698   0.176   3.075
 1469SOL    HW2 5307   6.720   0.259   2.936
 1470SOL     OW 5308   0.748   1.266   2.037
 1470SOL    HW1 5309   0.740   1.296   1.942
 1470SOL    HW2 5310   0.711   1.174   2.046
 1471SOL     OW 5311   1.093   0.136   0.216
 1471SOL    HW1 5312   1.186   0.170   0.207
 1471SOL    HW2 5313   1.047   0.183   0.292
 1472SOL     OW 5314   2.757   6.130   6.557
 1472SOL    HW1 5315   2.803   6.070   6.492
 1472SOL    HW2 5316   2.673   6.087   6.590
 1473SOL     OW 5317   3.368   5.757   5.260
 1473SOL    HW1 5318   3.385   5.856   5.266
 1473SOL    HW2 5319   3.386   5.726   5.167
 1474SOL     OW 5320   4.851   4.297   1.168
 1474SOL    HW1 5321   4.845   4.206   1.128
 1474SOL    HW2 5322   4.884   4.362   1.100
 1475SOL     OW 5323   5.318   0.902   0.732
 1475SOL    HW1 5324   5.219   0.892   0.724
 1475SOL    HW2 5325   5.362   0.819   0.698
 1476SOL     OW 5326   2.619   1.751   0.889
 1476SOL    HW1 5327   2.664   1.781   0.804
 1476SOL    HW2 5328   2.678   1.686   0.936
 1477SOL     OW 5329   3.606   6.227   6.514
 1477SOL    HW1 5330   3.509   6.213   6.532
 1477SOL    HW2 5331   3.632   6.178   6.431
 1478SOL     OW 5332   6.301   5.598   5.259
 1478SOL    HW1 5333   6.220   5.648   5.289
 1478SOL    HW2 5334   6.341   5.550   5.337
 1479SOL     OW 5335   2.987   3.374   0.684
 1479SOL    HW1 5336   2.890   3.378   0.660
 1479SOL    HW2 5337   2.996   3.362   0.783
 1480SOL     OW 5338   3.041   6.675   4.216
 1480SOL    HW1 5339   3.042   6.775   4.228
 1480SOL    HW2 5340   3.033   6.653   4.118
 1481SOL     OW 5341   5.902   3.379   6.282
 1481SOL    HW1 5342   5.897   3.372   6.182
 1481SOL    HW2 5343   5.977   3.320   6.314
 1482SOL     OW 5344   4.736   0.431   1.679
 1482SOL    HW1 5345   4.666   0.426   1.608
 1482SOL    HW2 5346   4.708   0.498   1.749
 1483SOL     OW 5347   5.625   2.191   5.373
 1483SOL    HW1 5348   5.564   2.226   5.302
 1483SOL    HW2 5349   5.599   2.098   5.397
 1484SOL     OW 5350   4.680   4.782   3.785
 1484SOL    HW1 5351   4.663   4.864   3.841
 1484SOL    HW2 5352   4.596   4.728   3.780
 1485SOL     OW 5353   5.163   0.515   4.442
 1485SOL    HW1 5354   5.244   0.460   4.461
 1485SOL    HW2 5355   5.144   0.515   4.344
 1486SOL     OW 5356   5.049   0.392   3.341
 1486SOL    HW1 5357   4.985   0.467   3.322
 1486SOL    HW2 5358   5.141   0.420   3.313
 1487SOL     OW 5359   0.109   2.232   7.007
 1487SOL    HW1 5360   0.089   2.291   6.928
 1487SOL    HW2 5361   0.082   2.138   6.985
 1488SOL     OW 5362   4.921   6.985   3.505
 1488SOL    HW1 5363   4.990   6.979   3.577
 1488SOL    HW2 5364   4.895   6.893   3.476
 1489SOL     OW 5365   3.576   4.867   6.427
 1489SOL    HW1 5366   3.594   4.954   6.381
 1489SOL    HW2 5367   3.515   4.882   6.505
 1490SOL     OW 5368   0.141   3.446   1.112
 1490SOL    HW1 5369   0.221   3.468   1.056
 1490SOL    HW2 5370   0.099   3.362   1.077
 1491SOL     OW 5371   6.459   3.942   2.535
 1491SOL    HW1 5372   6.388   4.012   2.525
 1491SOL    HW2 5373   6.449   3.874   2.463
 1492SOL     OW 5374   6.255   0.311   2.358
 1492SOL    HW1 5375   6.188   0.349   2.422
 1492SOL    HW2 5376   6.226   0.220   2.329
 1493SOL     OW 5377   3.929   0.480   6.075
 1493SOL    HW1 5378   4.019   0.492   6.031
 1493SOL    HW2 5379   3.914   0.383   6.093
 1494SOL     OW 5380   5.777   2.649   6.847
 1494SOL    HW1 5381   5.858   2.679   6.896
 1494SOL    HW2 5382   5.771   2.550   6.848
 1495SOL     OW 5383   0.201   4.127   5.616
 1495SOL    HW1 5384   0.214   4.029   5.609
 1495SOL    HW2 5385   0.185   4.165   5.524
 1496SOL     OW 5386   1.408   0.971   0.447
 1496SOL    HW1 5387   1.347   1.005   0.518
 1496SOL    HW2 5388   1.493   0.937   0.488
 1497SOL     OW 5389   5.179   3.048   2.066
 1497SOL    HW1 5390   5.160   3.021   2.161
 1497SOL    HW2 5391   5.277   3.066   2.055
 1498SOL     OW 5392   2.596   4.503   0.492
 1498SOL    HW1 5393   2.527   4.574   0.503
 1498SOL    HW2 5394   2.680   4.543   0.453
 1499SOL     OW 5395   0.448   3.000   5.750
 1499SOL    HW1 5396   0.514   2.938   5.706
 1499SOL    HW2 5397   0.394   2.949   5.817
 1500SOL     OW 5398   0.350   6.558   0.361
 1500SOL    HW1 5399   0.359   6.622   0.284
 1500SOL    HW2 5400   0.289   6.597   0.430
 1501SOL     OW 5401   5.897   1.909   6.370
 1501SOL    HW1 5402   5.937   2.000   6.366
 1501SOL    HW2 5403   5.935   1.859   6.448
 1502SOL     OW 5404   4.899   0.937   0.057
 1502SOL    HW1 5405   4.865   0.947   6.990
 1502SOL    HW2 5406   4.999   0.941   0.058
 1503SOL     OW 5407   1.363   3.245   2.391
 1503SOL    HW1 5408   1.340   3.147   2.396
 1503SOL    HW2 5409   1.440   3.265   2.452
 1504SOL     OW 5410   0.433   0.133   4.122
 1504SOL    HW1 5411   0.527   0.100   4.126
 1504SOL    HW2 5412   0.415   0.173   4.032
 1505SOL     OW 5413   4.942   0.060   5.756
 1505SOL    HW1 5414   4.962   0.154   5.730
 1505SOL    HW2 5415   4.844   0.049   5.770
 1506SOL     OW 5416   0.990   6.923   0.167
 1506SOL    HW1 5417   0.951   6.907   0.077
 1506SOL    HW2 5418   1.026   7.016   0.172
 1507SOL     OW 5419   0.095   2.284   5.538
 1507SOL    HW1 5420   0.094   2.332   5.626
 1507SOL    HW2 5421   0.126   2.190   5.552
 1508SOL     OW 5422   5.936   1.352   1.525
 1508SOL    HW1 5423   5.841   1.366   1.499
 1508SOL    HW2 5424   5.949   1.258   1.557
 1509SOL     OW 5425   4.735   2.150   4.954
 1509SOL    HW1 5426   4.641   2.141   4.921
 1509SOL    HW2 5427   4.777   2.231   4.913
 1510SOL     OW 5428   5.577   6.947   4.914
 1510SOL    HW1 5429   5.485   6.952   4.876
 1510SOL    HW2 5430   5.593   6.856   4.952
 1511SOL     OW 5431   4.012   3.893   4.221
 1511SOL    HW1 5432   3.938   3.834   4.188
 1511SOL    HW2 5433   4.084   3.899   4.152
 1512SOL     OW 5434   6.735   5.641   1.449
 1512SOL    HW1 5435   6.666   5.569   1.434
 1512SOL    HW2 5436   6.784   5.658   1.364
 1513SOL     OW 5437   3.811   0.526   4.560
 1513SOL    HW1 5438   3.749   0.475   4.620
 1513SOL    HW2 5439   3.847   0.605   4.610
 1514SOL     OW 5440   3.909   3.107   5.889
 1514SOL    HW1 5441   3.909   3.007   5.883
 1514SOL    HW2 5442   3.879   3.135   5.980
 1515SOL     OW 5443   5.606   1.608   2.730
 1515SOL    HW1 5444   5.633   1.633   2.822
 1515SOL    HW2 5445   5.507   1.621   2.719
 1516SOL     OW 5446   6.187   5.386   5.916
 1516SOL    HW1 5447   6.127   5.466   5.922
 1516SOL    HW2 5448   6.132   5.303   5.905
 1517SOL     OW 5449   4.234   5.977   2.860
 1517SOL    HW1 5450   4.263   5.965   2.765
 1517SOL    HW2 5451   4.178   6.059   2.868
 1518SOL     OW 5452   7.018   1.792   0.408
 1518SOL    HW1 5453   6.938   1.845   0.377
 1518SOL    HW2 5454   0.037   1.841   0.483
 1519SOL     OW 5455   6.394   4.417   1.226
 1519SOL    HW1 5456   6.423   4.447   1.316
 1519SOL    HW2 5457   6.320   4.475   1.194
 1520SOL     OW 5458   0.304   4.422   1.350
 1520SOL    HW1 5459   0.353   4.417   1.263
 1520SOL    HW2 5460   0.300   4.331   1.392
 1521SOL     OW 5461   2.628   4.450   6.378
 1521SOL    HW1 5462   2.606   4.368   6.325
 1521SOL    HW2 5463   2.663   4.424   6.467
 1522SOL     OW 5464   6.264   5.536   5.009
 1522SOL    HW1 5465   6.333   5.472   4.974
 1522SOL    HW2 5466   6.283   5.555   5.105
 1523SOL     OW 5467   3.524   6.540   0.021
 1523SOL    HW1 5468   3.555   6.567   6.956
 1523SOL    HW2 5469   3.489   6.447   0.019
 1524SOL     OW 5470   2.527   1.897   1.691
 1524SOL    HW1 5471   2.530   1.806   1.732
 1524SOL    HW2 5472   2.607   1.911   1.633
 1525SOL     OW 5473   6.336   2.797   0.587
 1525SOL    HW1 5474   6.264   2.796   0.517
 1525SOL    HW2 5475   6.294   2.783   0.677
 1526SOL     OW 5476   6.895   1.079   6.915
 1526SOL    HW1 5477   6.945   1.000   6.880
 1526SOL    HW2 5478   6.800   1.075   6.884
 1527SOL     OW 5479   3.387   1.070   4.110
 1527SOL    HW1 5480   3.474   1.081   4.063
 1527SOL    HW2 5481   3.319   1.035   4.045
 1528SOL     OW 5482   4.299   4.765   2.629
 1528SOL    HW1 5483   4.395   4.753   2.603
 1528SOL    HW2 5484   4.240   4.738   2.553
 1529SOL     OW 5485   4.572   0.596   6.896
 1529SOL    HW1 5486   4.485   0.562   6.932
 1529SOL    HW2 5487   4.615   0.656   6.963
 1530SOL     OW 5488   3.868   1.661   2.125
 1530SOL    HW1 5489   3.881   1.682   2.028
 1530SOL    HW2 5490   3.806   1.728   2.165
 1531SOL     OW 5491   4.927   0.798   5.004
 1531SOL    HW1 5492   5.002   0.781   4.940
 1531SOL    HW2 5493   4.840   0.781   4.958
 1532SOL     OW 5494   3.710   3.992   5.883
 1532SOL    HW1 5495   3.706   4.036   5.972
 1532SOL    HW2 5496   3.805   3.968   5.861
 1533SOL     OW 5497   6.230   5.053   0.558
 1533SOL    HW1 5498   6.274   5.108   0.629
 1533SOL    HW2 5499   6.178   5.113   0.497
 1534SOL     OW 5500   3.136   6.157   6.050
 1534SOL    HW1 5501   3.150   6.213   6.132
 1534SOL    HW2 5502   3.191   6.194   5.975
 1535SOL     OW 5503   5.648   5.876   4.334
 1535SOL    HW1 5504   5.726   5.879   4.397
 1535SOL    HW2 5505   5.605   5.967   4.330
 1536SOL     OW 5506   4.064   5.329   6.082
 1536SOL    HW1 5507   4.144   5.371   6.125
 1536SOL    HW2 5508   4.059   5.358   5.986
 1537SOL     OW 5509   4.610   5.671   3.815
 1537SOL    HW1 5510   4.686   5.644   3.874
 1537SOL    HW2 5511   4.530   5.615   3.834
 1538SOL     OW 5512   3.322   6.852   6.637
 1538SOL    HW1 5513   3.232   6.881   6.669
 1538SOL    HW2 5514   3.311   6.792   6.558
 1539SOL     OW 5515   4.735   3.554   1.690
 1539SOL    HW1 5516   4.665   3.621   1.711
 1539SOL    HW2 5517   4.697   3.483   1.631
 1540SOL     OW 5518   0.186   6.956   5.481
 1540SOL    HW1 5519   0.261   6.893   5.503
 1540SOL    HW2 5520   0.175   6.962   5.381
 1541SOL     OW 5521   3.345   2.938   4.177
 1541SOL    HW1 5522   3.305   2.926   4.086
 1541SOL    HW2 5523   3.273   2.949   4.245
 1542SOL     OW 5524   6.326   0.641   2.684
 1542SOL    HW1 5525   6.271   0.715   2.723
 1542SOL    HW2 5526   6.300   0.554   2.727
 1543SOL     OW 5527   3.605   5.098   4.742
 1543SOL    HW1 5528   3.617   5.035   4.666
 1543SOL    HW2 5529   3.509   5.098   4.770
 1544SOL     OW 5530   3.204   3.622   3.360
 1544SOL    HW1 5531   3.224   3.541   3.306
 1544SOL    HW2 5532   3.287   3.677   3.370
 1545SOL     OW 5533   4.579   0.379   3.122
 1545SOL    HW1 5534   4.564   0.476   3.141
 1545SOL    HW2 5535   4.490   0.333   3.112
 1546SOL     OW 5536   5.021   6.785   5.329
 1546SOL    HW1 5537   4.955   6.809   5.399
 1546SOL    HW2 5538   4.994   6.699   5.285
 1547SOL     OW 5539   1.918   4.077   1.145
 1547SOL    HW1 5540   1.930   3.980   1.167
 1547SOL    HW2 5541   1.994   4.108   1.089
 1548SOL     OW 5542   5.609   4.042   6.996
 1548SOL    HW1 5543   5.566   4.057   6.907
 1548SOL    HW2 5544   5.647   4.129   0.003
 1549SOL     OW 5545   4.091   1.579   1.426
 1549SOL    HW1 5546   4.017   1.521   1.392
 1549SOL    HW2 5547   4.076   1.673   1.395
 1550SOL     OW 5548   2.835   3.512   0.296
 1550SOL    HW1 5549   2.915   3.516   0.355
 1550SOL    HW2 5550   2.764   3.572   0.331
 1551SOL     OW 5551   2.004   4.146   6.342
 1551SOL    HW1 5552   1.963   4.199   6.267
 1551SOL    HW2 5553   2.082   4.197   6.379
 1552SOL     OW 5554   2.482   5.475   0.730
 1552SOL    HW1 5555   2.535   5.405   0.779
 1552SOL    HW2 5556   2.510   5.478   0.634
 1553SOL     OW 5557   5.936   1.591   0.116
 1553SOL    HW1 5558   5.914   1.495   0.101
 1553SOL    HW2 5559   5.854   1.640   0.145
 1554SOL     OW 5560   3.314   1.788   3.615
 1554SOL    HW1 5561   3.251   1.808   3.540
 1554SOL    HW2 5562   3.406   1.817   3.590
 1555SOL     OW 5563   5.762   3.258   0.255
 1555SOL    HW1 5564   5.718   3.186   0.202
 1555SOL    HW2 5565   5.708   3.277   0.337
 1556SOL     OW 5566   2.325   2.240   6.830
 1556SOL    HW1 5567   2.312   2.179   6.752
 1556SOL    HW2 5568   2.407   2.296   6.815
 1557SOL     OW 5569   1.798   2.367   4.747
 1557SOL    HW1 5570   1.863   2.442   4.756
 1557SOL    HW2 5571   1.738   2.365   4.828
 1558SOL     OW 5572   6.043   0.469   4.463
 1558SOL    HW1 5573   6.061   0.400   4.394
 1558SOL    HW2 5574   6.074   0.558   4.429
 1559SOL     OW 5575   1.801   2.896   6.659
 1559SOL    HW1 5576   1.715   2.934   6.623
 1559SOL    HW2 5577   1.809   2.918   6.756
 1560SOL     OW 5578   6.751   0.903   6.071
 1560SOL    HW1 5579   6.841   0.866   6.052
 1560SOL    HW2 5580   6.755   1.003   6.069
 1561SOL     OW 5581   5.600   6.496   3.684
 1561SOL    HW1 5582   5.548   6.495   3.599
 1561SOL    HW2 5583   5.612   6.402   3.716
 1562SOL     OW 5584   5.053   5.988   2.646
 1562SOL    HW1 5585   4.970   6.037   2.670
 1562SOL    HW2 5586   5.132   6.049   2.653
 1563SOL     OW 5587   2.498   0.346   4.958
 1563SOL    HW1 5588   2.544   0.339   4.870
 1563SOL    HW2 5589   2.560   0.315   5.030
 1564SOL     OW 5590   1.528   1.927   3.370
 1564SOL    HW1 5591   1.493   1.855   3.310
 1564SOL    HW2 5592   1.565   2.002   3.314
 1565SOL     OW 5593   4.922   4.396   3.557
 1565SOL    HW1 5594   4.922   4.335   3.636
 1565SOL    HW2 5595   4.872   4.479   3.578
 1566SOL     OW 5596   5.790   4.156   2.653
 1566SOL    HW1 5597   5.793   4.244   2.606
 1566SOL    HW2 5598   5.705   4.149   2.706
 1567SOL     OW 5599   6.604   6.152   0.808
 1567SOL    HW1 5600   6.684   6.096   0.831
 1567SOL    HW2 5601   6.621   6.201   0.723
 1568SOL     OW 5602   1.655   6.757   0.009
 1568SOL    HW1 5603   1.743   6.791   7.003
 1568SOL    HW2 5604   1.669   6.676   0.066
 1569SOL     OW 5605   4.688   6.079   3.511
 1569SOL    HW1 5606   4.645   6.126   3.433
 1569SOL    HW2 5607   4.618   6.033   3.565
 1570SOL     OW 5608   1.816   0.443   0.822
 1570SOL    HW1 5609   1.735   0.391   0.849
 1570SOL    HW2 5610   1.796   0.493   0.738
 1571SOL     OW 5611   5.691   2.562   1.047
 1571SOL    HW1 5612   5.710   2.636   0.982
 1571SOL    HW2 5613   5.774   2.543   1.100
 1572SOL     OW 5614   0.097   6.864   1.488
 1572SOL    HW1 5615   0.071   6.769   1.506
 1572SOL    HW2 5616   0.067   6.922   1.564
 1573SOL     OW 5617   5.431   2.322   2.594
 1573SOL    HW1 5618   5.475   2.237   2.566
 1573SOL    HW2 5619   5.409   2.377   2.513
 1574SOL     OW 5620   6.070   1.014   1.951
 1574SOL    HW1 5621   6.094   0.940   1.889
 1574SOL    HW2 5622   6.150   1.042   2.003
 1575SOL     OW 5623   3.346   1.186   0.396
 1575SOL    HW1 5624   3.249   1.175   0.372
 1575SOL    HW2 5625   3.355   1.256   0.466
 1576SOL     OW 5626   6.870   5.689   3.939
 1576SOL    HW1 5627   6.801   5.672   4.009
 1576SOL    HW2 5628   6.957   5.649   3.968
 1577SOL     OW 5629   3.472   1.833   4.301
 1577SOL    HW1 5630   3.506   1.753   4.351
 1577SOL    HW2 5631   3.418   1.890   4.364
 1578SOL     OW 5632   5.997   3.780   5.892
 1578SOL    HW1 5633   6.097   3.770   5.889
 1578SOL    HW2 5634   5.956   3.695   5.925
 1579SOL     OW 5635   6.915   1.729   3.326
 1579SOL    HW1 5636   7.011   1.707   3.343
 1579SOL    HW2 5637   6.897   1.728   3.228
 1580SOL     OW 5638   2.783   3.580   5.294
 1580SOL    HW1 5639   2.772   3.641   5.216
 1580SOL    HW2 5640   2.827   3.629   5.369
 1581SOL     OW 5641   0.025   4.390   5.207
 1581SOL    HW1 5642   7.025   4.485   5.190
 1581SOL    HW2 5643   0.123   4.384   5.221
 1582SOL     OW 5644   1.680   6.431   4.496
 1582SOL    HW1 5645   1.639   6.362   4.555
 1582SOL    HW2 5646   1.609   6.476   4.443
 1583SOL     OW 5647   0.922   3.243   3.804
 1583SOL    HW1 5648   0.995   3.285   3.858
 1583SOL    HW2 5649   0.851   3.210   3.865
 1584SOL     OW 5650   1.517   6.755   4.792
 1584SOL    HW1 5651   1.503   6.845   4.834
 1584SOL    HW2 5652   1.610   6.724   4.812
 1585SOL     OW 5653   5.511   1.575   3.371
 1585SOL    HW1 5654   5.470   1.484   3.373
 1585SOL    HW2 5655   5.607   1.568   3.344
 1586SOL     OW 5656   3.456   4.554   1.146
 1586SOL    HW1 5657   3.433   4.650   1.159
 1586SOL    HW2 5658   3.474   4.512   1.235
 1587SOL     OW 5659   2.982   4.965   0.183
 1587SOL    HW1 5660   2.911   4.968   0.112
 1587SOL    HW2 5661   3.001   5.059   0.215
 1588SOL     OW 5662   4.781   1.093   3.316
 1588SOL    HW1 5663   4.747   1.186   3.331
 1588SOL    HW2 5664   4.734   1.030   3.378
 1589SOL     OW 5665   6.263   4.074   3.179
 1589SOL    HW1 5666   6.287   4.063   3.275
 1589SOL    HW2 5667   6.315   4.008   3.124
 1590SOL     OW 5668   2.558   6.708   5.907
 1590SOL    HW1 5669   2.491   6.637   5.929
 1590SOL    HW2 5670   2.538   6.746   5.817
 1591SOL     OW 5671   0.650   4.948   2.907
 1591SOL    HW1 5672   0.676   4.932   3.003
 1591SOL    HW2 5673   0.619   5.042   2.896
 1592SOL     OW 5674   2.452   4.608   1.619
 1592SOL    HW1 5675   2.491   4.594   1.528
 1592SOL    HW2 5676   2.503   4.554   1.686
 1593SOL     OW 5677   1.153   6.353   4.024
 1593SOL    HW1 5678   1.109   6.442   4.012
 1593SOL    HW2 5679   1.083   6.282   4.030
 1594SOL     OW 5680   0.034   5.210   2.947
 1594SOL    HW1 5681   0.102   5.141   2.972
 1594SOL    HW2 5682   6.969   5.171   2.954
 1595SOL     OW 5683   1.072   5.315   6.512
 1595SOL    HW1 5684   1.152   5.268   6.474
 1595SOL    HW2 5685   1.008   5.337   6.439
 1596SOL     OW 5686   0.903   2.526   5.522
 1596SOL    HW1 5687   0.813   2.557   5.491
 1596SOL    HW2 5688   0.967   2.524   5.445
 1597SOL     OW 5689   2.962   5.709   0.524
 1597SOL    HW1 5690   2.959   5.738   0.620
 1597SOL    HW2 5691   3.008   5.620   0.518
 1598SOL     OW 5692   0.839   3.879   0.045
 1598SOL    HW1 5693   0.740   3.895   0.045
 1598SOL    HW2 5694   0.875   3.894   6.979
 1599SOL     OW 5695   5.007   4.265   5.899
 1599SOL    HW1 5696   4.956   4.332   5.844
 1599SOL    HW2 5697   5.026   4.185   5.843
 1600SOL     OW 5698   5.187   1.964   5.040
 1600SOL    HW1 5699   5.200   1.875   4.997
 1600SOL    HW2 5700   5.120   2.017   4.987
 1601SOL     OW 5701   0.290   5.149   4.512
 1601SOL    HW1 5702   0.228   5.075   4.489
 1601SOL    HW2 5703   0.376   5.137   4.463
 1602SOL     OW 5704   2.145   5.601   4.144
 1602SOL    HW1 5705   2.160   5.693   4.107
 1602SOL    HW2 5706   2.212   5.583   4.215
 1603SOL     OW 5707   0.646   5.813   2.194
 1603SOL    HW1 5708   0.605   5.730   2.232
 1603SOL    HW2 5709   0.610   5.893   2.241
 1604SOL     OW 5710   5.974   4.679   6.997
 1604SOL    HW1 5711   5.911   4.755   6.984
 1604SOL    HW2 5712   5.948   4.627   0.052
 1605SOL     OW 5713   6.164   6.940   1.987
 1605SOL    HW1 5714   6.240   6.898   1.937
 1605SOL    HW2 5715   6.098   6.977   1.923
 1606SOL     OW 5716   4.135   0.199   5.054
 1606SOL    HW1 5717   4.201   0.132   5.021
 1606SOL    HW2 5718   4.156   0.225   5.148
 1607SOL     OW 5719   4.491   2.199   0.708
 1607SOL    HW1 5720   4.455   2.252   0.631
 1607SOL    HW2 5721   4.560   2.253   0.757
 1608SOL     OW 5722   1.714   0.799   6.106
 1608SOL    HW1 5723   1.758   0.836   6.025
 1608SOL    HW2 5724   1.777   0.738   6.154
 1609SOL     OW 5725   4.334   0.682   6.666
 1609SOL    HW1 5726   4.336   0.623   6.747
 1609SOL    HW2 5727   4.239   0.691   6.634
 1610SOL     OW 5728   6.176   4.044   5.184
 1610SOL    HW1 5729   6.205   3.987   5.107
 1610SOL    HW2 5730   6.249   4.048   5.252
 1611SOL     OW 5731   3.511   3.496   1.454
 1611SOL    HW1 5732   3.575   3.472   1.380
 1611SOL    HW2 5733   3.502   3.595   1.459
 1612SOL     OW 5734   3.061   1.233   5.509
 1612SOL    HW1 5735   3.130   1.304   5.494
 1612SOL    HW2 5736   3.045   1.222   5.607
 1613SOL     OW 5737   1.864   5.970   1.756
 1613SOL    HW1 5738   1.836   6.065   1.769
 1613SOL    HW2 5739   1.953   5.968   1.709
 1614SOL     OW 5740   6.289   3.824   0.512
 1614SOL    HW1 5741   6.341   3.841   0.429
 1614SOL    HW2 5742   6.342   3.851   0.592
 1615SOL     OW 5743   6.163   4.592   1.195
 1615SOL    HW1 5744   6.077   4.587   1.245
 1615SOL    HW2 5745   6.179   4.687   1.166
 1616SOL     OW 5746   4.414   2.396   5.844
 1616SOL    HW1 5747   4.440   2.386   5.748
 1616SOL    HW2 5748   4.333   2.454   5.850
 1617SOL     OW 5749   5.672   6.461   1.313
 1617SOL    HW1 5750   5.635   6.512   1.391
 1617SOL    HW2 5751   5.769   6.442   1.329
 1618SOL     OW 5752   0.647   3.758   0.834
 1618SOL    HW1 5753   0.667   3.732   0.740
 1618SOL    HW2 5754   0.601   3.682   0.880
 1619SOL     OW 5755   1.454   1.830   4.077
 1619SOL    HW1 5756   1.408   1.904   4.027
 1619SOL    HW2 5757   1.401   1.746   4.069
 1620SOL     OW 5758   1.919   6.138   0.802
 1620SOL    HW1 5759   2.011   6.109   0.830
 1620SOL    HW2 5760   1.852   6.105   0.868
 1621SOL     OW 5761   0.398   1.283   0.702
 1621SOL    HW1 5762   0.338   1.208   0.729
 1621SOL    HW2 5763   0.365   1.324   0.617
 1622SOL     OW 5764   1.482   2.293   4.285
 1622SOL    HW1 5765   1.535   2.310   4.368
 1622SOL    HW2 5766   1.535   2.323   4.206
 1623SOL     OW 5767   2.594   2.874   5.915
 1623SOL    HW1 5768   2.571   2.818   5.835
 1623SOL    HW2 5769   2.522   2.942   5.930
 1624SOL     OW 5770   3.271   0.727   5.935
 1624SOL    HW1 5771   3.358   0.683   5.913
 1624SOL    HW2 5772   3.195   0.667   5.910
 1625SOL     OW 5773   1.354   5.996   2.024
 1625SOL    HW1 5774   1.390   5.970   1.934
 1625SOL    HW2 5775   1.285   5.930   2.052
 1626SOL     OW 5776   2.810   1.836   6.503
 1626SOL    HW1 5777   2.891   1.882   6.541
 1626SOL    HW2 5778   2.793   1.752   6.554
 1627SOL     OW 5779   6.161   2.699   4.118
 1627SOL    HW1 5780   6.108   2.663   4.041
 1627SOL    HW2 5781   6.116   2.780   4.155
 1628SOL     OW 5782   4.639   5.157   6.714
 1628SOL    HW1 5783   4.736   5.180   6.719
 1628SOL    HW2 5784   4.614   5.101   6.792
 1629SOL     OW 5785   3.508   2.134   4.650
 1629SOL    HW1 5786   3.490   2.183   4.735
 1629SOL    HW2 5787   3.604   2.147   4.624
 1630SOL     OW 5788   1.196   6.350   5.518
 1630SOL    HW1 5789   1.147   6.414   5.578
 1630SOL    HW2 5790   1.244   6.401   5.447
 1631SOL     OW 5791   0.073   1.125   5.923
 1631SOL    HW1 5792   0.091   1.083   5.834
 1631SOL    HW2 5793   7.003   1.111   5.947
 1632SOL     OW 5794   0.425   1.592   6.939
 1632SOL    HW1 5795   0.484   1.512   6.929
 1632SOL    HW2 5796   0.384   1.615   6.851
 1633SOL     OW 5797   5.129   2.160   3.850
 1633SOL    HW1 5798   5.196   2.189   3.780
 1633SOL    HW2 5799   5.131   2.225   3.926
 1634SOL     OW 5800   4.203   5.641   5.431
 1634SOL    HW1 5801   4.200   5.686   5.521
 1634SOL    HW2 5802   4.128   5.676   5.374
 1635SOL     OW 5803   6.278   5.140   5.305
 1635SOL    HW1 5804   6.199   5.105   5.354
 1635SOL    HW2 5805   6.359   5.087   5.331
 1636SOL     OW 5806   2.132   4.438   1.188
 1636SOL    HW1 5807   2.082   4.442   1.101
 1636SOL    HW2 5808   2.076   4.393   1.257
 1637SOL     OW 5809   6.190   0.579   2.908
 1637SOL    HW1 5810   6.133   0.643   2.856
 1637SOL    HW2 5811   6.240   0.629   2.978
 1638SOL     OW 5812   0.813   3.975   3.957
 1638SOL    HW1 5813   0.741   3.982   3.887
 1638SOL    HW2 5814   0.853   4.065   3.972
 1639SOL     OW 5815   4.514   6.621   2.722
 1639SOL    HW1 5816   4.547   6.558   2.652
 1639SOL    HW2 5817   4.501   6.712   2.682
 1640SOL     OW 5818   5.648   1.583   0.884
 1640SOL    HW1 5819   5.658   1.508   0.950
 1640SOL    HW2 5820   5.736   1.603   0.843
 1641SOL     OW 5821   5.559   2.626   3.730
 1641SOL    HW1 5822   5.518   2.670   3.650
 1641SOL    HW2 5823   5.487   2.579   3.782
 1642SOL     OW 5824   6.509   3.527   0.249
 1642SOL    HW1 5825   6.484   3.432   0.266
 1642SOL    HW2 5826   6.536   3.571   0.335
 1643SOL     OW 5827   3.023   5.709   4.113
 1643SOL    HW1 5828   2.962   5.718   4.191
 1643SOL    HW2 5829   3.105   5.764   4.128
 1644SOL     OW 5830   1.894   2.440   1.130
 1644SOL    HW1 5831   1.958   2.456   1.055
 1644SOL    HW2 5832   1.802   2.468   1.101
 1645SOL     OW 5833   3.466   6.165   5.000
 1645SOL    HW1 5834   3.485   6.122   4.913
 1645SOL    HW2 5835   3.377   6.210   4.997
 1646SOL     OW 5836   2.562   5.346   1.309
 1646SOL    HW1 5837   2.605   5.424   1.355
 1646SOL    HW2 5838   2.620   5.315   1.234
 1647SOL     OW 5839   5.526   2.775   4.383
 1647SOL    HW1 5840   5.517   2.807   4.289
 1647SOL    HW2 5841   5.494   2.681   4.390
 1648SOL     OW 5842   6.030   6.218   1.758
 1648SOL    HW1 5843   5.957   6.263   1.706
 1648SOL    HW2 5844   6.115   6.270   1.749
 1649SOL     OW 5845   3.282   0.419   3.456
 1649SOL    HW1 5846   3.254   0.332   3.496
 1649SOL    HW2 5847   3.296   0.487   3.528
 1650SOL     OW 5848   2.756   0.062   4.032
 1650SOL    HW1 5849   2.825   7.021   4.006
 1650SOL    HW2 5850   2.800   0.150   4.049
 1651SOL     OW 5851   0.770   0.756   1.210
 1651SOL    HW1 5852   0.854   0.777   1.160
 1651SOL    HW2 5853   0.691   0.781   1.154
 1652SOL     OW 5854   1.503   2.538   1.755
 1652SOL    HW1 5855   1.484   2.452   1.707
 1652SOL    HW2 5856   1.595   2.569   1.732
 1653SOL     OW 5857   0.479   6.078   1.865
 1653SOL    HW1 5858   0.548   6.146   1.890
 1653SOL    HW2 5859   0.522   5.988   1.860
 1654SOL     OW 5860   0.146   2.815   1.874
 1654SOL    HW1 5861   0.191   2.756   1.806
 1654SOL    HW2 5862   0.051   2.832   1.846
 1655SOL     OW 5863   5.346   3.851   6.305
 1655SOL    HW1 5864   5.395   3.936   6.289
 1655SOL    HW2 5865   5.375   3.783   6.237
 1656SOL     OW 5866   1.458   4.536   3.124
 1656SOL    HW1 5867   1.510   4.479   3.187
 1656SOL    HW2 5868   1.518   4.571   3.053
 1657SOL     OW 5869   0.005   1.256   4.495
 1657SOL    HW1 5870   0.104   1.270   4.498
 1657SOL    HW2 5871   6.985   1.328   4.548
 1658SOL     OW 5872   0.664   7.024   3.258
 1658SOL    HW1 5873   0.638   6.995   3.166
 1658SOL    HW2 5874   0.585   0.034   3.306
 1659SOL     OW 5875   3.938   2.137   6.134
 1659SOL    HW1 5876   4.010   2.157   6.200
 1659SOL    HW2 5877   3.937   2.038   6.115
 1660SOL     OW 5878   1.800   4.878   4.181
 1660SOL    HW1 5879   1.854   4.928   4.114
 1660SOL    HW2 5880   1.860   4.815   4.231
 1661SOL     OW 5881   3.298   1.436   1.617
 1661SOL    HW1 5882   3.222   1.501   1.626
 1661SOL    HW2 5883   3.323   1.428   1.520
 1662SOL     OW 5884   6.193   1.205   3.862
 1662SOL    HW1 5885   6.209   1.266   3.785
 1662SOL    HW2 5886   6.122   1.244   3.921
 1663SOL     OW 5887   2.258   1.333   2.721
 1663SOL    HW1 5888   2.179   1.334   2.782
 1663SOL    HW2 5889   2.298   1.425   2.717
 1664SOL     OW 5890   1.454   0.097   4.099
 1664SOL    HW1 5891   1.361   0.129   4.082
 1664SOL    HW2 5892   1.457   0.047   4.186
 1665SOL     OW 5893   0.037   1.581   2.850
 1665SOL    HW1 5894   0.063   1.541   2.938
 1665SOL    HW2 5895   6.972   1.621   2.857
 1666SOL     OW 5896   5.954   3.687   0.605
 1666SOL    HW1 5897   6.040   3.739   0.609
 1666SOL    HW2 5898   5.903   3.713   0.524
 1667SOL     OW 5899   5.551   6.552   0.812
 1667SOL    HW1 5900   5.587   6.495   0.887
 1667SOL    HW2 5901   5.600   6.639   0.810
 1668SOL     OW 5902   4.857   6.444   5.838
 1668SOL    HW1 5903   4.874   6.537   5.870
 1668SOL    HW2 5904   4.826   6.387   5.914
 1669SOL     OW 5905   6.254   6.717   0.437
 1669SOL    HW1 5906   6.278   6.804   0.480
 1669SOL    HW2 5907   6.234   6.649   0.508
 1670SOL     OW 5908   0.241   5.750   6.001
 1670SOL    HW1 5909   0.288   5.733   6.087
 1670SOL    HW2 5910   0.289   5.822   5.950
 1671SOL     OW 5911   4.351   2.579   0.684
 1671SOL    HW1 5912   4.308   2.602   0.772
 1671SOL    HW2 5913   4.289   2.604   0.610
 1672SOL     OW 5914   1.804   3.895   2.507
 1672SOL    HW1 5915   1.840   3.954   2.578
 1672SOL    HW2 5916   1.721   3.935   2.468
 1673SOL     OW 5917   0.615   2.382   4.596
 1673SOL    HW1 5918   0.650   2.313   4.532
 1673SOL    HW2 5919   0.613   2.471   4.550
 1674SOL     OW 5920   1.625   3.798   1.527
 1674SOL    HW1 5921   1.723   3.797   1.542
 1674SOL    HW2 5922   1.606   3.818   1.431
 1675SOL     OW 5923   4.186   7.009   6.240
 1675SOL    HW1 5924   4.163   0.046   6.166
 1675SOL    HW2 5925   4.266   0.017   6.290
 1676SOL     OW 5926   3.457   1.247   2.372
 1676SOL    HW1 5927   3.388   1.190   2.416
 1676SOL    HW2 5928   3.437   1.343   2.390
 1677SOL     OW 5929   4.479   2.347   5.589
 1677SOL    HW1 5930   4.531   2.269   5.622
 1677SOL    HW2 5931   4.539   2.407   5.536
 1678SOL     OW 5932   5.159   4.741   4.662
 1678SOL    HW1 5933   5.182   4.669   4.596
 1678SOL    HW2 5934   5.220   4.736   4.740
 1679SOL     OW 5935   2.148   3.861   5.555
 1679SOL    HW1 5936   2.064   3.808   5.550
 1679SOL    HW2 5937   2.203   3.843   5.473
 1680SOL     OW 5938   1.327   1.611   4.046
 1680SOL    HW1 5939   1.373   1.551   3.981
 1680SOL    HW2 5940   1.244   1.648   4.004
 1681SOL     OW 5941   6.619   5.966   1.133
 1681SOL    HW1 5942   6.528   5.924   1.128
 1681SOL    HW2 5943   6.669   5.929   1.212
 1682SOL     OW 5944   0.231   3.180   4.868
 1682SOL    HW1 5945   0.204   3.113   4.800
 1682SOL    HW2 5946   0.208   3.272   4.836
 1683SOL     OW 5947   3.910   5.604   1.071
 1683SOL    HW1 5948   3.923   5.505   1.072
 1683SOL    HW2 5949   3.962   5.645   1.146
 1684SOL     OW 5950   1.158   6.490   2.955
 1684SOL    HW1 5951   1.192   6.520   3.044
 1684SOL    HW2 5952   1.112   6.402   2.964
 1685SOL     OW 5953   2.704   1.467   6.257
 1685SOL    HW1 5954   2.770   1.421   6.315
 1685SOL    HW2 5955   2.622   1.488   6.311
 1686SOL     OW 5956   2.347   5.232   5.721
 1686SOL    HW1 5957   2.415   5.303   5.704
 1686SOL    HW2 5958   2.354   5.200   5.815
 1687SOL     OW 5959   1.995   3.383   1.305
 1687SOL    HW1 5960   2.071   3.407   1.244
 1687SOL    HW2 5961   2.020   3.304   1.360
 1688SOL     OW 5962   1.428   2.626   3.365
 1688SOL    HW1 5963   1.511   2.632   3.309
 1688SOL    HW2 5964   1.447   2.663   3.456
 1689SOL     OW 5965   3.665   0.940   1.938
 1689SOL    HW1 5966   3.604   0.880   1.887
 1689SOL    HW2 5967   3.619   0.971   2.021
 1690SOL     OW 5968   1.218   2.935   3.227
 1690SOL    HW1 5969   1.298   2.988   3.254
 1690SOL    HW2 5970   1.154   2.994   3.178
 1691SOL     OW 5971   4.854   3.670   2.955
 1691SOL    HW1 5972   4.876   3.761   2.920
 1691SOL    HW2 5973   4.758   3.667   2.983
 1692SOL     OW 5974   6.491   6.726   1.456
 1692SOL    HW1 5975   6.440   6.686   1.380
 1692SOL    HW2 5976   6.547   6.655   1.500
 1693SOL     OW 5977   1.152   2.498   2.317
 1693SOL    HW1 5978   1.131   2.580   2.263
 1693SOL    HW2 5979   1.096   2.422   2.286
 1694SOL     OW 5980   4.471   6.692   4.131
 1694SOL    HW1 5981   4.457   6.780   4.175
 1694SOL    HW2 5982   4.532   6.636   4.187
 1695SOL     OW 5983   2.412   1.086   4.890
 1695SOL    HW1 5984   2.331   1.136   4.920
 1695SOL    HW2 5985   2.470   1.065   4.969
 1696SOL     OW 5986   5.652   5.409   0.802
 1696SOL    HW1 5987   5.578   5.389   0.738
 1696SOL    HW2 5988   5.625   5.484   0.862
 1697SOL     OW 5989   6.737   6.741   1.803
 1697SOL    HW1 5990   6.730   6.791   1.717
 1697SOL    HW2 5991   6.648   6.702   1.826
 1698SOL     OW 5992   4.350   1.329   0.671
 1698SOL    HW1 5993   4.355   1.418   0.717
 1698SOL    HW2 5994   4.424   1.271   0.703
 1699SOL     OW 5995   3.157   1.536   2.289
 1699SOL    HW1 5996   3.167   1.635   2.296
 1699SOL    HW2 5997   3.075   1.515   2.235
 1700SOL     OW 5998   6.611   2.552   3.750
 1700SOL    HW1 5999   6.680   2.623   3.763
 1700SOL    HW2 6000   6.627   2.478   3.816
 1701SOL     OW 6001   4.876   3.118   5.114
 1701SOL    HW1 6002   4.846   3.068   5.033
 1701SOL    HW2 6003   4.810   3.107   5.188
 1702SOL     OW 6004   6.839   3.731   0.593
 1702SOL    HW1 6005   6.911   3.702   0.529
 1702SOL    HW2 6006   6.815   3.826   0.575
 1703SOL     OW 6007   3.859   4.002   3.390
 1703SOL    HW1 6008   3.779   4.061   3.382
 1703SOL    HW2 6009   3.830   3.906   3.393
 1704SOL     OW 6010   0.624   1.166   1.114
 1704SOL    HW1 6011   0.618   1.244   1.051
 1704SOL    HW2 6012   0.679   1.094   1.072
 1705SOL     OW 6013   3.590   1.931   2.009
 1705SOL    HW1 6014   3.503   1.960   1.970
 1705SOL    HW2 6015   3.636   2.010   2.049
 1706SOL     OW 6016   4.227   6.318   1.239
 1706SOL    HW1 6017   4.296   6.341   1.171
 1706SOL    HW2 6018   4.245   6.368   1.324
 1707SOL     OW 6019   4.128   1.279   2.385
 1707SOL    HW1 6020   4.216   1.318   2.411
 1707SOL    HW2 6021   4.066   1.352   2.357
 1708SOL     OW 6022   5.643   5.588   2.435
 1708SOL    HW1 6023   5.562   5.620   2.385
 1708SOL    HW2 6024   5.625   5.497   2.472
 1709SOL     OW 6025   3.068   5.993   2.038
 1709SOL    HW1 6026   3.130   5.976   1.961
 1709SOL    HW2 6027   2.992   6.049   2.008
 1710SOL     OW 6028   5.907   4.690   3.654
 1710SOL    HW1 6029   5.992   4.716   3.701
 1710SOL    HW2 6030   5.903   4.735   3.565
 1711SOL     OW 6031   1.320   4.807   5.266
 1711SOL    HW1 6032   1.236   4.763   5.236
 1711SOL    HW2 6033   1.311   4.838   5.360
 1712SOL     OW 6034   0.426   3.364   6.242
 1712SOL    HW1 6035   0.508   3.326   6.199
 1712SOL    HW2 6036   0.353   3.296   6.241
 1713SOL     OW 6037   3.075   1.882   1.031
 1713SOL    HW1 6038   3.003   1.813   1.032
 1713SOL    HW2 6039   3.160   1.841   0.999
 1714SOL     OW 6040   4.125   1.800   6.241
 1714SOL    HW1 6041   4.161   1.877   6.189
 1714SOL    HW2 6042   4.187   1.722   6.234
 1715SOL     OW 6043   6.726   3.590   2.707
 1715SOL    HW1 6044   6.656   3.660   2.724
 1715SOL    HW2 6045   6.749   3.590   2.609
 1716SOL     OW 6046   5.468   6.501   1.739
 1716SOL    HW1 6047   5.379   6.471   1.705
 1716SOL    HW2 6048   5.457   6.539   1.832
 1717SOL     OW 6049   2.065   6.489   6.642
 1717SOL    HW1 6050   1.966   6.492   6.633
 1717SOL    HW2 6051   2.107   6.477   6.552
 1718SOL     OW 6052   1.628   1.837   0.768
 1718SOL    HW1 6053   1.583   1.831   0.857
 1718SOL    HW2 6054   1.727   1.848   0.782
 1719SOL     OW 6055   2.555   4.543   1.378
 1719SOL    HW1 6056   2.495   4.553   1.299
 1719SOL    HW2 6057   2.645   4.580   1.356
 1720SOL     OW 6058   6.677   1.250   1.718
 1720SOL    HW1 6059   6.649   1.199   1.799
 1720SOL    HW2 6060   6.603   1.246   1.650
 1721SOL     OW 6061   1.507   6.735   2.775
 1721SOL    HW1 6062   1.486   6.640   2.797
 1721SOL    HW2 6063   1.468   6.758   2.685
 1722SOL     OW 6064   5.309   1.296   3.956
 1722SOL    HW1 6065   5.390   1.352   3.939
 1722SOL    HW2 6066   5.231   1.335   3.905
 1723SOL     OW 6067   6.752   2.365   3.284
 1723SOL    HW1 6068   6.850   2.370   3.266
 1723SOL    HW2 6069   6.734   2.389   3.380
 1724SOL     OW 6070   5.884   1.633   0.764
 1724SOL    HW1 6071   5.979   1.610   0.786
 1724SOL    HW2 6072   5.857   1.586   0.680
 1725SOL     OW 6073   3.192   4.534   0.112
 1725SOL    HW1 6074   3.128   4.457   0.112
 1725SOL    HW2 6075   3.273   4.509   0.165
 1726SOL     OW 6076   0.270   4.669   5.656
 1726SOL    HW1 6077   0.217   4.753   5.665
 1726SOL    HW2 6078   0.242   4.605   5.728
 1727SOL     OW 6079   3.673   2.927   4.387
 1727SOL    HW1 6080   3.667   3.012   4.334
 1727SOL    HW2 6081   3.648   2.850   4.329
 1728SOL     OW 6082   5.274   5.081   4.727
 1728SOL    HW1 6083   5.224   4.994   4.725
 1728SOL    HW2 6084   5.292   5.112   4.634
 1729SOL     OW 6085   2.109   3.848   3.982
 1729SOL    HW1 6086   2.037   3.911   4.010
 1729SOL    HW2 6087   2.164   3.891   3.910
 1730SOL     OW 6088   6.593   0.904   4.729
 1730SOL    HW1 6089   6.553   0.834   4.789
 1730SOL    HW2 6090   6.592   0.992   4.776
 1731SOL     OW 6091   0.684   5.313   2.313
 1731SOL    HW1 6092   0.748   5.244   2.346
 1731SOL    HW2 6093   0.730   5.372   2.246
 1732SOL     OW 6094   2.698   4.608   5.952
 1732SOL    HW1 6095   2.696   4.634   6.049
 1732SOL    HW2 6096   2.679   4.511   5.943
 1733SOL     OW 6097   1.079   3.649   2.847
 1733SOL    HW1 6098   1.090   3.565   2.901
 1733SOL    HW2 6099   1.161   3.705   2.856
 1734SOL     OW 6100   4.645   3.052   1.559
 1734SOL    HW1 6101   4.727   3.023   1.610
 1734SOL    HW2 6102   4.576   3.083   1.624
 1735SOL     OW 6103   5.696   5.160   1.250
 1735SOL    HW1 6104   5.618   5.220   1.228
 1735SOL    HW2 6105   5.701   5.147   1.348
 1736SOL     OW 6106   4.847   1.482   0.432
 1736SOL    HW1 6107   4.947   1.475   0.433
 1736SOL    HW2 6108   4.814   1.460   0.340
 1737SOL     OW 6109   2.871   0.722   4.175
 1737SOL    HW1 6110   2.774   0.702   4.182
 1737SOL    HW2 6111   2.899   0.718   4.078
 1738SOL     OW 6112   2.232   2.368   3.501
 1738SOL    HW1 6113   2.164   2.441   3.493
 1738SOL    HW2 6114   2.187   2.284   3.532
 1739SOL     OW 6115   4.898   2.580   5.408
 1739SOL    HW1 6116   4.803   2.569   5.436
 1739SOL    HW2 6117   4.916   2.675   5.383
 1740SOL     OW 6118   6.957   1.628   6.801
 1740SOL    HW1 6119   6.993   1.681   6.878
 1740SOL    HW2 6120   0.004   1.573   6.761
 1741SOL     OW 6121   2.543   0.996   2.297
 1741SOL    HW1 6122   2.517   0.902   2.277
 1741SOL    HW2 6123   2.488   1.059   2.243
 1742SOL     OW 6124   4.392   6.166   5.862
 1742SOL    HW1 6125   4.312   6.180   5.919
 1742SOL    HW2 6126   4.416   6.252   5.817
 1743SOL     OW 6127   2.201   1.414   1.899
 1743SOL    HW1 6128   2.202   1.316   1.879
 1743SOL    HW2 6129   2.221   1.428   1.996
 1744SOL     OW 6130   0.487   6.958   1.717
 1744SOL    HW1 6131   0.547   6.977   1.794
 1744SOL    HW2 6132   0.392   6.979   1.741
 1745SOL     OW 6133   0.230   0.980   4.319
 1745SOL    HW1 6134   0.317   0.959   4.273
 1745SOL    HW2 6135   0.162   0.911   4.294
 1746SOL     OW 6136   1.938   5.745   5.779
 1746SOL    HW1 6137   1.901   5.661   5.819
 1746SOL    HW2 6138   1.900   5.824   5.828
 1747SOL     OW 6139   4.944   6.585   2.591
 1747SOL    HW1 6140   4.946   6.499   2.540
 1747SOL    HW2 6141   4.895   6.655   2.538
 1748SOL     OW 6142   0.103   0.286   3.571
 1748SOL    HW1 6143   0.181   0.348   3.577
 1748SOL    HW2 6144   0.066   0.270   3.662
 1749SOL     OW 6145   3.407   6.569   4.818
 1749SOL    HW1 6146   3.459   6.506   4.761
 1749SOL    HW2 6147   3.340   6.618   4.761
 1750SOL     OW 6148   5.447   1.039   3.499
 1750SOL    HW1 6149   5.387   1.089   3.562
 1750SOL    HW2 6150   5.521   0.997   3.552
 1751SOL     OW 6151   3.330   5.293   4.764
 1751SOL    HW1 6152   3.338   5.243   4.850
 1751SOL    HW2 6153   3.234   5.296   4.736
 1752SOL     OW 6154   6.592   2.377   2.371
 1752SOL    HW1 6155   6.670   2.314   2.379
 1752SOL    HW2 6156   6.531   2.365   2.449
 1753SOL     OW 6157   0.315   1.405   0.443
 1753SOL    HW1 6158   0.360   1.438   0.360
 1753SOL    HW2 6159   0.233   1.459   0.460
 1754SOL     OW 6160   3.405   3.190   1.486
 1754SOL    HW1 6161   3.450   3.103   1.506
 1754SOL    HW2 6162   3.453   3.237   1.412
 1755SOL     OW 6163   5.970   5.000   1.868
 1755SOL    HW1 6164   5.878   5.012   1.906
 1755SOL    HW2 6165   5.966   5.008   1.769
 1756SOL     OW 6166   4.206   4.390   6.068
 1756SOL    HW1 6167   4.123   4.341   6.092
 1756SOL    HW2 6168   4.286   4.336   6.094
 1757SOL     OW 6169   2.466   5.898   4.703
 1757SOL    HW1 6170   2.434   5.973   4.645
 1757SOL    HW2 6171   2.564   5.885   4.689
 1758SOL     OW 6172   2.637   0.339   3.262
 1758SOL    HW1 6173   2.647   0.313   3.358
 1758SOL    HW2 6174   2.640   0.258   3.205
 1759SOL     OW 6175   1.424   4.983   6.645
 1759SOL    HW1 6176   1.400   5.018   6.555
 1759SOL    HW2 6177   1.341   4.955   6.693
 1760SOL     OW 6178   6.343   1.361   1.739
 1760SOL    HW1 6179   6.386   1.293   1.679
 1760SOL    HW2 6180   6.402   1.378   1.818
 1761SOL     OW 6181   0.074   7.023   0.456
 1761SOL    HW1 6182   0.036   7.004   0.366
 1761SOL    HW2 6183   0.142   6.953   0.479
 1762SOL     OW 6184   6.297   1.334   5.273
 1762SOL    HW1 6185   6.362   1.409   5.255
 1762SOL    HW2 6186   6.342   1.246   5.254
 1763SOL     OW 6187   1.736   3.793   4.883
 1763SOL    HW1 6188   1.726   3.696   4.906
 1763SOL    HW2 6189   1.827   3.808   4.844
 1764SOL     OW 6190   1.637   3.950   3.132
 1764SOL    HW1 6191   1.658   3.967   3.036
 1764SOL    HW2 6192   1.697   3.877   3.167
 1765SOL     OW 6193   3.516   2.315   6.726
 1765SOL    HW1 6194   3.435   2.307   6.785
 1765SOL    HW2 6195   3.493   2.369   6.645
 1766SOL     OW 6196   4.844   3.022   4.411
 1766SOL    HW1 6197   4.779   3.064   4.473
 1766SOL    HW2 6198   4.905   3.092   4.373
 1767SOL     OW 6199   5.666   3.743   2.571
 1767SOL    HW1 6200   5.594   3.813   2.567
 1767SOL    HW2 6201   5.680   3.715   2.665
 1768SOL     OW 6202   3.690   1.396   4.766
 1768SOL    HW1 6203   3.739   1.316   4.802
 1768SOL    HW2 6204   3.720   1.478   4.815
 1769SOL     OW 6205   4.439   2.416   4.909
 1769SOL    HW1 6206   4.345   2.411   4.941
 1769SOL    HW2 6207   4.476   2.323   4.899
 1770SOL     OW 6208   1.042   5.854   4.613
 1770SOL    HW1 6209   1.136   5.869   4.582
 1770SOL    HW2 6210   1.037   5.767   4.663
 1771SOL     OW 6211   2.787   5.040   6.716
 1771SOL    HW1 6212   2.816   4.974   6.646
 1771SOL    HW2 6213   2.690   5.025   6.737
 1772SOL     OW 6214   3.134   6.473   3.760
 1772SOL    HW1 6215   3.113   6.562   3.719
 1772SOL    HW2 6216   3.224   6.443   3.731
 1773SOL     OW 6217   2.372   5.150   5.979
 1773SOL    HW1 6218   2.424   5.066   5.961
 1773SOL    HW2 6219   2.416   5.202   6.051
 1774SOL     OW 6220   4.203   6.154   1.621
 1774SOL    HW1 6221   4.276   6.200   1.672
 1774SOL    HW2 6222   4.242   6.091   1.555
 1775SOL     OW 6223   1.541   4.502   4.097
 1775SOL    HW1 6224   1.529   4.405   4.119
 1775SOL    HW2 6225   1.552   4.554   4.181
 1776SOL     OW 6226   3.098   0.303   3.876
 1776SOL    HW1 6227   3.171   0.325   3.940
 1776SOL    HW2 6228   3.122   0.335   3.784
 1777SOL     OW 6229   3.063   5.038   5.846
 1777SOL    HW1 6230   3.112   5.079   5.768
 1777SOL    HW2 6231   2.988   5.097   5.873
 1778SOL     OW 6232   4.249   3.542   5.435
 1778SOL    HW1 6233   4.200   3.574   5.355
 1778SOL    HW2 6234   4.223   3.597   5.515
 1779SOL     OW 6235   3.969   1.116   4.570
 1779SOL    HW1 6236   3.898   1.165   4.519
 1779SOL    HW2 6237   4.046   1.097   4.510
 1780SOL     OW 6238   3.246   2.968   6.361
 1780SOL    HW1 6239   3.164   3.003   6.315
 1780SOL    HW2 6240   3.269   2.878   6.323
 1781SOL     OW 6241   4.927   5.693   3.783
 1781SOL    HW1 6242   4.994   5.623   3.758
 1781SOL    HW2 6243   4.897   5.741   3.700
 1782SOL     OW 6244   3.672   1.867   2.849
 1782SOL    HW1 6245   3.699   1.886   2.755
 1782SOL    HW2 6246   3.716   1.783   2.880
 1783SOL     OW 6247   1.211   5.030   6.302
 1783SOL    HW1 6248   1.227   4.935   6.277
 1783SOL    HW2 6249   1.230   5.043   6.400
 1784SOL     OW 6250   3.317   0.836   5.640
 1784SOL    HW1 6251   3.236   0.889   5.615
 1784SOL    HW2 6252   3.331   0.841   5.739
 1785SOL     OW 6253   6.296   4.569   3.320
 1785SOL    HW1 6254   6.313   4.644   3.384
 1785SOL    HW2 6255   6.273   4.486   3.371
 1786SOL     OW 6256   1.557   2.360   0.675
 1786SOL    HW1 6257   1.592   2.449   0.705
 1786SOL    HW2 6258   1.630   2.292   0.681
 1787SOL     OW 6259   2.501   0.801   4.900
 1787SOL    HW1 6260   2.577   0.822   4.839
 1787SOL    HW2 6261   2.449   0.884   4.920
 1788SOL     OW 6262   3.401   3.137   0.713
 1788SOL    HW1 6263   3.471   3.191   0.760
 1788SOL    HW2 6264   3.432   3.042   0.705
 1789SOL     OW 6265   6.285   2.504   3.346
 1789SOL    HW1 6266   6.287   2.500   3.446
 1789SOL    HW2 6267   6.209   2.448   3.312
 1790SOL     OW 6268   4.271   6.136   4.391
 1790SOL    HW1 6269   4.326   6.152   4.309
 1790SOL    HW2 6270   4.224   6.220   4.418
 1791SOL     OW 6271   6.418   0.816   3.711
 1791SOL    HW1 6272   6.398   0.849   3.804
 1791SOL    HW2 6273   6.341   0.839   3.651
 1792SOL     OW 6274   7.005   2.882   4.945
 1792SOL    HW1 6275   7.018   2.939   5.026
 1792SOL    HW2 6276   6.909   2.889   4.915
 1793SOL     OW 6277   0.035   6.438   3.838
 1793SOL    HW1 6278   0.085   6.395   3.914
 1793SOL    HW2 6279   0.072   6.405   3.751
 1794SOL     OW 6280   5.693   6.095   6.263
 1794SOL    HW1 6281   5.615   6.041   6.233
 1794SOL    HW2 6282   5.683   6.118   6.360
 1795SOL     OW 6283   1.382   2.577   0.994
 1795SOL    HW1 6284   1.406   2.602   0.901
 1795SOL    HW2 6285   1.442   2.503   1.025
 1796SOL     OW 6286   2.351   0.649   4.249
 1796SOL    HW1 6287   2.357   0.691   4.339
 1796SOL    HW2 6288   2.336   0.550   4.259
 1797SOL     OW 6289   1.679   0.032   6.701
 1797SOL    HW1 6290   1.763   0.076   6.667
 1797SOL    HW2 6291   1.653   0.073   6.788
 1798SOL     OW 6292   5.410   2.258   4.115
 1798SOL    HW1 6293   5.441   2.278   4.023
 1798SOL    HW2 6294   5.360   2.171   4.116
 1799SOL     OW 6295   6.534   1.437   6.036
 1799SOL    HW1 6296   6.614   1.407   5.984
 1799SOL    HW2 6297   6.564   1.489   6.116
 1800SOL     OW 6298   3.981   4.763   2.119
 1800SOL    HW1 6299   3.907   4.724   2.065
 1800SOL    HW2 6300   3.944   4.800   2.205
 1801SOL     OW 6301   0.323   0.385   2.344
 1801SOL    HW1 6302   0.331   0.473   2.391
 1801SOL    HW2 6303   0.231   0.374   2.308
 1802SOL     OW 6304   5.466   5.417   3.241
 1802SOL    HW1 6305   5.433   5.348   3.176
 1802SOL    HW2 6306   5.420   5.504   3.223
 1803SOL     OW 6307   0.739   6.162   6.966
 1803SOL    HW1 6308   0.669   6.136   0.007
 1803SOL    HW2 6309   0.704   6.145   6.873
 1804SOL     OW 6310   2.665   3.853   5.334
 1804SOL    HW1 6311   2.643   3.877   5.429
 1804SOL    HW2 6312   2.593   3.890   5.274
 1805SOL     OW 6313   6.266   4.187   5.617
 1805SOL    HW1 6314   6.276   4.144   5.707
 1805SOL    HW2 6315   6.169   4.207   5.601
 1806SOL     OW 6316   0.674   0.709   0.452
 1806SOL    HW1 6317   0.755   0.654   0.428
 1806SOL    HW2 6318   0.643   0.685   0.544
 1807SOL     OW 6319   5.116   2.545   5.580
 1807SOL    HW1 6320   5.202   2.535   5.528
 1807SOL    HW2 6321   5.039   2.535   5.517
 1808SOL     OW 6322   0.828   3.997   6.319
 1808SOL    HW1 6323   0.857   3.919   6.264
 1808SOL    HW2 6324   0.895   4.070   6.310
 1809SOL     OW 6325   2.233   2.297   4.415
 1809SOL    HW1 6326   2.139   2.307   4.382
 1809SOL    HW2 6327   2.232   2.278   4.513
 1810SOL     OW 6328   3.160   6.922   3.473
 1810SOL    HW1 6329   3.254   6.941   3.443
 1810SOL    HW2 6330   3.107   6.886   3.396
 1811SOL     OW 6331   5.592   5.075   3.149
 1811SOL    HW1 6332   5.529   5.115   3.216
 1811SOL    HW2 6333   5.609   4.979   3.172
 1812SOL     OW 6334   4.495   6.345   5.267
 1812SOL    HW1 6335   4.556   6.413   5.306
 1812SOL    HW2 6336   4.479   6.272   5.334
 1813SOL     OW 6337   6.619   5.436   1.157
 1813SOL    HW1 6338   6.686   5.407   1.226
 1813SOL    HW2 6339   6.666   5.479   1.081
 1814SOL     OW 6340   6.208   1.333   0.835
 1814SOL    HW1 6341   6.199   1.429   0.808
 1814SOL    HW2 6342   6.206   1.325   0.935
 1815SOL     OW 6343   6.743   1.930   2.033
 1815SOL    HW1 6344   6.664   1.985   2.059
 1815SOL    HW2 6345   6.734   1.838   2.071
 1816SOL     OW 6346   2.795   3.557   1.199
 1816SOL    HW1 6347   2.791   3.586   1.103
 1816SOL    HW2 6348   2.789   3.638   1.258
 1817SOL     OW 6349   3.737   0.097   2.579
 1817SOL    HW1 6350   3.673   0.139   2.516
 1817SOL    HW2 6351   3.687   0.056   2.655
 1818SOL     OW 6352   1.850   6.452   2.588
 1818SOL    HW1 6353   1.896   6.390   2.652
 1818SOL    HW2 6354   1.753   6.427   2.581
 1819SOL     OW 6355   1.057   4.717   1.659
 1819SOL    HW1 6356   1.082   4.747   1.567
 1819SOL    HW2 6357   0.964   4.681   1.659
 1820SOL     OW 6358   4.482   0.553   2.483
 1820SOL    HW1 6359   4.423   0.633   2.490
 1820SOL    HW2 6360   4.542   0.563   2.404
 1821SOL     OW 6361   0.849   0.720   2.226
 1821SOL    HW1 6362   0.929   0.755   2.274
 1821SOL    HW2 6363   0.799   0.797   2.185
 1822SOL     OW 6364   2.669   3.170   1.231
 1822SOL    HW1 6365   2.684   3.077   1.199
 1822SOL    HW2 6366   2.573   3.196   1.217
 1823SOL     OW 6367   3.020   5.717   3.024
 1823SOL    HW1 6368   2.988   5.630   3.060
 1823SOL    HW2 6369   2.943   5.780   3.015
 1824SOL     OW 6370   3.335   2.574   1.679
 1824SOL    HW1 6371   3.410   2.602   1.739
 1824SOL    HW2 6372   3.369   2.560   1.586
 1825SOL     OW 6373   1.463   1.630   2.923
 1825SOL    HW1 6374   1.494   1.542   2.888
 1825SOL    HW2 6375   1.510   1.704   2.874
 1826SOL     OW 6376   3.434   0.187   1.213
 1826SOL    HW1 6377   3.439   0.087   1.223
 1826SOL    HW2 6378   3.413   0.227   1.302
 1827SOL     OW 6379   0.016   5.107   2.656
 1827SOL    HW1 6380   0.011   5.159   2.741
 1827SOL    HW2 6381   7.004   5.161   2.581
 1828SOL     OW 6382   1.017   2.171   0.486
 1828SOL    HW1 6383   1.097   2.152   0.430
 1828SOL    HW2 6384   0.961   2.088   0.494
 1829SOL     OW 6385   3.926   0.331   3.895
 1829SOL    HW1 6386   3.892   0.421   3.867
 1829SOL    HW2 6387   3.989   0.297   3.825
 1830SOL     OW 6388   6.058   5.799   3.917
 1830SOL    HW1 6389   6.079   5.709   3.878
 1830SOL    HW2 6390   6.107   5.869   3.866
 1831SOL     OW 6391   6.089   0.425   2.527
 1831SOL    HW1 6392   6.053   0.354   2.587
 1831SOL    HW2 6393   6.015   0.486   2.498
 1832SOL     OW 6394   5.089   1.337   1.004
 1832SOL    HW1 6395   5.033   1.255   1.014
 1832SOL    HW2 6396   5.101   1.379   1.094
 1833SOL     OW 6397   5.545   0.358   5.150
 1833SOL    HW1 6398   5.527   0.423   5.225
 1833SOL    HW2 6399   5.467   0.358   5.088
 1834SOL     OW 6400   2.783   4.012   0.612
 1834SOL    HW1 6401   2.758   4.108   0.601
 1834SOL    HW2 6402   2.855   4.004   0.680
 1835SOL     OW 6403   1.191   4.225   1.313
 1835SOL    HW1 6404   1.183   4.131   1.279
 1835SOL    HW2 6405   1.100   4.266   1.320
 1836SOL     OW 6406   5.276   1.260   1.311
 1836SOL    HW1 6407   5.218   1.337   1.288
 1836SOL    HW2 6408   5.287   1.253   1.410
 1837SOL     OW 6409   0.892   2.124   4.293
 1837SOL    HW1 6410   0.907   2.026   4.288
 1837SOL    HW2 6411   0.980   2.172   4.294
 1838SOL     OW 6412   0.095   2.077   4.048
 1838SOL    HW1 6413   0.106   2.132   4.130
 1838SOL    HW2 6414   0.085   1.981   4.073
 1839SOL     OW 6415   4.756   2.771   5.063
 1839SOL    HW1 6416   4.664   2.733   5.065
 1839SOL    HW2 6417   4.756   2.856   5.009
 1840SOL     OW 6418   3.766   5.747   1.340
 1840SOL    HW1 6419   3.732   5.655   1.358
 1840SOL    HW2 6420   3.866   5.747   1.345
 1841SOL     OW 6421   2.389   2.107   4.299
 1841SOL    HW1 6422   2.436   2.160   4.228
 1841SOL    HW2 6423   2.326   2.166   4.349
 1842SOL     OW 6424   0.834   5.635   0.915
 1842SOL    HW1 6425   0.934   5.634   0.914
 1842SOL    HW2 6426   0.802   5.656   1.008
 1843SOL     OW 6427   0.328   2.008   4.397
 1843SOL    HW1 6428   0.309   2.094   4.443
 1843SOL    HW2 6429   0.305   1.932   4.457
 1844SOL     OW 6430   3.647   0.873   5.756
 1844SOL    HW1 6431   3.567   0.900   5.809
 1844SOL    HW2 6432   3.727   0.871   5.815
 1845SOL     OW 6433   2.188   6.600   4.849
 1845SOL    HW1 6434   2.090   6.585   4.855
 1845SOL    HW2 6435   2.211   6.688   4.890
 1846SOL     OW 6436   4.391   1.957   0.785
 1846SOL    HW1 6437   4.424   2.043   0.746
 1846SOL    HW2 6438   4.307   1.975   0.836
 1847SOL     OW 6439   1.275   0.389   6.130
 1847SOL    HW1 6440   1.369   0.386   6.164
 1847SOL    HW2 6441   1.271   0.446   6.048
 1848SOL     OW 6442   0.445   6.965   2.511
 1848SOL    HW1 6443   0.356   6.973   2.555
 1848SOL    HW2 6444   0.470   0.027   2.469
 1849SOL     OW 6445   3.630   2.003   0.500
 1849SOL    HW1 6446   3.702   2.000   0.430
 1849SOL    HW2 6447   3.586   1.913   0.506
 1850SOL     OW 6448   6.967   3.018   2.465
 1850SOL    HW1 6449   6.915   2.971   2.394
 1850SOL    HW2 6450   0.033   3.039   2.431
 1851SOL     OW 6451   0.920   1.913   1.283
 1851SOL    HW1 6452   0.913   1.909   1.383
 1851SOL    HW2 6453   0.999   1.968   1.257
 1852SOL     OW 6454   5.764   3.243   1.736
 1852SOL    HW1 6455   5.767   3.314   1.807
 1852SOL    HW2 6456   5.669   3.226   1.710
 1853SOL     OW 6457   0.347   2.983   2.929
 1853SOL    HW1 6458   0.418   2.982   2.859
 1853SOL    HW2 6459   0.257   2.977   2.886
 1854SOL     OW 6460   2.346   6.231   2.929
 1854SOL    HW1 6461   2.306   6.271   3.012
 1854SOL    HW2 6462   2.276   6.183   2.878
 1855SOL     OW 6463   4.618   4.234   6.906
 1855SOL    HW1 6464   4.706   4.261   6.867
 1855SOL    HW2 6465   4.631   4.156   6.966
 1856SOL     OW 6466   6.288   3.778   5.058
 1856SOL    HW1 6467   6.334   3.718   5.123
 1856SOL    HW2 6468   6.354   3.813   4.992
 1857SOL     OW 6469   3.544   0.742   6.290
 1857SOL    HW1 6470   3.451   0.743   6.254
 1857SOL    HW2 6471   3.545   0.692   6.377
 1858SOL     OW 6472   5.744   3.065   3.884
 1858SOL    HW1 6473   5.828   3.082   3.936
 1858SOL    HW2 6474   5.691   3.149   3.878
 1859SOL     OW 6475   4.369   1.362   3.368
 1859SOL    HW1 6476   4.336   1.270   3.347
 1859SOL    HW2 6477   4.315   1.429   3.316
 1860SOL     OW 6478   6.383   0.557   3.702
 1860SOL    HW1 6479   6.381   0.656   3.716
 1860SOL    HW2 6480   6.472   0.521   3.731
 1861SOL     OW 6481   5.187   6.775   2.533
 1861SOL    HW1 6482   5.181   6.716   2.614
 1861SOL    HW2 6483   5.129   6.855   2.545
 1862SOL     OW 6484   2.414   0.339   6.442
 1862SOL    HW1 6485   2.361   0.348   6.358
 1862SOL    HW2 6486   2.504   0.303   6.421
 1863SOL     OW 6487   2.244   1.603   0.291
 1863SOL    HW1 6488   2.171   1.656   0.335
 1863SOL    HW2 6489   2.216   1.508   0.282
 1864SOL     OW 6490   0.741   6.879   5.904
 1864SOL    HW1 6491   0.833   6.890   5.942
 1864SOL    HW2 6492   0.676   6.866   5.979
 1865SOL     OW 6493   3.781   0.087   5.924
 1865SOL    HW1 6494   3.828   0.062   5.840
 1865SOL    HW2 6495   3.731   0.173   5.910
 1866SOL     OW 6496   4.415   4.963   3.210
 1866SOL    HW1 6497   4.487   4.899   3.237
 1866SOL    HW2 6498   4.379   5.008   3.291
 1867SOL     OW 6499   0.913   4.213   0.148
 1867SOL    HW1 6500   0.858   4.184   0.071
 1867SOL    HW2 6501   0.970   4.136   0.179
 1868SOL     OW 6502   5.034   3.814   0.326
 1868SOL    HW1 6503   5.087   3.733   0.303
 1868SOL    HW2 6504   5.090   3.877   0.381
 1869SOL     OW 6505   6.260   2.680   5.821
 1869SOL    HW1 6506   6.195   2.743   5.862
 1869SOL    HW2 6507   6.215   2.592   5.803
 1870SOL     OW 6508   1.933   2.851   5.413
 1870SOL    HW1 6509   2.018   2.898   5.388
 1870SOL    HW2 6510   1.855   2.906   5.384
 1871SOL     OW 6511   0.334   0.893   6.590
 1871SOL    HW1 6512   0.372   0.985   6.602
 1871SOL    HW2 6513   0.391   0.827   6.640
 1872SOL     OW 6514   3.632   2.971   0.393
 1872SOL    HW1 6515   3.571   2.948   0.317
 1872SOL    HW2 6516   3.716   2.918   0.386
 1873SOL     OW 6517   4.740   1.643   6.008
 1873SOL    HW1 6518   4.761   1.739   5.985
 1873SOL    HW2 6519   4.816   1.603   6.058
 1874SOL     OW 6520   3.385   1.214   1.121
 1874SOL    HW1 6521   3.376   1.273   1.201
 1874SOL    HW2 6522   3.385   1.119   1.149
 1875SOL     OW 6523   0.515   1.207   0.345
 1875SOL    HW1 6524   0.531   1.108   0.355
 1875SOL    HW2 6525   0.430   1.232   0.392
 1876SOL     OW 6526   4.079   0.109   6.020
 1876SOL    HW1 6527   3.996   0.113   5.964
 1876SOL    HW2 6528   4.156   0.082   5.963
 1877SOL     OW 6529   0.475   0.314   2.956
 1877SOL    HW1 6530   0.407   0.362   2.902
 1877SOL    HW2 6531   0.554   0.291   2.899
 1878SOL     OW 6532   6.695   2.013   3.795
 1878SOL    HW1 6533   6.691   2.082   3.723
 1878SOL    HW2 6534   6.779   1.960   3.785
 1879SOL     OW 6535   1.215   4.419   4.321
 1879SOL    HW1 6536   1.218   4.468   4.234
 1879SOL    HW2 6537   1.294   4.357   4.327
 1880SOL     OW 6538   0.035   1.923   4.787
 1880SOL    HW1 6539   7.023   2.014   4.774
 1880SOL    HW2 6540   0.133   1.929   4.804
 1881SOL     OW 6541   5.728   2.061   3.021
 1881SOL    HW1 6542   5.664   2.055   2.944
 1881SOL    HW2 6543   5.723   1.977   3.076
 1882SOL     OW 6544   1.643   3.849   6.278
 1882SOL    HW1 6545   1.738   3.829   6.304
 1882SOL    HW2 6546   1.582   3.782   6.320
 1883SOL     OW 6547   6.877   2.001   3.400
 1883SOL    HW1 6548   6.861   1.909   3.364
 1883SOL    HW2 6549   6.946   2.046   3.344
 1884SOL     OW 6550   0.059   1.948   0.617
 1884SOL    HW1 6551   7.021   2.001   0.673
 1884SOL    HW2 6552   0.105   1.880   0.675
 1885SOL     OW 6553   1.874   2.007   6.198
 1885SOL    HW1 6554   1.816   1.982   6.275
 1885SOL    HW2 6555   1.887   2.106   6.197
 1886SOL     OW 6556   1.560   0.435   1.438
 1886SOL    HW1 6557   1.530   0.495   1.513
 1886SOL    HW2 6558   1.556   0.340   1.469
 1887SOL     OW 6559   1.136   5.425   5.201
 1887SOL    HW1 6560   1.060   5.463   5.147
 1887SOL    HW2 6561   1.219   5.476   5.180
 1888SOL     OW 6562   2.922   2.337   6.781
 1888SOL    HW1 6563   2.987   2.409   6.805
 1888SOL    HW2 6564   2.936   2.258   6.840
 1889SOL     OW 6565   0.582   3.407   5.504
 1889SOL    HW1 6566   0.516   3.361   5.446
 1889SOL    HW2 6567   0.539   3.487   5.546
 1890SOL     OW 6568   1.575   5.944   3.940
 1890SOL    HW1 6569   1.654   5.883   3.951
 1890SOL    HW2 6570   1.510   5.903   3.877
 1891SOL     OW 6571   5.136   2.475   2.143
 1891SOL    HW1 6572   5.084   2.538   2.086
 1891SOL    HW2 6573   5.089   2.387   2.146
 1892SOL     OW 6574   1.534   0.660   2.299
 1892SOL    HW1 6575   1.460   0.652   2.232
 1892SOL    HW2 6576   1.577   0.750   2.290
 1893SOL     OW 6577   3.240   3.724   1.468
 1893SOL    HW1 6578   3.212   3.676   1.551
 1893SOL    HW2 6579   3.178   3.701   1.393
 1894SOL     OW 6580   3.644   4.131   3.891
 1894SOL    HW1 6581   3.725   4.072   3.888
 1894SOL    HW2 6582   3.614   4.141   3.986
 1895SOL     OW 6583   4.520   0.555   1.257
 1895SOL    HW1 6584   4.480   0.644   1.234
 1895SOL    HW2 6585   4.618   0.565   1.272
 1896SOL     OW 6586   5.323   1.284   1.597
 1896SOL    HW1 6587   5.400   1.334   1.637
 1896SOL    HW2 6588   5.276   1.231   1.667
 1897SOL     OW 6589   2.201   5.390   1.686
 1897SOL    HW1 6590   2.158   5.303   1.710
 1897SOL    HW2 6591   2.215   5.393   1.587
 1898SOL     OW 6592   2.175   5.147   3.783
 1898SOL    HW1 6593   2.077   5.145   3.802
 1898SOL    HW2 6594   2.199   5.069   3.725
 1899SOL     OW 6595   0.419   1.364   1.510
 1899SOL    HW1 6596   0.417   1.265   1.494
 1899SOL    HW2 6597   0.337   1.391   1.560
 1900SOL     OW 6598   2.372   0.613   6.865
 1900SOL    HW1 6599   2.295   0.665   6.828
 1900SOL    HW2 6600   2.458   0.648   6.827
 1901SOL     OW 6601   1.580   2.017   0.575
 1901SOL    HW1 6602   1.636   2.099   0.579
 1901SOL    HW2 6603   1.610   1.952   0.645
 1902SOL     OW 6604   2.178   0.671   5.030
 1902SOL    HW1 6605   2.246   0.712   5.091
 1902SOL    HW2 6606   2.093   0.656   5.080
 1903SOL     OW 6607   0.118   3.822   2.987
 1903SOL    HW1 6608   0.100   3.909   3.034
 1903SOL    HW2 6609   0.215   3.800   2.996
 1904SOL     OW 6610   6.013   5.404   3.884
 1904SOL    HW1 6611   5.997   5.413   3.983
 1904SOL    HW2 6612   6.063   5.484   3.851
 1905SOL     OW 6613   0.927   0.066   3.377
 1905SOL    HW1 6614   0.996   0.022   3.320
 1905SOL    HW2 6615   0.836   0.050   3.337
 1906SOL     OW 6616   2.050   0.223   5.091
 1906SOL    HW1 6617   2.124   0.260   5.035
 1906SOL    HW2 6618   1.966   0.276   5.074
 1907SOL     OW 6619   4.234   1.729   1.806
 1907SOL    HW1 6620   4.163   1.757   1.741
 1907SOL    HW2 6621   4.194   1.721   1.898
 1908SOL     OW 6622   3.706   6.292   5.543
 1908SOL    HW1 6623   3.724   6.361   5.613
 1908SOL    HW2 6624   3.607   6.277   5.536
 1909SOL     OW 6625   0.773   3.450   3.651
 1909SOL    HW1 6626   0.853   3.505   3.674
 1909SOL    HW2 6627   0.785   3.358   3.690
 1910SOL     OW 6628   0.187   5.337   5.793
 1910SOL    HW1 6629   0.170   5.426   5.836
 1910SOL    HW2 6630   0.139   5.265   5.844
 1911SOL     OW 6631   0.043   3.748   4.851
 1911SOL    HW1 6632   0.048   3.715   4.946
 1911SOL    HW2 6633   0.016   3.673   4.792
 1912SOL     OW 6634   2.840   5.908   1.257
 1912SOL    HW1 6635   2.924   5.923   1.309
 1912SOL    HW2 6636   2.771   5.866   1.317
 1913SOL     OW 6637   2.637   0.314   4.742
 1913SOL    HW1 6638   2.686   0.400   4.758
 1913SOL    HW2 6639   2.583   0.321   4.658
 1914SOL     OW 6640   3.593   2.935   6.498
 1914SOL    HW1 6641   3.648   2.988   6.434
 1914SOL    HW2 6642   3.653   2.883   6.558
 1915SOL     OW 6643   3.802   2.568   5.635
 1915SOL    HW1 6644   3.741   2.640   5.600
 1915SOL    HW2 6645   3.875   2.552   5.569
 1916SOL     OW 6646   4.052   5.791   1.441
 1916SOL    HW1 6647   4.019   5.703   1.408
 1916SOL    HW2 6648   4.083   5.846   1.363
 1917SOL     OW 6649   2.291   3.264   6.976
 1917SOL    HW1 6650   2.382   3.302   6.958
 1917SOL    HW2 6651   2.272   3.267   0.048
 1918SOL     OW 6652   1.244   1.620   4.846
 1918SOL    HW1 6653   1.261   1.689   4.917
 1918SOL    HW2 6654   1.329   1.570   4.827
 1919SOL     OW 6655   1.535   1.690   1.383
 1919SOL    HW1 6656   1.589   1.712   1.302
 1919SOL    HW2 6657   1.538   1.767   1.447
 1920SOL     OW 6658   6.524   4.237   3.010
 1920SOL    HW1 6659   6.509   4.283   3.098
 1920SOL    HW2 6660   6.438   4.196   2.979
 1921SOL     OW 6661   2.006   3.353   0.015
 1921SOL    HW1 6662   2.090   3.303   7.024
 1921SOL    HW2 6663   1.930   3.289   0.026
 1922SOL     OW 6664   2.985   3.534   1.496
 1922SOL    HW1 6665   2.933   3.585   1.564
 1922SOL    HW2 6666   3.076   3.514   1.531
 1923SOL     OW 6667   3.974   1.922   6.506
 1923SOL    HW1 6668   3.967   1.851   6.436
 1923SOL    HW2 6669   3.992   1.880   6.595
 1924SOL     OW 6670   4.639   6.577   0.548
 1924SOL    HW1 6671   4.658   6.623   0.461
 1924SOL    HW2 6672   4.568   6.627   0.598
 1925SOL     OW 6673   1.317   4.942   1.042
 1925SOL    HW1 6674   1.307   4.843   1.054
 1925SOL    HW2 6675   1.399   4.961   0.989
 1926SOL     OW 6676   3.129   0.127   2.479
 1926SOL    HW1 6677   3.084   0.091   2.397
 1926SOL    HW2 6678   3.167   0.217   2.459
 1927SOL     OW 6679   2.428   4.953   0.228
 1927SOL    HW1 6680   2.434   4.981   0.324
 1927SOL    HW2 6681   2.469   4.862   0.217
 1928SOL     OW 6682   5.920   4.249   4.933
 1928SOL    HW1 6683   5.847   4.276   4.871
 1928SOL    HW2 6684   5.980   4.183   4.887
 1929SOL     OW 6685   2.658   0.722   1.649
 1929SOL    HW1 6686   2.640   0.789   1.577
 1929SOL    HW2 6687   2.578   0.714   1.707
 1930SOL     OW 6688   5.128   3.720   6.668
 1930SOL    HW1 6689   5.104   3.736   6.572
 1930SOL    HW2 6690   5.101   3.798   6.723
 1931SOL     OW 6691   0.733   1.949   0.198
 1931SOL    HW1 6692   0.706   2.014   0.127
 1931SOL    HW2 6693   0.759   1.862   0.156
 1932SOL     OW 6694   4.526   2.509   3.508
 1932SOL    HW1 6695   4.461   2.496   3.583
 1932SOL    HW2 6696   4.481   2.488   3.421
 1933SOL     OW 6697   0.866   2.914   0.641
 1933SOL    HW1 6698   0.867   2.900   0.740
 1933SOL    HW2 6699   0.814   2.841   0.598
 1934SOL     OW 6700   6.994   1.417   4.886
 1934SOL    HW1 6701   6.966   1.473   4.964
 1934SOL    HW2 6702   6.918   1.359   4.857
 1935SOL     OW 6703   4.317   4.800   3.675
 1935SOL    HW1 6704   4.364   4.723   3.718
 1935SOL    HW2 6705   4.278   4.770   3.587
 1936SOL     OW 6706   4.849   3.763   3.725
 1936SOL    HW1 6707   4.912   3.790   3.797
 1936SOL    HW2 6708   4.811   3.844   3.681
 1937SOL     OW 6709   4.543   6.439   0.005
 1937SOL    HW1 6710   4.586   6.403   6.949
 1937SOL    HW2 6711   4.486   6.518   7.007
 1938SOL     OW 6712   1.768   2.126   1.012
 1938SOL    HW1 6713   1.826   2.053   0.978
 1938SOL    HW2 6714   1.815   2.175   1.085
 1939SOL     OW 6715   6.568   6.896   4.436
 1939SOL    HW1 6716   6.523   6.866   4.520
 1939SOL    HW2 6717   6.633   6.826   4.406
 1940SOL     OW 6718   6.163   4.165   1.277
 1940SOL    HW1 6719   6.261   4.161   1.259
 1940SOL    HW2 6720   6.115   4.197   1.195
 1941SOL     OW 6721   1.663   2.752   3.807
 1941SOL    HW1 6722   1.633   2.772   3.713
 1941SOL    HW2 6723   1.752   2.795   3.823
 1942SOL     OW 6724   5.357   3.490   2.773
 1942SOL    HW1 6725   5.285   3.518   2.837
 1942SOL    HW2 6726   5.315   3.463   2.686
 1943SOL     OW 6727   1.105   0.773   2.372
 1943SOL    HW1 6728   1.167   0.738   2.302
 1943SOL    HW2 6729   1.124   0.728   2.459
 1944SOL     OW 6730   5.872   4.242   0.242
 1944SOL    HW1 6731   5.941   4.170   0.241
 1944SOL    HW2 6732   5.792   4.211   0.294
 1945SOL     OW 6733   3.668   5.854   0.368
 1945SOL    HW1 6734   3.656   5.837   0.466
 1945SOL    HW2 6735   3.604   5.925   0.339
 1946SOL     OW 6736   5.838   6.716   1.571
 1946SOL    HW1 6737   5.904   6.646   1.544
 1946SOL    HW2 6738   5.748   6.691   1.538
 1947SOL     OW 6739   5.670   5.667   3.923
 1947SOL    HW1 6740   5.646   5.593   3.861
 1947SOL    HW2 6741   5.666   5.755   3.875
 1948SOL     OW 6742   5.957   5.282   2.565
 1948SOL    HW1 6743   5.940   5.201   2.509
 1948SOL    HW2 6744   5.907   5.274   2.651
 1949SOL     OW 6745   4.241   3.480   0.236
 1949SOL    HW1 6746   4.272   3.440   0.150
 1949SOL    HW2 6747   4.160   3.431   0.268
 1950SOL     OW 6748   3.962   3.068   3.143
 1950SOL    HW1 6749   4.018   3.111   3.072
 1950SOL    HW2 6750   3.868   3.103   3.136
 1951SOL     OW 6751   0.303   4.522   6.169
 1951SOL    HW1 6752   0.270   4.602   6.218
 1951SOL    HW2 6753   0.388   4.490   6.210
 1952SOL     OW 6754   5.482   4.912   1.252
 1952SOL    HW1 6755   5.508   4.923   1.348
 1952SOL    HW2 6756   5.419   4.985   1.226
 1953SOL     OW 6757   6.645   1.574   6.243
 1953SOL    HW1 6758   6.717   1.637   6.216
 1953SOL    HW2 6759   6.683   1.506   6.306
 1954SOL     OW 6760   5.670   6.957   1.510
 1954SOL    HW1 6761   5.637   6.880   1.564
 1954SOL    HW2 6762   5.758   6.987   1.546
 1955SOL     OW 6763   0.101   0.976   1.817
 1955SOL    HW1 6764   0.025   0.995   1.755
 1955SOL    HW2 6765   0.133   0.882   1.803
 1956SOL     OW 6766   4.747   6.804   2.409
 1956SOL    HW1 6767   4.799   6.890   2.411
 1956SOL    HW2 6768   4.734   6.771   2.503
 1957SOL     OW 6769   5.059   4.591   4.212
 1957SOL    HW1 6770   5.043   4.688   4.230
 1957SOL    HW2 6771   5.130   4.581   4.143
 1958SOL     OW 6772   4.544   1.027   1.976
 1958SOL    HW1 6773   4.597   0.963   2.033
 1958SOL    HW2 6774   4.469   0.978   1.932
 1959SOL     OW 6775   0.174   6.390   4.068
 1959SOL    HW1 6776   0.263   6.435   4.062
 1959SOL    HW2 6777   0.180   6.314   4.133
 1960SOL     OW 6778   0.094   3.733   2.503
 1960SOL    HW1 6779   0.000   3.747   2.534
 1960SOL    HW2 6780   0.101   3.645   2.456
 1961SOL     OW 6781   5.816   4.564   4.354
 1961SOL    HW1 6782   5.821   4.547   4.255
 1961SOL    HW2 6783   5.775   4.654   4.370
 1962SOL     OW 6784   1.130   6.221   3.039
 1962SOL    HW1 6785   1.034   6.207   3.065
 1962SOL    HW2 6786   1.174   6.280   3.106
 1963SOL     OW 6787   1.642   1.954   1.280
 1963SOL    HW1 6788   1.718   2.016   1.297
 1963SOL    HW2 6789   1.588   1.944   1.364
 1964SOL     OW 6790   4.762   4.961   1.707
 1964SOL    HW1 6791   4.683   4.941   1.648
 1964SOL    HW2 6792   4.828   5.016   1.657
 1965SOL     OW 6793   2.128   2.659   4.032
 1965SOL    HW1 6794   2.057   2.730   4.024
 1965SOL    HW2 6795   2.085   2.569   4.029
 1966SOL     OW 6796   1.726   5.575   1.179
 1966SOL    HW1 6797   1.761   5.669   1.178
 1966SOL    HW2 6798   1.656   5.565   1.109
 1967SOL     OW 6799   6.114   2.516   4.317
 1967SOL    HW1 6800   6.109   2.577   4.239
 1967SOL    HW2 6801   6.092   2.566   4.401
 1968SOL     OW 6802   2.584   0.674   5.309
 1968SOL    HW1 6803   2.550   0.590   5.352
 1968SOL    HW2 6804   2.625   0.652   5.221
 1969SOL     OW 6805   3.442   0.547   1.651
 1969SOL    HW1 6806   3.430   0.526   1.554
 1969SOL    HW2 6807   3.352   0.557   1.694
 1970SOL     OW 6808   0.122   0.267   5.318
 1970SOL    HW1 6809   0.216   0.294   5.338
 1970SOL    HW2 6810   0.081   0.225   5.400
 1971SOL     OW 6811   0.386   1.096   5.578
 1971SOL    HW1 6812   0.385   1.183   5.628
 1971SOL    HW2 6813   0.307   1.042   5.605
 1972SOL     OW 6814   5.688   2.591   1.711
 1972SOL    HW1 6815   5.708   2.494   1.724
 1972SOL    HW2 6816   5.595   2.601   1.676
 1973SOL     OW 6817   2.637   4.324   1.579
 1973SOL    HW1 6818   2.618   4.380   1.499
 1973SOL    HW2 6819   2.604   4.371   1.661
 1974SOL     OW 6820   4.565   6.816   4.653
 1974SOL    HW1 6821   4.512   6.788   4.573
 1974SOL    HW2 6822   4.622   6.895   4.629
 1975SOL     OW 6823   2.074   1.989   3.893
 1975SOL    HW1 6824   2.146   1.973   3.825
 1975SOL    HW2 6825   2.107   1.959   3.983
 1976SOL     OW 6826   5.397   6.014   6.862
 1976SOL    HW1 6827   5.403   6.066   6.948
 1976SOL    HW2 6828   5.345   5.930   6.878
 1977SOL     OW 6829   1.994   3.196   5.247
 1977SOL    HW1 6830   1.965   3.274   5.192
 1977SOL    HW2 6831   2.089   3.208   5.275
 1978SOL     OW 6832   1.551   5.839   2.791
 1978SOL    HW1 6833   1.617   5.784   2.842
 1978SOL    HW2 6834   1.521   5.916   2.846
 1979SOL     OW 6835   5.249   5.287   6.859
 1979SOL    HW1 6836   5.300   5.275   6.774
 1979SOL    HW2 6837   5.269   5.212   6.921
 1980SOL     OW 6838   3.745   0.640   3.061
 1980SOL    HW1 6839   3.677   0.568   3.052
 1980SOL    HW2 6840   3.817   0.610   3.123
 1981SOL     OW 6841   5.731   2.573   2.668
 1981SOL    HW1 6842   5.766   2.550   2.759
 1981SOL    HW2 6843   5.793   2.639   2.625
 1982SOL     OW 6844   6.609   3.986   3.650
 1982SOL    HW1 6845   6.556   4.054   3.700
 1982SOL    HW2 6846   6.549   3.911   3.622
 1983SOL     OW 6847   0.919   0.381   1.717
 1983SOL    HW1 6848   0.929   0.470   1.673
 1983SOL    HW2 6849   0.999   0.324   1.698
 1984SOL     OW 6850   4.611   2.574   5.474
 1984SOL    HW1 6851   4.543   2.640   5.503
 1984SOL    HW2 6852   4.602   2.557   5.375
 1985SOL     OW 6853   6.823   5.731   2.328
 1985SOL    HW1 6854   6.898   5.666   2.310
 1985SOL    HW2 6855   6.789   5.767   2.242
 1986SOL     OW 6856   2.901   1.150   6.003
 1986SOL    HW1 6857   2.939   1.058   6.003
 1986SOL    HW2 6858   2.818   1.152   6.059
 1987SOL     OW 6859   2.103   1.518   3.581
 1987SOL    HW1 6860   2.199   1.492   3.588
 1987SOL    HW2 6861   2.069   1.545   3.671
 1988SOL     OW 6862   0.413   1.525   1.057
 1988SOL    HW1 6863   0.463   1.504   1.141
 1988SOL    HW2 6864   0.325   1.479   1.058
 1989SOL     OW 6865   2.368   5.810   4.226
 1989SOL    HW1 6866   2.298   5.881   4.232
 1989SOL    HW2 6867   2.342   5.733   4.284
 1990SOL     OW 6868   3.545   6.413   0.584
 1990SOL    HW1 6869   3.499   6.494   0.548
 1990SOL    HW2 6870   3.477   6.343   0.606
 1991SOL     OW 6871   2.156   5.296   0.175
 1991SOL    HW1 6872   2.219   5.300   0.097
 1991SOL    HW2 6873   2.194   5.349   0.251
 1992SOL     OW 6874   6.781   0.408   0.499
 1992SOL    HW1 6875   6.853   0.405   0.567
 1992SOL    HW2 6876   6.726   0.491   0.512
 1993SOL     OW 6877   3.542   2.044   4.971
 1993SOL    HW1 6878   3.550   2.111   5.045
 1993SOL    HW2 6879   3.445   2.027   4.953
 1994SOL     OW 6880   5.027   1.985   0.988
 1994SOL    HW1 6881   4.958   1.997   1.059
 1994SOL    HW2 6882   5.018   2.058   0.920
 1995SOL     OW 6883   5.594   3.335   4.081
 1995SOL    HW1 6884   5.684   3.343   4.124
 1995SOL    HW2 6885   5.598   3.375   3.989
 1996SOL     OW 6886   2.748   1.952   1.345
 1996SOL    HW1 6887   2.683   1.876   1.333
 1996SOL    HW2 6888   2.731   2.020   1.274
 1997SOL     OW 6889   3.196   1.751   3.867
 1997SOL    HW1 6890   3.266   1.731   3.936
 1997SOL    HW2 6891   3.240   1.761   3.778
 1998SOL     OW 6892   1.529   3.869   0.756
 1998SOL    HW1 6893   1.457   3.862   0.825
 1998SOL    HW2 6894   1.559   3.777   0.730
 1999SOL     OW 6895   0.559   0.594   4.922
 1999SOL    HW1 6896   0.641   0.555   4.879
 1999SOL    HW2 6897   0.483   0.590   4.858
 2000SOL     OW 6898   4.304   3.329   6.031
 2000SOL    HW1 6899   4.235   3.258   6.015
 2000SOL    HW2 6900   4.294   3.400   5.962
 2001SOL     OW 6901   2.021   1.506   7.025
 2001SOL    HW1 6902   1.965   1.564   0.059
 2001SOL    HW2 6903   2.118   1.524   0.018
 2002SOL     OW 6904   0.490   5.639   0.646
 2002SOL    HW1 6905   0.519   5.713   0.586
 2002SOL    HW2 6906   0.503   5.666   0.741
 2003SOL     OW 6907   6.596   5.368   1.785
 2003SOL    HW1 6908   6.624   5.273   1.771
 2003SOL    HW2 6909   6.497   5.372   1.801
 2004SOL     OW 6910   4.541   0.959   4.830
 2004SOL    HW1 6911   4.569   1.010   4.912
 2004SOL    HW2 6912   4.591   0.872   4.826
 2005SOL     OW 6913   6.934   4.981   7.015
 2005SOL    HW1 6914   6.943   5.080   7.025
 2005SOL    HW2 6915   6.878   4.945   0.064
 2006SOL     OW 6916   5.625   6.794   4.443
 2006SOL    HW1 6917   5.653   6.769   4.536
 2006SOL    HW2 6918   5.648   6.719   4.380
 2007SOL     OW 6919   5.431   3.936   1.327
 2007SOL    HW1 6920   5.352   3.919   1.386
 2007SOL    HW2 6921   5.401   3.972   1.239
 2008SOL     OW 6922   2.198   3.194   3.566
 2008SOL    HW1 6923   2.147   3.131   3.626
 2008SOL    HW2 6924   2.186   3.288   3.599
 2009SOL     OW 6925   5.497   6.442   2.379
 2009SOL    HW1 6926   5.561   6.505   2.336
 2009SOL    HW2 6927   5.411   6.489   2.397
 2010SOL     OW 6928   1.777   1.586   1.270
 2010SOL    HW1 6929   1.788   1.576   1.369
 2010SOL    HW2 6930   1.712   1.517   1.237
 2011SOL     OW 6931   0.100   0.682   4.786
 2011SOL    HW1 6932   0.175   0.746   4.805
 2011SOL    HW2 6933   0.130   0.615   4.719
 2012SOL     OW 6934   1.261   3.699   1.887
 2012SOL    HW1 6935   1.286   3.793   1.866
 2012SOL    HW2 6936   1.249   3.648   1.802
 2013SOL     OW 6937   6.846   3.077   3.377
 2013SOL    HW1 6938   6.769   3.080   3.314
 2013SOL    HW2 6939   6.835   3.147   3.448
 2014SOL     OW 6940   2.976   0.281   2.897
 2014SOL    HW1 6941   2.938   0.332   2.820
 2014SOL    HW2 6942   2.903   0.263   2.964
 2015SOL     OW 6943   3.280   6.561   0.741
 2015SOL    HW1 6944   3.276   6.618   0.823
 2015SOL    HW2 6945   3.315   6.615   0.665
 2016SOL     OW 6946   1.684   5.781   5.413
 2016SOL    HW1 6947   1.663   5.824   5.325
 2016SOL    HW2 6948   1.724   5.849   5.474
 2017SOL     OW 6949   4.158   0.364   3.435
 2017SOL    HW1 6950   4.217   0.430   3.388
 2017SOL    HW2 6951   4.146   0.283   3.378
 2018SOL     OW 6952   6.887   2.861   4.005
 2018SOL    HW1 6953   6.898   2.954   3.970
 2018SOL    HW2 6954   6.913   2.859   4.102
 2019SOL     OW 6955   5.960   4.403   6.168
 2019SOL    HW1 6956   5.952   4.446   6.258
 2019SOL    HW2 6957   6.040   4.343   6.167
 2020SOL     OW 6958   1.846   6.287   5.767
 2020SOL    HW1 6959   1.933   6.265   5.723
 2020SOL    HW2 6960   1.773   6.237   5.721
 2021SOL     OW 6961   6.186   6.512   3.870
 2021SOL    HW1 6962   6.223   6.592   3.917
 2021SOL    HW2 6963   6.136   6.455   3.935
 2022SOL     OW 6964   2.222   4.640   4.449
 2022SOL    HW1 6965   2.302   4.688   4.413
 2022SOL    HW2 6966   2.219   4.648   4.548
 2023SOL     OW 6967   0.490   0.144   6.821
 2023SOL    HW1 6968   0.542   0.082   6.879
 2023SOL    HW2 6969   0.430   0.092   6.761
 2024SOL     OW 6970   0.078   5.571   3.997
 2024SOL    HW1 6971   0.165   5.569   4.046
 2024SOL    HW2 6972   0.071   5.491   3.938
 2025SOL     OW 6973   3.089   0.522   3.308
 2025SOL    HW1 6974   3.029   0.585   3.358
 2025SOL    HW2 6975   3.153   0.479   3.372
 2026SOL     OW 6976   6.531   2.121   6.746
 2026SOL    HW1 6977   6.474   2.059   6.800
 2026SOL    HW2 6978   6.510   2.111   6.649
 2027SOL     OW 6979   0.610   6.254   1.369
 2027SOL    HW1 6980   0.666   6.175   1.392
 2027SOL    HW2 6981   0.558   6.283   1.449
 2028SOL     OW 6982   3.296   5.833   2.878
 2028SOL    HW1 6983   3.215   5.786   2.912
 2028SOL    HW2 6984   3.359   5.850   2.954
 2029SOL     OW 6985   6.843   2.540   6.935
 2029SOL    HW1 6986   6.889   2.579   7.015
 2029SOL    HW2 6987   6.751   2.509   6.960
 2030SOL     OW 6988   3.174   6.830   2.296
 2030SOL    HW1 6989   3.076   6.816   2.301
 2030SOL    HW2 6990   3.194   6.906   2.233
 2031SOL     OW 6991   6.816   6.191   2.409
 2031SOL    HW1 6992   6.855   6.278   2.379
 2031SOL    HW2 6993   6.762   6.206   2.492
 2032SOL     OW 6994   3.586   1.222   0.936
 2032SOL    HW1 6995   3.508   1.224   0.999
 2032SOL    HW2 6996   3.557   1.257   0.847
 2033SOL     OW 6997   1.972   1.262   0.481
 2033SOL    HW1 6998   1.905   1.202   0.439
 2033SOL    HW2 6999   2.059   1.214   0.491
 2034SOL     OW 7000   1.920   5.189   5.739
 2034SOL    HW1 7001   1.988   5.167   5.669
 2034SOL    HW2 7002   1.881   5.279   5.721
 2035SOL     OW 7003   6.465   6.939   2.304
 2035SOL    HW1 7004   6.492   6.865   2.243
 2035SOL    HW2 7005   6.543   6.967   2.359
 2036SOL     OW 7006   1.679   3.475   3.392
 2036SOL    HW1 7007   1.582   3.497   3.402
 2036SOL    HW2 7008   1.704   3.475   3.295
 2037SOL     OW 7009   6.546   2.847   6.007
 2037SOL    HW1 7010   6.514   2.887   5.921
 2037SOL    HW2 7011   6.546   2.747   5.999
 2038SOL     OW 7012   2.831   1.180   0.149
 2038SOL    HW1 7013   2.828   1.089   0.107
 2038SOL    HW2 7014   2.739   1.206   0.179
 2039SOL     OW 7015   0.130   6.249   2.637
 2039SOL    HW1 7016   0.159   6.235   2.543
 2039SOL    HW2 7017   0.202   6.218   2.699
 2040SOL     OW 7018   1.827   2.041   7.015
 2040SOL    HW1 7019   1.874   1.984   0.056
 2040SOL    HW2 7020   1.844   2.005   6.923
 2041SOL     OW 7021   1.185   0.439   5.407
 2041SOL    HW1 7022   1.140   0.401   5.326
 2041SOL    HW2 7023   1.159   0.535   5.417
 2042SOL     OW 7024   4.789   0.056   6.156
 2042SOL    HW1 7025   4.878   0.032   6.118
 2042SOL    HW2 7026   4.780   0.156   6.160
 2043SOL     OW 7027   6.397   2.390   2.199
 2043SOL    HW1 7028   6.487   2.392   2.243
 2043SOL    HW2 7029   6.383   2.475   2.149
 2044SOL     OW 7030   5.992   1.050   1.432
 2044SOL    HW1 7031   5.966   0.954   1.417
 2044SOL    HW2 7032   5.989   1.070   1.530
 2045SOL     OW 7033   1.257   5.959   4.859
 2045SOL    HW1 7034   1.280   5.980   4.764
 2045SOL    HW2 7035   1.200   6.032   4.897
 2046SOL     OW 7036   6.552   2.374   5.352
 2046SOL    HW1 7037   6.509   2.399   5.439
 2046SOL    HW2 7038   6.557   2.455   5.293
 2047SOL     OW 7039   5.843   2.176   1.275
 2047SOL    HW1 7040   5.822   2.106   1.207
 2047SOL    HW2 7041   5.908   2.241   1.236
 2048SOL     OW 7042   0.142   1.050   4.705
 2048SOL    HW1 7043   0.053   1.017   4.736
 2048SOL    HW2 7044   0.161   1.014   4.614
 2049SOL     OW 7045   4.541   1.353   4.619
 2049SOL    HW1 7046   4.603   1.370   4.695
 2049SOL    HW2 7047   4.512   1.258   4.620
 2050SOL     OW 7048   0.235   2.480   4.666
 2050SOL    HW1 7049   0.217   2.571   4.703
 2050SOL    HW2 7050   0.313   2.439   4.714
 2051SOL     OW 7051   2.087   6.002   0.179
 2051SOL    HW1 7052   2.187   6.007   0.180
 2051SOL    HW2 7053   2.050   6.067   0.245
 2052SOL     OW 7054   1.309   3.109   0.540
 2052SOL    HW1 7055   1.228   3.121   0.483
 2052SOL    HW2 7056   1.286   3.051   0.619
 2053SOL     OW 7057   1.108   5.349   4.673
 2053SOL    HW1 7058   1.170   5.332   4.750
 2053SOL    HW2 7059   1.047   5.271   4.660
 2054SOL     OW 7060   3.210   3.089   3.378
 2054SOL    HW1 7061   3.262   3.004   3.376
 2054SOL    HW2 7062   3.246   3.151   3.308
 2055SOL     OW 7063   6.997   2.580   4.997
 2055SOL    HW1 7064   6.974   2.566   4.901
 2055SOL    HW2 7065   6.970   2.672   5.025
 2056SOL     OW 7066   4.478   4.264   1.268
 2056SOL    HW1 7067   4.477   4.341   1.204
 2056SOL    HW2 7068   4.471   4.299   1.361
 2057SOL     OW 7069   5.154   3.098   4.391
 2057SOL    HW1 7070   5.240   3.063   4.429
 2057SOL    HW2 7071   5.115   3.166   4.453
 2058SOL     OW 7072   0.525   6.691   2.518
 2058SOL    HW1 7073   0.514   6.788   2.495
 2058SOL    HW2 7074   0.445   6.640   2.488
 2059SOL     OW 7075   2.787   0.618   5.513
 2059SOL    HW1 7076   2.706   0.632   5.456
 2059SOL    HW2 7077   2.869   0.628   5.458
 2060SOL     OW 7078   0.575   3.014   1.266
 2060SOL    HW1 7079   0.656   3.021   1.325
 2060SOL    HW2 7080   0.535   2.923   1.277
 2061SOL     OW 7081   1.883   2.829   2.299
 2061SOL    HW1 7082   1.913   2.923   2.311
 2061SOL    HW2 7083   1.822   2.823   2.220
 2062SOL     OW 7084   6.591   5.587   5.378
 2062SOL    HW1 7085   6.689   5.576   5.391
 2062SOL    HW2 7086   6.554   5.646   5.450
 2063SOL     OW 7087   1.377   6.449   4.851
 2063SOL    HW1 7088   1.447   6.484   4.789
 2063SOL    HW2 7089   1.399   6.475   4.945
 2064SOL     OW 7090   1.370   3.435   4.292
 2064SOL    HW1 7091   1.428   3.433   4.211
 2064SOL    HW2 7092   1.325   3.524   4.300
 2065SOL     OW 7093   5.188   3.338   6.164
 2065SOL    HW1 7094   5.216   3.318   6.070
 2065SOL    HW2 7095   5.267   3.329   6.225
 2066SOL     OW 7096   6.640   3.955   5.469
 2066SOL    HW1 7097   6.715   4.018   5.450
 2066SOL    HW2 7098   6.645   3.925   5.564
 2067SOL     OW 7099   6.216   4.791   1.636
 2067SOL    HW1 7100   6.170   4.703   1.624
 2067SOL    HW2 7101   6.149   4.861   1.661
 2068SOL     OW 7102   3.944   1.552   4.379
 2068SOL    HW1 7103   4.008   1.617   4.339
 2068SOL    HW2 7104   3.852   1.590   4.378
 2069SOL     OW 7105   0.357   2.050   4.130
 2069SOL    HW1 7106   0.276   2.086   4.084
 2069SOL    HW2 7107   0.336   2.035   4.227
 2070SOL     OW 7108   1.665   2.710   1.019
 2070SOL    HW1 7109   1.762   2.732   1.020
 2070SOL    HW2 7110   1.645   2.643   1.090
 2071SOL     OW 7111   5.978   1.506   6.358
 2071SOL    HW1 7112   5.882   1.494   6.334
 2071SOL    HW2 7113   5.985   1.557   6.443
 2072SOL     OW 7114   3.969   5.201   5.578
 2072SOL    HW1 7115   3.953   5.285   5.631
 2072SOL    HW2 7116   3.889   5.183   5.521
 2073SOL     OW 7117   3.755   6.149   5.840
 2073SOL    HW1 7118   3.780   6.141   5.937
 2073SOL    HW2 7119   3.755   6.246   5.814
 2074SOL     OW 7120   1.596   2.677   6.321
 2074SOL    HW1 7121   1.677   2.648   6.372
 2074SOL    HW2 7122   1.602   2.775   6.303
 2075SOL     OW 7123   6.471   2.226   2.990
 2075SOL    HW1 7124   6.387   2.254   2.943
 2075SOL    HW2 7125   6.504   2.302   3.047
 2076SOL     OW 7126   6.218   0.318   5.292
 2076SOL    HW1 7127   6.134   0.370   5.280
 2076SOL    HW2 7128   6.235   0.303   5.389
 2077SOL     OW 7129   6.584   2.051   1.727
 2077SOL    HW1 7130   6.667   1.997   1.746
 2077SOL    HW2 7131   6.507   2.010   1.775
 2078SOL     OW 7132   1.596   4.916   5.988
 2078SOL    HW1 7133   1.568   5.012   5.989
 2078SOL    HW2 7134   1.665   4.903   5.916
 2079SOL     OW 7135   5.782   1.363   2.399
 2079SOL    HW1 7136   5.873   1.404   2.406
 2079SOL    HW2 7137   5.772   1.319   2.310
 2080SOL     OW 7138   3.451   1.753   4.772
 2080SOL    HW1 7139   3.367   1.747   4.718
 2080SOL    HW2 7140   3.428   1.777   4.866
 2081SOL     OW 7141   0.760   6.296   3.362
 2081SOL    HW1 7142   0.669   6.261   3.383
 2081SOL    HW2 7143   0.805   6.324   3.446
 2082SOL     OW 7144   1.108   5.679   3.072
 2082SOL    HW1 7145   1.037   5.621   3.111
 2082SOL    HW2 7146   1.161   5.721   3.145
 2083SOL     OW 7147   0.871   5.544   3.935
 2083SOL    HW1 7148   0.797   5.477   3.939
 2083SOL    HW2 7149   0.851   5.611   3.864
 2084SOL     OW 7150   1.308   2.218   1.177
 2084SOL    HW1 7151   1.398   2.228   1.136
 2084SOL    HW2 7152   1.292   2.294   1.240
 2085SOL     OW 7153   4.839   5.947   0.610
 2085SOL    HW1 7154   4.811   5.893   0.531
 2085SOL    HW2 7155   4.933   5.924   0.635
 2086SOL     OW 7156   3.233   6.432   6.953
 2086SOL    HW1 7157   3.164   6.504   6.965
 2086SOL    HW2 7158   3.199   6.346   6.992
 2087SOL     OW 7159   3.991   2.373   6.874
 2087SOL    HW1 7160   3.985   2.462   6.829
 2087SOL    HW2 7161   3.900   2.332   6.879
 2088SOL     OW 7162   1.058   6.110   5.405
 2088SOL    HW1 7163   1.061   6.092   5.307
 2088SOL    HW2 7164   1.128   6.178   5.428
 2089SOL     OW 7165   3.960   2.487   5.431
 2089SOL    HW1 7166   3.990   2.411   5.489
 2089SOL    HW2 7167   4.032   2.507   5.364
 2090SOL     OW 7168   4.719   3.096   5.542
 2090SOL    HW1 7169   4.625   3.095   5.576
 2090SOL    HW2 7170   4.772   3.165   5.593
 2091SOL     OW 7171   0.004   5.918   1.292
 2091SOL    HW1 7172   0.102   5.922   1.272
 2091SOL    HW2 7173   7.004   5.999   1.344
 2092SOL     OW 7174   5.227   3.786   0.988
 2092SOL    HW1 7175   5.210   3.688   0.976
 2092SOL    HW2 7176   5.325   3.804   0.976
 2093SOL     OW 7177   3.726   2.136   2.270
 2093SOL    HW1 7178   3.726   2.182   2.181
 2093SOL    HW2 7179   3.645   2.163   2.321
 2094SOL     OW 7180   5.960   2.634   0.432
 2094SOL    HW1 7181   6.048   2.587   0.439
 2094SOL    HW2 7182   5.904   2.590   0.362
 2095SOL     OW 7183   6.153   6.210   3.065
 2095SOL    HW1 7184   6.132   6.300   3.103
 2095SOL    HW2 7185   6.251   6.206   3.043
 2096SOL     OW 7186   4.570   6.250   3.007
 2096SOL    HW1 7187   4.509   6.301   2.946
 2096SOL    HW2 7188   4.560   6.152   2.989
 2097SOL     OW 7189   3.168   4.076   6.194
 2097SOL    HW1 7190   3.186   3.994   6.247
 2097SOL    HW2 7191   3.111   4.053   6.115
 2098SOL     OW 7192   4.135   6.208   3.273
 2098SOL    HW1 7193   4.101   6.142   3.205
 2098SOL    HW2 7194   4.212   6.258   3.235
 2099SOL     OW 7195   4.279   2.067   0.130
 2099SOL    HW1 7196   4.186   2.102   0.120
 2099SOL    HW2 7197   4.305   2.067   0.226
 2100SOL     OW 7198   4.970   1.163   0.579
 2100SOL    HW1 7199   5.003   1.249   0.616
 2100SOL    HW2 7200   5.044   1.117   0.529
 2101SOL     OW 7201   0.422   6.412   0.639
 2101SOL    HW1 7202   0.358   6.346   0.598
 2101SOL    HW2 7203   0.515   6.391   0.608
 2102SOL     OW 7204   3.984   3.439   1.176
 2102SOL    HW1 7205   4.069   3.484   1.149
 2102SOL    HW2 7206   3.955   3.474   1.265
 2103SOL     OW 7207   3.324   3.982   0.138
 2103SOL    HW1 7208   3.377   3.901   0.115
 2103SOL    HW2 7209   3.232   3.954   0.167
 2104SOL     OW 7210   1.674   4.852   2.341
 2104SOL    HW1 7211   1.759   4.903   2.328
 2104SOL    HW2 7212   1.624   4.889   2.420
 2105SOL     OW 7213   4.699   4.673   0.242
 2105SOL    HW1 7214   4.694   4.770   0.221
 2105SOL    HW2 7215   4.627   4.624   0.193
 2106SOL     OW 7216   5.215   3.851   1.467
 2106SOL    HW1 7217   5.138   3.891   1.517
 2106SOL    HW2 7218   5.180   3.791   1.395
 2107SOL     OW 7219   5.304   3.446   5.740
 2107SOL    HW1 7220   5.316   3.350   5.767
 2107SOL    HW2 7221   5.393   3.491   5.735
 2108SOL     OW 7222   5.567   6.480   6.300
 2108SOL    HW1 7223   5.482   6.428   6.294
 2108SOL    HW2 7224   5.587   6.521   6.211
 2109SOL     OW 7225   3.149   5.297   2.172
 2109SOL    HW1 7226   3.114   5.219   2.225
 2109SOL    HW2 7227   3.169   5.373   2.234
 2110SOL     OW 7228   4.099   0.673   6.186
 2110SOL    HW1 7229   4.021   0.625   6.144
 2110SOL    HW2 7230   4.161   0.705   6.114
 2111SOL     OW 7231   1.340   2.369   5.624
 2111SOL    HW1 7232   1.287   2.453   5.638
 2111SOL    HW2 7233   1.363   2.328   5.712
 2112SOL     OW 7234   5.946   1.823   6.913
 2112SOL    HW1 7235   5.990   1.846   7.000
 2112SOL    HW2 7236   5.982   1.883   6.841
 2113SOL     OW 7237   2.241   6.679   4.578
 2113SOL    HW1 7238   2.213   6.676   4.673
 2113SOL    HW2 7239   2.315   6.746   4.567
 2114SOL     OW 7240   2.810   2.985   0.368
 2114SOL    HW1 7241   2.850   2.932   0.294
 2114SOL    HW2 7242   2.839   3.081   0.360
 2115SOL     OW 7243   1.144   4.534   2.361
 2115SOL    HW1 7244   1.189   4.619   2.334
 2115SOL    HW2 7245   1.073   4.511   2.294
 2116SOL     OW 7246   0.747   2.661   0.922
 2116SOL    HW1 7247   0.672   2.702   0.869
 2116SOL    HW2 7248   0.824   2.725   0.925
 2117SOL     OW 7249   5.062   2.759   1.537
 2117SOL    HW1 7250   5.033   2.700   1.613
 2117SOL    HW2 7251   4.985   2.777   1.477
 2118SOL     OW 7252   6.452   3.742   2.328
 2118SOL    HW1 7253   6.393   3.787   2.261
 2118SOL    HW2 7254   6.418   3.650   2.346
 2119SOL     OW 7255   1.614   0.433   6.743
 2119SOL    HW1 7256   1.590   0.529   6.750
 2119SOL    HW2 7257   1.531   0.379   6.730
 2120SOL     OW 7258   6.683   2.047   3.044
 2120SOL    HW1 7259   6.660   1.964   2.994
 2120SOL    HW2 7260   6.612   2.116   3.030
 2121SOL     OW 7261   2.428   1.652   5.969
 2121SOL    HW1 7262   2.464   1.613   5.884
 2121SOL    HW2 7263   2.431   1.583   6.041
 2122SOL     OW 7264   5.994   6.935   6.138
 2122SOL    HW1 7265   5.953   6.849   6.166
 2122SOL    HW2 7266   6.049   6.972   6.213
 2123SOL     OW 7267   6.879   6.465   2.447
 2123SOL    HW1 7268   6.828   6.551   2.441
 2123SOL    HW2 7269   6.886   6.437   2.543
 2124SOL     OW 7270   3.128   2.705   5.671
 2124SOL    HW1 7271   3.223   2.722   5.646
 2124SOL    HW2 7272   3.069   2.727   5.593
 2125SOL     OW 7273   2.039   6.265   3.252
 2125SOL    HW1 7274   2.051   6.271   3.351
 2125SOL    HW2 7275   2.072   6.177   3.219
 2126SOL     OW 7276   3.848   3.285   0.548
 2126SOL    HW1 7277   3.750   3.304   0.555
 2126SOL    HW2 7278   3.870   3.203   0.602
 2127SOL     OW 7279   6.902   2.563   5.640
 2127SOL    HW1 7280   6.944   2.653   5.655
 2127SOL    HW2 7281   6.876   2.554   5.544
 2128SOL     OW 7282   5.457   3.763   0.514
 2128SOL    HW1 7283   5.410   3.750   0.427
 2128SOL    HW2 7284   5.476   3.673   0.555
 2129SOL     OW 7285   5.289   4.103   3.198
 2129SOL    HW1 7286   5.270   4.061   3.109
 2129SOL    HW2 7287   5.283   4.034   3.270
 2130SOL     OW 7288   2.541   1.995   1.024
 2130SOL    HW1 7289   2.603   2.055   1.075
 2130SOL    HW2 7290   2.586   1.907   1.008
 2131SOL     OW 7291   5.202   1.997   6.472
 2131SOL    HW1 7292   5.290   2.045   6.463
 2131SOL    HW2 7293   5.196   1.927   6.401
 2132SOL     OW 7294   3.193   1.202   6.660
 2132SOL    HW1 7295   3.210   1.162   6.750
 2132SOL    HW2 7296   3.184   1.301   6.669
 2133SOL     OW 7297   2.730   2.156   1.159
 2133SOL    HW1 7298   2.720   2.229   1.092
 2133SOL    HW2 7299   2.786   2.188   1.235
 2134SOL     OW 7300   0.733   0.522   4.362
 2134SOL    HW1 7301   0.832   0.506   4.374
 2134SOL    HW2 7302   0.682   0.451   4.411
 2135SOL     OW 7303   0.711   2.202   3.749
 2135SOL    HW1 7304   0.805   2.211   3.717
 2135SOL    HW2 7305   0.674   2.114   3.718
 2136SOL     OW 7306   1.081   3.621   4.962
 2136SOL    HW1 7307   1.068   3.693   4.893
 2136SOL    HW2 7308   0.998   3.612   5.017
 2137SOL     OW 7309   0.725   6.886   5.214
 2137SOL    HW1 7310   0.774   6.805   5.181
 2137SOL    HW2 7311   0.668   6.861   5.292
 2138SOL     OW 7312   6.681   2.311   1.726
 2138SOL    HW1 7313   6.651   2.215   1.724
 2138SOL    HW2 7314   6.605   2.370   1.699
 2139SOL     OW 7315   2.991   0.878   3.897
 2139SOL    HW1 7316   2.914   0.942   3.899
 2139SOL    HW2 7317   2.958   0.785   3.882
 2140SOL     OW 7318   2.418   6.466   2.686
 2140SOL    HW1 7319   2.513   6.441   2.667
 2140SOL    HW2 7320   2.414   6.520   2.771
 2141SOL     OW 7321   6.812   2.703   1.196
 2141SOL    HW1 7322   6.848   2.787   1.236
 2141SOL    HW2 7323   6.787   2.639   1.269
 2142SOL     OW 7324   1.662   2.080   3.196
 2142SOL    HW1 7325   1.752   2.039   3.212
 2142SOL    HW2 7326   1.672   2.165   3.145
 2143SOL     OW 7327   3.850   6.148   1.325
 2143SOL    HW1 7328   3.878   6.208   1.250
 2143SOL    HW2 7329   3.892   6.179   1.410
 2144SOL     OW 7330   1.314   0.825   3.061
 2144SOL    HW1 7331   1.303   0.775   3.147
 2144SOL    HW2 7332   1.373   0.904   3.076
 2145SOL     OW 7333   3.276   5.623   3.789
 2145SOL    HW1 7334   3.211   5.590   3.720
 2145SOL    HW2 7335   3.279   5.723   3.788
 2146SOL     OW 7336   3.161   4.041   2.054
 2146SOL    HW1 7337   3.194   4.052   2.148
 2146SOL    HW2 7338   3.117   3.952   2.045
 2147SOL     OW 7339   0.291   1.510   0.171
 2147SOL    HW1 7340   0.351   1.512   0.091
 2147SOL    HW2 7341   0.208   1.561   0.152
 2148SOL     OW 7342   4.857   3.761   3.305
 2148SOL    HW1 7343   4.816   3.685   3.356
 2148SOL    HW2 7344   4.921   3.810   3.365
 2149SOL     OW 7345   3.899   0.165   1.675
 2149SOL    HW1 7346   3.832   0.153   1.602
 2149SOL    HW2 7347   3.877   0.246   1.729
 2150SOL     OW 7348   3.847   1.912   2.613
 2150SOL    HW1 7349   3.936   1.900   2.657
 2150SOL    HW2 7350   3.858   1.969   2.531
 2151SOL     OW 7351   3.544   2.285   5.529
 2151SOL    HW1 7352   3.495   2.302   5.614
 2151SOL    HW2 7353   3.481   2.247   5.461
 2152SOL     OW 7354   5.916   6.223   2.284
 2152SOL    HW1 7355   5.893   6.127   2.300
 2152SOL    HW2 7356   5.844   6.266   2.229
 2153SOL     OW 7357   4.616   1.526   4.141
 2153SOL    HW1 7358   4.693   1.466   4.124
 2153SOL    HW2 7359   4.609   1.546   4.239
 2154SOL     OW 7360   3.130   5.826   4.859
 2154SOL    HW1 7361   3.186   5.798   4.781
 2154SOL    HW2 7362   3.041   5.858   4.827
 2155SOL     OW 7363   1.952   5.138   0.313
 2155SOL    HW1 7364   1.864   5.177   0.288
 2155SOL    HW2 7365   2.025   5.191   0.271
 2156SOL     OW 7366   1.850   0.485   1.090
 2156SOL    HW1 7367   1.849   0.499   0.991
 2156SOL    HW2 7368   1.821   0.569   1.136
 2157SOL     OW 7369   6.539   1.509   4.699
 2157SOL    HW1 7370   6.612   1.449   4.732
 2157SOL    HW2 7371   6.542   1.514   4.599
 2158SOL     OW 7372   3.169   6.609   0.315
 2158SOL    HW1 7373   3.130   6.658   0.393
 2158SOL    HW2 7374   3.124   6.521   0.306
 2159SOL     OW 7375   1.579   6.721   5.101
 2159SOL    HW1 7376   1.577   6.818   5.127
 2159SOL    HW2 7377   1.672   6.697   5.074
 2160SOL     OW 7378   3.777   4.442   1.272
 2160SOL    HW1 7379   3.736   4.353   1.295
 2160SOL    HW2 7380   3.863   4.427   1.223
 2161SOL     OW 7381   4.981   3.343   3.218
 2161SOL    HW1 7382   4.905   3.281   3.195
 2161SOL    HW2 7383   5.037   3.301   3.289
 2162SOL     OW 7384   2.124   0.629   6.626
 2162SOL    HW1 7385   2.028   0.608   6.646
 2162SOL    HW2 7386   2.159   0.692   6.696
 2163SOL     OW 7387   1.467   0.164   6.521
 2163SOL    HW1 7388   1.527   0.089   6.549
 2163SOL    HW2 7389   1.453   0.226   6.599
 2164SOL     OW 7390   2.194   0.587   6.176
 2164SOL    HW1 7391   2.266   0.578   6.245
 2164SOL    HW2 7392   2.205   0.672   6.127
 2165SOL     OW 7393   1.602   1.093   2.695
 2165SOL    HW1 7394   1.520   1.143   2.666
 2165SOL    HW2 7395   1.590   0.996   2.677
 2166SOL     OW 7396   1.564   2.411   5.443
 2166SOL    HW1 7397   1.485   2.404   5.504
 2166SOL    HW2 7398   1.566   2.501   5.402
 2167SOL     OW 7399   2.763   0.918   2.082
 2167SOL    HW1 7400   2.833   0.846   2.086
 2167SOL    HW2 7401   2.750   0.956   2.173
 2168SOL     OW 7402   6.217   3.059   5.278
 2168SOL    HW1 7403   6.214   3.130   5.348
 2168SOL    HW2 7404   6.133   3.063   5.223
 2169SOL     OW 7405   5.685   2.754   6.257
 2169SOL    HW1 7406   5.674   2.687   6.183
 2169SOL    HW2 7407   5.607   2.817   6.257
 2170SOL     OW 7408   4.973   4.576   5.067
 2170SOL    HW1 7409   4.897   4.571   5.133
 2170SOL    HW2 7410   5.048   4.518   5.098
 2171SOL     OW 7411   6.549   3.018   0.248
 2171SOL    HW1 7412   6.562   2.988   0.343
 2171SOL    HW2 7413   6.544   2.938   0.188
 2172SOL     OW 7414   3.103   0.810   0.405
 2172SOL    HW1 7415   3.013   0.769   0.420
 2172SOL    HW2 7416   3.140   0.840   0.493
 2173SOL     OW 7417   4.145   0.434   5.947
 2173SOL    HW1 7418   4.185   0.499   5.882
 2173SOL    HW2 7419   4.123   0.349   5.900
 2174SOL     OW 7420   6.692   4.248   5.533
 2174SOL    HW1 7421   6.629   4.176   5.503
 2174SOL    HW2 7422   6.666   4.280   5.624
 2175SOL     OW 7423   3.102   0.586   2.818
 2175SOL    HW1 7424   3.195   0.595   2.783
 2175SOL    HW2 7425   3.105   0.557   2.914
 2176SOL     OW 7426   1.877   2.255   1.662
 2176SOL    HW1 7427   1.928   2.319   1.719
 2176SOL    HW2 7428   1.798   2.221   1.713
 2177SOL     OW 7429   6.825   1.391   2.128
 2177SOL    HW1 7430   6.895   1.321   2.142
 2177SOL    HW2 7431   6.866   1.470   2.082
 2178SOL     OW 7432   0.998   4.653   0.246
 2178SOL    HW1 7433   1.068   4.708   0.292
 2178SOL    HW2 7434   0.924   4.633   0.311
 2179SOL     OW 7435   1.125   6.010   3.606
 2179SOL    HW1 7436   1.131   5.919   3.565
 2179SOL    HW2 7437   1.036   6.050   3.584
 2180SOL     OW 7438   3.201   4.096   2.821
 2180SOL    HW1 7439   3.133   4.034   2.782
 2180SOL    HW2 7440   3.285   4.091   2.768
 2181SOL     OW 7441   5.003   4.816   5.884
 2181SOL    HW1 7442   5.000   4.717   5.899
 2181SOL    HW2 7443   4.912   4.855   5.898
 2182SOL     OW 7444   0.158   3.347   6.595
 2182SOL    HW1 7445   0.122   3.281   6.529
 2182SOL    HW2 7446   0.221   3.409   6.550
 2183SOL     OW 7447   3.145   2.992   0.669
 2183SOL    HW1 7448   3.208   3.037   0.733
 2183SOL    HW2 7449   3.198   2.944   0.599
 2184SOL     OW 7450   3.780   0.984   6.425
 2184SOL    HW1 7451   3.835   1.065   6.406
 2184SOL    HW2 7452   3.841   0.906   6.444
 2185SOL     OW 7453   1.677   1.195   0.589
 2185SOL    HW1 7454   1.637   1.117   0.638
 2185SOL    HW2 7455   1.751   1.234   0.643
 2186SOL     OW 7456   0.028   4.287   2.436
 2186SOL    HW1 7457   0.001   4.270   2.341
 2186SOL    HW2 7458   6.989   4.240   2.497
 2187SOL     OW 7459   6.976   1.356   1.390
 2187SOL    HW1 7460   6.891   1.374   1.341
 2187SOL    HW2 7461   6.956   1.320   1.481
 2188SOL     OW 7462   5.118   6.273   3.949
 2188SOL    HW1 7463   5.201   6.319   3.917
 2188SOL    HW2 7464   5.088   6.314   4.035
 2189SOL     OW 7465   1.626   6.698   5.815
 2189SOL    HW1 7466   1.703   6.744   5.772
 2189SOL    HW2 7467   1.603   6.743   5.901
 2190SOL     OW 7468   6.676   2.891   1.904
 2190SOL    HW1 7469   6.753   2.948   1.874
 2190SOL    HW2 7470   6.597   2.949   1.923
 2191SOL     OW 7471   3.156   2.632   6.582
 2191SOL    HW1 7472   3.118   2.632   6.490
 2191SOL    HW2 7473   3.255   2.644   6.578
 2192SOL     OW 7474   4.421   6.110   5.379
 2192SOL    HW1 7475   4.459   6.059   5.456
 2192SOL    HW2 7476   4.350   6.055   5.334
 2193SOL     OW 7477   0.433   5.285   5.395
 2193SOL    HW1 7478   0.377   5.275   5.313
 2193SOL    HW2 7479   0.377   5.270   5.477
 2194SOL     OW 7480   1.910   5.823   0.475
 2194SOL    HW1 7481   1.986   5.885   0.494
 2194SOL    HW2 7482   1.861   5.855   0.394
 2195SOL     OW 7483   0.663   6.271   1.850
 2195SOL    HW1 7484   0.756   6.304   1.863
 2195SOL    HW2 7485   0.600   6.348   1.854
 2196SOL     OW 7486   3.555   0.625   5.383
 2196SOL    HW1 7487   3.598   0.657   5.298
 2196SOL    HW2 7488   3.527   0.530   5.372
 2197SOL     OW 7489   4.727   4.633   1.905
 2197SOL    HW1 7490   4.729   4.720   1.955
 2197SOL    HW2 7491   4.802   4.632   1.838
 2198SOL     OW 7492   6.631   3.853   6.717
 2198SOL    HW1 7493   6.594   3.808   6.635
 2198SOL    HW2 7494   6.556   3.882   6.776
 2199SOL     OW 7495   4.770   6.876   0.285
 2199SOL    HW1 7496   4.750   6.898   0.381
 2199SOL    HW2 7497   4.862   6.907   0.263
 2200SOL     OW 7498   4.161   1.104   4.388
 2200SOL    HW1 7499   4.203   1.037   4.327
 2200SOL    HW2 7500   4.164   1.194   4.344
 2201SOL     OW 7501   5.999   3.298   1.990
 2201SOL    HW1 7502   5.902   3.324   1.999
 2201SOL    HW2 7503   6.041   3.353   1.917
 2202SOL     OW 7504   3.864   4.973   4.240
 2202SOL    HW1 7505   3.785   4.940   4.188
 2202SOL    HW2 7506   3.920   5.031   4.182
 2203SOL     OW 7507   3.592   1.894   3.547
 2203SOL    HW1 7508   3.646   1.901   3.463
 2203SOL    HW2 7509   3.601   1.978   3.599
 2204SOL     OW 7510   3.592   1.297   6.884
 2204SOL    HW1 7511   3.626   1.278   6.792
 2204SOL    HW2 7512   3.598   1.395   6.902
 2205SOL     OW 7513   1.475   0.115   6.996
 2205SOL    HW1 7514   1.563   0.157   6.974
 2205SOL    HW2 7515   1.441   0.152   0.056
 2206SOL     OW 7516   3.296   3.458   6.385
 2206SOL    HW1 7517   3.289   3.519   6.306
 2206SOL    HW2 7518   3.391   3.430   6.396
 2207SOL     OW 7519   1.042   4.157   6.303
 2207SOL    HW1 7520   1.106   4.165   6.226
 2207SOL    HW2 7521   1.052   4.237   6.362
 2208SOL     OW 7522   0.208   3.408   1.969
 2208SOL    HW1 7523   0.132   3.391   1.907
 2208SOL    HW2 7524   0.269   3.477   1.929
 2209SOL     OW 7525   1.779   5.949   6.990
 2209SOL    HW1 7526   1.868   5.945   6.944
 2209SOL    HW2 7527   1.727   6.028   6.956
 2210SOL     OW 7528   0.905   5.278   3.359
 2210SOL    HW1 7529   0.994   5.239   3.383
 2210SOL    HW2 7530   0.851   5.210   3.309
 2211SOL     OW 7531   6.027   1.382   5.340
 2211SOL    HW1 7532   6.016   1.428   5.428
 2211SOL    HW2 7533   6.122   1.390   5.310
 2212SOL     OW 7534   0.535   6.924   6.142
 2212SOL    HW1 7535   0.595   7.003   6.158
 2212SOL    HW2 7536   0.463   6.950   6.078
 2213SOL     OW 7537   4.271   2.230   4.070
 2213SOL    HW1 7538   4.333   2.174   4.016
 2213SOL    HW2 7539   4.179   2.226   4.031
 2214SOL     OW 7540   5.135   0.673   4.847
 2214SOL    HW1 7541   5.115   0.721   4.762
 2214SOL    HW2 7542   5.229   0.639   4.844
 2215SOL     OW 7543   6.734   1.655   5.796
 2215SOL    HW1 7544   6.636   1.671   5.804
 2215SOL    HW2 7545   6.779   1.737   5.762
 2216SOL     OW 7546   1.340   6.852   1.139
 2216SOL    HW1 7547   1.304   6.849   1.233
 2216SOL    HW2 7548   1.387   6.766   1.120
 2217SOL     OW 7549   4.135   6.851   0.822
 2217SOL    HW1 7550   4.038   6.870   0.804
 2217SOL    HW2 7551   4.176   6.930   0.869
 2218SOL     OW 7552   1.110   6.024   6.384
 2218SOL    HW1 7553   1.050   6.091   6.339
 2218SOL    HW2 7554   1.191   6.009   6.328
 2219SOL     OW 7555   1.437   3.774   3.484
 2219SOL    HW1 7556   1.526   3.780   3.530
 2219SOL    HW2 7557   1.404   3.866   3.463
 2220SOL     OW 7558   0.768   2.156   4.969
 2220SOL    HW1 7559   0.763   2.070   5.020
 2220SOL    HW2 7560   0.784   2.137   4.873
 2221SOL     OW 7561   6.781   1.823   1.620
 2221SOL    HW1 7562   6.836   1.748   1.583
 2221SOL    HW2 7563   6.841   1.885   1.671
 2222SOL     OW 7564   4.542   0.131   1.855
 2222SOL    HW1 7565   4.641   0.146   1.855
 2222SOL    HW2 7566   4.496   0.211   1.816
 2223SOL     OW 7567   5.946   5.221   3.437
 2223SOL    HW1 7568   5.929   5.212   3.339
 2223SOL    HW2 7569   5.881   5.163   3.487
 2224SOL     OW 7570   1.785   5.116   1.492
 2224SOL    HW1 7571   1.851   5.121   1.417
 2224SOL    HW2 7572   1.778   5.205   1.537
 2225SOL     OW 7573   6.409   4.588   2.334
 2225SOL    HW1 7574   6.478   4.537   2.386
 2225SOL    HW2 7575   6.444   4.610   2.243
 2226SOL     OW 7576   3.752   2.621   1.497
 2226SOL    HW1 7577   3.807   2.547   1.458
 2226SOL    HW2 7578   3.812   2.693   1.531
 2227SOL     OW 7579   6.615   4.125   6.066
 2227SOL    HW1 7580   6.540   4.165   6.014
 2227SOL    HW2 7581   6.602   4.026   6.072
 2228SOL     OW 7582   3.143   4.513   6.660
 2228SOL    HW1 7583   3.208   4.447   6.622
 2228SOL    HW2 7584   3.127   4.586   6.593
 2229SOL     OW 7585   4.606   1.238   3.871
 2229SOL    HW1 7586   4.666   1.317   3.867
 2229SOL    HW2 7587   4.576   1.224   3.965
 2230SOL     OW 7588   1.407   5.308   4.316
 2230SOL    HW1 7589   1.420   5.300   4.415
 2230SOL    HW2 7590   1.461   5.237   4.269
 2231SOL     OW 7591   1.865   1.073   2.131
 2231SOL    HW1 7592   1.863   0.977   2.101
 2231SOL    HW2 7593   1.919   1.080   2.215
 2232SOL     OW 7594   0.167   3.235   2.818
 2232SOL    HW1 7595   0.100   3.293   2.773
 2232SOL    HW2 7596   0.122   3.152   2.852
 2233SOL     OW 7597   3.559   5.418   0.420
 2233SOL    HW1 7598   3.651   5.392   0.389
 2233SOL    HW2 7599   3.523   5.490   0.361
 2234SOL     OW 7600   3.904   1.985   0.871
 2234SOL    HW1 7601   3.883   1.929   0.791
 2234SOL    HW2 7602   3.846   2.067   0.871
 2235SOL     OW 7603   1.236   0.142   6.880
 2235SOL    HW1 7604   1.187   0.062   6.843
 2235SOL    HW2 7605   1.316   0.111   6.930
 2236SOL     OW 7606   0.501   4.272   0.895
 2236SOL    HW1 7607   0.577   4.257   0.832
 2236SOL    HW2 7608   0.438   4.194   0.891
 2237SOL     OW 7609   6.977   3.507   4.712
 2237SOL    HW1 7610   6.948   3.463   4.627
 2237SOL    HW2 7611   6.898   3.519   4.772
 2238SOL     OW 7612   0.248   5.345   2.035
 2238SOL    HW1 7613   0.241   5.437   2.074
 2238SOL    HW2 7614   0.247   5.278   2.109
 2239SOL     OW 7615   4.130   4.876   3.417
 2239SOL    HW1 7616   4.164   4.789   3.452
 2239SOL    HW2 7617   4.190   4.950   3.447
 2240SOL     OW 7618   6.696   4.989   3.661
 2240SOL    HW1 7619   6.605   5.004   3.699
 2240SOL    HW2 7620   6.702   5.032   3.570
 2241SOL     OW 7621   0.183   6.161   2.372
 2241SOL    HW1 7622   0.202   6.102   2.293
 2241SOL    HW2 7623   0.150   6.250   2.340
 2242SOL     OW 7624   4.847   1.696   3.320
 2242SOL    HW1 7625   4.809   1.789   3.328
 2242SOL    HW2 7626   4.793   1.644   3.254
 2243SOL     OW 7627   2.685   6.082   4.418
 2243SOL    HW1 7628   2.745   6.069   4.339
 2243SOL    HW2 7629   2.694   6.176   4.453
 2244SOL     OW 7630   3.697   0.560   4.305
 2244SOL    HW1 7631   3.736   0.534   4.394
 2244SOL    HW2 7632   3.614   0.615   4.320
 2245SOL     OW 7633   0.045   2.175   2.564
 2245SOL    HW1 7634   0.086   2.089   2.593
 2245SOL    HW2 7635   0.086   2.204   2.478
 2246SOL     OW 7636   1.585   3.558   5.790
 2246SOL    HW1 7637   1.525   3.484   5.759
 2246SOL    HW2 7638   1.594   3.627   5.718
 2247SOL     OW 7639   2.318   2.064   5.338
 2247SOL    HW1 7640   2.312   2.004   5.258
 2247SOL    HW2 7641   2.245   2.132   5.334
 2248SOL     OW 7642   4.680   4.066   5.118
 2248SOL    HW1 7643   4.750   4.021   5.174
 2248SOL    HW2 7644   4.712   4.074   5.024
 2249SOL     OW 7645   5.361   5.971   2.990
 2249SOL    HW1 7646   5.343   6.068   3.003
 2249SOL    HW2 7647   5.378   5.928   3.078
 2250SOL     OW 7648   5.660   3.515   1.445
 2250SOL    HW1 7649   5.623   3.592   1.392
 2250SOL    HW2 7650   5.591   3.443   1.452
 2251SOL     OW 7651   6.083   1.939   0.119
 2251SOL    HW1 7652   6.005   1.996   0.093
 2251SOL    HW2 7653   6.072   1.909   0.214
 2252SOL     OW 7654   5.349   2.919   5.443
 2252SOL    HW1 7655   5.407   2.948   5.519
 2252SOL    HW2 7656   5.334   2.820   5.448
 2253SOL     OW 7657   2.599   2.985   6.854
 2253SOL    HW1 7658   2.698   3.001   6.855
 2253SOL    HW2 7659   2.572   2.943   6.941
 2254SOL     OW 7660   1.938   3.679   6.042
 2254SOL    HW1 7661   1.915   3.642   6.132
 2254SOL    HW2 7662   1.925   3.609   5.973
 2255SOL     OW 7663   6.155   2.824   1.934
 2255SOL    HW1 7664   6.056   2.810   1.933
 2255SOL    HW2 7665   6.176   2.914   1.972
 2256SOL     OW 7666   4.029   4.768   2.451
 2256SOL    HW1 7667   3.956   4.730   2.507
 2256SOL    HW2 7668   4.008   4.863   2.428
 2257SOL     OW 7669   1.556   3.737   4.586
 2257SOL    HW1 7670   1.648   3.765   4.614
 2257SOL    HW2 7671   1.556   3.640   4.561
 2258SOL     OW 7672   2.086   5.181   5.289
 2258SOL    HW1 7673   2.000   5.201   5.242
 2258SOL    HW2 7674   2.144   5.124   5.230
 2259SOL     OW 7675   5.862   4.047   6.435
 2259SOL    HW1 7676   5.804   4.107   6.381
 2259SOL    HW2 7677   5.875   4.086   6.526
 2260SOL     OW 7678   4.280   5.127   2.043
 2260SOL    HW1 7679   4.243   5.035   2.056
 2260SOL    HW2 7680   4.321   5.134   1.952
 2261SOL     OW 7681   5.226   6.405   0.915
 2261SOL    HW1 7682   5.244   6.465   0.836
 2261SOL    HW2 7683   5.296   6.334   0.919
 2262SOL     OW 7684   5.284   2.515   4.170
 2262SOL    HW1 7685   5.307   2.420   4.150
 2262SOL    HW2 7686   5.309   2.536   4.264
 2263SOL     OW 7687   1.606   5.526   5.540
 2263SOL    HW1 7688   1.619   5.580   5.457
 2263SOL    HW2 7689   1.575   5.586   5.614
 2264SOL     OW 7690   2.944   3.667   2.910
 2264SOL    HW1 7691   2.949   3.616   2.996
 2264SOL    HW2 7692   2.953   3.765   2.929
 2265SOL     OW 7693   6.910   0.850   2.166
 2265SOL    HW1 7694   6.874   0.863   2.073
 2265SOL    HW2 7695   7.002   0.889   2.171
 2266SOL     OW 7696   6.283   0.649   0.941
 2266SOL    HW1 7697   6.238   0.720   0.994
 2266SOL    HW2 7698   6.382   0.665   0.940
 2267SOL     OW 7699   5.930   2.494   4.862
 2267SOL    HW1 7700   5.898   2.588   4.849
 2267SOL    HW2 7701   6.028   2.494   4.882
 2268SOL     OW 7702   6.928   6.330   0.591
 2268SOL    HW1 7703   6.929   6.429   0.605
 2268SOL    HW2 7704   6.884   6.309   0.503
 2269SOL     OW 7705   6.654   6.047   6.031
 2269SOL    HW1 7706   6.706   6.080   6.109
 2269SOL    HW2 7707   6.638   6.123   5.967
 2270SOL     OW 7708   2.943   3.288   2.296
 2270SOL    HW1 7709   2.939   3.212   2.360
 2270SOL    HW2 7710   2.896   3.263   2.211
 2271SOL     OW 7711   5.668   4.525   1.570
 2271SOL    HW1 7712   5.714   4.471   1.499
 2271SOL    HW2 7713   5.691   4.622   1.558
 2272SOL     OW 7714   5.332   2.107   5.463
 2272SOL    HW1 7715   5.277   2.104   5.379
 2272SOL    HW2 7716   5.414   2.051   5.452
 2273SOL     OW 7717   0.480   0.812   3.462
 2273SOL    HW1 7718   0.530   0.794   3.378
 2273SOL    HW2 7719   0.390   0.767   3.459
 2274SOL     OW 7720   1.481   3.810   5.032
 2274SOL    HW1 7721   1.551   3.864   4.984
 2274SOL    HW2 7722   1.448   3.738   4.972
 2275SOL     OW 7723   5.357   5.748   4.642
 2275SOL    HW1 7724   5.388   5.746   4.547
 2275SOL    HW2 7725   5.354   5.655   4.678
 2276SOL     OW 7726   4.206   4.104   0.701
 2276SOL    HW1 7727   4.141   4.178   0.718
 2276SOL    HW2 7728   4.294   4.142   0.673
 2277SOL     OW 7729   3.158   3.330   5.888
 2277SOL    HW1 7730   3.238   3.360   5.837
 2277SOL    HW2 7731   3.112   3.256   5.839
 2278SOL     OW 7732   5.706   6.360   2.557
 2278SOL    HW1 7733   5.654   6.395   2.479
 2278SOL    HW2 7734   5.701   6.260   2.558
 2279SOL     OW 7735   5.798   3.460   4.959
 2279SOL    HW1 7736   5.824   3.457   5.055
 2279SOL    HW2 7737   5.871   3.505   4.906
 2280SOL     OW 7738   6.805   6.306   5.329
 2280SOL    HW1 7739   6.883   6.337   5.275
 2280SOL    HW2 7740   6.720   6.335   5.285
 2281SOL     OW 7741   3.722   2.107   1.714
 2281SOL    HW1 7742   3.767   2.032   1.761
 2281SOL    HW2 7743   3.711   2.184   1.776
 2282SOL     OW 7744   4.360   5.573   3.908
 2282SOL    HW1 7745   4.288   5.505   3.924
 2282SOL    HW2 7746   4.360   5.639   3.983
 2283SOL     OW 7747   6.871   3.963   3.334
 2283SOL    HW1 7748   6.800   4.007   3.279
 2283SOL    HW2 7749   6.879   3.866   3.308
 2284SOL     OW 7750   2.452   2.426   1.445
 2284SOL    HW1 7751   2.449   2.338   1.492
 2284SOL    HW2 7752   2.547   2.451   1.427
 2285SOL     OW 7753   1.525   3.572   0.222
 2285SOL    HW1 7754   1.594   3.644   0.216
 2285SOL    HW2 7755   1.516   3.543   0.318
 2286SOL     OW 7756   6.384   5.510   4.661
 2286SOL    HW1 7757   6.382   5.443   4.735
 2286SOL    HW2 7758   6.389   5.463   4.573
 2287SOL     OW 7759   2.626   2.601   1.038
 2287SOL    HW1 7760   2.705   2.621   1.096
 2287SOL    HW2 7761   2.584   2.687   1.008
 2288SOL     OW 7762   0.455   6.657   3.279
 2288SOL    HW1 7763   0.455   6.663   3.179
 2288SOL    HW2 7764   0.413   6.740   3.317
 2289SOL     OW 7765   5.496   1.632   2.194
 2289SOL    HW1 7766   5.448   1.652   2.109
 2289SOL    HW2 7767   5.450   1.556   2.240
 2290SOL     OW 7768   2.991   3.877   3.319
 2290SOL    HW1 7769   3.005   3.779   3.303
 2290SOL    HW2 7770   2.908   3.906   3.272
 2291SOL     OW 7771   2.082   1.957   1.243
 2291SOL    HW1 7772   2.049   2.048   1.268
 2291SOL    HW2 7773   2.005   1.900   1.213
 2292SOL     OW 7774   4.813   2.123   3.667
 2292SOL    HW1 7775   4.857   2.049   3.718
 2292SOL    HW2 7776   4.720   2.097   3.642
 2293SOL     OW 7777   5.345   1.452   0.965
 2293SOL    HW1 7778   5.268   1.400   1.001
 2293SOL    HW2 7779   5.312   1.534   0.918
 2294SOL     OW 7780   1.498   2.703   6.022
 2294SOL    HW1 7781   1.543   2.709   5.933
 2294SOL    HW2 7782   1.564   2.677   6.092
 2295SOL     OW 7783   6.515   0.309   1.815
 2295SOL    HW1 7784   6.487   0.292   1.909
 2295SOL    HW2 7785   6.437   0.294   1.754
 2296SOL     OW 7786   2.343   5.147   3.375
 2296SOL    HW1 7787   2.270   5.099   3.327
 2296SOL    HW2 7788   2.381   5.088   3.447
 2297SOL     OW 7789   5.162   4.916   5.684
 2297SOL    HW1 7790   5.090   4.894   5.750
 2297SOL    HW2 7791   5.250   4.922   5.731
 2298SOL     OW 7792   3.837   3.027   4.851
 2298SOL    HW1 7793   3.882   3.115   4.867
 2298SOL    HW2 7794   3.897   2.953   4.879
 2299SOL     OW 7795   5.344   3.344   5.080
 2299SOL    HW1 7796   5.257   3.310   5.116
 2299SOL    HW2 7797   5.338   3.444   5.071
 2300SOL     OW 7798   4.040   0.145   3.300
 2300SOL    HW1 7799   4.065   0.106   3.389
 2300SOL    HW2 7800   4.063   0.080   3.227
 2301SOL     OW 7801   3.119   3.072   4.338
 2301SOL    HW1 7802   3.083   3.073   4.432
 2301SOL    HW2 7803   3.094   3.158   4.293
 2302SOL     OW 7804   4.152   1.681   0.393
 2302SOL    HW1 7805   4.239   1.685   0.346
 2302SOL    HW2 7806   4.103   1.598   0.364
 2303SOL     OW 7807   2.882   2.978   0.721
 2303SOL    HW1 7808   2.882   2.946   0.816
 2303SOL    HW2 7809   2.975   2.997   0.692
 2304SOL     OW 7810   6.721   6.015   3.025
 2304SOL    HW1 7811   6.748   6.005   2.929
 2304SOL    HW2 7812   6.800   5.997   3.083
 2305SOL     OW 7813   1.421   1.237   4.650
 2305SOL    HW1 7814   1.349   1.236   4.719
 2305SOL    HW2 7815   1.398   1.303   4.578
 2306SOL     OW 7816   1.936   4.872   3.610
 2306SOL    HW1 7817   1.871   4.855   3.536
 2306SOL    HW2 7818   1.919   4.808   3.685
 2307SOL     OW 7819   1.475   2.913   5.733
 2307SOL    HW1 7820   1.540   2.837   5.737
 2307SOL    HW2 7821   1.397   2.887   5.676
 2308SOL     OW 7822   2.181   4.690   1.296
 2308SOL    HW1 7823   2.186   4.602   1.248
 2308SOL    HW2 7824   2.180   4.675   1.395
 2309SOL     OW 7825   1.386   6.959   4.325
 2309SOL    HW1 7826   1.330   6.877   4.312
 2309SOL    HW2 7827   1.483   6.933   4.333
 2310SOL     OW 7828   4.532   6.789   1.712
 2310SOL    HW1 7829   4.583   6.783   1.798
 2310SOL    HW2 7830   4.448   6.840   1.727
 2311SOL     OW 7831   2.799   5.999   0.305
 2311SOL    HW1 7832   2.826   5.905   0.287
 2311SOL    HW2 7833   2.872   6.061   0.275
 2312SOL     OW 7834   3.534   6.093   2.656
 2312SOL    HW1 7835   3.561   6.120   2.749
 2312SOL    HW2 7836   3.439   6.063   2.657
 2313SOL     OW 7837   4.916   4.831   2.739
 2313SOL    HW1 7838   4.902   4.732   2.752
 2313SOL    HW2 7839   5.014   4.849   2.728
 2314SOL     OW 7840   2.910   5.498   3.120
 2314SOL    HW1 7841   2.847   5.462   3.188
 2314SOL    HW2 7842   2.992   5.440   3.116
 2315SOL     OW 7843   4.469   3.073   5.912
 2315SOL    HW1 7844   4.415   3.145   5.955
 2315SOL    HW2 7845   4.437   2.984   5.944
 2316SOL     OW 7846   5.657   2.736   3.077
 2316SOL    HW1 7847   5.575   2.758   3.022
 2316SOL    HW2 7848   5.688   2.818   3.125
 2317SOL     OW 7849   1.600   4.562   2.469
 2317SOL    HW1 7850   1.657   4.610   2.402
 2317SOL    HW2 7851   1.617   4.599   2.560
 2318SOL     OW 7852   0.372   1.593   3.010
 2318SOL    HW1 7853   0.374   1.572   2.912
 2318SOL    HW2 7854   0.465   1.602   3.044
 2319SOL     OW 7855   1.951   4.585   4.874
 2319SOL    HW1 7856   1.934   4.488   4.854
 2319SOL    HW2 7857   1.970   4.596   4.972
 2320SOL     OW 7858   0.362   2.374   4.071
 2320SOL    HW1 7859   0.329   2.321   3.993
 2320SOL    HW2 7860   0.423   2.318   4.127
 2321SOL     OW 7861   2.781   6.716   4.424
 2321SOL    HW1 7862   2.762   6.808   4.391
 2321SOL    HW2 7863   2.853   6.675   4.368
 2322SOL     OW 7864   1.308   1.103   5.425
 2322SOL    HW1 7865   1.335   1.007   5.418
 2322SOL    HW2 7866   1.243   1.113   5.500
 2323SOL     OW 7867   4.514   5.352   3.169
 2323SOL    HW1 7868   4.434   5.398   3.208
 2323SOL    HW2 7869   4.597   5.397   3.202
 2324SOL     OW 7870   0.786   5.992   2.731
 2324SOL    HW1 7871   0.760   5.937   2.651
 2324SOL    HW2 7872   0.856   5.943   2.783
 2325SOL     OW 7873   1.221   4.001   1.064
 2325SOL    HW1 7874   1.278   4.081   1.043
 2325SOL    HW2 7875   1.238   3.929   0.997
 2326SOL     OW 7876   1.526   5.216   6.754
 2326SOL    HW1 7877   1.481   5.145   6.699
 2326SOL    HW2 7878   1.624   5.195   6.762
 2327SOL     OW 7879   4.736   2.674   4.165
 2327SOL    HW1 7880   4.690   2.654   4.079
 2327SOL    HW2 7881   4.835   2.676   4.151
 2328SOL     OW 7882   4.668   1.325   3.376
 2328SOL    HW1 7883   4.698   1.373   3.459
 2328SOL    HW2 7884   4.570   1.308   3.381
 2329SOL     OW 7885   1.125   5.484   3.900
 2329SOL    HW1 7886   1.183   5.513   3.976
 2329SOL    HW2 7887   1.029   5.502   3.923
 2330SOL     OW 7888   0.596   4.571   2.269
 2330SOL    HW1 7889   0.627   4.631   2.343
 2330SOL    HW2 7890   0.496   4.569   2.268
 2331SOL     OW 7891   0.480   3.934   5.476
 2331SOL    HW1 7892   0.564   3.882   5.463
 2331SOL    HW2 7893   0.491   4.026   5.438
 2332SOL     OW 7894   5.489   2.736   5.699
 2332SOL    HW1 7895   5.440   2.669   5.755
 2332SOL    HW2 7896   5.587   2.719   5.704
 2333SOL     OW 7897   1.448   5.332   3.079
 2333SOL    HW1 7898   1.487   5.275   3.152
 2333SOL    HW2 7899   1.522   5.378   3.030
 2334SOL     OW 7900   3.190   0.189   6.764
 2334SOL    HW1 7901   3.128   0.164   6.839
 2334SOL    HW2 7902   3.284   0.175   6.793
 2335SOL     OW 7903   5.106   6.848   3.203
 2335SOL    HW1 7904   5.035   6.893   3.149
 2335SOL    HW2 7905   5.195   6.886   3.179
 2336SOL     OW 7906   4.922   0.908   6.251
 2336SOL    HW1 7907   4.926   0.951   6.341
 2336SOL    HW2 7908   4.835   0.930   6.207
 2337SOL     OW 7909   5.586   0.144   3.127
 2337SOL    HW1 7910   5.522   0.188   3.064
 2337SOL    HW2 7911   5.606   0.052   3.095
 2338SOL     OW 7912   7.024   6.852   6.908
 2338SOL    HW1 7913   6.966   6.893   6.838
 2338SOL    HW2 7914   0.038   6.925   6.964
 2339SOL     OW 7915   3.801   4.736   6.441
 2339SOL    HW1 7916   3.856   4.769   6.518
 2339SOL    HW2 7917   3.705   4.757   6.457
 2340SOL     OW 7918   3.629   5.862   4.520
 2340SOL    HW1 7919   3.546   5.860   4.463
 2340SOL    HW2 7920   3.608   5.905   4.607
 2341SOL     OW 7921   5.779   5.261   0.983
 2341SOL    HW1 7922   5.727   5.186   1.026
 2341SOL    HW2 7923   5.726   5.298   0.907
 2342SOL     OW 7924   6.755   0.566   4.817
 2342SOL    HW1 7925   6.748   0.613   4.905
 2342SOL    HW2 7926   6.834   0.505   4.818
 2343SOL     OW 7927   1.268   5.450   1.347
 2343SOL    HW1 7928   1.319   5.485   1.269
 2343SOL    HW2 7929   1.310   5.484   1.432
 2344SOL     OW 7930   2.233   2.076   2.671
 2344SOL    HW1 7931   2.202   2.166   2.641
 2344SOL    HW2 7932   2.271   2.084   2.764
 2345SOL     OW 7933   1.586   0.749   4.336
 2345SOL    HW1 7934   1.488   0.762   4.350
 2345SOL    HW2 7935   1.628   0.713   4.419
 2346SOL     OW 7936   4.946   3.631   5.985
 2346SOL    HW1 7937   4.899   3.547   6.013
 2346SOL    HW2 7938   4.931   3.647   5.887
 2347SOL     OW 7939   1.574   3.146   1.868
 2347SOL    HW1 7940   1.516   3.090   1.809
 2347SOL    HW2 7941   1.570   3.241   1.836
 2348SOL     OW 7942   3.117   6.300   3.314
 2348SOL    HW1 7943   3.204   6.326   3.357
 2348SOL    HW2 7944   3.060   6.381   3.303
 2349SOL     OW 7945   0.079   6.831   6.121
 2349SOL    HW1 7946   0.080   6.920   6.075
 2349SOL    HW2 7947   0.116   6.761   6.059
 2350SOL     OW 7948   2.917   0.285   5.539
 2350SOL    HW1 7949   2.996   0.268   5.481
 2350SOL    HW2 7950   2.895   0.383   5.538
 2351SOL     OW 7951   2.680   4.608   3.507
 2351SOL    HW1 7952   2.729   4.680   3.555
 2351SOL    HW2 7953   2.640   4.544   3.573
 2352SOL     OW 7954   7.013   4.170   3.077
 2352SOL    HW1 7955   6.924   4.152   3.118
 2352SOL    HW2 7956   0.059   4.153   3.144
 2353SOL     OW 7957   2.750   4.462   5.660
 2353SOL    HW1 7958   2.701   4.375   5.665
 2353SOL    HW2 7959   2.688   4.532   5.623
 2354SOL     OW 7960   3.749   2.275   0.784
 2354SOL    HW1 7961   3.670   2.323   0.745
 2354SOL    HW2 7962   3.821   2.268   0.716
 2355SOL     OW 7963   0.440   6.302   0.212
 2355SOL    HW1 7964   0.400   6.372   0.271
 2355SOL    HW2 7965   0.534   6.285   0.238
 2356SOL     OW 7966   2.429   5.106   2.663
 2356SOL    HW1 7967   2.345   5.096   2.610
 2356SOL    HW2 7968   2.499   5.044   2.627
 2357SOL     OW 7969   5.680   4.421   2.259
 2357SOL    HW1 7970   5.599   4.479   2.262
 2357SOL    HW2 7971   5.661   4.340   2.203
 2358SOL     OW 7972   3.820   0.432   5.692
 2358SOL    HW1 7973   3.848   0.505   5.630
 2358SOL    HW2 7974   3.881   0.354   5.682
 2359SOL     OW 7975   2.534   1.680   5.353
 2359SOL    HW1 7976   2.509   1.726   5.438
 2359SOL    HW2 7977   2.451   1.656   5.302
 2360SOL     OW 7978   4.139   4.938   1.211
 2360SOL    HW1 7979   4.105   4.843   1.207
 2360SOL    HW2 7980   4.179   4.962   1.123
 2361SOL     OW 7981   3.263   6.700   2.507
 2361SOL    HW1 7982   3.359   6.678   2.493
 2361SOL    HW2 7983   3.228   6.749   2.427
 2362SOL     OW 7984   4.962   5.524   4.674
 2362SOL    HW1 7985   4.870   5.547   4.706
 2362SOL    HW2 7986   4.979   5.566   4.585
 2363SOL     OW 7987   3.179   3.285   0.061
 2363SOL    HW1 7988   3.233   3.257   7.008
 2363SOL    HW2 7989   3.096   3.229   0.067
 2364SOL     OW 7990   4.721   1.570   1.953
 2364SOL    HW1 7991   4.710   1.478   1.990
 2364SOL    HW2 7992   4.637   1.597   1.906
 2365SOL     OW 7993   5.175   3.016   4.145
 2365SOL    HW1 7994   5.217   3.097   4.102
 2365SOL    HW2 7995   5.153   3.037   4.240
 2366SOL     OW 7996   2.381   4.063   5.676
 2366SOL    HW1 7997   2.396   4.053   5.578
 2366SOL    HW2 7998   2.287   4.037   5.698
 2367SOL     OW 7999   0.856   3.732   6.509
 2367SOL    HW1 8000   0.948   3.710   6.478
 2367SOL    HW2 8001   0.814   3.798   6.446
 2368SOL     OW 8002   5.623   0.523   4.176
 2368SOL    HW1 8003   5.558   0.544   4.103
 2368SOL    HW2 8004   5.591   0.444   4.228
 2369SOL     OW 8005   3.045   1.538   3.737
 2369SOL    HW1 8006   3.088   1.615   3.784
 2369SOL    HW2 8007   3.055   1.455   3.792
 2370SOL     OW 8008   4.941   2.899   0.945
 2370SOL    HW1 8009   4.886   2.973   0.986
 2370SOL    HW2 8010   4.885   2.849   0.879
 2371SOL     OW 8011   0.930   6.586   2.778
 2371SOL    HW1 8012   0.960   6.506   2.831
 2371SOL    HW2 8013   0.882   6.555   2.695
 2372SOL     OW 8014   6.307   1.310   5.601
 2372SOL    HW1 8015   6.342   1.399   5.574
 2372SOL    HW2 8016   6.382   1.254   5.636
 2373SOL     OW 8017   6.349   0.650   6.428
 2373SOL    HW1 8018   6.286   0.716   6.387
 2373SOL    HW2 8019   6.324   0.557   6.402
 2374SOL     OW 8020   6.039   5.958   3.048
 2374SOL    HW1 8021   5.957   5.959   3.106
 2374SOL    HW2 8022   6.079   6.050   3.046
 2375SOL     OW 8023   1.004   0.232   3.817
 2375SOL    HW1 8024   1.087   0.279   3.790
 2375SOL    HW2 8025   0.940   0.230   3.740
 2376SOL     OW 8026   6.514   2.608   3.243
 2376SOL    HW1 8027   6.448   2.549   3.290
 2376SOL    HW2 8028   6.581   2.551   3.195
 2377SOL     OW 8029   4.152   4.931   6.257
 2377SOL    HW1 8030   4.066   4.981   6.267
 2377SOL    HW2 8031   4.138   4.853   6.196
 2378SOL     OW 8032   6.042   1.925   0.717
 2378SOL    HW1 8033   6.115   1.911   0.650
 2378SOL    HW2 8034   5.957   1.947   0.670
 2379SOL     OW 8035   0.111   5.386   0.429
 2379SOL    HW1 8036   0.179   5.410   0.359
 2379SOL    HW2 8037   0.098   5.462   0.492
 2380SOL     OW 8038   5.705   3.396   5.632
 2380SOL    HW1 8039   5.647   3.331   5.583
 2380SOL    HW2 8040   5.650   3.447   5.697
 2381SOL     OW 8041   2.424   4.908   5.293
 2381SOL    HW1 8042   2.335   4.894   5.337
 2381SOL    HW2 8043   2.478   4.972   5.348
 2382SOL     OW 8044   1.354   5.778   2.615
 2382SOL    HW1 8045   1.425   5.825   2.668
 2382SOL    HW2 8046   1.321   5.838   2.542
 2383SOL     OW 8047   5.398   6.120   5.656
 2383SOL    HW1 8048   5.403   6.035   5.603
 2383SOL    HW2 8049   5.356   6.191   5.600
 2384SOL     OW 8050   0.884   1.954   1.554
 2384SOL    HW1 8051   0.849   1.965   1.647
 2384SOL    HW2 8052   0.980   1.928   1.558
 2385SOL     OW 8053   0.567   1.763   0.375
 2385SOL    HW1 8054   0.633   1.827   0.337
 2385SOL    HW2 8055   0.483   1.764   0.319
 2386SOL     OW 8056   3.349   5.320   4.335
 2386SOL    HW1 8057   3.329   5.294   4.240
 2386SOL    HW2 8058   3.264   5.319   4.388
 2387SOL     OW 8059   1.011   2.682   3.546
 2387SOL    HW1 8060   0.947   2.606   3.547
 2387SOL    HW2 8061   1.104   2.648   3.535
 2388SOL     OW 8062   6.709   2.083   6.251
 2388SOL    HW1 8063   6.611   2.095   6.236
 2388SOL    HW2 8064   6.734   2.120   6.341
 2389SOL     OW 8065   5.413   5.067   4.196
 2389SOL    HW1 8066   5.335   5.005   4.184
 2389SOL    HW2 8067   5.454   5.086   4.108
 2390SOL     OW 8068   4.515   3.290   6.191
 2390SOL    HW1 8069   4.437   3.330   6.143
 2390SOL    HW2 8070   4.510   3.190   6.186
 2391SOL     OW 8071   3.621   3.734   6.330
 2391SOL    HW1 8072   3.612   3.641   6.365
 2391SOL    HW2 8073   3.615   3.733   6.230
 2392SOL     OW 8074   3.120   5.479   5.645
 2392SOL    HW1 8075   3.170   5.392   5.645
 2392SOL    HW2 8076   3.023   5.461   5.664
 2393SOL     OW 8077   3.863   5.445   1.611
 2393SOL    HW1 8078   3.888   5.350   1.596
 2393SOL    HW2 8079   3.832   5.456   1.706
 2394SOL     OW 8080   6.825   3.441   3.435
 2394SOL    HW1 8081   6.914   3.431   3.480
 2394SOL    HW2 8082   6.831   3.404   3.342
 2395SOL     OW 8083   0.351   3.070   6.589
 2395SOL    HW1 8084   0.412   3.136   6.546
 2395SOL    HW2 8085   0.264   3.068   6.541
 2396SOL     OW 8086   5.369   0.532   4.787
 2396SOL    HW1 8087   5.459   0.571   4.808
 2396SOL    HW2 8088   5.379   0.433   4.772
 2397SOL     OW 8089   0.839   5.183   5.380
 2397SOL    HW1 8090   0.833   5.145   5.288
 2397SOL    HW2 8091   0.765   5.249   5.393
 2398SOL     OW 8092   2.755   5.371   3.304
 2398SOL    HW1 8093   2.712   5.437   3.366
 2398SOL    HW2 8094   2.689   5.299   3.281
 2399SOL     OW 8095   2.647   2.459   3.643
 2399SOL    HW1 8096   2.586   2.382   3.622
 2399SOL    HW2 8097   2.617   2.504   3.727
 2400SOL     OW 8098   2.003   3.960   0.198
 2400SOL    HW1 8099   1.948   3.886   0.160
 2400SOL    HW2 8100   2.091   3.965   0.150
 2401SOL     OW 8101   3.309   7.014   4.434
 2401SOL    HW1 8102   3.237   6.998   4.367
 2401SOL    HW2 8103   3.324   6.932   4.489
 2402SOL     OW 8104   0.766   2.215   2.667
 2402SOL    HW1 8105   0.749   2.281   2.740
 2402SOL    HW2 8106   0.689   2.216   2.603
 2403SOL     OW 8107   3.777   3.250   1.455
 2403SOL    HW1 8108   3.797   3.192   1.376
 2403SOL    HW2 8109   3.790   3.346   1.429
 2404SOL     OW 8110   6.758   1.372   1.207
 2404SOL    HW1 8111   6.819   1.428   1.151
 2404SOL    HW2 8112   6.675   1.423   1.226
 2405SOL     OW 8113   2.654   4.722   6.737
 2405SOL    HW1 8114   2.737   4.730   6.680
 2405SOL    HW2 8115   2.646   4.629   6.771
 2406SOL     OW 8116   1.606   0.652   3.823
 2406SOL    HW1 8117   1.685   0.706   3.793
 2406SOL    HW2 8118   1.632   0.599   3.904
 2407SOL     OW 8119   4.148   2.151   3.427
 2407SOL    HW1 8120   4.246   2.169   3.425
 2407SOL    HW2 8121   4.107   2.179   3.341
 2408SOL     OW 8122   2.512   5.892   3.601
 2408SOL    HW1 8123   2.447   5.935   3.539
 2408SOL    HW2 8124   2.481   5.800   3.623
 2409SOL     OW 8125   2.587   2.908   1.110
 2409SOL    HW1 8126   2.671   2.891   1.060
 2409SOL    HW2 8127   2.510   2.914   1.046
 2410SOL     OW 8128   5.900   3.323   5.935
 2410SOL    HW1 8129   5.803   3.301   5.936
 2410SOL    HW2 8130   5.921   3.380   5.855
 2411SOL     OW 8131   2.882   4.006   6.545
 2411SOL    HW1 8132   2.857   4.102   6.535
 2411SOL    HW2 8133   2.799   3.950   6.546
 2412SOL     OW 8134   2.856   3.064   6.849
 2412SOL    HW1 8135   2.908   3.078   6.934
 2412SOL    HW2 8136   2.909   3.005   6.788
 2413SOL     OW 8137   0.128   3.357   6.245
 2413SOL    HW1 8138   0.053   3.357   6.180
 2413SOL    HW2 8139   0.128   3.443   6.296
 2414SOL     OW 8140   5.470   2.865   4.137
 2414SOL    HW1 8141   5.511   2.842   4.048
 2414SOL    HW2 8142   5.415   2.948   4.127
 2415SOL     OW 8143   2.197   6.571   1.176
 2415SOL    HW1 8144   2.292   6.544   1.188
 2415SOL    HW2 8145   2.163   6.535   1.089
 2416SOL     OW 8146   0.369   3.420   2.875
 2416SOL    HW1 8147   0.303   3.347   2.858
 2416SOL    HW2 8148   0.338   3.504   2.830
 2417SOL     OW 8149   4.731   2.402   6.654
 2417SOL    HW1 8150   4.767   2.418   6.562
 2417SOL    HW2 8151   4.795   2.347   6.707
 2418SOL     OW 8152   4.042   4.205   5.215
 2418SOL    HW1 8153   4.020   4.301   5.233
 2418SOL    HW2 8154   3.967   4.163   5.165
 2419SOL     OW 8155   2.042   6.675   4.175
 2419SOL    HW1 8156   2.046   6.657   4.077
 2419SOL    HW2 8157   2.112   6.621   4.223
 2420SOL     OW 8158   3.589   5.670   2.325
 2420SOL    HW1 8159   3.568   5.716   2.411
 2420SOL    HW2 8160   3.519   5.602   2.305
 2421SOL     OW 8161   3.572   6.521   4.077
 2421SOL    HW1 8162   3.507   6.587   4.115
 2421SOL    HW2 8163   3.531   6.474   4.000
 2422SOL     OW 8164   4.071   6.979   1.394
 2422SOL    HW1 8165   4.129   6.944   1.321
 2422SOL    HW2 8166   4.066   6.911   1.468
 2423SOL     OW 8167   2.203   5.170   2.004
 2423SOL    HW1 8168   2.215   5.083   2.051
 2423SOL    HW2 8169   2.145   5.157   1.924
 2424SOL     OW 8170   5.489   6.955   0.014
 2424SOL    HW1 8171   5.456   0.014   0.055
 2424SOL    HW2 8172   5.460   6.952   6.944
 2425SOL     OW 8173   5.099   5.422   5.506
 2425SOL    HW1 8174   5.162   5.361   5.458
 2425SOL    HW2 8175   5.006   5.390   5.493
 2426SOL     OW 8176   1.427   6.096   5.041
 2426SOL    HW1 8177   1.359   6.169   5.049
 2426SOL    HW2 8178   1.385   6.018   4.994
 2427SOL     OW 8179   4.910   6.640   6.324
 2427SOL    HW1 8180   4.815   6.645   6.355
 2427SOL    HW2 8181   4.971   6.662   6.401
 2428SOL     OW 8182   0.001   1.359   3.505
 2428SOL    HW1 8183   0.097   1.381   3.487
 2428SOL    HW2 8184   7.021   1.267   3.543
 2429SOL     OW 8185   5.138   4.891   2.437
 2429SOL    HW1 8186   5.090   4.819   2.386
 2429SOL    HW2 8187   5.121   4.980   2.393
 2430SOL     OW 8188   5.673   2.143   0.800
 2430SOL    HW1 8189   5.578   2.167   0.778
 2430SOL    HW2 8190   5.727   2.227   0.811
 2431SOL     OW 8191   6.367   1.711   2.292
 2431SOL    HW1 8192   6.463   1.684   2.300
 2431SOL    HW2 8193   6.325   1.715   2.382
 2432SOL     OW 8194   3.204   5.185   1.720
 2432SOL    HW1 8195   3.111   5.206   1.688
 2432SOL    HW2 8196   3.266   5.184   1.642
 2433SOL     OW 8197   0.310   5.652   6.875
 2433SOL    HW1 8198   0.230   5.600   6.906
 2433SOL    HW2 8199   0.391   5.595   6.882
 2434SOL     OW 8200   4.337   2.217   2.393
 2434SOL    HW1 8201   4.294   2.178   2.311
 2434SOL    HW2 8202   4.386   2.301   2.368
 2435SOL     OW 8203   5.494   6.160   0.059
 2435SOL    HW1 8204   5.428   6.185   0.130
 2435SOL    HW2 8205   5.587   6.168   0.095
 2436SOL     OW 8206   1.408   1.223   1.427
 2436SOL    HW1 8207   1.395   1.302   1.488
 2436SOL    HW2 8208   1.334   1.221   1.359
 2437SOL     OW 8209   5.943   5.859   2.217
 2437SOL    HW1 8210   5.898   5.787   2.270
 2437SOL    HW2 8211   6.038   5.868   2.248
 2438SOL     OW 8212   3.855   1.795   4.584
 2438SOL    HW1 8213   3.799   1.849   4.522
 2438SOL    HW2 8214   3.945   1.839   4.595
 2439SOL     OW 8215   0.112   5.743   6.667
 2439SOL    HW1 8216   0.164   5.748   6.582
 2439SOL    HW2 8217   0.174   5.735   6.744
 2440SOL     OW 8218   4.299   0.889   4.264
 2440SOL    HW1 8219   4.326   0.828   4.190
 2440SOL    HW2 8220   4.332   0.852   4.351
 2441SOL     OW 8221   5.580   0.765   6.990
 2441SOL    HW1 8222   5.641   0.801   0.034
 2441SOL    HW2 8223   5.629   0.755   6.903
 2442SOL     OW 8224   5.036   3.569   2.148
 2442SOL    HW1 8225   4.985   3.486   2.172
 2442SOL    HW2 8226   5.008   3.600   2.057
 2443SOL     OW 8227   2.446   1.264   6.675
 2443SOL    HW1 8228   2.427   1.358   6.704
 2443SOL    HW2 8229   2.399   1.245   6.589
 2444SOL     OW 8230   4.353   4.713   0.227
 2444SOL    HW1 8231   4.395   4.712   0.318
 2444SOL    HW2 8232   4.269   4.660   0.228
 2445SOL     OW 8233   6.309   1.340   2.194
 2445SOL    HW1 8234   6.297   1.242   2.179
 2445SOL    HW2 8235   6.364   1.354   2.277
 2446SOL     OW 8236   1.069   2.711   2.191
 2446SOL    HW1 8237   1.112   2.798   2.214
 2446SOL    HW2 8238   1.042   2.711   2.095
 2447SOL     OW 8239   2.406   0.571   0.710
 2447SOL    HW1 8240   2.462   0.589   0.629
 2447SOL    HW2 8241   2.465   0.547   0.786
 2448SOL     OW 8242   6.308   2.286   4.176
 2448SOL    HW1 8243   6.257   2.369   4.197
 2448SOL    HW2 8244   6.248   2.206   4.185
 2449SOL     OW 8245   1.154   3.985   1.831
 2449SOL    HW1 8246   1.206   4.013   1.750
 2449SOL    HW2 8247   1.170   4.050   1.905
 2450SOL     OW 8248   3.279   5.152   6.747
 2450SOL    HW1 8249   3.186   5.155   6.711
 2450SOL    HW2 8250   3.317   5.060   6.736
 2451SOL     OW 8251   0.740   6.969   4.333
 2451SOL    HW1 8252   0.718   7.022   4.250
 2451SOL    HW2 8253   0.834   6.988   4.360
 2452SOL     OW 8254   2.371   2.103   2.895
 2452SOL    HW1 8255   2.382   2.178   2.960
 2452SOL    HW2 8256   2.461   2.072   2.865
 2453SOL     OW 8257   6.848   2.364   0.699
 2453SOL    HW1 8258   6.930   2.395   0.651
 2453SOL    HW2 8259   6.797   2.444   0.732
 2454SOL     OW 8260   3.279   5.796   0.274
 2454SOL    HW1 8261   3.232   5.845   0.348
 2454SOL    HW2 8262   3.329   5.861   0.217
 2455SOL     OW 8263   3.428   1.115   0.142
 2455SOL    HW1 8264   3.430   1.165   0.229
 2455SOL    HW2 8265   3.378   1.168   0.074
 2456SOL     OW 8266   0.789   3.556   6.940
 2456SOL    HW1 8267   0.697   3.577   6.972
 2456SOL    HW2 8268   0.856   3.582   7.010
 2457SOL     OW 8269   5.845   0.859   5.813
 2457SOL    HW1 8270   5.751   0.891   5.809
 2457SOL    HW2 8271   5.853   0.770   5.769
 2458SOL     OW 8272   0.880   0.974   3.111
 2458SOL    HW1 8273   0.851   1.051   3.054
 2458SOL    HW2 8274   0.861   0.994   3.207
 2459SOL     OW 8275   2.909   5.911   5.855
 2459SOL    HW1 8276   2.868   5.831   5.811
 2459SOL    HW2 8277   2.871   5.995   5.815
 2460SOL     OW 8278   1.160   0.677   0.475
 2460SOL    HW1 8279   1.122   0.765   0.447
 2460SOL    HW2 8280   1.085   0.612   0.489
 2461SOL     OW 8281   4.751   6.844   4.099
 2461SOL    HW1 8282   4.685   6.892   4.041
 2461SOL    HW2 8283   4.818   6.796   4.041
 2462SOL     OW 8284   1.135   5.394   0.890
 2462SOL    HW1 8285   1.143   5.320   0.957
 2462SOL    HW2 8286   1.124   5.481   0.938
 2463SOL     OW 8287   6.512   1.845   0.874
 2463SOL    HW1 8288   6.610   1.842   0.851
 2463SOL    HW2 8289   6.458   1.818   0.794
 2464SOL     OW 8290   1.081   2.953   2.667
 2464SOL    HW1 8291   1.037   2.991   2.748
 2464SOL    HW2 8292   1.081   2.853   2.673
 2465SOL     OW 8293   6.770   6.162   6.262
 2465SOL    HW1 8294   6.729   6.153   6.352
 2465SOL    HW2 8295   6.760   6.256   6.229
 2466SOL     OW 8296   1.783   2.079   2.586
 2466SOL    HW1 8297   1.860   2.026   2.623
 2466SOL    HW2 8298   1.702   2.020   2.581
 2467SOL     OW 8299   4.553   1.966   5.882
 2467SOL    HW1 8300   4.537   1.973   5.981
 2467SOL    HW2 8301   4.638   1.917   5.866
 2468SOL     OW 8302   4.384   0.199   6.680
 2468SOL    HW1 8303   4.290   0.177   6.703
 2468SOL    HW2 8304   4.400   0.182   6.583
 2469SOL     OW 8305   3.675   3.217   5.794
 2469SOL    HW1 8306   3.767   3.193   5.827
 2469SOL    HW2 8307   3.607   3.169   5.849
 2470SOL     OW 8308   4.088   5.237   6.436
 2470SOL    HW1 8309   4.016   5.306   6.425
 2470SOL    HW2 8310   4.109   5.196   6.347
 2471SOL     OW 8311   2.931   7.023   0.433
 2471SOL    HW1 8312   2.930   0.033   0.340
 2471SOL    HW2 8313   2.840   0.008   0.474
 2472SOL     OW 8314   4.169   2.185   3.688
 2472SOL    HW1 8315   4.092   2.151   3.742
 2472SOL    HW2 8316   4.160   2.154   3.594
 2473SOL     OW 8317   1.133   4.463   5.439
 2473SOL    HW1 8318   1.173   4.468   5.348
 2473SOL    HW2 8319   1.168   4.382   5.487
 2474SOL     OW 8320   1.112   5.235   0.665
 2474SOL    HW1 8321   1.150   5.319   0.706
 2474SOL    HW2 8322   1.055   5.188   0.732
 2475SOL     OW 8323   4.788   0.158   1.740
 2475SOL    HW1 8324   4.766   0.124   1.649
 2475SOL    HW2 8325   4.795   0.258   1.737
 2476SOL     OW 8326   5.640   0.301   2.603
 2476SOL    HW1 8327   5.575   0.226   2.596
 2476SOL    HW2 8328   5.659   0.337   2.512
 2477SOL     OW 8329   3.979   1.091   3.101
 2477SOL    HW1 8330   3.939   1.095   3.193
 2477SOL    HW2 8331   3.906   1.087   3.033
 2478SOL     OW 8332   5.099   1.061   2.028
 2478SOL    HW1 8333   5.044   0.978   2.022
 2478SOL    HW2 8334   5.048   1.131   2.077
 2479SOL     OW 8335   1.502   2.904   1.612
 2479SOL    HW1 8336   1.433   2.970   1.583
 2479SOL    HW2 8337   1.523   2.843   1.536
 2480SOL     OW 8338   3.972   2.674   1.133
 2480SOL    HW1 8339   3.972   2.620   1.048
 2480SOL    HW2 8340   3.912   2.631   1.200
 2481SOL     OW 8341   3.181   0.283   1.372
 2481SOL    HW1 8342   3.176   0.194   1.417
 2481SOL    HW2 8343   3.161   0.272   1.275
 2482SOL     OW 8344   5.365   3.411   6.836
 2482SOL    HW1 8345   5.356   3.506   6.805
 2482SOL    HW2 8346   5.288   3.357   6.802
 2483SOL     OW 8347   1.782   1.676   0.078
 2483SOL    HW1 8348   1.809   1.752   0.138
 2483SOL    HW2 8349   1.695   1.697   0.034
 2484SOL     OW 8350   3.611   0.576   0.413
 2484SOL    HW1 8351   3.576   0.483   0.400
 2484SOL    HW2 8352   3.555   0.640   0.360
 2485SOL     OW 8353   5.068   3.065   0.466
 2485SOL    HW1 8354   4.996   3.059   0.535
 2485SOL    HW2 8355   5.146   3.115   0.504
 2486SOL     OW 8356   1.359   5.323   5.548
 2486SOL    HW1 8357   1.437   5.347   5.489
 2486SOL    HW2 8358   1.281   5.299   5.490
 2487SOL     OW 8359   4.573   6.648   6.840
 2487SOL    HW1 8360   4.657   6.654   6.786
 2487SOL    HW2 8361   4.578   6.714   6.916
 2488SOL     OW 8362   0.772   3.754   1.925
 2488SOL    HW1 8363   0.685   3.792   1.957
 2488SOL    HW2 8364   0.765   3.655   1.921
 2489SOL     OW 8365   1.230   5.699   3.540
 2489SOL    HW1 8366   1.182   5.615   3.565
 2489SOL    HW2 8367   1.266   5.691   3.447
 2490SOL     OW 8368   0.539   5.697   0.933
 2490SOL    HW1 8369   0.609   5.639   0.975
 2490SOL    HW2 8370   0.503   5.761   1.000
 2491SOL     OW 8371   3.453   4.548   0.878
 2491SOL    HW1 8372   3.362   4.565   0.841
 2491SOL    HW2 8373   3.446   4.533   0.977
 2492SOL     OW 8374   4.205   3.841   0.776
 2492SOL    HW1 8375   4.192   3.938   0.760
 2492SOL    HW2 8376   4.303   3.818   0.770
 2493SOL     OW 8377   6.387   6.825   1.816
 2493SOL    HW1 8378   6.432   6.763   1.880
 2493SOL    HW2 8379   6.453   6.893   1.784
 2494SOL     OW 8380   5.501   4.306   2.551
 2494SOL    HW1 8381   5.591   4.346   2.567
 2494SOL    HW2 8382   5.505   4.208   2.570
 2495SOL     OW 8383   5.078   6.038   3.739
 2495SOL    HW1 8384   5.016   5.969   3.703
 2495SOL    HW2 8385   5.052   6.128   3.703
 2496SOL     OW 8386   0.153   2.815   6.884
 2496SOL    HW1 8387   0.097   2.858   6.813
 2496SOL    HW2 8388   0.246   2.852   6.880
 2497SOL     OW 8389   0.603   0.321   0.917
 2497SOL    HW1 8390   0.620   0.238   0.969
 2497SOL    HW2 8391   0.521   0.366   0.953
 2498SOL     OW 8392   3.011   2.266   5.490
 2498SOL    HW1 8393   2.994   2.360   5.461
 2498SOL    HW2 8394   2.939   2.236   5.552
 2499SOL     OW 8395   6.034   3.474   2.443
 2499SOL    HW1 8396   6.011   3.405   2.373
 2499SOL    HW2 8397   5.974   3.462   2.522
 2500SOL     OW 8398   3.580   4.391   6.782
 2500SOL    HW1 8399   3.611   4.325   6.850
 2500SOL    HW2 8400   3.583   4.483   6.820
 2501SOL     OW 8401   5.139   5.468   0.550
 2501SOL    HW1 8402   5.207   5.460   0.477
 2501SOL    HW2 8403   5.178   5.434   0.636
 2502SOL     OW 8404   0.945   0.396   4.619
 2502SOL    HW1 8405   0.992   0.317   4.657
 2502SOL    HW2 8406   1.004   0.440   4.551
 2503SOL     OW 8407   2.431   6.992   4.138
 2503SOL    HW1 8408   2.451   0.004   4.048
 2503SOL    HW2 8409   2.333   6.995   4.155
 2504SOL     OW 8410   3.498   5.481   3.652
 2504SOL    HW1 8411   3.513   5.534   3.568
 2504SOL    HW2 8412   3.423   5.522   3.704
 2505SOL     OW 8413   0.058   6.972   3.022
 2505SOL    HW1 8414   7.015   0.018   3.029
 2505SOL    HW2 8415   0.148   7.015   3.007
 2506SOL     OW 8416   6.773   3.647   6.404
 2506SOL    HW1 8417   6.767   3.736   6.449
 2506SOL    HW2 8418   6.836   3.653   6.326
 2507SOL     OW 8419   6.460   3.270   0.319
 2507SOL    HW1 8420   6.472   3.171   0.311
 2507SOL    HW2 8421   6.426   3.292   0.411
 2508SOL     OW 8422   2.773   1.527   3.667
 2508SOL    HW1 8423   2.864   1.558   3.695
 2508SOL    HW2 8424   2.768   1.522   3.568
 2509SOL     OW 8425   0.323   4.553   0.723
 2509SOL    HW1 8426   0.324   4.481   0.654
 2509SOL    HW2 8427   0.341   4.641   0.679
 2510SOL     OW 8428   2.701   4.900   0.880
 2510SOL    HW1 8429   2.647   4.964   0.936
 2510SOL    HW2 8430   2.644   4.823   0.854
 2511SOL     OW 8431   3.493   2.105   4.143
 2511SOL    HW1 8432   3.444   2.034   4.195
 2511SOL    HW2 8433   3.429   2.177   4.116
 2512SOL     OW 8434   4.450   4.012   5.317
 2512SOL    HW1 8435   4.468   3.914   5.313
 2512SOL    HW2 8436   4.500   4.058   5.243
 2513SOL     OW 8437   2.126   5.041   4.835
 2513SOL    HW1 8438   2.157   5.015   4.927
 2513SOL    HW2 8439   2.026   5.042   4.833
 2514SOL     OW 8440   0.333   3.532   5.185
 2514SOL    HW1 8441   0.420   3.574   5.158
 2514SOL    HW2 8442   0.318   3.546   5.283
 2515SOL     OW 8443   1.489   6.551   0.440
 2515SOL    HW1 8444   1.431   6.501   0.504
 2515SOL    HW2 8445   1.461   6.647   0.438
 2516SOL     OW 8446   5.088   1.317   2.781
 2516SOL    HW1 8447   5.061   1.406   2.817
 2516SOL    HW2 8448   5.009   1.273   2.739
 2517SOL     OW 8449   0.945   0.267   6.279
 2517SOL    HW1 8450   0.981   0.192   6.225
 2517SOL    HW2 8451   0.984   0.263   6.371
 2518SOL     OW 8452   1.431   5.267   0.787
 2518SOL    HW1 8453   1.394   5.292   0.698
 2518SOL    HW2 8454   1.520   5.312   0.801
 2519SOL     OW 8455   3.590   6.605   2.059
 2519SOL    HW1 8456   3.574   6.506   2.066
 2519SOL    HW2 8457   3.672   6.621   2.005
 2520SOL     OW 8458   3.331   1.779   0.918
 2520SOL    HW1 8459   3.416   1.815   0.956
 2520SOL    HW2 8460   3.321   1.683   0.946
 2521SOL     OW 8461   3.419   0.360   5.416
 2521SOL    HW1 8462   3.354   0.425   5.456
 2521SOL    HW2 8463   3.374   0.273   5.401
 2522SOL     OW 8464   0.635   2.259   5.211
 2522SOL    HW1 8465   0.711   2.198   5.191
 2522SOL    HW2 8466   0.556   2.205   5.242
 2523SOL     OW 8467   1.121   2.593   0.983
 2523SOL    HW1 8468   1.081   2.502   0.974
 2523SOL    HW2 8469   1.218   2.586   1.003
 2524SOL     OW 8470   6.834   6.759   5.190
 2524SOL    HW1 8471   6.850   6.768   5.288
 2524SOL    HW2 8472   6.781   6.677   5.172
 2525SOL     OW 8473   1.240   2.406   5.343
 2525SOL    HW1 8474   1.178   2.484   5.350
 2525SOL    HW2 8475   1.283   2.389   5.431
 2526SOL     OW 8476   1.361   5.197   6.472
 2526SOL    HW1 8477   1.412   5.230   6.393
 2526SOL    HW2 8478   1.358   5.268   6.543
 2527SOL     OW 8479   6.100   6.580   6.154
 2527SOL    HW1 8480   6.193   6.611   6.136
 2527SOL    HW2 8481   6.045   6.592   6.071
 2528SOL     OW 8482   6.508   4.884   0.139
 2528SOL    HW1 8483   6.495   4.981   0.116
 2528SOL    HW2 8484   6.444   4.858   0.210
 2529SOL     OW 8485   6.111   6.518   6.619
 2529SOL    HW1 8486   6.183   6.454   6.591
 2529SOL    HW2 8487   6.141   6.571   6.698
 2530SOL     OW 8488   3.092   6.143   4.397
 2530SOL    HW1 8489   3.045   6.102   4.318
 2530SOL    HW2 8490   3.122   6.235   4.373
 2531SOL     OW 8491   5.826   6.006   4.542
 2531SOL    HW1 8492   5.914   6.045   4.571
 2531SOL    HW2 8493   5.752   6.065   4.572
 2532SOL     OW 8494   0.385   5.997   0.273
 2532SOL    HW1 8495   0.459   6.015   0.208
 2532SOL    HW2 8496   0.326   6.078   0.279
 2533SOL     OW 8497   4.078   6.747   3.977
 2533SOL    HW1 8498   3.983   6.719   3.986
 2533SOL    HW2 8499   4.099   6.762   3.881
 2534SOL     OW 8500   3.712   1.195   2.175
 2534SOL    HW1 8501   3.622   1.159   2.197
 2534SOL    HW2 8502   3.703   1.290   2.144
 2535SOL     OW 8503   3.008   3.271   5.476
 2535SOL    HW1 8504   2.997   3.232   5.385
 2535SOL    HW2 8505   3.042   3.365   5.468
 2536SOL     OW 8506   1.027   1.607   5.117
 2536SOL    HW1 8507   1.015   1.692   5.169
 2536SOL    HW2 8508   1.120   1.574   5.128
 2537SOL     OW 8509   3.402   0.218   6.123
 2537SOL    HW1 8510   3.346   0.157   6.179
 2537SOL    HW2 8511   3.370   0.312   6.133
 2538SOL     OW 8512   0.688   4.072   3.398
 2538SOL    HW1 8513   0.735   4.067   3.310
 2538SOL    HW2 8514   0.697   3.985   3.446
 2539SOL     OW 8515   5.939   0.683   4.800
 2539SOL    HW1 8516   5.949   0.585   4.816
 2539SOL    HW2 8517   6.028   0.727   4.810
 2540SOL     OW 8518   4.077   1.823   2.735
 2540SOL    HW1 8519   4.141   1.854   2.806
 2540SOL    HW2 8520   4.129   1.793   2.655
 2541SOL     OW 8521   2.788   0.554   4.787
 2541SOL    HW1 8522   2.766   0.651   4.776
 2541SOL    HW2 8523   2.881   0.545   4.823
 2542SOL     OW 8524   3.070   2.891   5.989
 2542SOL    HW1 8525   3.034   2.799   5.977
 2542SOL    HW2 8526   3.164   2.895   5.954
 2543SOL     OW 8527   0.754   0.773   3.386
 2543SOL    HW1 8528   0.713   0.745   3.299
 2543SOL    HW2 8529   0.783   0.868   3.379
 2544SOL     OW 8530   0.580   5.899   1.396
 2544SOL    HW1 8531   0.625   5.834   1.457
 2544SOL    HW2 8532   0.525   5.963   1.449
 2545SOL     OW 8533   0.732   6.920   2.211
 2545SOL    HW1 8534   0.799   6.866   2.160
 2545SOL    HW2 8535   0.736   7.015   2.180
 2546SOL     OW 8536   6.557   1.187   2.191
 2546SOL    HW1 8537   6.622   1.123   2.231
 2546SOL    HW2 8538   6.474   1.138   2.163
 2547SOL     OW 8539   6.641   4.495   0.288
 2547SOL    HW1 8540   6.738   4.505   0.268
 2547SOL    HW2 8541   6.619   4.398   0.294
 2548SOL     OW 8542   0.754   0.004   5.576
 2548SOL    HW1 8543   0.749   0.094   5.532
 2548SOL    HW2 8544   0.715   6.961   5.516
 2549SOL     OW 8545   1.490   0.141   1.281
 2549SOL    HW1 8546   1.547   0.213   1.241
 2549SOL    HW2 8547   1.431   0.102   1.210
 2550SOL     OW 8548   0.457   0.673   6.916
 2550SOL    HW1 8549   0.397   0.605   6.958
 2550SOL    HW2 8550   0.473   0.650   6.820
 2551SOL     OW 8551   3.471   4.745   7.011
 2551SOL    HW1 8552   3.502   4.719   0.076
 2551SOL    HW2 8553   3.433   4.664   6.964
 2552SOL     OW 8554   1.888   6.001   4.332
 2552SOL    HW1 8555   1.878   6.098   4.353
 2552SOL    HW2 8556   1.982   5.972   4.351
 2553SOL     OW 8557   4.637   3.391   5.906
 2553SOL    HW1 8558   4.552   3.341   5.889
 2553SOL    HW2 8559   4.656   3.396   6.004
 2554SOL     OW 8560   2.409   0.023   0.270
 2554SOL    HW1 8561   2.391   0.039   0.367
 2554SOL    HW2 8562   2.339   0.070   0.215
 2555SOL     OW 8563   5.682   0.115   5.052
 2555SOL    HW1 8564   5.612   0.147   5.115
 2555SOL    HW2 8565   5.651   0.031   5.007
 2556SOL     OW 8566   3.997   6.268   6.928
 2556SOL    HW1 8567   4.028   6.259   7.022
 2556SOL    HW2 8568   4.037   6.350   6.887
 2557SOL     OW 8569   2.334   4.460   6.717
 2557SOL    HW1 8570   2.369   4.510   6.638
 2557SOL    HW2 8571   2.234   4.451   6.709
 2558SOL     OW 8572   5.130   1.806   5.316
 2558SOL    HW1 8573   5.142   1.903   5.338
 2558SOL    HW2 8574   5.084   1.798   5.227
 2559SOL     OW 8575   0.530   3.649   5.028
 2559SOL    HW1 8576   0.534   3.744   5.058
 2559SOL    HW2 8577   0.576   3.640   4.939
 2560SOL     OW 8578   5.638   3.088   4.705
 2560SOL    HW1 8579   5.580   3.008   4.722
 2560SOL    HW2 8580   5.619   3.158   4.773
 2561SOL     OW 8581   3.110   5.979   5.076
 2561SOL    HW1 8582   3.135   5.913   5.005
 2561SOL    HW2 8583   3.050   6.048   5.037
 2562SOL     OW 8584   2.317   5.026   1.516
 2562SOL    HW1 8585   2.217   5.029   1.516
 2562SOL    HW2 8586   2.348   4.979   1.599
 2563SOL     OW 8587   3.523   2.214   0.163
 2563SOL    HW1 8588   3.487   2.169   0.245
 2563SOL    HW2 8589   3.560   2.303   0.187
 2564SOL     OW 8590   2.525   5.552   6.326
 2564SOL    HW1 8591   2.579   5.625   6.285
 2564SOL    HW2 8592   2.446   5.591   6.373
 2565SOL     OW 8593   1.407   6.845   7.025
 2565SOL    HW1 8594   1.494   6.797   7.018
 2565SOL    HW2 8595   1.418   6.938   6.989
 2566SOL     OW 8596   2.296   7.016   1.245
 2566SOL    HW1 8597   2.273   6.993   1.150
 2566SOL    HW2 8598   2.298   0.089   1.256
 2567SOL     OW 8599   1.314   0.409   0.840
 2567SOL    HW1 8600   1.254   0.337   0.874
 2567SOL    HW2 8601   1.258   0.484   0.803
 2568SOL     OW 8602   4.473   0.905   6.972
 2568SOL    HW1 8603   4.435   0.987   6.928
 2568SOL    HW2 8604   4.399   0.841   6.993
 2569SOL     OW 8605   3.054   0.775   2.358
 2569SOL    HW1 8606   3.040   0.874   2.353
 2569SOL    HW2 8607   2.965   0.729   2.365
 2570SOL     OW 8608   5.704   0.158   6.779
 2570SOL    HW1 8609   5.738   0.218   6.852
 2570SOL    HW2 8610   5.717   0.063   6.805
 2571SOL     OW 8611   2.446   4.515   5.336
 2571SOL    HW1 8612   2.444   4.460   5.253
 2571SOL    HW2 8613   2.389   4.597   5.324
 2572SOL     OW 8614   2.351   6.111   0.612
 2572SOL    HW1 8615   2.323   6.207   0.611
 2572SOL    HW2 8616   2.430   6.098   0.553
 2573SOL     OW 8617   0.119   1.659   1.799
 2573SOL    HW1 8618   0.121   1.753   1.764
 2573SOL    HW2 8619   0.212   1.632   1.826
 2574SOL     OW 8620   5.706   3.932   0.523
 2574SOL    HW1 8621   5.613   3.898   0.536
 2574SOL    HW2 8622   5.756   3.928   0.610
 2575SOL     OW 8623   4.979   5.612   0.996
 2575SOL    HW1 8624   4.990   5.660   1.083
 2575SOL    HW2 8625   4.934   5.672   0.931
 2576SOL     OW 8626   4.549   6.477   4.772
 2576SOL    HW1 8627   4.471   6.530   4.739
 2576SOL    HW2 8628   4.630   6.535   4.774
 2577SOL     OW 8629   3.977   6.521   2.451
 2577SOL    HW1 8630   4.008   6.476   2.367
 2577SOL    HW2 8631   3.879   6.508   2.462
 2578SOL     OW 8632   4.758   1.654   4.801
 2578SOL    HW1 8633   4.821   1.611   4.865
 2578SOL    HW2 8634   4.669   1.669   4.846
 2579SOL     OW 8635   1.116   6.547   3.701
 2579SOL    HW1 8636   1.020   6.572   3.693
 2579SOL    HW2 8637   1.172   6.629   3.707
 2580SOL     OW 8638   3.294   4.757   6.375
 2580SOL    HW1 8639   3.274   4.666   6.337
 2580SOL    HW2 8640   3.350   4.747   6.457
 2581SOL     OW 8641   2.349   4.746   2.037
 2581SOL    HW1 8642   2.294   4.795   2.105
 2581SOL    HW2 8643   2.426   4.803   2.009
 2582SOL     OW 8644   0.458   4.380   1.154
 2582SOL    HW1 8645   0.478   4.378   1.056
 2582SOL    HW2 8646   0.501   4.301   1.198
 2583SOL     OW 8647   1.354   1.668   6.358
 2583SOL    HW1 8648   1.372   1.765   6.377
 2583SOL    HW2 8649   1.363   1.616   6.443
 2584SOL     OW 8650   5.149   5.468   6.025
 2584SOL    HW1 8651   5.066   5.475   5.970
 2584SOL    HW2 8652   5.207   5.395   5.989
 2585SOL     OW 8653   3.701   3.406   1.042
 2585SOL    HW1 8654   3.668   3.491   1.002
 2585SOL    HW2 8655   3.785   3.423   1.094
 2586SOL     OW 8656   3.267   0.465   5.082
 2586SOL    HW1 8657   3.200   0.391   5.085
 2586SOL    HW2 8658   3.221   0.551   5.063
 2587SOL     OW 8659   6.037   1.019   3.741
 2587SOL    HW1 8660   6.099   1.080   3.790
 2587SOL    HW2 8661   6.005   0.946   3.802
 2588SOL     OW 8662   4.669   2.190   6.249
 2588SOL    HW1 8663   4.575   2.169   6.223
 2588SOL    HW2 8664   4.707   2.257   6.186
 2589SOL     OW 8665   1.450   6.569   5.676
 2589SOL    HW1 8666   1.396   6.638   5.628
 2589SOL    HW2 8667   1.530   6.612   5.718
 2590SOL     OW 8668   3.767   5.129   0.004
 2590SOL    HW1 8669   3.809   5.214   7.001
 2590SOL    HW2 8670   3.668   5.135   7.021
 2591SOL     OW 8671   6.517   4.409   3.233
 2591SOL    HW1 8672   6.474   4.498   3.242
 2591SOL    HW2 8673   6.503   4.356   3.317
 2592SOL     OW 8674   3.270   4.897   0.138
 2592SOL    HW1 8675   3.175   4.899   0.108
 2592SOL    HW2 8676   3.324   4.845   0.072
 2593SOL     OW 8677   4.349   6.053   0.129
 2593SOL    HW1 8678   4.389   6.046   0.037
 2593SOL    HW2 8679   4.393   6.128   0.178
 2594SOL     OW 8680   1.830   4.131   5.963
 2594SOL    HW1 8681   1.838   4.153   5.866
 2594SOL    HW2 8682   1.921   4.109   6.000
 2595SOL     OW 8683   0.039   0.604   4.023
 2595SOL    HW1 8684   0.127   0.591   4.068
 2595SOL    HW2 8685   7.008   0.523   4.037
 2596SOL     OW 8686   3.101   2.376   1.676
 2596SOL    HW1 8687   3.189   2.418   1.697
 2596SOL    HW2 8688   3.040   2.385   1.755
 2597SOL     OW 8689   0.491   5.179   6.580
 2597SOL    HW1 8690   0.480   5.271   6.618
 2597SOL    HW2 8691   0.455   5.177   6.487
 2598SOL     OW 8692   6.260   1.665   2.837
 2598SOL    HW1 8693   6.341   1.630   2.885
 2598SOL    HW2 8694   6.232   1.752   2.876
 2599SOL     OW 8695   1.328   5.962   0.841
 2599SOL    HW1 8696   1.388   5.909   0.780
 2599SOL    HW2 8697   1.234   5.931   0.829
 2600SOL     OW 8698   5.739   2.896   4.513
 2600SOL    HW1 8699   5.689   2.975   4.550
 2600SOL    HW2 8700   5.675   2.832   4.471
 2601SOL     OW 8701   1.389   1.551   1.567
 2601SOL    HW1 8702   1.300   1.526   1.530
 2601SOL    HW2 8703   1.434   1.615   1.505
 2602SOL     OW 8704   1.104   4.569   4.947
 2602SOL    HW1 8705   1.086   4.647   4.887
 2602SOL    HW2 8706   1.093   4.485   4.895
 2603SOL     OW 8707   2.962   1.378   3.058
 2603SOL    HW1 8708   2.977   1.446   3.130
 2603SOL    HW2 8709   2.865   1.374   3.035
 2604SOL     OW 8710   4.631   1.872   2.922
 2604SOL    HW1 8711   4.636   1.896   2.825
 2604SOL    HW2 8712   4.672   1.946   2.976
 2605SOL     OW 8713   1.591   3.430   2.672
 2605SOL    HW1 8714   1.593   3.352   2.609
 2605SOL    HW2 8715   1.580   3.515   2.620
 2606SOL     OW 8716   6.242   5.142   1.741
 2606SOL    HW1 8717   6.221   5.235   1.773
 2606SOL    HW2 8718   6.273   5.147   1.646
 2607SOL     OW 8719   0.841   1.070   0.978
 2607SOL    HW1 8720   0.852   1.127   0.897
 2607SOL    HW2 8721   0.930   1.050   1.018
 2608SOL     OW 8722   3.773   5.314   0.295
 2608SOL    HW1 8723   3.819   5.340   0.211
 2608SOL    HW2 8724   3.742   5.219   0.290
 2609SOL     OW 8725   5.950   1.511   2.130
 2609SOL    HW1 8726   6.027   1.565   2.095
 2609SOL    HW2 8727   5.952   1.511   2.230
 2610SOL     OW 8728   0.888   4.599   4.610
 2610SOL    HW1 8729   0.866   4.696   4.601
 2610SOL    HW2 8730   0.988   4.588   4.609
 2611SOL     OW 8731   4.492   6.354   0.442
 2611SOL    HW1 8732   4.569   6.393   0.492
 2611SOL    HW2 8733   4.425   6.425   0.422
 2612SOL     OW 8734   5.897   6.497   4.847
 2612SOL    HW1 8735   5.925   6.426   4.783
 2612SOL    HW2 8736   5.844   6.456   4.921
 2613SOL     OW 8737   2.404   5.354   6.166
 2613SOL    HW1 8738   2.308   5.366   6.140
 2613SOL    HW2 8739   2.437   5.439   6.209
 2614SOL     OW 8740   6.591   2.122   0.380
 2614SOL    HW1 8741   6.612   2.172   0.296
 2614SOL    HW2 8742   6.537   2.041   0.357
 2615SOL     OW 8743   1.080   3.467   1.674
 2615SOL    HW1 8744   1.124   3.394   1.727
 2615SOL    HW2 8745   1.006   3.507   1.728
 2616SOL     OW 8746   1.713   1.974   5.673
 2616SOL    HW1 8747   1.803   1.944   5.643
 2616SOL    HW2 8748   1.723   2.055   5.732
 2617SOL     OW 8749   4.590   1.247   0.813
 2617SOL    HW1 8750   4.625   1.286   0.728
 2617SOL    HW2 8751   4.634   1.292   0.891
 2618SOL     OW 8752   0.000   6.865   4.218
 2618SOL    HW1 8753   0.095   6.840   4.236
 2618SOL    HW2 8754   6.993   6.814   4.138
 2619SOL     OW 8755   4.508   1.694   1.837
 2619SOL    HW1 8756   4.411   1.710   1.856
 2619SOL    HW2 8757   4.524   1.699   1.739
 2620SOL     OW 8758   6.641   0.479   3.155
 2620SOL    HW1 8759   6.678   0.437   3.237
 2620SOL    HW2 8760   6.669   0.426   3.075
 2621SOL     OW 8761   1.020   5.205   2.630
 2621SOL    HW1 8762   0.944   5.145   2.605
 2621SOL    HW2 8763   1.033   5.203   2.729
 2622SOL     OW 8764   2.792   3.484   6.269
 2622SOL    HW1 8765   2.869   3.484   6.205
 2622SOL    HW2 8766   2.827   3.477   6.363
 2623SOL     OW 8767   0.834   0.767   4.980
 2623SOL    HW1 8768   0.853   0.857   5.019
 2623SOL    HW2 8769   0.899   0.747   4.907
 2624SOL     OW 8770   0.161   2.073   5.025
 2624SOL    HW1 8771   0.141   2.006   5.096
 2624SOL    HW2 8772   0.172   2.164   5.066
 2625SOL     OW 8773   2.583   3.634   5.576
 2625SOL    HW1 8774   2.679   3.619   5.551
 2625SOL    HW2 8775   2.569   3.730   5.599
 2626SOL     OW 8776   6.465   0.076   6.233
 2626SOL    HW1 8777   6.410   0.112   6.157
 2626SOL    HW2 8778   6.416   0.091   6.319
 2627SOL     OW 8779   1.802   0.908   5.864
 2627SOL    HW1 8780   1.897   0.932   5.848
 2627SOL    HW2 8781   1.744   0.958   5.800
 2628SOL     OW 8782   1.855   3.877   5.240
 2628SOL    HW1 8783   1.830   3.932   5.160
 2628SOL    HW2 8784   1.954   3.872   5.246
 2629SOL     OW 8785   4.152   3.541   2.587
 2629SOL    HW1 8786   4.249   3.527   2.566
 2629SOL    HW2 8787   4.119   3.465   2.641
 2630SOL     OW 8788   3.596   1.578   3.523
 2630SOL    HW1 8789   3.524   1.625   3.574
 2630SOL    HW2 8790   3.626   1.636   3.447
 2631SOL     OW 8791   5.387   0.960   6.301
 2631SOL    HW1 8792   5.454   0.909   6.355
 2631SOL    HW2 8793   5.431   0.999   6.220
 2632SOL     OW 8794   5.780   3.824   0.256
 2632SOL    HW1 8795   5.741   3.863   0.339
 2632SOL    HW2 8796   5.874   3.856   0.244
 2633SOL     OW 8797   6.634   2.043   4.766
 2633SOL    HW1 8798   6.558   2.085   4.716
 2633SOL    HW2 8799   6.705   2.015   4.702
 2634SOL     OW 8800   0.566   5.651   3.478
 2634SOL    HW1 8801   0.592   5.748   3.480
 2634SOL    HW2 8802   0.512   5.633   3.396
 2635SOL     OW 8803   6.419   5.311   3.953
 2635SOL    HW1 8804   6.380   5.353   4.035
 2635SOL    HW2 8805   6.517   5.296   3.968
 2636SOL     OW 8806   4.079   0.785   6.634
 2636SOL    HW1 8807   4.056   0.863   6.693
 2636SOL    HW2 8808   4.002   0.766   6.573
 2637SOL     OW 8809   6.294   1.677   4.228
 2637SOL    HW1 8810   6.254   1.714   4.145
 2637SOL    HW2 8811   6.388   1.711   4.238
 2638SOL     OW 8812   0.039   6.979   4.694
 2638SOL    HW1 8813   0.060   7.018   4.784
 2638SOL    HW2 8814   6.969   6.952   4.692
 2639SOL     OW 8815   6.320   5.647   6.022
 2639SOL    HW1 8816   6.230   5.605   6.034
 2639SOL    HW2 8817   6.310   5.736   5.977
 2640SOL     OW 8818   6.548   0.291   5.185
 2640SOL    HW1 8819   6.588   0.229   5.252
 2640SOL    HW2 8820   6.467   0.334   5.224
 2641SOL     OW 8821   4.835   1.817   1.448
 2641SOL    HW1 8822   4.748   1.849   1.485
 2641SOL    HW2 8823   4.910   1.868   1.491
 2642SOL     OW 8824   6.435   0.151   4.045
 2642SOL    HW1 8825   6.359   0.146   3.980
 2642SOL    HW2 8826   6.439   0.242   4.086
 2643SOL     OW 8827   1.260   3.126   3.693
 2643SOL    HW1 8828   1.259   3.098   3.789
 2643SOL    HW2 8829   1.259   3.045   3.634
 2644SOL     OW 8830   4.492   5.294   4.972
 2644SOL    HW1 8831   4.480   5.239   5.055
 2644SOL    HW2 8832   4.583   5.336   4.973
 2645SOL     OW 8833   5.329   4.926   3.585
 2645SOL    HW1 8834   5.231   4.906   3.592
 2645SOL    HW2 8835   5.364   4.949   3.676
 2646SOL     OW 8836   6.931   3.173   0.129
 2646SOL    HW1 8837   6.903   3.140   0.219
 2646SOL    HW2 8838   6.907   3.105   0.059
 2647SOL     OW 8839   5.999   6.946   1.747
 2647SOL    HW1 8840   5.966   0.007   1.710
 2647SOL    HW2 8841   5.924   6.880   1.747
 2648SOL     OW 8842   0.114   6.829   4.499
 2648SOL    HW1 8843   0.187   6.871   4.446
 2648SOL    HW2 8844   0.080   6.895   4.567
 2649SOL     OW 8845   6.152   3.085   2.007
 2649SOL    HW1 8846   6.156   3.087   2.107
 2649SOL    HW2 8847   6.110   3.170   1.974
 2650SOL     OW 8848   2.687   5.730   4.617
 2650SOL    HW1 8849   2.648   5.776   4.537
 2650SOL    HW2 8850   2.680   5.631   4.605
 2651SOL     OW 8851   3.395   0.696   0.253
 2651SOL    HW1 8852   3.444   0.743   0.179
 2651SOL    HW2 8853   3.301   0.729   0.257
 2652SOL     OW 8854   4.818   3.317   5.696
 2652SOL    HW1 8855   4.754   3.332   5.771
 2652SOL    HW2 8856   4.813   3.394   5.633
 2653SOL     OW 8857   4.525   5.897   5.934
 2653SOL    HW1 8858   4.497   5.842   5.855
 2653SOL    HW2 8859   4.507   5.994   5.915
 2654SOL     OW 8860   5.131   6.134   1.124
 2654SOL    HW1 8861   5.033   6.155   1.130
 2654SOL    HW2 8862   5.184   6.215   1.150
 2655SOL     OW 8863   4.888   5.026   3.950
 2655SOL    HW1 8864   4.802   4.978   3.968
 2655SOL    HW2 8865   4.956   4.962   3.915
 2656SOL     OW 8866   3.479   4.988   3.431
 2656SOL    HW1 8867   3.495   4.925   3.508
 2656SOL    HW2 8868   3.459   5.079   3.466
 2657SOL     OW 8869   2.003   3.549   0.904
 2657SOL    HW1 8870   1.945   3.601   0.841
 2657SOL    HW2 8871   1.956   3.466   0.932
 2658SOL     OW 8872   5.030   4.732   0.162
 2658SOL    HW1 8873   5.054   4.817   0.209
 2658SOL    HW2 8874   4.984   4.671   0.227
 2659SOL     OW 8875   4.652   3.090   5.290
 2659SOL    HW1 8876   4.684   3.058   5.379
 2659SOL    HW2 8877   4.633   3.188   5.294
 2660SOL     OW 8878   0.836   0.830   1.447
 2660SOL    HW1 8879   0.813   0.811   1.352
 2660SOL    HW2 8880   0.756   0.815   1.505
 2661SOL     OW 8881   1.726   0.039   1.419
 2661SOL    HW1 8882   1.769   0.041   1.329
 2661SOL    HW2 8883   1.638   0.086   1.416
 2662SOL     OW 8884   2.594   0.193   3.693
 2662SOL    HW1 8885   2.538   0.219   3.614
 2662SOL    HW2 8886   2.684   0.164   3.661
 2663SOL     OW 8887   4.484   5.529   6.029
 2663SOL    HW1 8888   4.540   5.596   6.077
 2663SOL    HW2 8889   4.402   5.509   6.083
 2664SOL     OW 8890   3.934   2.895   5.463
 2664SOL    HW1 8891   3.891   2.943   5.386
 2664SOL    HW2 8892   4.005   2.833   5.429
 2665SOL     OW 8893   2.203   3.486   5.350
 2665SOL    HW1 8894   2.189   3.451   5.257
 2665SOL    HW2 8895   2.182   3.584   5.351
 2666SOL     OW 8896   1.483   3.973   1.699
 2666SOL    HW1 8897   1.505   3.889   1.649
 2666SOL    HW2 8898   1.414   4.025   1.648
 2667SOL     OW 8899   0.842   5.372   4.208
 2667SOL    HW1 8900   0.938   5.395   4.194
 2667SOL    HW2 8901   0.787   5.421   4.140
 2668SOL     OW 8902   5.720   3.332   4.415
 2668SOL    HW1 8903   5.745   3.394   4.490
 2668SOL    HW2 8904   5.762   3.364   4.330
 2669SOL     OW 8905   3.098   5.773   6.697
 2669SOL    HW1 8906   3.082   5.701   6.763
 2669SOL    HW2 8907   3.190   5.763   6.659
 2670SOL     OW 8908   6.745   2.689   4.872
 2670SOL    HW1 8909   6.731   2.788   4.867
 2670SOL    HW2 8910   6.750   2.652   4.780
 2671SOL     OW 8911   4.931   5.562   5.863
 2671SOL    HW1 8912   4.987   5.607   5.794
 2671SOL    HW2 8913   4.864   5.628   5.900
 2672SOL     OW 8914   3.249   0.053   1.667
 2672SOL    HW1 8915   3.346   0.061   1.690
 2672SOL    HW2 8916   3.199   0.130   1.707
 2673SOL     OW 8917   5.522   1.914   2.213
 2673SOL    HW1 8918   5.531   1.817   2.191
 2673SOL    HW2 8919   5.476   1.924   2.301
 2674SOL     OW 8920   1.412   4.819   4.011
 2674SOL    HW1 8921   1.491   4.845   3.956
 2674SOL    HW2 8922   1.348   4.896   4.016
 2675SOL     OW 8923   0.218   6.605   4.257
 2675SOL    HW1 8924   0.301   6.609   4.201
 2675SOL    HW2 8925   0.226   6.530   4.322
 2676SOL     OW 8926   3.832   3.594   2.635
 2676SOL    HW1 8927   3.843   3.507   2.587
 2676SOL    HW2 8928   3.846   3.580   2.733
 2677SOL     OW 8929   2.750   4.951   1.315
 2677SOL    HW1 8930   2.693   4.974   1.394
 2677SOL    HW2 8931   2.760   4.852   1.308
 2678SOL     OW 8932   0.045   2.631   2.098
 2678SOL    HW1 8933   0.024   2.608   2.003
 2678SOL    HW2 8934   0.102   2.713   2.101
 2679SOL     OW 8935   1.838   5.148   2.645
 2679SOL    HW1 8936   1.750   5.190   2.623
 2679SOL    HW2 8937   1.864   5.084   2.573
 2680SOL     OW 8938   1.391   2.402   0.095
 2680SOL    HW1 8939   1.323   2.455   0.146
 2680SOL    HW2 8940   1.458   2.463   0.054
 2681SOL     OW 8941   1.554   2.631   4.798
 2681SOL    HW1 8942   1.616   2.679   4.737
 2681SOL    HW2 8943   1.480   2.692   4.825
 2682SOL     OW 8944   5.396   3.815   3.329
 2682SOL    HW1 8945   5.394   3.717   3.311
 2682SOL    HW2 8946   5.420   3.831   3.425
 2683SOL     OW 8947   2.185   4.418   2.265
 2683SOL    HW1 8948   2.171   4.432   2.167
 2683SOL    HW2 8949   2.278   4.384   2.281
 2684SOL     OW 8950   5.354   6.851   1.513
 2684SOL    HW1 8951   5.256   6.856   1.531
 2684SOL    HW2 8952   5.387   6.942   1.488
 2685SOL     OW 8953   6.576   4.755   5.041
 2685SOL    HW1 8954   6.524   4.690   5.096
 2685SOL    HW2 8955   6.598   4.714   4.953
 2686SOL     OW 8956   1.014   1.181   5.266
 2686SOL    HW1 8957   1.006   1.144   5.359
 2686SOL    HW2 8958   1.037   1.278   5.272
 2687SOL     OW 8959   3.464   6.510   1.228
 2687SOL    HW1 8960   3.519   6.517   1.312
 2687SOL    HW2 8961   3.494   6.579   1.163
 2688SOL     OW 8962   3.030   1.981   0.613
 2688SOL    HW1 8963   3.007   2.062   0.560
 2688SOL    HW2 8964   3.102   2.003   0.678
 2689SOL     OW 8965   0.518   3.993   2.624
 2689SOL    HW1 8966   0.424   3.963   2.613
 2689SOL    HW2 8967   0.525   4.050   2.705
 2690SOL     OW 8968   3.140   3.418   6.758
 2690SOL    HW1 8969   3.141   3.358   6.678
 2690SOL    HW2 8970   3.232   3.454   6.774
 2691SOL     OW 8971   0.091   4.381   3.818
 2691SOL    HW1 8972   0.025   4.327   3.871
 2691SOL    HW2 8973   0.079   4.362   3.720
 2692SOL     OW 8974   2.249   6.408   3.131
 2692SOL    HW1 8975   2.304   6.390   3.212
 2692SOL    HW2 8976   2.152   6.415   3.157
 2693SOL     OW 8977   2.130   4.745   4.064
 2693SOL    HW1 8978   2.107   4.673   4.129
 2693SOL    HW2 8979   2.175   4.705   3.984
 2694SOL     OW 8980   4.084   6.977   3.068
 2694SOL    HW1 8981   3.996   6.995   3.025
 2694SOL    HW2 8982   4.091   6.880   3.091
 2695SOL     OW 8983   5.871   6.797   2.883
 2695SOL    HW1 8984   5.948   6.860   2.873
 2695SOL    HW2 8985   5.811   6.805   2.804
 2696SOL     OW 8986   4.595   3.793   6.178
 2696SOL    HW1 8987   4.665   3.847   6.131
 2696SOL    HW2 8988   4.544   3.739   6.112
 2697SOL     OW 8989   4.438   1.559   2.347
 2697SOL    HW1 8990   4.469   1.485   2.405
 2697SOL    HW2 8991   4.426   1.526   2.253
 2698SOL     OW 8992   2.039   4.715   6.788
 2698SOL    HW1 8993   1.963   4.778   6.774
 2698SOL    HW2 8994   2.052   4.699   6.885
 2699SOL     OW 8995   2.590   5.744   0.887
 2699SOL    HW1 8996   2.553   5.666   0.837
 2699SOL    HW2 8997   2.535   5.759   0.970
 2700SOL     OW 8998   2.796   1.625   1.066
 2700SOL    HW1 8999   2.785   1.629   1.165
 2700SOL    HW2 9000   2.841   1.539   1.041
 2701SOL     OW 9001   5.271   2.555   5.825
 2701SOL    HW1 9002   5.214   2.542   5.745
 2701SOL    HW2 9003   5.237   2.633   5.878
 2702SOL     OW 9004   1.412   2.028   3.097
 2702SOL    HW1 9005   1.504   2.023   3.134
 2702SOL    HW2 9006   1.401   2.114   3.047
 2703SOL     OW 9007   1.740   5.339   1.619
 2703SOL    HW1 9008   1.800   5.419   1.619
 2703SOL    HW2 9009   1.666   5.353   1.553
 2704SOL     OW 9010   6.781   5.597   2.591
 2704SOL    HW1 9011   6.685   5.579   2.569
 2704SOL    HW2 9012   6.829   5.630   2.510
 2705SOL     OW 9013   6.450   1.517   5.137
 2705SOL    HW1 9014   6.509   1.436   5.132
 2705SOL    HW2 9015   6.507   1.599   5.137
 2706SOL     OW 9016   6.103   4.374   4.706
 2706SOL    HW1 9017   6.010   4.392   4.673
 2706SOL    HW2 9018   6.130   4.446   4.769
 2707SOL     OW 9019   4.102   6.812   4.317
 2707SOL    HW1 9020   4.121   6.724   4.272
 2707SOL    HW2 9021   4.153   6.885   4.270
 2708SOL     OW 9022   6.650   2.599   0.742
 2708SOL    HW1 9023   6.649   2.640   0.651
 2708SOL    HW2 9024   6.583   2.525   0.746
 2709SOL     OW 9025   4.867   6.824   6.635
 2709SOL    HW1 9026   4.940   6.768   6.596
 2709SOL    HW2 9027   4.880   6.919   6.607
 2710SOL     OW 9028   2.044   2.634   3.574
 2710SOL    HW1 9029   2.022   2.587   3.659
 2710SOL    HW2 9030   2.134   2.677   3.582
 2711SOL     OW 9031   3.062   1.124   3.608
 2711SOL    HW1 9032   2.997   1.179   3.660
 2711SOL    HW2 9033   3.116   1.184   3.548
 2712SOL     OW 9034   2.999   5.367   1.918
 2712SOL    HW1 9035   3.069   5.330   1.979
 2712SOL    HW2 9036   3.019   5.340   1.824
 2713SOL     OW 9037   4.074   4.102   6.636
 2713SOL    HW1 9038   4.136   4.079   6.561
 2713SOL    HW2 9039   4.007   4.029   6.647
 2714SOL     OW 9040   4.073   4.178   0.082
 2714SOL    HW1 9041   4.157   4.232   0.092
 2714SOL    HW2 9042   4.038   4.152   0.172
 2715SOL     OW 9043   5.488   2.354   1.043
 2715SOL    HW1 9044   5.569   2.412   1.054
 2715SOL    HW2 9045   5.408   2.412   1.026
 2716SOL     OW 9046   4.750   2.922   3.377
 2716SOL    HW1 9047   4.791   3.010   3.402
 2716SOL    HW2 9048   4.743   2.865   3.459
 2717SOL     OW 9049   0.810   6.627   2.478
 2717SOL    HW1 9050   0.852   6.536   2.480
 2717SOL    HW2 9051   0.711   6.617   2.494
 2718SOL     OW 9052   6.835   1.052   4.978
 2718SOL    HW1 9053   6.756   1.112   4.972
 2718SOL    HW2 9054   6.840   0.995   4.895
 2719SOL     OW 9055   1.432   4.395   2.048
 2719SOL    HW1 9056   1.338   4.364   2.063
 2719SOL    HW2 9057   1.492   4.316   2.038
 2720SOL     OW 9058   1.015   0.059   4.231
 2720SOL    HW1 9059   0.953   0.136   4.231
 2720SOL    HW2 9060   1.106   0.089   4.261
 2721SOL     OW 9061   3.259   6.549   3.004
 2721SOL    HW1 9062   3.239   6.458   2.966
 2721SOL    HW2 9063   3.341   6.543   3.060
 2722SOL     OW 9064   4.850   5.476   6.405
 2722SOL    HW1 9065   4.804   5.401   6.358
 2722SOL    HW2 9066   4.942   5.448   6.430
 2723SOL     OW 9067   2.385   6.263   6.560
 2723SOL    HW1 9068   2.293   6.283   6.593
 2723SOL    HW2 9069   2.439   6.347   6.556
 2724SOL     OW 9070   1.713   6.128   6.608
 2724SOL    HW1 9071   1.756   6.185   6.538
 2724SOL    HW2 9072   1.618   6.109   6.581
 2725SOL     OW 9073   5.468   3.870   4.483
 2725SOL    HW1 9074   5.509   3.799   4.541
 2725SOL    HW2 9075   5.378   3.841   4.452
 2726SOL     OW 9076   1.008   2.162   1.865
 2726SOL    HW1 9077   0.953   2.079   1.854
 2726SOL    HW2 9078   0.954   2.232   1.911
 2727SOL     OW 9079   1.718   4.078   4.385
 2727SOL    HW1 9080   1.738   3.983   4.408
 2727SOL    HW2 9081   1.780   4.139   4.434
 2728SOL     OW 9082   5.153   6.180   6.519
 2728SOL    HW1 9083   5.082   6.147   6.581
 2728SOL    HW2 9084   5.242   6.176   6.565
 2729SOL     OW 9085   6.748   6.501   0.001
 2729SOL    HW1 9086   6.842   6.528   7.004
 2729SOL    HW2 9087   6.712   6.441   6.956
 2730SOL     OW 9088   0.839   5.638   1.668
 2730SOL    HW1 9089   0.845   5.539   1.679
 2730SOL    HW2 9090   0.748   5.662   1.634
 2731SOL     OW 9091   3.212   3.464   3.056
 2731SOL    HW1 9092   3.137   3.414   3.013
 2731SOL    HW2 9093   3.233   3.545   3.000
 2732SOL     OW 9094   6.004   2.262   1.742
 2732SOL    HW1 9095   6.047   2.202   1.675
 2732SOL    HW2 9096   6.067   2.337   1.766
 2733SOL     OW 9097   0.098   1.636   4.828
 2733SOL    HW1 9098   0.044   1.714   4.799
 2733SOL    HW2 9099   0.041   1.554   4.830
 2734SOL     OW 9100   3.556   5.763   1.617
 2734SOL    HW1 9101   3.580   5.808   1.531
 2734SOL    HW2 9102   3.629   5.778   1.684
 2735SOL     OW 9103   1.539   2.280   1.057
 2735SOL    HW1 9104   1.470   2.285   0.985
 2735SOL    HW2 9105   1.592   2.196   1.046
 2736SOL     OW 9106   6.284   6.175   4.832
 2736SOL    HW1 9107   6.299   6.244   4.761
 2736SOL    HW2 9108   6.302   6.215   4.922
 2737SOL     OW 9109   2.826   3.030   5.880
 2737SOL    HW1 9110   2.901   2.974   5.915
 2737SOL    HW2 9111   2.739   2.986   5.902
 2738SOL     OW 9112   6.275   6.630   2.626
 2738SOL    HW1 9113   6.198   6.692   2.609
 2738SOL    HW2 9114   6.271   6.554   2.562
 2739SOL     OW 9115   0.834   5.171   1.094
 2739SOL    HW1 9116   0.792   5.099   1.038
 2739SOL    HW2 9117   0.932   5.156   1.099
 2740SOL     OW 9118   6.681   5.204   2.128
 2740SOL    HW1 9119   6.676   5.192   2.227
 2740SOL    HW2 9120   6.776   5.222   2.102
 2741SOL     OW 9121   0.319   1.978   4.829
 2741SOL    HW1 9122   0.398   2.039   4.834
 2741SOL    HW2 9123   0.258   1.997   4.906
 2742SOL     OW 9124   2.438   5.187   1.748
 2742SOL    HW1 9125   2.514   5.251   1.755
 2742SOL    HW2 9126   2.352   5.237   1.742
 2743SOL     OW 9127   6.685   4.434   2.108
 2743SOL    HW1 9128   6.630   4.518   2.108
 2743SOL    HW2 9129   6.650   4.371   2.177
 2744SOL     OW 9130   4.171   3.339   1.835
 2744SOL    HW1 9131   4.253   3.301   1.793
 2744SOL    HW2 9132   4.090   3.303   1.789
 2745SOL     OW 9133   6.574   1.422   5.478
 2745SOL    HW1 9134   6.549   1.515   5.504
 2745SOL    HW2 9135   6.603   1.372   5.560
 2746SOL     OW 9136   0.581   2.194   4.066
 2746SOL    HW1 9137   0.638   2.161   3.991
 2746SOL    HW2 9138   0.516   2.123   4.092
 2747SOL     OW 9139   4.647   5.528   6.576
 2747SOL    HW1 9140   4.573   5.462   6.578
 2747SOL    HW2 9141   4.716   5.499   6.510
 2748SOL     OW 9142   4.658   0.648   1.831
 2748SOL    HW1 9143   4.573   0.675   1.875
 2748SOL    HW2 9144   4.720   0.727   1.826
 2749SOL     OW 9145   0.400   5.091   0.758
 2749SOL    HW1 9146   0.374   5.183   0.790
 2749SOL    HW2 9147   0.489   5.096   0.713
 2750SOL     OW 9148   1.976   4.237   2.006
 2750SOL    HW1 9149   2.016   4.186   1.929
 2750SOL    HW2 9150   1.927   4.317   1.971
 2751SOL     OW 9151   1.673   2.420   1.438
 2751SOL    HW1 9152   1.613   2.348   1.472
 2751SOL    HW2 9153   1.689   2.487   1.511
 2752SOL     OW 9154   3.547   4.311   5.996
 2752SOL    HW1 9155   3.584   4.219   5.983
 2752SOL    HW2 9156   3.459   4.305   6.043
 2753SOL     OW 9157   6.840   6.150   4.917
 2753SOL    HW1 9158   6.745   6.178   4.902
 2753SOL    HW2 9159   6.880   6.207   4.989
 2754SOL     OW 9160   0.661   0.079   0.255
 2754SOL    HW1 9161   0.572   0.066   0.298
 2754SOL    HW2 9162   0.733   0.070   0.324
 2755SOL     OW 9163   3.856   0.315   3.170
 2755SOL    HW1 9164   3.772   0.280   3.210
 2755SOL    HW2 9165   3.934   0.262   3.203
 2756SOL     OW 9166   4.048   6.117   0.214
 2756SOL    HW1 9167   4.138   6.105   0.172
 2756SOL    HW2 9168   4.008   6.027   0.232
 2757SOL     OW 9169   1.854   6.667   0.972
 2757SOL    HW1 9170   1.762   6.632   0.992
 2757SOL    HW2 9171   1.891   6.710   1.054
 2758SOL     OW 9172   5.114   0.189   4.830
 2758SOL    HW1 9173   5.033   0.167   4.884
 2758SOL    HW2 9174   5.099   0.277   4.783
 2759SOL     OW 9175   5.434   6.535   5.173
 2759SOL    HW1 9176   5.455   6.495   5.084
 2759SOL    HW2 9177   5.343   6.505   5.202
 2760SOL     OW 9178   1.337   5.585   1.601
 2760SOL    HW1 9179   1.424   5.622   1.633
 2760SOL    HW2 9180   1.262   5.635   1.644
 2761SOL     OW 9181   2.427   4.714   4.296
 2761SOL    HW1 9182   2.440   4.623   4.257
 2761SOL    HW2 9183   2.471   4.718   4.386
 2762SOL     OW 9184   0.853   1.028   5.099
 2762SOL    HW1 9185   0.823   1.099   5.035
 2762SOL    HW2 9186   0.910   1.069   5.170
 2763SOL     OW 9187   5.688   1.613   3.773
 2763SOL    HW1 9188   5.610   1.626   3.711
 2763SOL    HW2 9189   5.770   1.591   3.719
 2764SOL     OW 9190   6.235   0.292   1.166
 2764SOL    HW1 9191   6.148   0.339   1.182
 2764SOL    HW2 9192   6.227   0.197   1.198
 2765SOL     OW 9193   5.532   0.310   0.628
 2765SOL    HW1 9194   5.490   0.385   0.679
 2765SOL    HW2 9195   5.573   0.245   0.691
 2766SOL     OW 9196   5.128   2.559   0.463
 2766SOL    HW1 9197   5.039   2.519   0.484
 2766SOL    HW2 9198   5.115   2.648   0.419
 2767SOL     OW 9199   6.788   4.899   6.580
 2767SOL    HW1 9200   6.802   4.910   6.481
 2767SOL    HW2 9201   6.876   4.882   6.624
 2768SOL     OW 9202   5.027   0.660   0.169
 2768SOL    HW1 9203   5.004   0.632   0.262
 2768SOL    HW2 9204   4.967   0.734   0.141
 2769SOL     OW 9205   6.651   4.203   4.015
 2769SOL    HW1 9206   6.635   4.235   3.921
 2769SOL    HW2 9207   6.566   4.209   4.067
 2770SOL     OW 9208   2.287   5.702   6.146
 2770SOL    HW1 9209   2.277   5.603   6.136
 2770SOL    HW2 9210   2.242   5.732   6.230
 2771SOL     OW 9211   5.443   1.315   2.015
 2771SOL    HW1 9212   5.509   1.388   2.001
 2771SOL    HW2 9213   5.491   1.229   2.033
 2772SOL     OW 9214   4.585   1.924   0.949
 2772SOL    HW1 9215   4.521   1.936   0.872
 2772SOL    HW2 9216   4.678   1.939   0.917
 2773SOL     OW 9217   5.549   3.182   5.522
 2773SOL    HW1 9218   5.544   3.228   5.434
 2773SOL    HW2 9219   5.601   3.097   5.513
 2774SOL     OW 9220   6.701   3.192   2.853
 2774SOL    HW1 9221   6.760   3.199   2.772
 2774SOL    HW2 9222   6.735   3.119   2.913
 2775SOL     OW 9223   0.023   5.224   0.083
 2775SOL    HW1 9224   7.022   5.303   0.027
 2775SOL    HW2 9225   0.044   5.254   0.176
 2776SOL     OW 9226   4.990   5.159   5.623
 2776SOL    HW1 9227   4.992   5.149   5.523
 2776SOL    HW2 9228   5.046   5.088   5.665
 2777SOL     OW 9229   2.833   1.188   1.990
 2777SOL    HW1 9230   2.803   1.195   2.085
 2777SOL    HW2 9231   2.794   1.106   1.949
 2778SOL     OW 9232   1.052   1.117   4.745
 2778SOL    HW1 9233   1.106   1.199   4.768
 2778SOL    HW2 9234   1.094   1.037   4.788
 2779SOL     OW 9235   4.984   6.692   0.887
 2779SOL    HW1 9236   4.936   6.653   0.966
 2779SOL    HW2 9237   4.946   6.654   0.803
 2780SOL     OW 9238   6.871   5.701   6.328
 2780SOL    HW1 9239   6.917   5.789   6.336
 2780SOL    HW2 9240   6.805   5.704   6.253
 2781SOL     OW 9241   6.129   5.732   1.692
 2781SOL    HW1 9242   6.106   5.727   1.790
 2781SOL    HW2 9243   6.149   5.827   1.668
 2782SOL     OW 9244   2.877   2.108   5.706
 2782SOL    HW1 9245   2.970   2.072   5.709
 2782SOL    HW2 9246   2.838   2.109   5.798
 2783SOL     OW 9247   6.068   3.108   4.890
 2783SOL    HW1 9248   6.010   3.130   4.812
 2783SOL    HW2 9249   6.092   3.192   4.938
 2784SOL     OW 9250   3.248   1.992   0.780
 2784SOL    HW1 9251   3.329   2.041   0.746
 2784SOL    HW2 9252   3.276   1.904   0.819
 2785SOL     OW 9253   5.477   1.368   0.696
 2785SOL    HW1 9254   5.510   1.423   0.773
 2785SOL    HW2 9255   5.468   1.272   0.725
 2786SOL     OW 9256   4.167   5.667   1.678
 2786SOL    HW1 9257   4.105   5.701   1.607
 2786SOL    HW2 9258   4.249   5.725   1.682
 2787SOL     OW 9259   2.662   2.689   6.618
 2787SOL    HW1 9260   2.759   2.714   6.618
 2787SOL    HW2 9261   2.607   2.771   6.600
 2788SOL     OW 9262   2.596   4.474   6.879
 2788SOL    HW1 9263   2.606   4.386   6.926
 2788SOL    HW2 9264   2.503   4.481   6.842
 2789SOL     OW 9265   1.909   2.912   3.481
 2789SOL    HW1 9266   1.972   2.968   3.428
 2789SOL    HW2 9267   1.961   2.838   3.525
 2790SOL     OW 9268   2.906   5.574   2.434
 2790SOL    HW1 9269   2.918   5.625   2.519
 2790SOL    HW2 9270   2.830   5.510   2.444
 2791SOL     OW 9271   1.226   4.084   4.530
 2791SOL    HW1 9272   1.305   4.139   4.502
 2791SOL    HW2 9273   1.256   4.005   4.582
 2792SOL     OW 9274   0.564   6.779   4.867
 2792SOL    HW1 9275   0.629   6.803   4.795
 2792SOL    HW2 9276   0.485   6.840   4.862
 2793SOL     OW 9277   4.817   2.653   2.791
 2793SOL    HW1 9278   4.883   2.601   2.736
 2793SOL    HW2 9279   4.866   2.722   2.844
 2794SOL     OW 9280   6.949   2.109   0.840
 2794SOL    HW1 9281   6.993   2.099   0.929
 2794SOL    HW2 9282   6.925   2.205   0.825
 2795SOL     OW 9283   2.251   3.398   0.818
 2795SOL    HW1 9284   2.286   3.481   0.775
 2795SOL    HW2 9285   2.151   3.402   0.821
 2796SOL     OW 9286   6.801   4.998   2.999
 2796SOL    HW1 9287   6.782   4.907   2.961
 2796SOL    HW2 9288   6.764   5.067   2.938
 2797SOL     OW 9289   4.961   5.596   4.411
 2797SOL    HW1 9290   4.887   5.623   4.350
 2797SOL    HW2 9291   5.049   5.619   4.369
 2798SOL     OW 9292   1.200   4.739   1.883
 2798SOL    HW1 9293   1.146   4.720   1.801
 2798SOL    HW2 9294   1.280   4.795   1.858
 2799SOL     OW 9295   6.883   5.866   6.906
 2799SOL    HW1 9296   6.837   5.870   6.818
 2799SOL    HW2 9297   6.819   5.835   6.976
 2800SOL     OW 9298   4.472   5.362   6.694
 2800SOL    HW1 9299   4.409   5.322   6.627
 2800SOL    HW2 9300   4.544   5.296   6.715
 2801SOL     OW 9301   4.529   5.689   4.358
 2801SOL    HW1 9302   4.499   5.596   4.382
 2801SOL    HW2 9303   4.493   5.754   4.425
 2802SOL     OW 9304   4.527   3.014   6.246
 2802SOL    HW1 9305   4.533   2.951   6.169
 2802SOL    HW2 9306   4.436   3.009   6.286
 2803SOL     OW 9307   3.468   6.343   6.184
 2803SOL    HW1 9308   3.424   6.254   6.195
 2803SOL    HW2 9309   3.434   6.387   6.101
 2804SOL     OW 9310   7.012   4.743   4.896
 2804SOL    HW1 9311   6.934   4.765   4.836
 2804SOL    HW2 9312   6.979   4.722   4.987
 2805SOL     OW 9313   4.988   2.594   1.754
 2805SOL    HW1 9314   5.036   2.506   1.762
 2805SOL    HW2 9315   4.972   2.631   1.845
 2806SOL     OW 9316   6.276   4.757   4.289
 2806SOL    HW1 9317   6.306   4.833   4.346
 2806SOL    HW2 9318   6.191   4.782   4.242
 2807SOL     OW 9319   6.009   5.387   4.176
 2807SOL    HW1 9320   6.066   5.413   4.254
 2807SOL    HW2 9321   5.961   5.302   4.197
 2808SOL     OW 9322   5.070   2.791   2.506
 2808SOL    HW1 9323   5.067   2.692   2.488
 2808SOL    HW2 9324   4.978   2.829   2.498
 2809SOL     OW 9325   6.094   2.498   1.825
 2809SOL    HW1 9326   6.037   2.573   1.860
 2809SOL    HW2 9327   6.172   2.536   1.775
 2810SOL     OW 9328   3.003   6.429   4.305
 2810SOL    HW1 9329   3.008   6.527   4.284
 2810SOL    HW2 9330   3.018   6.376   4.221
 2811SOL     OW 9331   0.471   0.951   3.034
 2811SOL    HW1 9332   0.494   1.048   3.043
 2811SOL    HW2 9333   0.524   0.898   3.100
 2812SOL     OW 9334   5.667   3.581   0.164
 2812SOL    HW1 9335   5.721   3.505   0.127
 2812SOL    HW2 9336   5.726   3.638   0.221
 2813SOL     OW 9337   6.353   0.048   5.829
 2813SOL    HW1 9338   6.259   0.016   5.821
 2813SOL    HW2 9339   6.415   7.006   5.790
 2814SOL     OW 9340   4.791   3.127   6.682
 2814SOL    HW1 9341   4.739   3.043   6.664
 2814SOL    HW2 9342   4.772   3.194   6.609
 2815SOL     OW 9343   6.976   1.700   5.607
 2815SOL    HW1 9344   6.918   1.779   5.628
 2815SOL    HW2 9345   6.946   1.659   5.521
 2816SOL     OW 9346   6.747   5.928   3.613
 2816SOL    HW1 9347   6.690   5.925   3.531
 2816SOL    HW2 9348   6.740   6.019   3.655
 2817SOL     OW 9349   2.022   0.269   1.165
 2817SOL    HW1 9350   1.961   0.345   1.142
 2817SOL    HW2 9351   2.108   0.305   1.199
 2818SOL     OW 9352   0.144   6.484   0.092
 2818SOL    HW1 9353   0.232   6.478   0.046
 2818SOL    HW2 9354   0.072   6.504   0.025
 2819SOL     OW 9355   0.205   1.296   1.251
 2819SOL    HW1 9356   0.114   1.276   1.289
 2819SOL    HW2 9357   0.261   1.339   1.321
 2820SOL     OW 9358   1.389   1.887   2.834
 2820SOL    HW1 9359   1.381   1.817   2.905
 2820SOL    HW2 9360   1.423   1.972   2.875
 2821SOL     OW 9361   3.955   3.696   0.022
 2821SOL    HW1 9362   3.940   3.712   0.119
 2821SOL    HW2 9363   4.046   3.729   7.022
 2822SOL     OW 9364   4.186   2.423   6.678
 2822SOL    HW1 9365   4.248   2.372   6.737
 2822SOL    HW2 9366   4.104   2.368   6.659
 2823SOL     OW 9367   3.070   6.771   0.533
 2823SOL    HW1 9368   3.121   6.792   0.616
 2823SOL    HW2 9369   3.011   6.848   0.509
 2824SOL     OW 9370   2.650   1.189   4.416
 2824SOL    HW1 9371   2.555   1.158   4.420
 2824SOL    HW2 9372   2.655   1.275   4.364
 2825SOL     OW 9373   0.012   0.602   6.773
 2825SOL    HW1 9374   6.958   0.543   6.763
 2825SOL    HW2 9375   0.067   0.599   6.689
 2826SOL     OW 9376   5.283   2.145   0.072
 2826SOL    HW1 9377   5.320   2.173   0.161
 2826SOL    HW2 9378   5.277   2.225   0.012
 2827SOL     OW 9379   5.894   0.740   5.205
 2827SOL    HW1 9380   5.844   0.695   5.132
 2827SOL    HW2 9381   5.905   0.837   5.183
 2828SOL     OW 9382   3.182   0.404   0.166
 2828SOL    HW1 9383   3.202   0.329   0.103
 2828SOL    HW2 9384   3.242   0.481   0.146
 2829SOL     OW 9385   3.540   3.797   5.982
 2829SOL    HW1 9386   3.583   3.867   5.926
 2829SOL    HW2 9387   3.448   3.827   6.009
 2830SOL     OW 9388   0.904   3.325   6.915
 2830SOL    HW1 9389   1.003   3.332   6.928
 2830SOL    HW2 9390   0.868   3.414   6.886
 2831SOL     OW 9391   0.545   5.822   3.954
 2831SOL    HW1 9392   0.561   5.781   4.044
 2831SOL    HW2 9393   0.627   5.810   3.898
 2832SOL     OW 9394   0.539   1.070   2.288
 2832SOL    HW1 9395   0.564   1.021   2.205
 2832SOL    HW2 9396   0.594   1.154   2.296
 2833SOL     OW 9397   4.615   2.251   2.679
 2833SOL    HW1 9398   4.524   2.220   2.708
 2833SOL    HW2 9399   4.617   2.259   2.579
 2834SOL     OW 9400   2.837   6.778   5.582
 2834SOL    HW1 9401   2.896   6.712   5.534
 2834SOL    HW2 9402   2.837   6.757   5.680
 2835SOL     OW 9403   6.852   0.583   2.151
 2835SOL    HW1 9404   6.761   0.575   2.191
 2835SOL    HW2 9405   6.889   0.674   2.170
 2836SOL     OW 9406   6.174   6.793   1.614
 2836SOL    HW1 9407   6.095   6.831   1.661
 2836SOL    HW2 9408   6.257   6.815   1.665
 2837SOL     OW 9409   5.628   3.458   3.037
 2837SOL    HW1 9410   5.723   3.460   3.067
 2837SOL    HW2 9411   5.597   3.551   3.018
 2838SOL     OW 9412   1.921   4.311   1.302
 2838SOL    HW1 9413   1.866   4.273   1.376
 2838SOL    HW2 9414   1.935   4.240   1.232
 2839SOL     OW 9415   5.762   1.537   1.800
 2839SOL    HW1 9416   5.856   1.569   1.794
 2839SOL    HW2 9417   5.747   1.495   1.890
 2840SOL     OW 9418   1.022   1.307   3.626
 2840SOL    HW1 9419   1.086   1.382   3.640
 2840SOL    HW2 9420   0.941   1.341   3.579
 2841SOL     OW 9421   0.635   1.048   5.766
 2841SOL    HW1 9422   0.614   0.958   5.726
 2841SOL    HW2 9423   0.677   1.106   5.696
 2842SOL     OW 9424   6.977   3.166   4.320
 2842SOL    HW1 9425   0.024   3.138   4.381
 2842SOL    HW2 9426   7.013   3.175   4.227
 2843SOL     OW 9427   3.143   1.952   3.391
 2843SOL    HW1 9428   3.105   2.024   3.333
 2843SOL    HW2 9429   3.069   1.901   3.435
 2844SOL     OW 9430   1.114   5.501   0.389
 2844SOL    HW1 9431   1.108   5.521   0.292
 2844SOL    HW2 9432   1.149   5.408   0.402
 2845SOL     OW 9433   0.966   2.836   0.912
 2845SOL    HW1 9434   1.003   2.897   0.982
 2845SOL    HW2 9435   1.005   2.744   0.924
 2846SOL     OW 9436   4.329   1.194   6.571
 2846SOL    HW1 9437   4.366   1.286   6.566
 2846SOL    HW2 9438   4.298   1.166   6.480
 2847SOL     OW 9439   5.121   3.196   3.036
 2847SOL    HW1 9440   5.143   3.293   3.029
 2847SOL    HW2 9441   5.037   3.176   2.986
 2848SOL     OW 9442   1.167   3.346   6.508
 2848SOL    HW1 9443   1.234   3.306   6.445
 2848SOL    HW2 9444   1.188   3.318   6.602
 2849SOL     OW 9445   3.835   6.482   1.178
 2849SOL    HW1 9446   3.874   6.569   1.146
 2849SOL    HW2 9447   3.846   6.475   1.277
 2850SOL     OW 9448   3.429   0.092   2.504
 2850SOL    HW1 9449   3.371   0.170   2.527
 2850SOL    HW2 9450   3.419   0.071   2.407
 2851SOL     OW 9451   0.408   3.292   5.829
 2851SOL    HW1 9452   0.310   3.292   5.847
 2851SOL    HW2 9453   0.433   3.207   5.782
 2852SOL     OW 9454   5.385   4.224   0.499
 2852SOL    HW1 9455   5.362   4.300   0.438
 2852SOL    HW2 9456   5.362   4.249   0.593
 2853SOL     OW 9457   2.033   2.746   0.347
 2853SOL    HW1 9458   2.129   2.775   0.337
 2853SOL    HW2 9459   2.031   2.652   0.380
 2854SOL     OW 9460   3.693   1.558   5.014
 2854SOL    HW1 9461   3.724   1.602   4.930
 2854SOL    HW2 9462   3.640   1.623   5.069
 2855SOL     OW 9463   2.681   1.068   6.110
 2855SOL    HW1 9464   2.693   1.007   6.188
 2855SOL    HW2 9465   2.584   1.074   6.087
 2856SOL     OW 9466   1.895   2.845   5.793
 2856SOL    HW1 9467   1.838   2.926   5.774
 2856SOL    HW2 9468   1.977   2.872   5.843
 2857SOL     OW 9469   3.324   1.870   2.117
 2857SOL    HW1 9470   3.389   1.945   2.109
 2857SOL    HW2 9471   3.252   1.880   2.048
 2858SOL     OW 9472   5.828   3.725   1.545
 2858SOL    HW1 9473   5.776   3.810   1.529
 2858SOL    HW2 9474   5.771   3.646   1.522
 2859SOL     OW 9475   5.061   2.157   0.479
 2859SOL    HW1 9476   4.982   2.156   0.418
 2859SOL    HW2 9477   5.114   2.074   0.466
 2860SOL     OW 9478   3.591   1.835   1.098
 2860SOL    HW1 9479   3.689   1.838   1.077
 2860SOL    HW2 9480   3.570   1.905   1.167
 2861SOL     OW 9481   4.762   4.932   5.894
 2861SOL    HW1 9482   4.687   4.916   5.958
 2861SOL    HW2 9483   4.727   4.927   5.800
 2862SOL     OW 9484   5.077   1.735   3.146
 2862SOL    HW1 9485   5.000   1.705   3.202
 2862SOL    HW2 9486   5.162   1.722   3.197
 2863SOL     OW 9487   5.091   1.513   6.967
 2863SOL    HW1 9488   5.068   1.548   6.876
 2863SOL    HW2 9489   5.154   1.577   7.013
 2864SOL     OW 9490   4.008   1.199   1.628
 2864SOL    HW1 9491   4.075   1.272   1.636
 2864SOL    HW2 9492   4.054   1.114   1.602
 2865SOL     OW 9493   5.427   4.560   5.512
 2865SOL    HW1 9494   5.445   4.658   5.522
 2865SOL    HW2 9495   5.343   4.547   5.461
 2866SOL     OW 9496   6.361   6.178   6.916
 2866SOL    HW1 9497   6.306   6.259   6.938
 2866SOL    HW2 9498   6.300   6.104   6.886
 2867SOL     OW 9499   5.628   3.877   2.169
 2867SOL    HW1 9500   5.698   3.929   2.218
 2867SOL    HW2 9501   5.558   3.846   2.234
 2868SOL     OW 9502   0.494   2.936   5.347
 2868SOL    HW1 9503   0.444   2.896   5.270
 2868SOL    HW2 9504   0.430   2.961   5.419
 2869SOL     OW 9505   5.860   1.114   4.099
 2869SOL    HW1 9506   5.914   1.189   4.062
 2869SOL    HW2 9507   5.801   1.148   4.172
 2870SOL     OW 9508   0.529   1.472   4.515
 2870SOL    HW1 9509   0.562   1.565   4.532
 2870SOL    HW2 9510   0.431   1.467   4.535
 2871SOL     OW 9511   1.006   1.623   7.006
 2871SOL    HW1 9512   0.910   1.614   0.005
 2871SOL    HW2 9513   1.045   1.705   0.021
 2872SOL     OW 9514   2.708   1.411   3.412
 2872SOL    HW1 9515   2.785   1.465   3.376
 2872SOL    HW2 9516   2.698   1.327   3.359
 2873SOL     OW 9517   0.402   4.855   2.814
 2873SOL    HW1 9518   0.355   4.813   2.892
 2873SOL    HW2 9519   0.500   4.854   2.830
 2874SOL     OW 9520   4.090   6.327   3.525
 2874SOL    HW1 9521   4.042   6.262   3.583
 2874SOL    HW2 9522   4.106   6.286   3.435
 2875SOL     OW 9523   4.993   6.301   0.443
 2875SOL    HW1 9524   4.949   6.325   0.530
 2875SOL    HW2 9525   4.996   6.382   0.384
 2876SOL     OW 9526   0.776   0.136   2.121
 2876SOL    HW1 9527   0.767   0.232   2.147
 2876SOL    HW2 9528   0.870   0.118   2.092
 2877SOL     OW 9529   3.775   2.780   5.187
 2877SOL    HW1 9530   3.774   2.870   5.232
 2877SOL    HW2 9531   3.867   2.742   5.192
 2878SOL     OW 9532   3.777   5.213   4.392
 2878SOL    HW1 9533   3.746   5.146   4.459
 2878SOL    HW2 9534   3.827   5.167   4.318
 2879SOL     OW 9535   5.156   4.705   0.828
 2879SOL    HW1 9536   5.229   4.637   0.822
 2879SOL    HW2 9537   5.118   4.705   0.921
 2880SOL     OW 9538   5.653   6.793   0.902
 2880SOL    HW1 9539   5.577   6.853   0.879
 2880SOL    HW2 9540   5.648   6.768   0.999
 2881SOL     OW 9541   5.944   6.302   1.076
 2881SOL    HW1 9542   5.985   6.392   1.092
 2881SOL    HW2 9543   6.009   6.244   1.026
 2882SOL     OW 9544   0.558   4.222   2.469
 2882SOL    HW1 9545   0.535   4.151   2.536
 2882SOL    HW2 9546   0.479   4.281   2.453
 2883SOL     OW 9547   5.416   6.041   4.119
 2883SOL    HW1 9548   5.454   6.067   4.208
 2883SOL    HW2 9549   5.436   6.112   4.052
 2884SOL     OW 9550   0.737   5.717   2.940
 2884SOL    HW1 9551   0.684   5.767   2.872
 2884SOL    HW2 9552   0.834   5.739   2.930
 2885SOL     OW 9553   0.627   3.459   2.176
 2885SOL    HW1 9554   0.649   3.555   2.192
 2885SOL    HW2 9555   0.670   3.402   2.246
 2886SOL     OW 9556   2.320   4.102   6.380
 2886SOL    HW1 9557   2.386   4.078   6.308
 2886SOL    HW2 9558   2.278   4.018   6.415
 2887SOL     OW 9559   1.265   0.049   4.696
 2887SOL    HW1 9560   1.207   0.084   4.623
 2887SOL    HW2 9561   1.252   6.976   4.703
 2888SOL     OW 9562   0.889   4.600   6.866
 2888SOL    HW1 9563   0.932   4.690   6.873
 2888SOL    HW2 9564   0.942   4.533   6.918
 2889SOL     OW 9565   1.731   0.099   2.878
 2889SOL    HW1 9566   1.656   0.065   2.933
 2889SOL    HW2 9567   1.709   0.190   2.844
 2890SOL     OW 9568   2.920   0.454   1.223
 2890SOL    HW1 9569   2.874   0.434   1.310
 2890SOL    HW2 9570   3.005   0.503   1.240
 2891SOL     OW 9571   2.175   4.055   3.728
 2891SOL    HW1 9572   2.210   4.050   3.635
 2891SOL    HW2 9573   2.123   4.140   3.739
 2892SOL     OW 9574   5.305   3.730   0.140
 2892SOL    HW1 9575   5.372   3.745   0.067
 2892SOL    HW2 9576   5.321   3.640   0.181
 2893SOL     OW 9577   6.814   6.399   4.615
 2893SOL    HW1 9578   6.812   6.387   4.516
 2893SOL    HW2 9579   6.829   6.496   4.637
 2894SOL     OW 9580   3.003   2.842   0.082
 2894SOL    HW1 9581   2.957   2.790   0.010
 2894SOL    HW2 9582   3.025   2.781   0.158
 2895SOL     OW 9583   3.890   2.812   6.578
 2895SOL    HW1 9584   3.889   2.875   6.656
 2895SOL    HW2 9585   3.921   2.861   6.496
 2896SOL     OW 9586   3.415   5.362   6.650
 2896SOL    HW1 9587   3.375   5.418   6.578
 2896SOL    HW2 9588   3.350   5.291   6.677
 2897SOL     OW 9589   3.155   5.796   3.223
 2897SOL    HW1 9590   3.108   5.751   3.147
 2897SOL    HW2 9591   3.251   5.768   3.224
 2898SOL     OW 9592   4.545   4.943   3.958
 2898SOL    HW1 9593   4.516   4.908   4.047
 2898SOL    HW2 9594   4.497   5.028   3.938
 2899SOL     OW 9595   0.496   1.916   6.872
 2899SOL    HW1 9596   0.548   1.928   6.788
 2899SOL    HW2 9597   0.540   1.966   6.947
 2900SOL     OW 9598   2.174   4.919   5.423
 2900SOL    HW1 9599   2.150   4.848   5.490
 2900SOL    HW2 9600   2.091   4.950   5.376
 2901SOL     OW 9601   1.997   0.339   3.136
 2901SOL    HW1 9602   2.054   0.411   3.096
 2901SOL    HW2 9603   1.904   0.345   3.099
 2902SOL     OW 9604   5.356   6.174   1.845
 2902SOL    HW1 9605   5.394   6.138   1.760
 2902SOL    HW2 9606   5.292   6.108   1.884
 2903SOL     OW 9607   3.125   0.265   1.076
 2903SOL    HW1 9608   3.180   0.240   0.997
 2903SOL    HW2 9609   3.032   0.231   1.064
 2904SOL     OW 9610   1.812   3.400   5.337
 2904SOL    HW1 9611   1.761   3.483   5.316
 2904SOL    HW2 9612   1.844   3.403   5.432
 2905SOL     OW 9613   1.640   2.287   3.581
 2905SOL    HW1 9614   1.645   2.230   3.498
 2905SOL    HW2 9615   1.697   2.368   3.570
 2906SOL     OW 9616   5.229   5.407   2.759
 2906SOL    HW1 9617   5.137   5.448   2.762
 2906SOL    HW2 9618   5.298   5.480   2.758
 2907SOL     OW 9619   0.531   1.288   4.313
 2907SOL    HW1 9620   0.523   1.355   4.387
 2907SOL    HW2 9621   0.596   1.217   4.340
 2908SOL     OW 9622   4.411   6.985   4.149
 2908SOL    HW1 9623   4.371   0.042   4.190
 2908SOL    HW2 9624   4.474   7.011   4.076
 2909SOL     OW 9625   0.640   6.209   3.859
 2909SOL    HW1 9626   0.654   6.123   3.810
 2909SOL    HW2 9627   0.548   6.211   3.898
 2910SOL     OW 9628   4.786   6.103   4.329
 2910SOL    HW1 9629   4.703   6.055   4.299
 2910SOL    HW2 9630   4.857   6.035   4.351
 2911SOL     OW 9631   1.602   5.586   3.773
 2911SOL    HW1 9632   1.555   5.672   3.791
 2911SOL    HW2 9633   1.537   5.510   3.775
 2912SOL     OW 9634   3.948   6.815   6.393
 2912SOL    HW1 9635   3.940   6.715   6.394
 2912SOL    HW2 9636   3.915   6.851   6.306
 2913SOL     OW 9637   2.481   5.096   2.293
 2913SOL    HW1 9638   2.494   5.096   2.194
 2913SOL    HW2 9639   2.423   5.173   2.319
 2914SOL     OW 9640   6.546   6.285   5.886
 2914SOL    HW1 9641   6.549   6.384   5.879
 2914SOL    HW2 9642   6.589   6.244   5.806
 2915SOL     OW 9643   5.240   1.590   5.155
 2915SOL    HW1 9644   5.161   1.608   5.213
 2915SOL    HW2 9645   5.303   1.528   5.202
 2916SOL     OW 9646   6.554   5.498   6.014
 2916SOL    HW1 9647   6.580   5.466   6.105
 2916SOL    HW2 9648   6.468   5.547   6.019
 2917SOL     OW 9649   4.347   6.992   1.737
 2917SOL    HW1 9650   4.279   0.004   1.675
 2917SOL    HW2 9651   4.408   0.039   1.769
 2918SOL     OW 9652   0.104   4.054   3.441
 2918SOL    HW1 9653   0.096   4.151   3.418
 2918SOL    HW2 9654   0.022   4.006   3.412
 2919SOL     OW 9655   6.633   0.889   0.636
 2919SOL    HW1 9656   6.553   0.931   0.592
 2919SOL    HW2 9657   6.631   0.790   0.621
 2920SOL     OW 9658   3.126   1.815   2.328
 2920SOL    HW1 9659   3.038   1.862   2.326
 2920SOL    HW2 9660   3.191   1.862   2.269
 2921SOL     OW 9661   0.836   0.192   3.023
 2921SOL    HW1 9662   0.791   0.206   3.111
 2921SOL    HW2 9663   0.869   0.097   3.017
 2922SOL     OW 9664   5.726   6.925   6.924
 2922SOL    HW1 9665   5.821   6.937   6.954
 2922SOL    HW2 9666   5.667   6.913   7.004
 2923SOL     OW 9667   6.945   4.664   1.936
 2923SOL    HW1 9668   7.000   4.633   1.858
 2923SOL    HW2 9669   6.848   4.655   1.913
 2924SOL     OW 9670   0.243   2.132   6.668
 2924SOL    HW1 9671   0.160   2.181   6.643
 2924SOL    HW2 9672   0.221   2.056   6.728
 2925SOL     OW 9673   5.316   0.808   3.498
 2925SOL    HW1 9674   5.363   0.896   3.509
 2925SOL    HW2 9675   5.360   0.756   3.426
 2926SOL     OW 9676   0.283   1.231   4.471
 2926SOL    HW1 9677   0.371   1.204   4.511
 2926SOL    HW2 9678   0.256   1.163   4.402
 2927SOL     OW 9679   1.637   1.721   2.164
 2927SOL    HW1 9680   1.733   1.720   2.136
 2927SOL    HW2 9681   1.601   1.815   2.158
 2928SOL     OW 9682   6.595   2.326   5.884
 2928SOL    HW1 9683   6.660   2.308   5.958
 2928SOL    HW2 9684   6.571   2.240   5.839
 2929SOL     OW 9685   0.889   1.017   6.237
 2929SOL    HW1 9686   0.925   1.030   6.330
 2929SOL    HW2 9687   0.964   0.993   6.176
 2930SOL     OW 9688   4.792   6.257   5.067
 2930SOL    HW1 9689   4.706   6.209   5.082
 2930SOL    HW2 9690   4.859   6.194   5.029
 2931SOL     OW 9691   5.786   5.867   0.256
 2931SOL    HW1 9692   5.697   5.827   0.278
 2931SOL    HW2 9693   5.846   5.797   0.217
 2932SOL     OW 9694   1.530   5.432   1.912
 2932SOL    HW1 9695   1.567   5.497   1.978
 2932SOL    HW2 9696   1.554   5.339   1.939
 2933SOL     OW 9697   6.134   3.271   3.255
 2933SOL    HW1 9698   6.167   3.177   3.266
 2933SOL    HW2 9699   6.212   3.334   3.260
 2934SOL     OW 9700   4.026   1.491   0.281
 2934SOL    HW1 9701   3.979   1.441   0.354
 2934SOL    HW2 9702   3.959   1.526   0.216
 2935SOL     OW 9703   6.597   3.386   1.578
 2935SOL    HW1 9704   6.535   3.465   1.572
 2935SOL    HW2 9705   6.549   3.304   1.547
 2936SOL     OW 9706   4.691   5.275   2.159
 2936SOL    HW1 9707   4.688   5.181   2.192
 2936SOL    HW2 9708   4.753   5.329   2.217
 2937SOL     OW 9709   4.336   5.086   0.320
 2937SOL    HW1 9710   4.237   5.097   0.314
 2937SOL    HW2 9711   4.361   5.061   0.414
 2938SOL     OW 9712   5.479   4.827   5.539
 2938SOL    HW1 9713   5.446   4.909   5.492
 2938SOL    HW2 9714   5.510   4.851   5.631
 2939SOL     OW 9715   0.676   0.084   4.845
 2939SOL    HW1 9716   0.751   0.022   4.823
 2939SOL    HW2 9717   0.600   0.031   4.885
 2940SOL     OW 9718   5.675   6.924   6.334
 2940SOL    HW1 9719   5.730   7.003   6.306
 2940SOL    HW2 9720   5.735   6.851   6.365
 2941SOL     OW 9721   2.165   1.983   4.632
 2941SOL    HW1 9722   2.204   2.075   4.641
 2941SOL    HW2 9723   2.232   1.922   4.590
 2942SOL     OW 9724   2.580   1.738   1.353
 2942SOL    HW1 9725   2.514   1.812   1.366
 2942SOL    HW2 9726   2.542   1.669   1.292
 2943SOL     OW 9727   5.944   3.676   2.755
 2943SOL    HW1 9728   6.013   3.683   2.827
 2943SOL    HW2 9729   5.866   3.735   2.777
 2944SOL     OW 9730   2.489   6.030   5.214
 2944SOL    HW1 9731   2.563   5.963   5.210
 2944SOL    HW2 9732   2.461   6.054   5.122
 2945SOL     OW 9733   3.846   3.949   3.929
 2945SOL    HW1 9734   3.830   3.879   3.998
 2945SOL    HW2 9735   3.900   3.910   3.854
 2946SOL     OW 9736   0.377   5.439   6.586
 2946SOL    HW1 9737   0.394   5.531   6.550
 2946SOL    HW2 9738   0.365   5.444   6.685
 2947SOL     OW 9739   0.827   4.196   6.919
 2947SOL    HW1 9740   0.899   4.150   6.868
 2947SOL    HW2 9741   0.758   4.130   6.948
 2948SOL     OW 9742   0.212   4.595   5.394
 2948SOL    HW1 9743   0.280   4.649   5.345
 2948SOL    HW2 9744   0.236   4.591   5.491
 2949SOL     OW 9745   1.893   6.357   1.358
 2949SOL    HW1 9746   1.944   6.441   1.374
 2949SOL    HW2 9747   1.887   6.340   1.259
 2950SOL     OW 9748   4.915   3.717   4.506
 2950SOL    HW1 9749   4.887   3.813   4.499
 2950SOL    HW2 9750   4.912   3.688   4.602
 2951SOL     OW 9751   0.022   2.538   1.104
 2951SOL    HW1 9752   0.068   2.452   1.123
 2951SOL    HW2 9753   6.956   2.537   1.145
 2952SOL     OW 9754   0.782   6.111   4.963
 2952SOL    HW1 9755   0.687   6.143   4.960
 2952SOL    HW2 9756   0.838   6.168   4.903
 2953SOL     OW 9757   4.810   2.941   2.850
 2953SOL    HW1 9758   4.906   2.916   2.863
 2953SOL    HW2 9759   4.759   2.923   2.934
 2954SOL     OW 9760   0.820   5.305   2.010
 2954SOL    HW1 9761   0.914   5.322   2.039
 2954SOL    HW2 9762   0.791   5.215   2.043
 2955SOL     OW 9763   1.171   3.790   0.884
 2955SOL    HW1 9764   1.121   3.861   0.833
 2955SOL    HW2 9765   1.118   3.705   0.883
 2956SOL     OW 9766   6.406   6.045   3.033
 2956SOL    HW1 9767   6.500   6.011   3.029
 2956SOL    HW2 9768   6.360   6.007   3.113
 2957SOL     OW 9769   6.911   3.350   1.610
 2957SOL    HW1 9770   6.920   3.252   1.596
 2957SOL    HW2 9771   6.860   3.390   1.533
 2958SOL     OW 9772   2.630   4.660   4.809
 2958SOL    HW1 9773   2.697   4.619   4.870
 2958SOL    HW2 9774   2.554   4.696   4.862
 2959SOL     OW 9775   4.369   4.320   0.622
 2959SOL    HW1 9776   4.318   4.396   0.663
 2959SOL    HW2 9777   4.450   4.300   0.678
 2960SOL     OW 9778   3.477   0.157   6.791
 2960SOL    HW1 9779   3.517   0.249   6.795
 2960SOL    HW2 9780   3.535   0.093   6.841
 2961SOL     OW 9781   5.494   2.885   4.759
 2961SOL    HW1 9782   5.398   2.881   4.787
 2961SOL    HW2 9783   5.523   2.794   4.730
 2962SOL     OW 9784   4.229   1.255   4.097
 2962SOL    HW1 9785   4.322   1.252   4.063
 2962SOL    HW2 9786   4.221   1.326   4.167
 2963SOL     OW 9787   2.187   1.273   5.800
 2963SOL    HW1 9788   2.150   1.192   5.845
 2963SOL    HW2 9789   2.192   1.257   5.701
 2964SOL     OW 9790   0.338   0.120   2.053
 2964SOL    HW1 9791   0.363   0.035   2.101
 2964SOL    HW2 9792   0.412   0.186   2.063
 2965SOL     OW 9793   6.924   1.000   4.459
 2965SOL    HW1 9794   6.965   1.092   4.462
 2965SOL    HW2 9795   6.903   0.971   4.552
 2966SOL     OW 9796   5.945   4.869   4.450
 2966SOL    HW1 9797   5.852   4.836   4.440
 2966SOL    HW2 9798   5.985   4.888   4.360
 2967SOL     OW 9799   6.139   2.045   4.272
 2967SOL    HW1 9800   6.105   1.958   4.308
 2967SOL    HW2 9801   6.118   2.119   4.336
 2968SOL     OW 9802   1.245   4.011   6.067
 2968SOL    HW1 9803   1.318   4.038   6.131
 2968SOL    HW2 9804   1.232   3.912   6.071
 2969SOL     OW 9805   5.629   1.120   4.595
 2969SOL    HW1 9806   5.691   1.135   4.518
 2969SOL    HW2 9807   5.608   1.022   4.603
 2970SOL     OW 9808   1.238   3.802   6.467
 2970SOL    HW1 9809   1.196   3.739   6.533
 2970SOL    HW2 9810   1.310   3.754   6.417
 2971SOL     OW 9811   5.233   2.971   5.841
 2971SOL    HW1 9812   5.192   2.953   5.752
 2971SOL    HW2 9813   5.218   2.892   5.902
 2972SOL     OW 9814   6.533   5.079   6.399
 2972SOL    HW1 9815   6.573   5.100   6.310
 2972SOL    HW2 9816   6.521   4.980   6.407
 2973SOL     OW 9817   5.369   1.160   4.381
 2973SOL    HW1 9818   5.355   1.151   4.480
 2973SOL    HW2 9819   5.462   1.131   4.358
 2974SOL     OW 9820   0.745   3.895   2.939
 2974SOL    HW1 9821   0.650   3.864   2.945
 2974SOL    HW2 9822   0.804   3.817   2.920
 2975SOL     OW 9823   0.781   2.548   4.847
 2975SOL    HW1 9824   0.723   2.504   4.916
 2975SOL    HW2 9825   0.743   2.532   4.756
 2976SOL     OW 9826   4.000   1.377   3.049
 2976SOL    HW1 9827   4.059   1.298   3.035
 2976SOL    HW2 9828   4.040   1.457   3.004
 2977SOL     OW 9829   1.760   6.642   4.672
 2977SOL    HW1 9830   1.707   6.716   4.630
 2977SOL    HW2 9831   1.744   6.557   4.621
 2978SOL     OW 9832   4.349   5.174   6.551
 2978SOL    HW1 9833   4.258   5.204   6.522
 2978SOL    HW2 9834   4.340   5.097   6.615
 2979SOL     OW 9835   5.064   6.703   4.323
 2979SOL    HW1 9836   5.050   6.797   4.355
 2979SOL    HW2 9837   5.107   6.704   4.233
 2980SOL     OW 9838   1.083   5.838   3.843
 2980SOL    HW1 9839   1.153   5.786   3.893
 2980SOL    HW2 9840   1.117   5.929   3.822
 2981SOL     OW 9841   1.086   1.124   5.582
 2981SOL    HW1 9842   1.091   1.034   5.625
 2981SOL    HW2 9843   1.001   1.170   5.609
 2982SOL     OW 9844   5.052   6.235   3.209
 2982SOL    HW1 9845   4.989   6.219   3.132
 2982SOL    HW2 9846   5.000   6.240   3.294
 2983SOL     OW 9847   0.994   1.546   4.113
 2983SOL    HW1 9848   0.934   1.622   4.088
 2983SOL    HW2 9849   0.970   1.466   4.058
 2984SOL     OW 9850   4.792   5.697   1.816
 2984SOL    HW1 9851   4.769   5.614   1.764
 2984SOL    HW2 9852   4.815   5.671   1.910
 2985SOL     OW 9853   1.034   2.646   4.809
 2985SOL    HW1 9854   0.962   2.591   4.851
 2985SOL    HW2 9855   1.039   2.735   4.855
 2986SOL     OW 9856   2.185   3.633   6.414
 2986SOL    HW1 9857   2.154   3.586   6.497
 2986SOL    HW2 9858   2.276   3.600   6.390
 2987SOL     OW 9859   5.044   0.634   3.912
 2987SOL    HW1 9860   5.027   0.540   3.882
 2987SOL    HW2 9861   5.103   0.680   3.845
 2988SOL     OW 9862   0.624   6.731   2.784
 2988SOL    HW1 9863   0.599   6.735   2.687
 2988SOL    HW2 9864   0.703   6.669   2.795
 2989SOL     OW 9865   6.505   6.093   0.455
 2989SOL    HW1 9866   6.528   6.175   0.507
 2989SOL    HW2 9867   6.492   6.016   0.517
 2990SOL     OW 9868   4.337   1.330   3.692
 2990SOL    HW1 9869   4.417   1.275   3.714
 2990SOL    HW2 9870   4.328   1.337   3.593
 2991SOL     OW 9871   6.647   3.933   7.015
 2991SOL    HW1 9872   6.560   3.897   6.980
 2991SOL    HW2 9873   6.673   3.882   0.071
 2992SOL     OW 9874   2.201   4.982   6.114
 2992SOL    HW1 9875   2.245   4.892   6.118
 2992SOL    HW2 9876   2.265   5.048   6.074
 2993SOL     OW 9877   1.083   5.101   1.944
 2993SOL    HW1 9878   1.056   5.184   1.897
 2993SOL    HW2 9879   1.002   5.053   1.977
 2994SOL     OW 9880   3.994   0.186   0.866
 2994SOL    HW1 9881   3.969   0.283   0.864
 2994SOL    HW2 9882   4.087   0.174   0.832
 2995SOL     OW 9883   1.551   3.527   6.804
 2995SOL    HW1 9884   1.551   3.451   6.870
 2995SOL    HW2 9885   1.491   3.600   6.836
 2996SOL     OW 9886   2.465   6.186   3.725
 2996SOL    HW1 9887   2.403   6.227   3.793
 2996SOL    HW2 9888   2.470   6.088   3.740
 2997SOL     OW 9889   5.122   0.121   1.974
 2997SOL    HW1 9890   5.187   0.051   1.947
 2997SOL    HW2 9891   5.053   0.081   2.035
 2998SOL     OW 9892   5.798   6.364   5.102
 2998SOL    HW1 9893   5.765   6.450   5.142
 2998SOL    HW2 9894   5.735   6.290   5.123
 2999SOL     OW 9895   3.189   5.172   3.610
 2999SOL    HW1 9896   3.142   5.226   3.679
 2999SOL    HW2 9897   3.139   5.175   3.524
 3000SOL     OW 9898   2.015   3.673   6.849
 3000SOL    HW1 9899   2.048   3.618   6.926
 3000SOL    HW2 9900   1.924   3.709   6.870
 3001SOL     OW 9901   5.626   6.456   6.738
 3001SOL    HW1 9902   5.638   6.430   6.642
 3001SOL    HW2 9903   5.676   6.540   6.756
 3002SOL     OW 9904   4.536   0.253   6.041
 3002SOL    HW1 9905   4.516   0.173   6.097
 3002SOL    HW2 9906   4.542   0.334   6.099
 3003SOL     OW 9907   2.607   0.100   6.273
 3003SOL    HW1 9908   2.654   0.070   6.190
 3003SOL    HW2 9909   2.604   0.024   6.338
 3004SOL     OW 9910   0.923   5.173   3.920
 3004SOL    HW1 9911   0.892   5.078   3.928
 3004SOL    HW2 9912   0.866   5.231   3.977
 3005SOL     OW 9913   3.103   2.573   6.839
 3005SOL    HW1 9914   3.117   2.587   6.741
 3005SOL    HW2 9915   3.192   2.573   6.886
 3006SOL     OW 9916   6.085   2.019   6.765
 3006SOL    HW1 9917   6.155   2.031   6.835
 3006SOL    HW2 9918   6.126   2.033   6.675
 3007SOL     OW 9919   6.232   4.923   2.074
 3007SOL    HW1 9920   6.172   4.846   2.098
 3007SOL    HW2 9921   6.309   4.926   2.138
 3008SOL     OW 9922   3.331   0.458   6.482
 3008SOL    HW1 9923   3.292   0.383   6.535
 3008SOL    HW2 9924   3.268   0.482   6.408
 3009SOL     OW 9925   0.194   6.359   2.960
 3009SOL    HW1 9926   0.094   6.351   2.960
 3009SOL    HW2 9927   0.220   6.441   3.012
 3010SOL     OW 9928   3.643   6.514   3.493
 3010SOL    HW1 9929   3.657   6.564   3.578
 3010SOL    HW2 9930   3.680   6.567   3.417
 3011SOL     OW 9931   5.720   1.709   0.209
 3011SOL    HW1 9932   5.670   1.700   0.295
 3011SOL    HW2 9933   5.656   1.728   0.135
 3012SOL     OW 9934   1.352   3.365   5.182
 3012SOL    HW1 9935   1.279   3.297   5.176
 3012SOL    HW2 9936   1.358   3.399   5.276
 3013SOL     OW 9937   5.463   5.447   4.790
 3013SOL    HW1 9938   5.552   5.403   4.772
 3013SOL    HW2 9939   5.405   5.437   4.709
 3014SOL     OW 9940   4.954   3.212   4.269
 3014SOL    HW1 9941   4.939   3.305   4.304
 3014SOL    HW2 9942   5.047   3.182   4.291
 3015SOL     OW 9943   3.202   2.468   0.192
 3015SOL    HW1 9944   3.175   2.372   0.187
 3015SOL    HW2 9945   3.235   2.498   0.102
 3016SOL     OW 9946   2.944   5.744   3.834
 3016SOL    HW1 9947   2.987   5.723   3.921
 3016SOL    HW2 9948   2.859   5.795   3.850
 3017SOL     OW 9949   0.795   5.046   2.128
 3017SOL    HW1 9950   0.792   5.088   2.218
 3017SOL    HW2 9951   0.841   4.958   2.134
 3018SOL     OW 9952   2.309   0.081   4.843
 3018SOL    HW1 9953   2.287   0.176   4.861
 3018SOL    HW2 9954   2.226   0.031   4.818
 3019SOL     OW 9955   2.021   6.970   0.831
 3019SOL    HW1 9956   2.054   0.037   0.845
 3019SOL    HW2 9957   2.038   6.941   0.737
 3020SOL     OW 9958   3.433   4.128   1.318
 3020SOL    HW1 9959   3.518   4.170   1.350
 3020SOL    HW2 9960   3.395   4.071   1.390
 3021SOL     OW 9961   3.485   0.868   0.039
 3021SOL    HW1 9962   3.459   0.947   0.094
 3021SOL    HW2 9963   3.491   0.894   6.969
 3022SOL     OW 9964   3.999   5.546   3.791
 3022SOL    HW1 9965   3.900   5.535   3.803
 3022SOL    HW2 9966   4.035   5.605   3.863
 3023SOL     OW 9967   4.467   6.876   2.626
 3023SOL    HW1 9968   4.566   6.875   2.636
 3023SOL    HW2 9969   4.429   6.957   2.672
 3024SOL     OW 9970   4.181   6.926   5.791
 3024SOL    HW1 9971   4.153   7.008   5.741
 3024SOL    HW2 9972   4.262   6.886   5.749
 3025SOL     OW 9973   3.717   1.985   0.041
 3025SOL    HW1 9974   3.725   2.071   0.091
 3025SOL    HW2 9975   3.794   1.925   0.064
 3026SOL     OW 9976   2.129   2.118   0.496
 3026SOL    HW1 9977   2.204   2.155   0.442
 3026SOL    HW2 9978   2.042   2.140   0.451
 3027SOL     OW 9979   4.439   0.679   1.964
 3027SOL    HW1 9980   4.423   0.707   2.059
 3027SOL    HW2 9981   4.371   0.611   1.938
 3028SOL     OW 9982   1.834   3.882   5.783
 3028SOL    HW1 9983   1.874   3.848   5.867
 3028SOL    HW2 9984   1.737   3.901   5.797
 3029SOL     OW 9985   0.224   5.203   5.266
 3029SOL    HW1 9986   0.195   5.121   5.315
 3029SOL    HW2 9987   0.153   5.273   5.271
 3030SOL     OW 9988   0.906   2.450   6.275
 3030SOL    HW1 9989   0.959   2.519   6.323
 3030SOL    HW2 9990   0.967   2.395   6.217
 3031SOL     OW 9991   0.225   3.603   0.776
 3031SOL    HW1 9992   0.129   3.610   0.805
 3031SOL    HW2 9993   0.230   3.599   0.677
 3032SOL     OW 9994   4.574   6.736   1.032
 3032SOL    HW1 9995   4.514   6.800   0.983
 3032SOL    HW2 9996   4.607   6.780   1.116
 3033SOL     OW 9997   0.681   2.730   1.392
 3033SOL    HW1 9998   0.766   2.782   1.386
 3033SOL    HW2 9999   0.702   2.632   1.394
 3034SOL     OW10000   1.837   5.472   3.426
 3034SOL    HW110001   1.840   5.434   3.334
 3034SOL    HW210002   1.747   5.512   3.443
 3035SOL     OW10003   6.819   3.081   0.349
 3035SOL    HW110004   6.738   3.032   0.319
 3035SOL    HW210005   6.876   3.021   0.405
 3036SOL     OW10006   1.392   3.177   6.388
 3036SOL    HW110007   1.324   3.104   6.397
 3036SOL    HW210008   1.482   3.142   6.413
 3037SOL     OW10009   6.644   5.560   4.045
 3037SOL    HW110010   6.642   5.460   4.046
 3037SOL    HW210011   6.613   5.592   3.955
 3038SOL     OW10012   5.741   6.352   6.451
 3038SOL    HW110013   5.679   6.406   6.393
 3038SOL    HW210014   5.827   6.401   6.462
 3039SOL     OW10015   6.601   3.827   2.047
 3039SOL    HW110016   6.624   3.785   1.959
 3039SOL    HW210017   6.501   3.836   2.055
 3040SOL     OW10018   4.763   3.407   6.165
 3040SOL    HW110019   4.676   3.363   6.189
 3040SOL    HW210020   4.806   3.442   6.248
 3041SOL     OW10021   2.178   2.937   5.320
 3041SOL    HW110022   2.186   3.033   5.346
 3041SOL    HW210023   2.268   2.899   5.302
 3042SOL     OW10024   5.687   6.793   1.768
 3042SOL    HW110025   5.655   6.712   1.817
 3042SOL    HW210026   5.755   6.767   1.700
 3043SOL     OW10027   0.835   5.303   1.345
 3043SOL    HW110028   0.763   5.289   1.413
 3043SOL    HW210029   0.820   5.242   1.267
 3044SOL     OW10030   2.981   4.658   6.154
 3044SOL    HW110031   2.883   4.661   6.171
 3044SOL    HW210032   3.018   4.751   6.152
 3045SOL     OW10033   4.896   0.656   3.193
 3045SOL    HW110034   4.945   0.686   3.275
 3045SOL    HW210035   4.798   0.655   3.211
 3046SOL     OW10036   2.649   2.060   6.688
 3046SOL    HW110037   2.568   2.008   6.712
 3046SOL    HW210038   2.642   2.152   6.727
 3047SOL     OW10039   5.655   6.615   2.264
 3047SOL    HW110040   5.619   6.708   2.276
 3047SOL    HW210041   5.709   6.610   2.181
 3048SOL     OW10042   3.974   2.958   1.811
 3048SOL    HW110043   3.878   2.966   1.783
 3048SOL    HW210044   3.985   2.994   1.903
 3049SOL     OW10045   1.278   6.342   1.843
 3049SOL    HW110046   1.227   6.354   1.758
 3049SOL    HW210047   1.354   6.278   1.828
 3050SOL     OW10048   3.497   1.328   3.130
 3050SOL    HW110049   3.505   1.410   3.073
 3050SOL    HW210050   3.405   1.291   3.123
 3051SOL     OW10051   2.290   3.991   0.084
 3051SOL    HW110052   2.343   4.016   0.165
 3051SOL    HW210053   2.344   4.009   0.002
 3052SOL     OW10054   4.255   0.714   2.541
 3052SOL    HW110055   4.183   0.769   2.499
 3052SOL    HW210056   4.238   0.706   2.639
 3053SOL     OW10057   7.011   0.997   6.587
 3053SOL    HW110058   0.032   0.954   6.664
 3053SOL    HW210059   0.050   1.010   6.511
 3054SOL     OW10060   0.509   2.466   1.207
 3054SOL    HW110061   0.444   2.397   1.238
 3054SOL    HW210062   0.466   2.556   1.212
 3055SOL     OW10063   4.939   6.867   3.875
 3055SOL    HW110064   4.920   6.792   3.811
 3055SOL    HW210065   4.998   6.835   3.948
 3056SOL     OW10066   6.818   1.169   6.036
 3056SOL    HW110067   6.835   1.195   6.131
 3056SOL    HW210068   6.786   1.249   5.985
 3057SOL     OW10069   4.179   5.903   3.454
 3057SOL    HW110070   4.194   5.850   3.538
 3057SOL    HW210071   4.120   5.852   3.392
 3058SOL     OW10072   0.023   5.543   0.989
 3058SOL    HW110073   0.009   5.512   1.084
 3058SOL    HW210074   0.096   5.611   0.986
 3059SOL     OW10075   2.277   2.226   4.689
 3059SOL    HW110076   2.265   2.260   4.783
 3059SOL    HW210077   2.366   2.181   4.682
 3060SOL     OW10078   0.637   6.106   0.638
 3060SOL    HW110079   0.639   6.184   0.575
 3060SOL    HW210080   0.546   6.099   0.679
 3061SOL     OW10081   6.151   0.966   5.169
 3061SOL    HW110082   6.183   0.874   5.194
 3061SOL    HW210083   6.196   0.995   5.085
 3062SOL     OW10084   1.194   6.727   6.866
 3062SOL    HW110085   1.250   6.657   6.822
 3062SOL    HW210086   1.252   6.787   6.921
 3063SOL     OW10087   2.735   5.551   1.370
 3063SOL    HW110088   2.802   5.573   1.441
 3063SOL    HW210089   2.665   5.621   1.368
 3064SOL     OW10090   5.183   3.449   3.943
 3064SOL    HW110091   5.211   3.385   4.015
 3064SOL    HW210092   5.086   3.471   3.953
 3065SOL     OW10093   2.147   1.219   6.739
 3065SOL    HW110094   2.074   1.233   6.806
 3065SOL    HW210095   2.228   1.184   6.786
 3066SOL     OW10096   4.678   5.009   0.744
 3066SOL    HW110097   4.652   4.973   0.655
 3066SOL    HW210098   4.740   4.946   0.790
 3067SOL     OW10099   4.020   2.238   4.620
 3067SOL    HW110100   4.032   2.227   4.719
 3067SOL    HW210101   4.089   2.302   4.585
 3068SOL     OW10102   5.481   5.643   0.935
 3068SOL    HW110103   5.509   5.698   1.014
 3068SOL    HW210104   5.396   5.595   0.957
 3069SOL     OW10105   6.780   6.200   2.042
 3069SOL    HW110106   6.828   6.130   2.095
 3069SOL    HW210107   6.846   6.258   1.995
 3070SOL     OW10108   1.643   0.942   2.307
 3070SOL    HW110109   1.644   1.036   2.273
 3070SOL    HW210110   1.607   0.941   2.400
 3071SOL     OW10111   6.117   5.985   3.387
 3071SOL    HW110112   6.078   6.040   3.313
 3071SOL    HW210113   6.095   6.026   3.475
 3072SOL     OW10114   0.899   6.060   0.698
 3072SOL    HW110115   0.809   6.082   0.660
 3072SOL    HW210116   0.968   6.069   0.627
 3073SOL     OW10117   1.172   3.185   5.195
 3073SOL    HW110118   1.102   3.128   5.151
 3073SOL    HW210119   1.220   3.132   5.265
 3074SOL     OW10120   5.926   2.446   1.142
 3074SOL    HW110121   6.005   2.392   1.114
 3074SOL    HW210122   5.952   2.505   1.219
 3075SOL     OW10123   2.040   6.609   1.381
 3075SOL    HW110124   2.103   6.588   1.306
 3075SOL    HW210125   2.092   6.633   1.462
 3076SOL     OW10126   6.819   1.450   4.560
 3076SOL    HW110127   6.742   1.476   4.501
 3076SOL    HW210128   6.898   1.507   4.538
 3077SOL     OW10129   5.151   5.396   2.436
 3077SOL    HW110130   5.231   5.434   2.483
 3077SOL    HW210131   5.178   5.365   2.345
 3078SOL     OW10132   1.500   3.295   1.204
 3078SOL    HW110133   1.408   3.265   1.177
 3078SOL    HW210134   1.567   3.226   1.177
 3079SOL     OW10135   2.532   2.101   3.880
 3079SOL    HW110136   2.539   2.160   3.961
 3079SOL    HW210137   2.483   2.017   3.905
 3080SOL     OW10138   5.359   4.445   3.119
 3080SOL    HW110139   5.431   4.489   3.173
 3080SOL    HW210140   5.380   4.455   3.022
 3081SOL     OW10141   0.337   3.102   6.080
 3081SOL    HW110142   0.263   3.040   6.105
 3081SOL    HW210143   0.302   3.174   6.020
 3082SOL     OW10144   3.464   6.660   3.718
 3082SOL    HW110145   3.536   6.721   3.685
 3082SOL    HW210146   3.410   6.626   3.641
 3083SOL     OW10147   4.350   6.150   3.582
 3083SOL    HW110148   4.306   6.156   3.672
 3083SOL    HW210149   4.280   6.141   3.511
 3084SOL     OW10150   4.840   4.116   4.893
 3084SOL    HW110151   4.925   4.165   4.912
 3084SOL    HW210152   4.794   4.157   4.815
 3085SOL     OW10153   0.735   4.651   1.988
 3085SOL    HW110154   0.715   4.630   2.084
 3085SOL    HW210155   0.770   4.744   1.980
 3086SOL     OW10156   3.976   1.484   2.299
 3086SOL    HW110157   4.003   1.537   2.380
 3086SOL    HW210158   3.937   1.545   2.231
 3087SOL     OW10159   1.041   5.067   4.179
 3087SOL    HW110160   1.073   4.973   4.183
 3087SOL    HW210161   0.954   5.075   4.229
 3088SOL     OW10162   2.029   5.229   5.986
 3088SOL    HW110163   1.988   5.209   5.897
 3088SOL    HW210164   2.066   5.145   6.026
 3089SOL     OW10165   0.916   3.203   0.616
 3089SOL    HW110166   0.975   3.212   0.536
 3089SOL    HW210167   0.883   3.109   0.622
 3090SOL     OW10168   2.021   2.427   1.811
 3090SOL    HW110169   2.102   2.369   1.807
 3090SOL    HW210170   1.983   2.423   1.903
 3091SOL     OW10171   2.275   6.696   0.247
 3091SOL    HW110172   2.293   6.691   0.148
 3091SOL    HW210173   2.327   6.771   0.286
 3092SOL     OW10174   5.099   0.016   0.190
 3092SOL    HW110175   5.033   0.009   0.115
 3092SOL    HW210176   5.072   0.091   0.250
 3093SOL     OW10177   5.386   5.643   5.736
 3093SOL    HW110178   5.435   5.608   5.816
 3093SOL    HW210179   5.395   5.578   5.661
 3094SOL     OW10180   3.327   6.320   4.067
 3094SOL    HW110181   3.252   6.256   4.050
 3094SOL    HW210182   3.363   6.353   3.980
 3095SOL     OW10183   2.724   5.401   4.593
 3095SOL    HW110184   2.790   5.412   4.668
 3095SOL    HW210185   2.757   5.331   4.530
 3096SOL     OW10186   0.742   0.555   4.735
 3096SOL    HW110187   0.779   0.496   4.664
 3096SOL    HW210188   0.752   0.650   4.708
 3097SOL     OW10189   0.529   2.423   0.926
 3097SOL    HW110190   0.624   2.395   0.915
 3097SOL    HW210191   0.515   2.458   1.018
 3098SOL     OW10192   2.536   4.012   1.107
 3098SOL    HW110193   2.528   4.102   1.150
 3098SOL    HW210194   2.547   3.942   1.178
 3099SOL     OW10195   0.088   5.615   4.784
 3099SOL    HW110196   0.077   5.669   4.868
 3099SOL    HW210197   0.002   5.568   4.763
 3100SOL     OW10198   6.287   0.083   4.752
 3100SOL    HW110199   6.252   0.170   4.719
 3100SOL    HW210200   6.226   0.047   4.822
 3101SOL     OW10201   5.286   6.200   5.935
 3101SOL    HW110202   5.307   6.197   5.837
 3101SOL    HW210203   5.221   6.128   5.957
 3102SOL     OW10204   0.453   5.238   3.195
 3102SOL    HW110205   0.530   5.283   3.241
 3102SOL    HW210206   0.457   5.256   3.097
 3103SOL     OW10207   3.334   1.270   1.841
 3103SOL    HW110208   3.426   1.299   1.866
 3103SOL    HW210209   3.301   1.323   1.763
 3104SOL     OW10210   5.843   6.868   5.184
 3104SOL    HW110211   5.936   6.889   5.155
 3104SOL    HW210212   5.789   6.953   5.186
 3105SOL     OW10213   6.331   4.327   2.176
 3105SOL    HW110214   6.295   4.417   2.201
 3105SOL    HW210215   6.315   4.309   2.079
 3106SOL     OW10216   6.318   0.785   3.068
 3106SOL    HW110217   6.259   0.798   3.148
 3106SOL    HW210218   6.349   0.874   3.035
 3107SOL     OW10219   4.208   0.850   3.777
 3107SOL    HW110220   4.195   0.887   3.685
 3107SOL    HW210221   4.142   0.777   3.793
 3108SOL     OW10222   1.354   0.363   4.484
 3108SOL    HW110223   1.444   0.347   4.525
 3108SOL    HW210224   1.363   0.432   4.412
 3109SOL     OW10225   5.454   5.552   2.717
 3109SOL    HW110226   5.499   5.628   2.764
 3109SOL    HW210227   5.519   5.477   2.705
 3110SOL     OW10228   0.879   1.640   3.383
 3110SOL    HW110229   0.832   1.698   3.317
 3110SOL    HW210230   0.971   1.676   3.399
 3111SOL     OW10231   6.709   5.515   3.758
 3111SOL    HW110232   6.768   5.564   3.822
 3111SOL    HW210233   6.714   5.560   3.668
 3112SOL     OW10234   5.037   2.453   6.236
 3112SOL    HW110235   5.134   2.465   6.216
 3112SOL    HW210236   4.984   2.463   6.152
 3113SOL     OW10237   1.914   6.528   4.852
 3113SOL    HW110238   1.861   6.575   4.782
 3113SOL    HW210239   1.868   6.537   4.940
 3114SOL     OW10240   4.303   3.009   6.829
 3114SOL    HW110241   4.275   2.914   6.841
 3114SOL    HW210242   4.329   3.047   6.918
 3115SOL     OW10243   4.483   3.166   6.682
 3115SOL    HW110244   4.571   3.164   6.730
 3115SOL    HW210245   4.420   3.102   6.727
 3116SOL     OW10246   6.707   3.797   0.257
 3116SOL    HW110247   6.764   3.717   0.276
 3116SOL    HW210248   6.625   3.794   0.314
 3117SOL     OW10249   4.508   3.744   5.331
 3117SOL    HW110250   4.430   3.685   5.349
 3117SOL    HW210251   4.577   3.693   5.280
 3118SOL     OW10252   0.397   4.635   0.214
 3118SOL    HW110253   0.441   4.699   0.277
 3118SOL    HW210254   0.349   4.685   0.143
 3119SOL     OW10255   1.402   3.393   5.648
 3119SOL    HW110256   1.376   3.297   5.638
 3119SOL    HW210257   1.364   3.446   5.572
 3120SOL     OW10258   2.341   6.709   4.022
 3120SOL    HW110259   2.335   6.788   4.083
 3120SOL    HW210260   2.253   6.697   3.975
 3121SOL     OW10261   0.694   1.800   2.706
 3121SOL    HW110262   0.714   1.702   2.708
 3121SOL    HW210263   0.750   1.844   2.635
 3122SOL     OW10264   2.894   6.290   6.024
 3122SOL    HW110265   2.956   6.213   6.035
 3122SOL    HW210266   2.892   6.343   6.109
 3123SOL     OW10267   3.290   0.335   4.061
 3123SOL    HW110268   3.308   0.412   4.123
 3123SOL    HW210269   3.347   0.258   4.087
 3124SOL     OW10270   4.400   0.101   4.469
 3124SOL    HW110271   4.380   0.104   4.371
 3124SOL    HW210272   4.499   0.100   4.483
 3125SOL     OW10273   6.120   1.948   5.611
 3125SOL    HW110274   6.178   1.868   5.596
 3125SOL    HW210275   6.024   1.919   5.619
 3126SOL     OW10276   5.132   4.803   6.264
 3126SOL    HW110277   5.055   4.823   6.324
 3126SOL    HW210278   5.136   4.869   6.190
 3127SOL     OW10279   1.365   2.341   2.966
 3127SOL    HW110280   1.412   2.417   3.010
 3127SOL    HW210281   1.371   2.351   2.867
 3128SOL     OW10282   2.271   0.010   6.480
 3128SOL    HW110283   2.305   0.082   6.540
 3128SOL    HW210284   2.280   0.040   6.385
 3129SOL     OW10285   1.501   4.086   6.222
 3129SOL    HW110286   1.545   3.997   6.237
 3129SOL    HW210287   1.483   4.129   6.311
 3130SOL     OW10288   1.662   4.716   1.783
 3130SOL    HW110289   1.690   4.753   1.694
 3130SOL    HW210290   1.624   4.624   1.769
 3131SOL     OW10291   0.637   2.432   1.867
 3131SOL    HW110292   0.555   2.477   1.903
 3131SOL    HW210293   0.643   2.448   1.768
 3132SOL     OW10294   5.303   5.256   5.589
 3132SOL    HW110295   5.402   5.248   5.602
 3132SOL    HW210296   5.270   5.177   5.538
 3133SOL     OW10297   3.376   2.144   3.544
 3133SOL    HW110298   3.449   2.140   3.612
 3133SOL    HW210299   3.405   2.096   3.461
 3134SOL     OW10300   4.760   4.648   1.328
 3134SOL    HW110301   4.726   4.739   1.351
 3134SOL    HW210302   4.811   4.610   1.406
 3135SOL     OW10303   4.723   1.256   5.424
 3135SOL    HW110304   4.739   1.158   5.432
 3135SOL    HW210305   4.665   1.274   5.345
 3136SOL     OW10306   5.686   0.746   6.764
 3136SOL    HW110307   5.720   0.840   6.764
 3136SOL    HW210308   5.722   0.697   6.684
 3137SOL     OW10309   5.892   0.104   3.787
 3137SOL    HW110310   5.944   0.054   3.856
 3137SOL    HW210311   5.819   0.045   3.752
 3138SOL     OW10312   6.699   2.306   3.910
 3138SOL    HW110313   6.696   2.227   3.848
 3138SOL    HW210314   6.662   2.279   3.999
 3139SOL     OW10315   4.280   6.908   0.035
 3139SOL    HW110316   4.238   6.912   6.971
 3139SOL    HW210317   4.266   6.996   0.082
 3140SOL     OW10318   6.077   6.964   6.611
 3140SOL    HW110319   6.043   6.970   6.705
 3140SOL    HW210320   6.067   0.027   6.566
 3141SOL     OW10321   0.910   6.582   5.917
 3141SOL    HW110322   0.886   6.517   5.988
 3141SOL    HW210323   0.933   6.670   5.959
 3142SOL     OW10324   4.856   6.292   1.649
 3142SOL    HW110325   4.887   6.370   1.703
 3142SOL    HW210326   4.868   6.311   1.552
 3143SOL     OW10327   0.292   2.718   6.625
 3143SOL    HW110328   0.288   2.725   6.725
 3143SOL    HW210329   0.383   2.687   6.597
 3144SOL     OW10330   2.740   4.065   1.552
 3144SOL    HW110331   2.802   4.075   1.474
 3144SOL    HW210332   2.693   4.151   1.569
 3145SOL     OW10333   1.969   4.754   2.562
 3145SOL    HW110334   1.967   4.662   2.524
 3145SOL    HW210335   1.935   4.753   2.656
 3146SOL     OW10336   1.154   6.650   3.372
 3146SOL    HW110337   1.187   6.737   3.334
 3146SOL    HW210338   1.065   6.665   3.416
 3147SOL     OW10339   4.354   5.405   0.104
 3147SOL    HW110340   4.450   5.383   0.093
 3147SOL    HW210341   4.298   5.324   0.085
 3148SOL     OW10342   5.227   5.447   4.646
 3148SOL    HW110343   5.133   5.476   4.663
 3148SOL    HW210344   5.235   5.411   4.553
 3149SOL     OW10345   3.672   0.348   5.280
 3149SOL    HW110346   3.645   0.289   5.204
 3149SOL    HW210347   3.608   0.336   5.356
 3150SOL     OW10348   6.300   5.517   4.100
 3150SOL    HW110349   6.352   5.599   4.076
 3150SOL    HW210350   6.215   5.543   4.146
 3151SOL     OW10351   4.212   0.796   7.026
 3151SOL    HW110352   4.213   0.886   0.043
 3151SOL    HW210353   4.123   0.781   6.983
 3152SOL     OW10354   1.368   5.115   1.959
 3152SOL    HW110355   1.269   5.116   1.966
 3152SOL    HW210356   1.396   5.055   1.885
 3153SOL     OW10357   6.763   3.878   1.643
 3153SOL    HW110358   6.733   3.898   1.549
 3153SOL    HW210359   6.691   3.829   1.691
 3154SOL     OW10360   5.912   1.839   0.386
 3154SOL    HW110361   5.856   1.801   0.312
 3154SOL    HW210362   5.855   1.899   0.443
 3155SOL     OW10363   7.016   5.550   1.504
 3155SOL    HW110364   6.933   5.605   1.492
 3155SOL    HW210365   6.991   5.463   1.547
 3156SOL     OW10366   3.993   3.335   3.492
 3156SOL    HW110367   3.899   3.346   3.525
 3156SOL    HW210368   4.056   3.355   3.567
 3157SOL     OW10369   2.023   3.199   4.975
 3157SOL    HW110370   2.064   3.118   5.017
 3157SOL    HW210371   1.927   3.205   5.000
 3158SOL     OW10372   4.963   6.999   1.132
 3158SOL    HW110373   4.998   6.906   1.138
 3158SOL    HW210374   5.033   0.037   1.164
 3159SOL     OW10375   5.656   0.465   0.243
 3159SOL    HW110376   5.711   0.549   0.241
 3159SOL    HW210377   5.638   0.434   0.150
 3160SOL     OW10378   6.643   5.550   5.766
 3160SOL    HW110379   6.561   5.576   5.715
 3160SOL    HW210380   6.618   5.525   5.859
 3161SOL     OW10381   0.919   1.445   2.526
 3161SOL    HW110382   0.873   1.449   2.615
 3161SOL    HW210383   1.006   1.397   2.536
 3162SOL     OW10384   0.616   5.414   0.162
 3162SOL    HW110385   0.710   5.382   0.167
 3162SOL    HW210386   0.597   5.475   0.239
 3163SOL     OW10387   3.303   2.334   6.549
 3163SOL    HW110388   3.362   2.339   6.469
 3163SOL    HW210389   3.218   2.385   6.532
 3164SOL     OW10390   4.706   4.163   1.474
 3164SOL    HW110391   4.657   4.242   1.437
 3164SOL    HW210392   4.804   4.177   1.465
 3165SOL     OW10393   0.714   6.708   1.876
 3165SOL    HW110394   0.690   6.804   1.891
 3165SOL    HW210395   0.811   6.695   1.898
 3166SOL     OW10396   4.913   2.370   6.470
 3166SOL    HW110397   4.961   2.412   6.393
 3166SOL    HW210398   4.926   2.271   6.466
 3167SOL     OW10399   0.238   4.893   1.828
 3167SOL    HW110400   0.265   4.846   1.912
 3167SOL    HW210401   0.183   4.831   1.771
 3168SOL     OW10402   5.098   2.837   0.369
 3168SOL    HW110403   5.083   2.930   0.403
 3168SOL    HW210404   5.196   2.822   0.357
 3169SOL     OW10405   0.663   2.810   5.981
 3169SOL    HW110406   0.662   2.779   5.885
 3169SOL    HW210407   0.646   2.908   5.985
 3170SOL     OW10408   4.096   0.423   0.181
 3170SOL    HW110409   4.100   0.361   0.259
 3170SOL    HW210410   4.006   0.466   0.177
 3171SOL     OW10411   6.861   6.702   1.111
 3171SOL    HW110412   6.809   6.617   1.111
 3171SOL    HW210413   6.956   6.684   1.136
 3172SOL     OW10414   0.832   5.949   5.382
 3172SOL    HW110415   0.885   6.032   5.397
 3172SOL    HW210416   0.794   5.917   5.469
 3173SOL     OW10417   3.099   1.907   1.320
 3173SOL    HW110418   3.097   1.917   1.221
 3173SOL    HW210419   3.011   1.871   1.352
 3174SOL     OW10420   2.397   2.945   6.662
 3174SOL    HW110421   2.473   2.959   6.726
 3174SOL    HW210422   2.321   3.005   6.687
 3175SOL     OW10423   6.964   6.161   0.107
 3175SOL    HW110424   6.890   6.111   0.151
 3175SOL    HW210425   6.926   6.230   0.046
 3176SOL     OW10426   2.121   5.504   4.945
 3176SOL    HW110427   2.157   5.412   4.929
 3176SOL    HW210428   2.170   5.570   4.888
 3177SOL     OW10429   5.428   5.499   5.534
 3177SOL    HW110430   5.345   5.447   5.517
 3177SOL    HW210431   5.499   5.472   5.468
 3178SOL     OW10432   6.874   3.190   1.274
 3178SOL    HW110433   6.871   3.142   1.186
 3178SOL    HW210434   6.968   3.218   1.293
 3179SOL     OW10435   2.039   2.782   1.687
 3179SOL    HW110436   1.986   2.778   1.603
 3179SOL    HW210437   2.132   2.811   1.666
 3180SOL     OW10438   3.923   0.755   6.409
 3180SOL    HW110439   3.834   0.710   6.423
 3180SOL    HW210440   3.957   0.733   6.318
 3181SOL     OW10441   0.305   0.045   3.033
 3181SOL    HW110442   0.385   7.011   3.023
 3181SOL    HW210443   0.331   0.139   3.008
 3182SOL     OW10444   1.086   0.884   5.723
 3182SOL    HW110445   1.008   0.822   5.715
 3182SOL    HW210446   1.168   0.840   5.688
 3183SOL     OW10447   4.954   4.173   1.697
 3183SOL    HW110448   5.004   4.127   1.623
 3183SOL    HW210449   4.971   4.271   1.694
 3184SOL     OW10450   2.922   2.211   2.359
 3184SOL    HW110451   2.864   2.135   2.389
 3184SOL    HW210452   2.889   2.244   2.271
 3185SOL     OW10453   6.127   0.440   6.514
 3185SOL    HW110454   6.087   0.512   6.572
 3185SOL    HW210455   6.221   0.423   6.543
 3186SOL     OW10456   3.229   1.288   3.155
 3186SOL    HW110457   3.239   1.196   3.193
 3186SOL    HW210458   3.137   1.298   3.116
 3187SOL     OW10459   4.065   4.614   6.945
 3187SOL    HW110460   4.007   4.535   6.922
 3187SOL    HW210461   4.009   4.697   6.945
 3188SOL     OW10462   3.570   5.912   3.363
 3188SOL    HW110463   3.578   5.974   3.441
 3188SOL    HW210464   3.649   5.923   3.303
 3189SOL     OW10465   2.396   1.341   3.144
 3189SOL    HW110466   2.329   1.390   3.088
 3189SOL    HW210467   2.422   1.397   3.223
 3190SOL     OW10468   0.844   6.619   1.577
 3190SOL    HW110469   0.888   6.529   1.580
 3190SOL    HW210470   0.906   6.685   1.535
 3191SOL     OW10471   3.480   6.866   1.157
 3191SOL    HW110472   3.417   6.819   1.096
 3191SOL    HW210473   3.437   6.877   1.247
 3192SOL     OW10474   0.732   1.874   1.089
 3192SOL    HW110475   0.816   1.863   1.142
 3192SOL    HW210476   0.657   1.825   1.134
 3193SOL     OW10477   4.185   2.572   6.275
 3193SOL    HW110478   4.191   2.494   6.213
 3193SOL    HW210479   4.247   2.557   6.352
 3194SOL     OW10480   1.449   2.548   6.700
 3194SOL    HW110481   1.530   2.568   6.756
 3194SOL    HW210482   1.419   2.454   6.717
 3195SOL     OW10483   2.112   2.619   3.008
 3195SOL    HW110484   2.058   2.701   3.027
 3195SOL    HW210485   2.065   2.565   2.938
 3196SOL     OW10486   6.649   0.672   5.083
 3196SOL    HW110487   6.653   0.583   5.128
 3196SOL    HW210488   6.710   0.737   5.129
 3197SOL     OW10489   1.324   5.753   3.249
 3197SOL    HW110490   1.351   5.849   3.249
 3197SOL    HW210491   1.386   5.700   3.191
 3198SOL     OW10492   6.594   2.377   6.900
 3198SOL    HW110493   6.523   2.447   6.914
 3198SOL    HW210494   6.565   2.315   6.828
 3199SOL     OW10495   4.569   2.507   2.107
 3199SOL    HW110496   4.580   2.602   2.137
 3199SOL    HW210497   4.659   2.466   2.091
 3200SOL     OW10498   0.319   2.325   1.341
 3200SOL    HW110499   0.373   2.250   1.380
 3200SOL    HW210500   0.236   2.287   1.299
 3201SOL     OW10501   5.062   3.812   3.914
 3201SOL    HW110502   5.082   3.851   4.004
 3201SOL    HW210503   5.130   3.844   3.848
 3202SOL     OW10504   1.791   4.513   2.191
 3202SOL    HW110505   1.695   4.504   2.162
 3202SOL    HW210506   1.850   4.505   2.111
 3203SOL     OW10507   5.490   1.099   0.746
 3203SOL    HW110508   5.422   1.030   0.770
 3203SOL    HW210509   5.552   1.062   0.677
 3204SOL     OW10510   5.806   6.083   1.824
 3204SOL    HW110511   5.899   6.119   1.825
 3204SOL    HW210512   5.744   6.149   1.782
 3205SOL     OW10513   0.374   4.182   0.073
 3205SOL    HW110514   0.299   4.116   0.074
 3205SOL    HW210515   0.458   4.136   0.047
 3206SOL     OW10516   6.853   0.334   6.149
 3206SOL    HW110517   6.930   0.397   6.147
 3206SOL    HW210518   6.847   0.292   6.240
 3207SOL     OW10519   0.282   1.572   6.078
 3207SOL    HW110520   0.346   1.535   6.145
 3207SOL    HW210521   0.245   1.497   6.023
 3208SOL     OW10522   4.568   6.093   5.137
 3208SOL    HW110523   4.503   6.124   5.205
 3208SOL    HW210524   4.527   6.097   5.046
 3209SOL     OW10525   2.739   6.565   3.605
 3209SOL    HW110526   2.784   6.621   3.535
 3209SOL    HW210527   2.712   6.477   3.566
 3210SOL     OW10528   0.329   3.443   2.252
 3210SOL    HW110529   0.277   3.406   2.175
 3210SOL    HW210530   0.423   3.411   2.247
 3211SOL     OW10531   2.243   4.924   0.012
 3211SOL    HW110532   2.278   4.919   0.106
 3211SOL    HW210533   2.305   4.875   6.977
 3212SOL     OW10534   4.619   1.823   6.905
 3212SOL    HW110535   4.556   1.744   6.904
 3212SOL    HW210536   4.600   1.878   6.986
 3213SOL     OW10537   6.085   4.980   2.691
 3213SOL    HW110538   6.129   4.899   2.653
 3213SOL    HW210539   5.990   4.959   2.714
 3214SOL     OW10540   4.515   6.258   0.199
 3214SOL    HW110541   4.506   6.335   0.135
 3214SOL    HW210542   4.528   6.293   0.292
 3215SOL     OW10543   6.134   2.880   0.994
 3215SOL    HW110544   6.227   2.912   1.013
 3215SOL    HW210545   6.077   2.958   0.966
 3216SOL     OW10546   5.614   5.347   2.603
 3216SOL    HW110547   5.527   5.299   2.601
 3216SOL    HW210548   5.675   5.306   2.671
 3217SOL     OW10549   1.278   4.278   3.330
 3217SOL    HW110550   1.349   4.267   3.261
 3217SOL    HW210551   1.188   4.275   3.286
 3218SOL     OW10552   4.427   6.606   3.403
 3218SOL    HW110553   4.423   6.514   3.442
 3218SOL    HW210554   4.451   6.671   3.475
 3219SOL     OW10555   6.951   0.297   3.346
 3219SOL    HW110556   7.001   0.302   3.432
 3219SOL    HW210557   7.016   0.299   3.270
 3220SOL     OW10558   6.646   4.778   5.778
 3220SOL    HW110559   6.588   4.859   5.780
 3220SOL    HW210560   6.644   4.734   5.868
 3221SOL     OW10561   2.767   6.283   2.407
 3221SOL    HW110562   2.755   6.198   2.458
 3221SOL    HW210563   2.742   6.268   2.311
 3222SOL     OW10564   5.076   1.966   3.513
 3222SOL    HW110565   5.068   2.065   3.502
 3222SOL    HW210566   5.168   1.936   3.490
 3223SOL     OW10567   2.690   5.311   6.699
 3223SOL    HW110568   2.611   5.300   6.758
 3223SOL    HW210569   2.753   5.234   6.712
 3224SOL     OW10570   4.884   5.142   6.064
 3224SOL    HW110571   4.883   5.206   5.987
 3224SOL    HW210572   4.834   5.059   6.039
 3225SOL     OW10573   4.459   2.524   6.156
 3225SOL    HW110574   4.414   2.445   6.114
 3225SOL    HW210575   4.395   2.600   6.161
 3226SOL     OW10576   2.112   1.249   4.133
 3226SOL    HW110577   2.057   1.288   4.207
 3226SOL    HW210578   2.057   1.243   4.050
 3227SOL     OW10579   2.902   2.095   6.616
 3227SOL    HW110580   2.804   2.072   6.618
 3227SOL    HW210581   2.914   2.187   6.653
 3228SOL     OW10582   5.460   3.291   4.494
 3228SOL    HW110583   5.554   3.302   4.464
 3228SOL    HW210584   5.400   3.347   4.437
 3229SOL     OW10585   3.168   1.712   5.471
 3229SOL    HW110586   3.130   1.648   5.405
 3229SOL    HW210587   3.210   1.790   5.423
 3230SOL     OW10588   0.344   1.857   3.081
 3230SOL    HW110589   0.401   1.889   3.005
 3230SOL    HW210590   0.377   1.768   3.112
 3231SOL     OW10591   4.587   5.926   1.858
 3231SOL    HW110592   4.591   5.996   1.787
 3231SOL    HW210593   4.651   5.852   1.836
 3232SOL     OW10594   4.257   4.835   4.617
 3232SOL    HW110595   4.173   4.870   4.576
 3232SOL    HW210596   4.321   4.910   4.632
 3233SOL     OW10597   0.758   4.249   0.798
 3233SOL    HW110598   0.757   4.164   0.851
 3233SOL    HW210599   0.841   4.301   0.819
 3234SOL     OW10600   6.961   2.693   0.441
 3234SOL    HW110601   6.940   2.766   0.507
 3234SOL    HW210602   6.996   2.613   0.490
 3235SOL     OW10603   5.981   5.912   2.607
 3235SOL    HW110604   6.047   5.836   2.609
 3235SOL    HW210605   6.030   5.999   2.618
 3236SOL     OW10606   1.585   3.418   1.845
 3236SOL    HW110607   1.546   3.480   1.778
 3236SOL    HW210608   1.577   3.458   1.937
 3237SOL     OW10609   4.970   0.101   3.964
 3237SOL    HW110610   5.028   0.083   4.042
 3237SOL    HW210611   4.930   0.015   3.931
 3238SOL     OW10612   0.495   5.897   6.679
 3238SOL    HW110613   0.514   5.799   6.679
 3238SOL    HW210614   0.437   5.921   6.757
 3239SOL     OW10615   5.817   1.458   0.549
 3239SOL    HW110616   5.893   1.460   0.484
 3239SOL    HW210617   5.736   1.421   0.505
 3240SOL     OW10618   0.404   6.989   4.829
 3240SOL    HW110619   0.385   6.994   4.731
 3240SOL    HW210620   0.320   7.006   4.880
 3241SOL     OW10621   4.783   1.464   4.389
 3241SOL    HW110622   4.737   1.386   4.432
 3241SOL    HW210623   4.875   1.437   4.361
 3242SOL     OW10624   3.396   5.121   0.661
 3242SOL    HW110625   3.483   5.149   0.620
 3242SOL    HW210626   3.375   5.182   0.738
 3243SOL     OW10627   5.306   5.201   0.205
 3243SOL    HW110628   5.264   5.190   0.296
 3243SOL    HW210629   5.403   5.180   0.210
 3244SOL     OW10630   5.373   5.838   5.918
 3244SOL    HW110631   5.402   5.765   5.979
 3244SOL    HW210632   5.356   5.801   5.826
 3245SOL     OW10633   3.884   2.916   6.319
 3245SOL    HW110634   3.979   2.886   6.326
 3245SOL    HW210635   3.841   2.873   6.240
 3246SOL     OW10636   5.231   0.536   3.016
 3246SOL    HW110637   5.267   0.628   3.005
 3246SOL    HW210638   5.263   0.498   3.103
 3247SOL     OW10639   0.108   4.536   2.699
 3247SOL    HW110640   0.011   4.538   2.724
 3247SOL    HW210641   0.119   4.560   2.603
 3248SOL     OW10642   5.714   3.671   2.003
 3248SOL    HW110643   5.656   3.751   2.022
 3248SOL    HW210644   5.785   3.697   1.938
 3249SOL     OW10645   3.851   4.912   5.237
 3249SOL    HW110646   3.822   4.816   5.241
 3249SOL    HW210647   3.941   4.922   5.280
 3250SOL     OW10648   5.649   6.920   3.058
 3250SOL    HW110649   5.612   6.875   2.976
 3250SOL    HW210650   5.740   6.883   3.078
 3251SOL     OW10651   3.501   1.602   2.952
 3251SOL    HW110652   3.487   1.624   2.855
 3251SOL    HW210653   3.578   1.655   2.988
 3252SOL     OW10654   3.452   0.848   2.751
 3252SOL    HW110655   3.394   0.917   2.796
 3252SOL    HW210656   3.541   0.844   2.797
 3253SOL     OW10657   4.731   2.440   1.784
 3253SOL    HW110658   4.808   2.455   1.721
 3253SOL    HW210659   4.684   2.526   1.800
 3254SOL     OW10660   3.639   4.913   4.076
 3254SOL    HW110661   3.559   4.874   4.122
 3254SOL    HW210662   3.631   4.900   3.978
 3255SOL     OW10663   4.490   5.198   0.610
 3255SOL    HW110664   4.571   5.162   0.657
 3255SOL    HW210665   4.518   5.272   0.548
 3256SOL     OW10666   5.488   6.743   6.410
 3256SOL    HW110667   5.553   6.808   6.370
 3256SOL    HW210668   5.511   6.650   6.379
 3257SOL     OW10669   1.363   2.315   0.850
 3257SOL    HW110670   1.427   2.342   0.778
 3257SOL    HW210671   1.275   2.289   0.808
 3258SOL     OW10672   4.945   6.794   1.533
 3258SOL    HW110673   4.958   6.808   1.631
 3258SOL    HW210674   4.970   6.700   1.509
 3259SOL     OW10675   4.356   5.755   4.137
 3259SOL    HW110676   4.416   5.739   4.216
 3259SOL    HW210677   4.282   5.816   4.164
 3260SOL     OW10678   2.044   1.744   0.442
 3260SOL    HW110679   1.972   1.680   0.468
 3260SOL    HW210680   2.053   1.815   0.511
 3261SOL     OW10681   3.979   6.265   0.600
 3261SOL    HW110682   4.056   6.201   0.591
 3261SOL    HW210683   3.902   6.233   0.546
 3262SOL     OW10684   3.821   1.463   3.269
 3262SOL    HW110685   3.873   1.531   3.321
 3262SOL    HW210686   3.875   1.435   3.190
 3263SOL     OW10687   4.906   6.921   2.996
 3263SOL    HW110688   4.837   6.849   3.001
 3263SOL    HW210689   4.862   7.007   2.971
 3264SOL     OW10690   0.203   5.000   7.019
 3264SOL    HW110691   0.127   5.046   0.039
 3264SOL    HW210692   0.239   5.061   6.947
 3265SOL     OW10693   3.869   2.294   6.537
 3265SOL    HW110694   3.883   2.385   6.499
 3265SOL    HW210695   3.877   2.298   6.637
 3266SOL     OW10696   0.212   2.293   0.218
 3266SOL    HW110697   0.199   2.390   0.241
 3266SOL    HW210698   0.159   2.271   0.136
 3267SOL     OW10699   3.271   2.684   1.338
 3267SOL    HW110700   3.345   2.632   1.381
 3267SOL    HW210701   3.260   2.772   1.384
 3268SOL     OW10702   1.082   3.999   0.154
 3268SOL    HW110703   1.129   3.946   0.225
 3268SOL    HW210704   1.015   3.941   0.109
 3269SOL     OW10705   5.114   4.794   1.947
 3269SOL    HW110706   5.082   4.737   1.871
 3269SOL    HW210707   5.077   4.887   1.936
 3270SOL     OW10708   0.515   5.348   3.743
 3270SOL    HW110709   0.603   5.376   3.704
 3270SOL    HW210710   0.458   5.307   3.672
 3271SOL     OW10711   5.509   2.087   2.815
 3271SOL    HW110712   5.457   2.041   2.743
 3271SOL    HW210713   5.584   2.139   2.773
 3272SOL     OW10714   3.383   6.713   0.211
 3272SOL    HW110715   3.442   6.652   0.158
 3272SOL    HW210716   3.310   6.660   0.253
 3273SOL     OW10717   0.906   6.380   1.939
 3273SOL    HW110718   0.953   6.297   1.909
 3273SOL    HW210719   0.917   6.451   1.870
 3274SOL     OW10720   3.463   1.886   6.777
 3274SOL    HW110721   3.406   1.964   6.802
 3274SOL    HW210722   3.493   1.839   6.860
 3275SOL     OW10723   1.914   0.326   0.088
 3275SOL    HW110724   2.011   0.349   0.078
 3275SOL    HW210725   1.872   0.387   0.155
 3276SOL     OW10726   3.595   5.431   6.830
 3276SOL    HW110727   3.690   5.400   6.818
 3276SOL    HW210728   3.544   5.414   6.746
 3277SOL     OW10729   6.340   6.994   6.464
 3277SOL    HW110730   6.252   7.015   6.507
 3277SOL    HW210731   6.413   0.015   6.512
 3278SOL     OW10732   0.012   1.592   5.341
 3278SOL    HW110733   6.970   1.520   5.357
 3278SOL    HW210734   0.097   1.551   5.308
 3279SOL     OW10735   6.900   6.916   0.885
 3279SOL    HW110736   6.824   6.974   0.855
 3279SOL    HW210737   6.865   6.842   0.943
 3280SOL     OW10738   2.390   5.128   6.588
 3280SOL    HW110739   2.461   5.058   6.592
 3280SOL    HW210740   2.372   5.152   6.492
 3281SOL     OW10741   1.779   5.813   1.046
 3281SOL    HW110742   1.764   5.911   1.042
 3281SOL    HW210743   1.824   5.782   0.962
 3282SOL     OW10744   3.411   6.323   4.336
 3282SOL    HW110745   3.376   6.230   4.346
 3282SOL    HW210746   3.385   6.360   4.247
 3283SOL     OW10747   2.887   1.563   3.264
 3283SOL    HW110748   2.954   1.589   3.333
 3283SOL    HW210749   2.895   1.623   3.185
 3284SOL     OW10750   0.025   6.662   0.258
 3284SOL    HW110751   0.070   6.597   0.196
 3284SOL    HW210752   0.055   6.755   0.236
 3285SOL     OW10753   0.331   2.775   3.478
 3285SOL    HW110754   0.336   2.720   3.562
 3285SOL    HW210755   0.412   2.834   3.473
 3286SOL     OW10756   3.989   3.682   3.603
 3286SOL    HW110757   4.012   3.651   3.511
 3286SOL    HW210758   3.986   3.782   3.605
 3287SOL     OW10759   1.287   5.515   0.064
 3287SOL    HW110760   1.361   5.540   0.127
 3287SOL    HW210761   1.282   5.583   7.017
 3288SOL     OW10762   0.359   6.337   6.750
 3288SOL    HW110763   0.400   6.409   6.806
 3288SOL    HW210764   0.275   6.305   6.794
 3289SOL     OW10765   1.315   6.485   5.311
 3289SOL    HW110766   1.398   6.468   5.364
 3289SOL    HW210767   1.338   6.484   5.213
 3290SOL     OW10768   0.884   5.931   2.101
 3290SOL    HW110769   0.826   5.862   2.145
 3290SOL    HW210770   0.851   5.948   2.008
 3291SOL     OW10771   1.713   6.498   6.320
 3291SOL    HW110772   1.699   6.427   6.251
 3291SOL    HW210773   1.630   6.509   6.374
 3292SOL     OW10774   0.535   1.109   6.985
 3292SOL    HW110775   0.581   1.024   7.011
 3292SOL    HW210776   0.448   1.117   0.007
 3293SOL     OW10777   6.818   1.531   3.494
 3293SOL    HW110778   6.885   1.457   3.503
 3293SOL    HW210779   6.847   1.593   3.421
 3294SOL     OW10780   6.612   0.598   6.794
 3294SOL    HW110781   6.526   0.640   6.763
 3294SOL    HW210782   6.616   0.504   6.763
 3295SOL     OW10783   2.664   2.106   0.636
 3295SOL    HW110784   2.711   2.019   0.648
 3295SOL    HW210785   2.566   2.093   0.646
 3296SOL     OW10786   2.370   6.905   2.069
 3296SOL    HW110787   2.366   6.813   2.032
 3296SOL    HW210788   2.465   6.928   2.091
 3297SOL     OW10789   3.093   2.102   5.266
 3297SOL    HW110790   3.120   2.166   5.195
 3297SOL    HW210791   3.040   2.151   5.336
 3298SOL     OW10792   6.254   3.128   2.920
 3298SOL    HW110793   6.218   3.188   2.992
 3298SOL    HW210794   6.319   3.178   2.863
 3299SOL     OW10795   1.507   0.371   3.812
 3299SOL    HW110796   1.599   0.381   3.851
 3299SOL    HW210797   1.489   0.445   3.748
 3300SOL     OW10798   6.467   0.544   5.912
 3300SOL    HW110799   6.376   0.513   5.885
 3300SOL    HW210800   6.536   0.494   5.858
 3301SOL     OW10801   1.210   4.011   3.799
 3301SOL    HW110802   1.283   4.010   3.867
 3301SOL    HW210803   1.223   4.089   3.737
 3302SOL     OW10804   1.390   4.786   4.498
 3302SOL    HW110805   1.406   4.769   4.401
 3302SOL    HW210806   1.432   4.874   4.524
 3303SOL     OW10807   3.453   2.950   2.782
 3303SOL    HW110808   3.510   2.906   2.852
 3303SOL    HW210809   3.385   3.008   2.827
 3304SOL     OW10810   0.917   4.939   3.649
 3304SOL    HW110811   0.873   4.972   3.732
 3304SOL    HW210812   0.919   5.012   3.581
 3305SOL     OW10813   1.916   1.229   1.886
 3305SOL    HW110814   1.861   1.181   1.817
 3305SOL    HW210815   1.885   1.203   1.977
 3306SOL     OW10816   2.229   3.914   3.222
 3306SOL    HW110817   2.149   3.950   3.271
 3306SOL    HW210818   2.233   3.955   3.131
 3307SOL     OW10819   0.123   5.855   0.282
 3307SOL    HW110820   0.141   5.762   0.249
 3307SOL    HW210821   0.210   5.900   0.303
 3308SOL     OW10822   4.465   6.079   0.513
 3308SOL    HW110823   4.456   6.173   0.480
 3308SOL    HW210824   4.526   6.077   0.592
 3309SOL     OW10825   0.805   5.057   2.586
 3309SOL    HW110826   0.743   5.119   2.634
 3309SOL    HW210827   0.784   4.963   2.610
 3310SOL     OW10828   0.396   3.770   2.977
 3310SOL    HW110829   0.472   3.727   3.025
 3310SOL    HW210830   0.376   3.719   2.894
 3311SOL     OW10831   2.938   5.799   0.778
 3311SOL    HW110832   2.932   5.754   0.866
 3311SOL    HW210833   2.890   5.887   0.782
 3312SOL     OW10834   3.247   4.509   6.243
 3312SOL    HW110835   3.165   4.541   6.196
 3312SOL    HW210836   3.289   4.436   6.190
 3313SOL     OW10837   1.212   5.192   3.808
 3313SOL    HW110838   1.124   5.213   3.849
 3313SOL    HW210839   1.200   5.119   3.740
 3314SOL     OW10840   1.577   3.066   4.782
 3314SOL    HW110841   1.611   3.159   4.767
 3314SOL    HW210842   1.483   3.070   4.818
 3315SOL     OW10843   6.617   3.169   3.893
 3315SOL    HW110844   6.559   3.101   3.938
 3315SOL    HW210845   6.713   3.150   3.914
 3316SOL     OW10846   4.084   2.208   6.359
 3316SOL    HW110847   4.148   2.137   6.388
 3316SOL    HW210848   4.012   2.219   6.427
 3317SOL     OW10849   4.558   2.663   1.856
 3317SOL    HW110850   4.632   2.730   1.849
 3317SOL    HW210851   4.571   2.606   1.936
 3318SOL     OW10852   2.403   6.411   6.237
 3318SOL    HW110853   2.409   6.324   6.189
 3318SOL    HW210854   2.477   6.418   6.304
 3319SOL     OW10855   0.004   6.283   4.416
 3319SOL    HW110856   0.053   6.215   4.472
 3319SOL    HW210857   0.042   6.374   4.433
 3320SOL     OW10858   5.641   1.217   5.358
 3320SOL    HW110859   5.680   1.284   5.421
 3320SOL    HW210860   5.712   1.183   5.297
 3321SOL     OW10861   3.799   3.188   2.234
 3321SOL    HW110862   3.809   3.263   2.169
 3321SOL    HW210863   3.706   3.187   2.270
 3322SOL     OW10864   4.835   1.982   1.227
 3322SOL    HW110865   4.833   1.885   1.251
 3322SOL    HW210866   4.749   2.025   1.253
 3323SOL     OW10867   2.139   4.339   6.484
 3323SOL    HW110868   2.144   4.278   6.563
 3323SOL    HW210869   2.069   4.408   6.499
 3324SOL     OW10870   1.384   3.986   0.450
 3324SOL    HW110871   1.318   3.918   0.418
 3324SOL    HW210872   1.355   4.077   0.420
 3325SOL     OW10873   2.345   3.497   0.353
 3325SOL    HW110874   2.333   3.559   0.275
 3325SOL    HW210875   2.328   3.403   0.325
 3326SOL     OW10876   5.860   2.212   2.101
 3326SOL    HW110877   5.895   2.145   2.036
 3326SOL    HW210878   5.935   2.267   2.138
 3327SOL     OW10879   2.417   6.682   1.934
 3327SOL    HW110880   2.368   6.602   1.899
 3327SOL    HW210881   2.505   6.692   1.887
 3328SOL     OW10882   4.336   0.906   1.841
 3328SOL    HW110883   4.263   0.936   1.903
 3328SOL    HW210884   4.346   0.807   1.847
 3329SOL     OW10885   4.302   0.867   4.732
 3329SOL    HW110886   4.213   0.910   4.742
 3329SOL    HW210887   4.364   0.901   4.803
 3330SOL     OW10888   5.931   6.887   2.135
 3330SOL    HW110889   5.894   6.955   2.199
 3330SOL    HW210890   6.026   6.909   2.114
 3331SOL     OW10891   1.786   3.520   3.080
 3331SOL    HW110892   1.707   3.580   3.090
 3331SOL    HW210893   1.851   3.562   3.016
 3332SOL     OW10894   5.366   4.891   0.287
 3332SOL    HW110895   5.441   4.957   0.298
 3332SOL    HW210896   5.398   4.800   0.313
 3333SOL     OW10897   3.179   3.943   1.082
 3333SOL    HW110898   3.160   3.845   1.073
 3333SOL    HW210899   3.277   3.956   1.095
 3334SOL     OW10900   1.508   2.870   2.295
 3334SOL    HW110901   1.546   2.941   2.235
 3334SOL    HW210902   1.462   2.801   2.239
 3335SOL     OW10903   3.562   4.513   5.820
 3335SOL    HW110904   3.594   4.598   5.862
 3335SOL    HW210905   3.545   4.445   5.891
 3336SOL     OW10906   2.503   0.107   3.928
 3336SOL    HW110907   2.530   0.136   3.837
 3336SOL    HW210908   2.583   0.074   3.978
 3337SOL     OW10909   3.854   3.323   2.548
 3337SOL    HW110910   3.805   3.243   2.516
 3337SOL    HW210911   3.953   3.309   2.537
 3338SOL     OW10912   1.180   2.215   1.686
 3338SOL    HW110913   1.114   2.198   1.759
 3338SOL    HW210914   1.133   2.207   1.597
 3339SOL     OW10915   1.753   0.030   5.569
 3339SOL    HW110916   1.777   0.128   5.566
 3339SOL    HW210917   1.756   7.025   5.664
 3340SOL     OW10918   4.586   0.808   4.281
 3340SOL    HW110919   4.553   0.902   4.275
 3340SOL    HW210920   4.678   0.803   4.242
 3341SOL     OW10921   2.270   4.615   2.502
 3341SOL    HW110922   2.173   4.635   2.486
 3341SOL    HW210923   2.303   4.552   2.433
 3342SOL     OW10924   6.240   0.335   3.399
 3342SOL    HW110925   6.243   0.296   3.492
 3342SOL    HW210926   6.147   0.362   3.377
 3343SOL     OW10927   5.110   5.387   6.472
 3343SOL    HW110928   5.174   5.409   6.398
 3343SOL    HW210929   5.126   5.449   6.549
 3344SOL     OW10930   6.533   2.758   2.270
 3344SOL    HW110931   6.489   2.705   2.342
 3344SOL    HW210932   6.567   2.696   2.199
 3345SOL     OW10933   0.675   3.757   0.565
 3345SOL    HW110934   0.765   3.801   0.573
 3345SOL    HW210935   0.673   3.701   0.483
 3346SOL     OW10936   2.561   1.008   0.274
 3346SOL    HW110937   2.480   0.959   0.307
 3346SOL    HW210938   2.565   1.001   0.174
 3347SOL     OW10939   1.025   3.149   6.286
 3347SOL    HW110940   0.985   3.078   6.228
 3347SOL    HW210941   1.104   3.112   6.335
 3348SOL     OW10942   3.758   4.150   6.455
 3348SOL    HW110943   3.802   4.240   6.458
 3348SOL    HW210944   3.659   4.161   6.465
 3349SOL     OW10945   2.064   4.334   3.749
 3349SOL    HW110946   1.994   4.367   3.685
 3349SOL    HW210947   2.126   4.410   3.772
 3350SOL     OW10948   0.715   4.221   5.668
 3350SOL    HW110949   0.732   4.187   5.575
 3350SOL    HW210950   0.642   4.289   5.665
 3351SOL     OW10951   5.395   0.692   1.349
 3351SOL    HW110952   5.413   0.784   1.314
 3351SOL    HW210953   5.310   0.657   1.310
 3352SOL     OW10954   5.629   2.894   0.749
 3352SOL    HW110955   5.582   2.978   0.773
 3352SOL    HW210956   5.718   2.890   0.795
 3353SOL     OW10957   1.624   0.233   1.691
 3353SOL    HW110958   1.681   0.315   1.695
 3353SOL    HW210959   1.673   0.157   1.733
 3354SOL     OW10960   3.963   3.557   5.848
 3354SOL    HW110961   3.897   3.562   5.773
 3354SOL    HW210962   3.916   3.533   5.933
 3355SOL     OW10963   1.994   1.267   5.011
 3355SOL    HW110964   1.906   1.220   5.004
 3355SOL    HW210965   1.989   1.338   5.081
 3356SOL     OW10966   1.269   6.894   5.851
 3356SOL    HW110967   1.221   6.853   5.774
 3356SOL    HW210968   1.333   6.828   5.889
 3357SOL     OW10969   3.094   3.479   2.136
 3357SOL    HW110970   3.133   3.422   2.063
 3357SOL    HW210971   3.052   3.419   2.205
 3358SOL     OW10972   5.469   1.342   3.502
 3358SOL    HW110973   5.432   1.382   3.586
 3358SOL    HW210974   5.461   1.243   3.505
 3359SOL     OW10975   0.491   5.320   4.235
 3359SOL    HW110976   0.400   5.302   4.197
 3359SOL    HW210977   0.484   5.381   4.313
 3360SOL     OW10978   0.732   2.462   6.032
 3360SOL    HW110979   0.787   2.512   5.965
 3360SOL    HW210980   0.784   2.454   6.117
 3361SOL     OW10981   0.971   0.112   4.525
 3361SOL    HW110982   0.913   0.176   4.474
 3361SOL    HW210983   1.066   0.124   4.497
 3362SOL     OW10984   4.013   1.849   4.261
 3362SOL    HW110985   3.957   1.813   4.186
 3362SOL    HW210986   4.108   1.821   4.247
 3363SOL     OW10987   6.920   3.060   1.504
 3363SOL    HW110988   6.938   2.962   1.500
 3363SOL    HW210989   6.875   3.090   1.420
 3364SOL     OW10990   1.579   4.287   2.783
 3364SOL    HW110991   1.492   4.253   2.745
 3364SOL    HW210992   1.568   4.381   2.814
 3365SOL     OW10993   2.188   3.165   4.739
 3365SOL    HW110994   2.192   3.149   4.838
 3365SOL    HW210995   2.194   3.263   4.720
 3366SOL     OW10996   0.050   3.502   4.307
 3366SOL    HW110997   7.007   3.437   4.276
 3366SOL    HW210998   0.018   3.595   4.290
 3367SOL     OW10999   3.747   3.579   4.406
 3367SOL    HW111000   3.725   3.676   4.408
 3367SOL    HW211001   3.845   3.567   4.389
 3368SOL     OW11002   1.568   6.409   6.704
 3368SOL    HW111003   1.478   6.448   6.725
 3368SOL    HW211004   1.596   6.348   6.778
 3369SOL     OW11005   4.418   1.588   1.325
 3369SOL    HW111006   4.421   1.654   1.249
 3369SOL    HW211007   4.367   1.627   1.401
 3370SOL     OW11008   6.424   6.169   1.503
 3370SOL    HW111009   6.481   6.087   1.505
 3370SOL    HW211010   6.474   6.244   1.460
 3371SOL     OW11011   2.151   3.546   2.301
 3371SOL    HW111012   2.181   3.466   2.249
 3371SOL    HW211013   2.189   3.629   2.260
 3372SOL     OW11014   6.781   2.620   1.469
 3372SOL    HW111015   6.790   2.523   1.492
 3372SOL    HW211016   6.742   2.669   1.547
 3373SOL     OW11017   0.404   1.259   2.103
 3373SOL    HW111018   0.447   1.321   2.169
 3373SOL    HW211019   0.396   1.168   2.143
 3374SOL     OW11020   0.385   6.794   4.055
 3374SOL    HW111021   0.465   6.758   4.102
 3374SOL    HW211022   0.413   6.850   3.977
 3375SOL     OW11023   6.969   4.629   6.791
 3375SOL    HW111024   7.001   4.550   6.739
 3375SOL    HW211025   6.974   4.711   6.735
 3376SOL     OW11026   2.120   3.445   5.639
 3376SOL    HW111027   2.148   3.536   5.669
 3376SOL    HW211028   2.169   3.421   5.555
 3377SOL     OW11029   6.552   4.884   4.673
 3377SOL    HW111030   6.485   4.856   4.604
 3377SOL    HW211031   6.631   4.822   4.669
 3378SOL     OW11032   0.704   6.582   6.906
 3378SOL    HW111033   0.651   6.649   6.959
 3378SOL    HW211034   0.652   6.554   6.825
 3379SOL     OW11035   1.118   3.295   4.428
 3379SOL    HW111036   1.174   3.368   4.389
 3379SOL    HW211037   1.062   3.333   4.502
 3380SOL     OW11038   3.866   4.611   5.663
 3380SOL    HW111039   3.836   4.518   5.642
 3380SOL    HW211040   3.789   4.663   5.702
 3381SOL     OW11041   0.702   2.805   2.000
 3381SOL    HW111042   0.616   2.783   1.953
 3381SOL    HW211043   0.779   2.789   1.937
 3382SOL     OW11044   6.828   2.364   1.259
 3382SOL    HW111045   6.756   2.301   1.230
 3382SOL    HW211046   6.833   2.364   1.359
 3383SOL     OW11047   3.409   4.968   0.350
 3383SOL    HW111048   3.354   4.938   0.272
 3383SOL    HW211049   3.418   4.893   0.416
 3384SOL     OW11050   2.706   4.917   0.600
 3384SOL    HW111051   2.793   4.946   0.561
 3384SOL    HW211052   2.715   4.909   0.700
 3385SOL     OW11053   0.183   2.268   3.536
 3385SOL    HW111054   0.257   2.335   3.528
 3385SOL    HW211055   0.096   2.316   3.552
 3386SOL     OW11056   6.810   4.473   6.987
 3386SOL    HW111057   6.866   4.413   6.929
 3386SOL    HW211058   6.713   4.451   6.975
 3387SOL     OW11059   5.458   1.044   3.230
 3387SOL    HW111060   5.455   1.045   3.330
 3387SOL    HW211061   5.376   0.998   3.195
 3388SOL     OW11062   4.937   4.320   1.428
 3388SOL    HW111063   5.031   4.287   1.420
 3388SOL    HW211064   4.898   4.331   1.336
 3389SOL     OW11065   6.247   6.271   0.173
 3389SOL    HW111066   6.210   6.294   0.083
 3389SOL    HW211067   6.341   6.305   0.180
 3390SOL     OW11068   4.035   6.597   5.585
 3390SOL    HW111069   4.088   6.630   5.663
 3390SOL    HW211070   3.951   6.650   5.576
 3391SOL     OW11071   5.764   2.704   4.146
 3391SOL    HW111072   5.698   2.702   4.221
 3391SOL    HW211073   5.732   2.768   4.076
 3392SOL     OW11074   4.167   0.074   4.637
 3392SOL    HW111075   4.160   0.171   4.660
 3392SOL    HW211076   4.256   0.056   4.595
 3393SOL     OW11077   4.958   6.986   0.518
 3393SOL    HW111078   4.859   6.976   0.519
 3393SOL    HW211079   4.983   0.035   0.457
 3394SOL     OW11080   3.324   5.168   1.030
 3394SOL    HW111081   3.374   5.232   1.089
 3394SOL    HW211082   3.251   5.217   0.982
 3395SOL     OW11083   4.217   0.695   3.076
 3395SOL    HW111084   4.201   0.794   3.084
 3395SOL    HW211085   4.133   0.646   3.094
 3396SOL     OW11086   5.742   0.939   3.905
 3396SOL    HW111087   5.750   0.846   3.939
 3396SOL    HW211088   5.779   1.003   3.973
 3397SOL     OW11089   2.517   5.774   6.032
 3397SOL    HW111090   2.431   5.771   6.084
 3397SOL    HW211091   2.594   5.774   6.096
 3398SOL     OW11092   0.650   1.543   5.509
 3398SOL    HW111093   0.670   1.483   5.431
 3398SOL    HW211094   0.732   1.596   5.530
 3399SOL     OW11095   0.088   4.777   3.235
 3399SOL    HW111096   0.079   4.855   3.297
 3399SOL    HW211097   0.094   4.693   3.287
 3400SOL     OW11098   5.635   3.248   5.948
 3400SOL    HW111099   5.594   3.186   5.882
 3400SOL    HW211100   5.634   3.206   6.039
 3401SOL     OW11101   6.594   3.829   6.154
 3401SOL    HW111102   6.644   3.824   6.241
 3401SOL    HW211103   6.619   3.751   6.097
 3402SOL     OW11104   6.706   5.081   0.949
 3402SOL    HW111105   6.776   5.114   0.884
 3402SOL    HW211106   6.636   5.151   0.960
 3403SOL     OW11107   4.565   6.502   6.126
 3403SOL    HW111108   4.483   6.494   6.182
 3403SOL    HW211109   4.546   6.560   6.047
 3404SOL     OW11110   4.950   3.254   6.041
 3404SOL    HW111111   5.022   3.303   6.090
 3404SOL    HW211112   4.861   3.293   6.064
 3405SOL     OW11113   5.521   6.351   5.971
 3405SOL    HW111114   5.597   6.288   5.987
 3405SOL    HW211115   5.435   6.300   5.966
 3406SOL     OW11116   1.767   3.554   2.377
 3406SOL    HW111117   1.765   3.644   2.333
 3406SOL    HW211118   1.768   3.567   2.477
 3407SOL     OW11119   2.405   4.369   0.711
 3407SOL    HW111120   2.495   4.400   0.741
 3407SOL    HW211121   2.341   4.373   0.788
 3408SOL     OW11122   4.428   2.468   4.105
 3408SOL    HW111123   4.342   2.418   4.091
 3408SOL    HW211124   4.504   2.413   4.072
 3409SOL     OW11125   4.018   6.533   0.110
 3409SOL    HW111126   3.928   6.576   0.114
 3409SOL    HW211127   4.035   6.484   0.196
 3410SOL     OW11128   5.987   6.543   2.887
 3410SOL    HW111129   5.954   6.634   2.861
 3410SOL    HW211130   5.941   6.513   2.970
 3411SOL     OW11131   6.865   1.800   0.996
 3411SOL    HW111132   6.845   1.816   0.899
 3411SOL    HW211133   6.876   1.702   1.013
 3412SOL     OW11134   4.988   3.335   1.625
 3412SOL    HW111135   4.896   3.323   1.662
 3412SOL    HW211136   5.056   3.315   1.696
 3413SOL     OW11137   6.444   1.459   6.482
 3413SOL    HW111138   6.532   1.426   6.448
 3413SOL    HW211139   6.453   1.490   6.576
 3414SOL     OW11140   3.947   3.004   0.152
 3414SOL    HW111141   4.026   2.989   0.093
 3414SOL    HW211142   3.882   3.065   0.106
 3415SOL     OW11143   2.505   2.245   4.103
 3415SOL    HW111144   2.451   2.317   4.145
 3415SOL    HW211145   2.597   2.280   4.082
 3416SOL     OW11146   6.036   0.229   0.138
 3416SOL    HW111147   6.108   0.167   0.167
 3416SOL    HW211148   6.035   0.310   0.198
 3417SOL     OW11149   0.490   0.301   3.558
 3417SOL    HW111150   0.567   0.348   3.514
 3417SOL    HW211151   0.417   0.366   3.575
 3418SOL     OW11152   4.064   5.650   2.883
 3418SOL    HW111153   4.060   5.713   2.960
 3418SOL    HW211154   4.150   5.665   2.833
 3419SOL     OW11155   3.867   5.754   5.603
 3419SOL    HW111156   3.849   5.850   5.623
 3419SOL    HW211157   3.878   5.742   5.504
 3420SOL     OW11158   4.753   2.890   3.886
 3420SOL    HW111159   4.680   2.830   3.918
 3420SOL    HW211160   4.807   2.921   3.964
 3421SOL     OW11161   5.492   1.685   3.621
 3421SOL    HW111162   5.497   1.641   3.531
 3421SOL    HW211163   5.458   1.778   3.611
 3422SOL     OW11164   2.368   0.054   6.977
 3422SOL    HW111165   2.369   0.153   6.963
 3422SOL    HW211166   2.457   0.016   6.952
 3423SOL     OW11167   0.775   4.647   6.167
 3423SOL    HW111168   0.862   4.642   6.116
 3423SOL    HW211169   0.761   4.741   6.198
 3424SOL     OW11170   4.177   6.593   1.374
 3424SOL    HW111171   4.218   6.594   1.282
 3424SOL    HW211172   4.200   6.677   1.422
 3425SOL     OW11173   5.015   4.412   1.875
 3425SOL    HW111174   5.020   4.425   1.974
 3425SOL    HW211175   5.077   4.477   1.830
 3426SOL     OW11176   5.044   3.409   0.705
 3426SOL    HW111177   5.135   3.414   0.665
 3426SOL    HW211178   5.037   3.330   0.765
 3427SOL     OW11179   1.620   2.505   1.198
 3427SOL    HW111180   1.659   2.480   1.287
 3427SOL    HW211181   1.596   2.422   1.148
 3428SOL     OW11182   4.726   5.119   5.530
 3428SOL    HW111183   4.820   5.126   5.561
 3428SOL    HW211184   4.666   5.166   5.595
 3429SOL     OW11185   0.336   0.824   1.156
 3429SOL    HW111186   0.326   0.919   1.126
 3429SOL    HW211187   0.429   0.793   1.135
 3430SOL     OW11188   2.122   4.878   5.749
 3430SOL    HW111189   2.084   4.970   5.735
 3430SOL    HW211190   2.061   4.825   5.808
 3431SOL     OW11191   1.998   6.630   2.433
 3431SOL    HW111192   1.938   6.561   2.473
 3431SOL    HW211193   2.081   6.638   2.487
 3432SOL     OW11194   2.221   4.860   6.636
 3432SOL    HW111195   2.306   4.876   6.688
 3432SOL    HW211196   2.157   4.809   6.693
 3433SOL     OW11197   2.657   0.727   6.473
 3433SOL    HW111198   2.667   0.809   6.417
 3433SOL    HW211199   2.742   0.676   6.474
 3434SOL     OW11200   2.903   2.131   1.823
 3434SOL    HW111201   2.920   2.207   1.886
 3434SOL    HW211202   2.990   2.090   1.795
 3435SOL     OW11203   2.343   0.888   0.392
 3435SOL    HW111204   2.308   0.872   0.484
 3435SOL    HW211205   2.269   0.926   0.335
 3436SOL     OW11206   4.364   5.518   0.360
 3436SOL    HW111207   4.368   5.478   0.268
 3436SOL    HW211208   4.278   5.492   0.403
 3437SOL     OW11209   1.338   6.526   6.156
 3437SOL    HW111210   1.350   6.486   6.246
 3437SOL    HW211211   1.389   6.472   6.088
 3438SOL     OW11212   0.694   3.563   1.548
 3438SOL    HW111213   0.681   3.465   1.566
 3438SOL    HW211214   0.712   3.610   1.633
 3439SOL     OW11215   2.142   6.098   2.734
 3439SOL    HW111216   2.180   6.010   2.761
 3439SOL    HW211217   2.162   6.115   2.638
 3440SOL     OW11218   3.642   2.860   4.975
 3440SOL    HW111219   3.673   2.821   5.061
 3440SOL    HW211220   3.717   2.910   4.931
 3441SOL     OW11221   6.475   5.768   6.242
 3441SOL    HW111222   6.427   5.714   6.174
 3441SOL    HW211223   6.569   5.785   6.212
 3442SOL     OW11224   3.061   4.113   1.524
 3442SOL    HW111225   3.002   4.194   1.531
 3442SOL    HW211226   3.076   4.076   1.616
 3443SOL     OW11227   2.952   5.981   2.650
 3443SOL    HW111228   2.946   5.883   2.667
 3443SOL    HW211229   2.920   6.031   2.731
 3444SOL     OW11230   5.244   4.574   1.305
 3444SOL    HW111231   5.211   4.494   1.255
 3444SOL    HW211232   5.342   4.586   1.290
 3445SOL     OW11233   6.535   5.002   4.079
 3445SOL    HW111234   6.538   4.904   4.062
 3445SOL    HW211235   6.452   5.024   4.131
 3446SOL     OW11236   5.594   0.242   2.039
 3446SOL    HW111237   5.596   0.143   2.036
 3446SOL    HW211238   5.508   0.273   2.082
 3447SOL     OW11239   5.362   0.529   0.153
 3447SOL    HW111240   5.380   0.493   0.244
 3447SOL    HW211241   5.434   0.499   0.091
 3448SOL     OW11242   1.847   6.762   5.636
 3448SOL    HW111243   1.920   6.700   5.606
 3448SOL    HW211244   1.775   6.765   5.567
 3449SOL     OW11245   6.060   5.386   5.141
 3449SOL    HW111246   6.069   5.456   5.070
 3449SOL    HW211247   6.135   5.321   5.134
 3450SOL     OW11248   1.166   0.215   6.497
 3450SOL    HW111249   1.130   0.267   6.574
 3450SOL    HW211250   1.256   0.180   6.519
 3451SOL     OW11251   1.715   5.833   0.667
 3451SOL    HW111252   1.784   5.821   0.596
 3451SOL    HW211253   1.719   5.928   0.700
 3452SOL     OW11254   5.543   0.957   5.428
 3452SOL    HW111255   5.583   1.049   5.423
 3452SOL    HW211256   5.491   0.939   5.344
 3453SOL     OW11257   5.643   6.585   6.058
 3453SOL    HW111258   5.646   6.658   5.990
 3453SOL    HW211259   5.594   6.506   6.021
 3454SOL     OW11260   1.559   3.039   2.978
 3454SOL    HW111261   1.479   2.993   2.940
 3454SOL    HW211262   1.531   3.127   3.017
 3455SOL     OW11263   1.694   2.750   4.564
 3455SOL    HW111264   1.789   2.768   4.590
 3455SOL    HW211265   1.687   2.751   4.464
 3456SOL     OW11266   4.491   4.512   2.002
 3456SOL    HW111267   4.547   4.576   1.949
 3456SOL    HW211268   4.512   4.419   1.975
 3457SOL     OW11269   3.900   5.159   4.829
 3457SOL    HW111270   3.814   5.202   4.854
 3457SOL    HW211271   3.926   5.092   4.898
 3458SOL     OW11272   4.618   1.729   2.467
 3458SOL    HW111273   4.689   1.746   2.399
 3458SOL    HW211274   4.539   1.686   2.422
 3459SOL     OW11275   4.149   1.234   2.846
 3459SOL    HW111276   4.151   1.137   2.822
 3459SOL    HW211277   4.215   1.284   2.789
 3460SOL     OW11278   3.579   1.570   5.772
 3460SOL    HW111279   3.516   1.592   5.698
 3460SOL    HW211280   3.528   1.539   5.852
 3461SOL     OW11281   5.376   5.229   6.615
 3461SOL    HW111282   5.403   5.221   6.519
 3461SOL    HW211283   5.348   5.140   6.650
 3462SOL     OW11284   2.104   3.482   6.632
 3462SOL    HW111285   2.071   3.534   6.711
 3462SOL    HW211286   2.043   3.405   6.615
 3463SOL     OW11287   6.963   3.957   0.801
 3463SOL    HW111288   6.985   4.052   0.824
 3463SOL    HW211289   0.014   3.898   0.824
 3464SOL     OW11290   0.172   4.531   6.531
 3464SOL    HW111291   0.184   4.630   6.533
 3464SOL    HW211292   0.251   4.487   6.575
 3465SOL     OW11293   2.208   1.441   1.328
 3465SOL    HW111294   2.209   1.537   1.302
 3465SOL    HW211295   2.123   1.399   1.294
 3466SOL     OW11296   0.296   4.859   5.913
 3466SOL    HW111297   0.336   4.871   6.004
 3466SOL    HW211298   0.306   4.763   5.885
 3467SOL     OW11299   2.066   2.383   6.509
 3467SOL    HW111300   2.153   2.419   6.543
 3467SOL    HW211301   2.049   2.417   6.416
 3468SOL     OW11302   2.727   5.889   3.815
 3468SOL    HW111303   2.750   5.986   3.804
 3468SOL    HW211304   2.638   5.871   3.773
 3469SOL     OW11305   6.950   2.408   3.867
 3469SOL    HW111306   6.854   2.401   3.896
 3469SOL    HW211307   7.009   2.402   3.947
 3470SOL     OW11308   0.529   5.020   1.560
 3470SOL    HW111309   0.454   5.060   1.612
 3470SOL    HW211310   0.581   5.094   1.516
 3471SOL     OW11311   4.380   5.637   5.085
 3471SOL    HW111312   4.364   5.574   5.009
 3471SOL    HW211313   4.373   5.731   5.053
 3472SOL     OW11314   2.396   1.122   4.417
 3472SOL    HW111315   2.341   1.089   4.494
 3472SOL    HW211316   2.358   1.085   4.331
 3473SOL     OW11317   5.472   1.623   5.829
 3473SOL    HW111318   5.409   1.595   5.756
 3473SOL    HW211319   5.469   1.557   5.903
 3474SOL     OW11320   3.395   4.931   2.175
 3474SOL    HW111321   3.379   5.009   2.115
 3474SOL    HW211322   3.435   4.856   2.122
 3475SOL     OW11323   0.993   6.615   3.995
 3475SOL    HW111324   1.006   6.661   4.082
 3475SOL    HW211325   0.901   6.632   3.961
 3476SOL     OW11326   4.460   1.066   4.591
 3476SOL    HW111327   4.497   1.029   4.676
 3476SOL    HW211328   4.362   1.045   4.587
 3477SOL     OW11329   3.771   5.980   0.819
 3477SOL    HW111330   3.769   5.922   0.900
 3477SOL    HW211331   3.678   6.014   0.801
 3478SOL     OW11332   3.073   5.903   6.089
 3478SOL    HW111333   3.034   5.871   6.002
 3478SOL    HW211334   3.093   6.001   6.082
 3479SOL     OW11335   0.558   0.735   2.513
 3479SOL    HW111336   0.630   0.693   2.568
 3479SOL    HW211337   0.591   0.752   2.421
 3480SOL     OW11338   6.681   1.550   3.932
 3480SOL    HW111339   6.753   1.489   3.900
 3480SOL    HW211340   6.593   1.503   3.927
 3481SOL     OW11341   3.281   6.733   6.387
 3481SOL    HW111342   3.245   6.645   6.419
 3481SOL    HW211343   3.381   6.726   6.379
 3482SOL     OW11344   6.188   1.839   1.918
 3482SOL    HW111345   6.281   1.867   1.895
 3482SOL    HW211346   6.186   1.741   1.936
 3483SOL     OW11347   2.355   0.637   1.588
 3483SOL    HW111348   2.289   0.576   1.545
 3483SOL    HW211349   2.332   0.732   1.567
 3484SOL     OW11350   3.395   2.886   3.442
 3484SOL    HW111351   3.445   2.904   3.527
 3484SOL    HW211352   3.339   2.803   3.453
 3485SOL     OW11353   2.094   1.947   4.982
 3485SOL    HW111354   2.064   2.040   4.998
 3485SOL    HW211355   2.071   1.919   4.888
 3486SOL     OW11356   4.213   1.394   1.611
 3486SOL    HW111357   4.231   1.430   1.702
 3486SOL    HW211358   4.186   1.469   1.550
 3487SOL     OW11359   5.849   1.511   6.656
 3487SOL    HW111360   5.919   1.559   6.709
 3487SOL    HW211361   5.767   1.567   6.650
 3488SOL     OW11362   6.096   3.441   4.358
 3488SOL    HW111363   6.160   3.460   4.283
 3488SOL    HW211364   6.121   3.356   4.404
 3489SOL     OW11365   3.275   6.892   0.777
 3489SOL    HW111366   3.230   6.875   0.865
 3489SOL    HW211367   3.353   6.952   0.791
 3490SOL     OW11368   5.273   4.218   0.132
 3490SOL    HW111369   5.283   4.292   0.199
 3490SOL    HW211370   5.341   4.147   0.150
 3491SOL     OW11371   0.313   3.020   5.515
 3491SOL    HW111372   0.236   3.080   5.535
 3491SOL    HW211373   0.369   3.009   5.598
 3492SOL     OW11374   0.617   5.668   6.675
 3492SOL    HW111375   0.693   5.732   6.669
 3492SOL    HW211376   0.652   5.574   6.677
 3493SOL     OW11377   6.196   4.920   1.190
 3493SOL    HW111378   6.200   5.018   1.167
 3493SOL    HW211379   6.258   4.900   1.265
 3494SOL     OW11380   3.938   0.203   1.298
 3494SOL    HW111381   4.003   0.277   1.313
 3494SOL    HW211382   3.985   0.115   1.307
 3495SOL     OW11383   4.169   5.543   2.123
 3495SOL    HW111384   4.190   5.640   2.140
 3495SOL    HW211385   4.131   5.533   2.031
 3496SOL     OW11386   1.860   3.094   1.042
 3496SOL    HW111387   1.817   3.087   0.952
 3496SOL    HW211388   1.959   3.104   1.031
 3497SOL     OW11389   4.405   0.768   3.468
 3497SOL    HW111390   4.321   0.810   3.502
 3497SOL    HW211391   4.412   0.674   3.501
 3498SOL     OW11392   3.069   1.306   1.166
 3498SOL    HW111393   3.144   1.281   1.105
 3498SOL    HW211394   3.072   1.404   1.184
 3499SOL     OW11395   0.363   3.473   3.837
 3499SOL    HW111396   0.293   3.542   3.816
 3499SOL    HW211397   0.381   3.418   3.756
 3500SOL     OW11398   6.239   3.839   6.381
 3500SOL    HW111399   6.152   3.794   6.402
 3500SOL    HW211400   6.236   3.872   6.286
 3501SOL     OW11401   1.030   4.698   5.335
 3501SOL    HW111402   1.009   4.754   5.415
 3501SOL    HW211403   1.070   4.611   5.364
 3502SOL     OW11404   0.941   1.703   1.928
 3502SOL    HW111405   0.877   1.637   1.888
 3502SOL    HW211406   0.924   1.710   2.027
 3503SOL     OW11407   4.560   5.492   5.514
 3503SOL    HW111408   4.481   5.430   5.507
 3503SOL    HW211409   4.606   5.477   5.602
 3504SOL     OW11410   3.039   3.705   1.290
 3504SOL    HW111411   2.992   3.639   1.350
 3504SOL    HW211412   2.971   3.766   1.249
 3505SOL     OW11413   5.537   6.202   5.122
 3505SOL    HW111414   5.582   6.121   5.158
 3505SOL    HW211415   5.449   6.214   5.166
 3506SOL     OW11416   4.091   5.537   4.212
 3506SOL    HW111417   4.144   5.503   4.290
 3506SOL    HW211418   3.994   5.525   4.230
 3507SOL     OW11419   1.325   0.483   6.412
 3507SOL    HW111420   1.395   0.527   6.355
 3507SOL    HW211421   1.327   0.384   6.398
 3508SOL     OW11422   5.413   2.586   0.521
 3508SOL    HW111423   5.324   2.594   0.565
 3508SOL    HW211424   5.481   2.558   0.588
 3509SOL     OW11425   5.814   6.215   6.856
 3509SOL    HW111426   5.849   6.307   6.837
 3509SOL    HW211427   5.721   6.208   6.820
 3510SOL     OW11428   1.849   2.215   1.284
 3510SOL    HW111429   1.807   2.241   1.370
 3510SOL    HW211430   1.888   2.296   1.240
 3511SOL     OW11431   0.922   3.068   6.603
 3511SOL    HW111432   0.843   3.060   6.663
 3511SOL    HW211433   0.897   3.116   6.519
 3512SOL     OW11434   1.801   3.569   0.369
 3512SOL    HW111435   1.861   3.551   0.291
 3512SOL    HW211436   1.754   3.656   0.355
 3513SOL     OW11437   6.455   4.166   0.824
 3513SOL    HW111438   6.539   4.219   0.837
 3513SOL    HW211439   6.376   4.224   0.846
 3514SOL     OW11440   0.441   6.704   1.354
 3514SOL    HW111441   0.494   6.786   1.377
 3514SOL    HW211442   0.405   6.664   1.438
 3515SOL     OW11443   2.841   6.094   2.858
 3515SOL    HW111444   2.764   6.142   2.900
 3515SOL    HW211445   2.872   6.022   2.920
 3516SOL     OW11446   3.370   0.695   0.721
 3516SOL    HW111447   3.290   0.753   0.732
 3516SOL    HW211448   3.342   0.606   0.684
 3517SOL     OW11449   0.892   1.353   6.968
 3517SOL    HW111450   0.974   1.409   6.953
 3517SOL    HW211451   0.917   1.272   7.021
 3518SOL     OW11452   4.597   3.565   6.696
 3518SOL    HW111453   4.591   3.523   6.787
 3518SOL    HW211454   4.678   3.530   6.648
 3519SOL     OW11455   0.903   6.791   6.972
 3519SOL    HW111456   0.998   6.771   6.946
 3519SOL    HW211457   0.845   6.712   6.952
 3520SOL     OW11458   4.026   4.679   1.120
 3520SOL    HW111459   3.933   4.700   1.149
 3520SOL    HW211460   4.039   4.580   1.116
 3521SOL     OW11461   5.506   2.737   1.889
 3521SOL    HW111462   5.584   2.714   1.830
 3521SOL    HW211463   5.477   2.655   1.939
 3522SOL     OW11464   2.695   4.909   1.757
 3522SOL    HW111465   2.747   4.840   1.706
 3522SOL    HW211466   2.684   4.880   1.852
 3523SOL     OW11467   2.908   4.876   4.922
 3523SOL    HW111468   2.999   4.836   4.917
 3523SOL    HW211469   2.842   4.806   4.949
 3524SOL     OW11470   2.336   0.595   1.049
 3524SOL    HW111471   2.304   0.617   0.957
 3524SOL    HW211472   2.436   0.591   1.050
 3525SOL     OW11473   0.473   2.810   1.808
 3525SOL    HW111474   0.459   2.908   1.822
 3525SOL    HW211475   0.453   2.787   1.713
 3526SOL     OW11476   0.604   0.718   3.161
 3526SOL    HW111477   0.523   0.659   3.166
 3526SOL    HW211478   0.658   0.693   3.081
 3527SOL     OW11479   5.485   2.947   6.306
 3527SOL    HW111480   5.513   3.025   6.251
 3527SOL    HW211481   5.476   2.975   6.401
 3528SOL     OW11482   0.842   5.706   3.374
 3528SOL    HW111483   0.787   5.650   3.312
 3528SOL    HW211484   0.820   5.802   3.362
 3529SOL     OW11485   4.847   6.876   5.524
 3529SOL    HW111486   4.904   6.933   5.584
 3529SOL    HW211487   4.801   6.806   5.579
 3530SOL     OW11488   2.645   5.711   2.517
 3530SOL    HW111489   2.641   5.647   2.441
 3530SOL    HW211490   2.560   5.763   2.522
 3531SOL     OW11491   5.447   4.594   0.370
 3531SOL    HW111492   5.383   4.528   0.330
 3531SOL    HW211493   5.470   4.566   0.463
 3532SOL     OW11494   2.916   0.916   0.002
 3532SOL    HW111495   3.008   0.954   7.023
 3532SOL    HW211496   2.919   0.826   0.045
 3533SOL     OW11497   1.119   1.767   3.437
 3533SOL    HW111498   1.080   1.849   3.478
 3533SOL    HW211499   1.160   1.790   3.348
 3534SOL     OW11500   5.503   1.649   5.356
 3534SOL    HW111501   5.482   1.712   5.282
 3534SOL    HW211502   5.598   1.619   5.349
 3535SOL     OW11503   6.303   5.223   6.486
 3535SOL    HW111504   6.384   5.166   6.475
 3535SOL    HW211505   6.328   5.319   6.474
 3536SOL     OW11506   2.096   3.091   3.064
 3536SOL    HW111507   2.104   3.034   2.982
 3536SOL    HW211508   2.115   3.186   3.040
 3537SOL     OW11509   2.242   5.705   0.682
 3537SOL    HW111510   2.186   5.623   0.691
 3537SOL    HW211511   2.317   5.687   0.617
 3538SOL     OW11512   3.147   6.452   2.618
 3538SOL    HW111513   3.186   6.536   2.581
 3538SOL    HW211514   3.104   6.400   2.544
 3539SOL     OW11515   5.624   4.905   5.790
 3539SOL    HW111516   5.684   4.980   5.818
 3539SOL    HW211517   5.680   4.826   5.766
 3540SOL     OW11518   2.199   3.098   6.773
 3540SOL    HW111519   2.145   3.151   6.708
 3540SOL    HW211520   2.233   3.157   6.846
 3541SOL     OW11521   2.730   3.411   0.624
 3541SOL    HW111522   2.681   3.411   0.711
 3541SOL    HW211523   2.666   3.390   0.550
 3542SOL     OW11524   5.388   2.715   0.086
 3542SOL    HW111525   5.449   2.746   0.013
 3542SOL    HW211526   5.301   2.765   0.079
 3543SOL     OW11527   1.826   3.065   2.916
 3543SOL    HW111528   1.836   3.163   2.901
 3543SOL    HW211529   1.729   3.042   2.925
 3544SOL     OW11530   2.956   4.349   6.416
 3544SOL    HW111531   2.878   4.319   6.472
 3544SOL    HW211532   2.983   4.441   6.443
 3545SOL     OW11533   3.536   6.127   0.874
 3545SOL    HW111534   3.607   6.175   0.926
 3545SOL    HW211535   3.469   6.089   0.937
 3546SOL     OW11536   6.293   3.650   3.154
 3546SOL    HW111537   6.308   3.559   3.116
 3546SOL    HW211538   6.363   3.713   3.121
 3547SOL     OW11539   0.100   3.419   5.488
 3547SOL    HW111540   0.046   3.340   5.458
 3547SOL    HW211541   0.197   3.396   5.483
 3548SOL     OW11542   5.142   1.782   6.305
 3548SOL    HW111543   5.076   1.845   6.264
 3548SOL    HW211544   5.121   1.689   6.276
 3549SOL     OW11545   2.460   5.693   6.882
 3549SOL    HW111546   2.446   5.790   6.904
 3549SOL    HW211547   2.434   5.637   6.961
 3550SOL     OW11548   5.118   2.066   5.273
 3550SOL    HW111549   5.018   2.070   5.266
 3550SOL    HW211550   5.156   2.024   5.191
 3551SOL     OW11551   3.825   2.174   5.673
 3551SOL    HW111552   3.739   2.154   5.626
 3551SOL    HW211553   3.811   2.250   5.737
 3552SOL     OW11554   7.010   5.864   1.766
 3552SOL    HW111555   6.927   5.903   1.725
 3552SOL    HW211556   6.986   5.783   1.820
 3553SOL     OW11557   4.061   6.056   5.813
 3553SOL    HW111558   4.081   6.106   5.897
 3553SOL    HW211559   4.114   6.097   5.738
 3554SOL     OW11560   3.932   3.971   1.339
 3554SOL    HW111561   3.898   4.053   1.293
 3554SOL    HW211562   3.992   3.921   1.278
 3555SOL     OW11563   1.835   2.165   3.703
 3555SOL    HW111564   1.756   2.206   3.659
 3555SOL    HW211565   1.810   2.132   3.794
 3556SOL     OW11566   4.145   1.052   5.251
 3556SOL    HW111567   4.082   1.130   5.261
 3556SOL    HW211568   4.234   1.077   5.289
 3557SOL     OW11569   0.310   0.610   2.515
 3557SOL    HW111570   0.303   0.567   2.605
 3557SOL    HW211571   0.387   0.675   2.515
 3558SOL     OW11572   3.023   6.352   0.448
 3558SOL    HW111573   3.076   6.322   0.526
 3558SOL    HW211574   2.947   6.410   0.479
 3559SOL     OW11575   3.971   6.559   4.469
 3559SOL    HW111576   4.002   6.593   4.558
 3559SOL    HW211577   3.873   6.538   4.474
 3560SOL     OW11578   1.892   5.549   5.119
 3560SOL    HW111579   1.974   5.510   5.075
 3560SOL    HW211580   1.919   5.601   5.199
 3561SOL     OW11581   4.767   4.569   5.248
 3561SOL    HW111582   4.698   4.588   5.179
 3561SOL    HW211583   4.756   4.475   5.282
 3562SOL     OW11584   2.633   1.630   4.649
 3562SOL    HW111585   2.557   1.625   4.713
 3562SOL    HW211586   2.720   1.624   4.698
 3563SOL     OW11587   5.972   2.147   6.074
 3563SOL    HW111588   5.945   2.226   6.020
 3563SOL    HW211589   5.925   2.065   6.039
 3564SOL     OW11590   6.960   4.265   2.819
 3564SOL    HW111591   6.919   4.177   2.797
 3564SOL    HW211592   6.982   4.268   2.916
 3565SOL     OW11593   3.597   5.319   3.142
 3565SOL    HW111594   3.506   5.278   3.129
 3565SOL    HW211595   3.667   5.248   3.137
 3566SOL     OW11596   6.686   1.385   5.228
 3566SOL    HW111597   6.637   1.388   5.315
 3566SOL    HW211598   6.731   1.472   5.212
 3567SOL     OW11599   0.623   4.044   0.013
 3567SOL    HW111600   0.575   3.988   0.080
 3567SOL    HW211601   0.577   4.038   6.951
 3568SOL     OW11602   6.676   3.831   5.785
 3568SOL    HW111603   6.686   3.926   5.813
 3568SOL    HW211604   6.765   3.792   5.763
 3569SOL     OW11605   2.746   1.741   5.808
 3569SOL    HW111606   2.720   1.694   5.892
 3569SOL    HW211607   2.743   1.840   5.823
 3570SOL     OW11608   5.523   0.890   4.210
 3570SOL    HW111609   5.498   0.971   4.158
 3570SOL    HW211610   5.441   0.835   4.230
 3571SOL     OW11611   6.378   5.790   6.638
 3571SOL    HW111612   6.303   5.781   6.704
 3571SOL    HW211613   6.345   5.838   6.557
 3572SOL     OW11614   5.377   3.625   3.842
 3572SOL    HW111615   5.440   3.556   3.807
 3572SOL    HW211616   5.295   3.580   3.877
 3573SOL     OW11617   0.792   4.423   4.145
 3573SOL    HW111618   0.854   4.393   4.073
 3573SOL    HW211619   0.837   4.413   4.234
 3574SOL     OW11620   0.485   5.089   0.387
 3574SOL    HW111621   0.498   5.172   0.333
 3574SOL    HW211622   0.426   5.025   0.337
 3575SOL     OW11623   5.847   5.270   3.170
 3575SOL    HW111624   5.780   5.206   3.133
 3575SOL    HW211625   5.817   5.364   3.151
 3576SOL     OW11626   1.308   1.480   5.952
 3576SOL    HW111627   1.273   1.394   5.914
 3576SOL    HW211628   1.259   1.501   6.036
 3577SOL     OW11629   0.695   2.535   6.670
 3577SOL    HW111630   0.690   2.474   6.591
 3577SOL    HW211631   0.769   2.505   6.731
 3578SOL     OW11632   3.689   4.033   6.799
 3578SOL    HW111633   3.680   4.056   6.896
 3578SOL    HW211634   3.613   4.075   6.749
 3579SOL     OW11635   6.634   3.654   5.147
 3579SOL    HW111636   6.647   3.752   5.135
 3579SOL    HW211637   6.564   3.638   5.216
 3580SOL     OW11638   5.515   2.206   1.816
 3580SOL    HW111639   5.513   2.182   1.913
 3580SOL    HW211640   5.605   2.241   1.792
 3581SOL     OW11641   6.819   0.032   3.224
 3581SOL    HW111642   6.848   0.081   3.306
 3581SOL    HW211643   6.847   6.963   3.230
 3582SOL     OW11644   1.144   1.846   5.687
 3582SOL    HW111645   1.181   1.784   5.756
 3582SOL    HW211646   1.106   1.793   5.611
 3583SOL     OW11647   1.003   4.459   0.049
 3583SOL    HW111648   0.998   4.524   0.124
 3583SOL    HW211649   0.988   4.366   0.083
 3584SOL     OW11650   6.018   6.396   6.366
 3584SOL    HW111651   6.052   6.464   6.300
 3584SOL    HW211652   6.052   6.419   6.457
 3585SOL     OW11653   3.658   5.307   5.034
 3585SOL    HW111654   3.685   5.375   4.966
 3585SOL    HW211655   3.564   5.277   5.016
 3586SOL     OW11656   6.187   2.807   5.519
 3586SOL    HW111657   6.208   2.904   5.531
 3586SOL    HW211658   6.117   2.779   5.584
 3587SOL     OW11659   2.789   6.896   1.369
 3587SOL    HW111660   2.790   6.907   1.468
 3587SOL    HW211661   2.792   6.799   1.346
 3588SOL     OW11662   1.642   2.138   5.447
 3588SOL    HW111663   1.658   2.119   5.544
 3588SOL    HW211664   1.602   2.229   5.437
 3589SOL     OW11665   3.465   0.724   4.388
 3589SOL    HW111666   3.408   0.806   4.389
 3589SOL    HW211667   3.553   0.744   4.431
 3590SOL     OW11668   0.990   4.791   6.546
 3590SOL    HW111669   1.025   4.776   6.453
 3590SOL    HW211670   0.893   4.812   6.542
 3591SOL     OW11671   5.637   3.151   6.201
 3591SOL    HW111672   5.587   3.221   6.251
 3591SOL    HW211673   5.709   3.113   6.259
 3592SOL     OW11674   5.363   3.077   2.966
 3592SOL    HW111675   5.366   3.045   2.872
 3592SOL    HW211676   5.275   3.121   2.985
 3593SOL     OW11677   2.723   6.367   4.515
 3593SOL    HW111678   2.676   6.336   4.597
 3593SOL    HW211679   2.697   6.461   4.495
 3594SOL     OW11680   3.306   1.038   3.265
 3594SOL    HW111681   3.394   1.057   3.310
 3594SOL    HW211682   3.260   0.964   3.313
 3595SOL     OW11683   2.783   6.436   5.277
 3595SOL    HW111684   2.842   6.404   5.351
 3595SOL    HW211685   2.837   6.491   5.213
 3596SOL     OW11686   6.409   0.934   2.707
 3596SOL    HW111687   6.478   0.864   2.721
 3596SOL    HW211688   6.449   1.011   2.656
 3597SOL     OW11689   3.746   6.157   4.443
 3597SOL    HW111690   3.750   6.247   4.400
 3597SOL    HW211691   3.749   6.086   4.372
 3598SOL     OW11692   0.940   0.571   5.404
 3598SOL    HW111693   1.001   0.501   5.442
 3598SOL    HW211694   0.847   0.555   5.438
 3599SOL     OW11695   0.777   1.946   5.943
 3599SOL    HW111696   0.793   2.037   5.905
 3599SOL    HW211697   0.864   1.898   5.953
 3600SOL     OW11698   6.727   3.076   0.735
 3600SOL    HW111699   6.745   3.170   0.767
 3600SOL    HW211700   6.712   3.017   0.814
 3601SOL     OW11701   7.007   4.374   0.527
 3601SOL    HW111702   0.055   4.331   0.475
 3601SOL    HW211703   6.919   4.340   0.494
 3602SOL     OW11704   2.140   0.883   0.594
 3602SOL    HW111705   2.121   0.786   0.611
 3602SOL    HW211706   2.055   0.935   0.605
 3603SOL     OW11707   4.093   5.737   3.982
 3603SOL    HW111708   4.136   5.713   4.069
 3603SOL    HW211709   4.086   5.836   3.975
 3604SOL     OW11710   6.858   3.226   2.626
 3604SOL    HW111711   6.930   3.294   2.639
 3604SOL    HW211712   6.893   3.151   2.568
 3605SOL     OW11713   6.644   4.641   5.996
 3605SOL    HW111714   6.710   4.572   6.026
 3605SOL    HW211715   6.597   4.679   6.075
 3606SOL     OW11716   0.372   5.200   6.135
 3606SOL    HW111717   0.326   5.243   6.212
 3606SOL    HW211718   0.305   5.181   6.063
 3607SOL     OW11719   5.161   0.384   0.507
 3607SOL    HW111720   5.166   0.377   0.607
 3607SOL    HW211721   5.251   0.408   0.471
 3608SOL     OW11722   6.913   1.586   1.977
 3608SOL    HW111723   6.982   1.645   1.935
 3608SOL    HW211724   6.849   1.555   1.906
 3609SOL     OW11725   6.379   0.831   4.209
 3609SOL    HW111726   6.354   0.913   4.261
 3609SOL    HW211727   6.345   0.840   4.116
 3610SOL     OW11728   0.546   0.188   5.194
 3610SOL    HW111729   0.485   0.244   5.138
 3610SOL    HW211730   0.639   0.194   5.158
 3611SOL     OW11731   3.643   5.075   5.212
 3611SOL    HW111732   3.649   5.128   5.128
 3611SOL    HW211733   3.726   5.021   5.223
 3612SOL     OW11734   0.789   6.391   6.069
 3612SOL    HW111735   0.697   6.423   6.092
 3612SOL    HW211736   0.814   6.315   6.130
 3613SOL     OW11737   5.357   5.042   0.946
 3613SOL    HW111738   5.350   5.071   1.041
 3613SOL    HW211739   5.279   4.985   0.923
 3614SOL     OW11740   3.514   3.499   3.306
 3614SOL    HW111741   3.466   3.464   3.386
 3614SOL    HW211742   3.608   3.467   3.307
 3615SOL     OW11743   5.959   6.289   5.941
 3615SOL    HW111744   5.867   6.262   5.970
 3615SOL    HW211745   6.025   6.221   5.974
 3616SOL     OW11746   6.085   2.471   6.645
 3616SOL    HW111747   6.154   2.413   6.602
 3616SOL    HW211748   5.994   2.437   6.622
 3617SOL     OW11749   5.468   1.972   6.248
 3617SOL    HW111750   5.517   1.965   6.335
 3617SOL    HW211751   5.373   1.999   6.265
 3618SOL     OW11752   1.369   1.906   5.344
 3618SOL    HW111753   1.367   1.991   5.396
 3618SOL    HW211754   1.447   1.851   5.374
 3619SOL     OW11755   6.022   2.335   3.941
 3619SOL    HW111756   5.998   2.243   3.911
 3619SOL    HW211757   5.944   2.376   3.988
 3620SOL     OW11758   5.676   6.469   5.772
 3620SOL    HW111759   5.717   6.445   5.684
 3620SOL    HW211760   5.597   6.410   5.788
 3621SOL     OW11761   2.521   2.384   6.024
 3621SOL    HW111762   2.601   2.380   5.964
 3621SOL    HW211763   2.490   2.291   6.044
 3622SOL     OW11764   1.456   1.687   3.217
 3622SOL    HW111765   1.510   1.624   3.273
 3622SOL    HW211766   1.465   1.663   3.120
 3623SOL     OW11767   6.240   5.167   4.157
 3623SOL    HW111768   6.217   5.115   4.074
 3623SOL    HW211769   6.185   5.250   4.160
 3624SOL     OW11770   1.921   5.898   2.482
 3624SOL    HW111771   1.862   5.972   2.449
 3624SOL    HW211772   1.867   5.835   2.538
 3625SOL     OW11773   6.406   2.937   6.457
 3625SOL    HW111774   6.356   2.853   6.436
 3625SOL    HW211775   6.370   2.976   6.542
 3626SOL     OW11776   2.439   3.506   5.852
 3626SOL    HW111777   2.364   3.549   5.802
 3626SOL    HW211778   2.506   3.471   5.786
 3627SOL     OW11779   4.044   3.639   3.329
 3627SOL    HW111780   3.949   3.642   3.298
 3627SOL    HW211781   4.084   3.550   3.306
 3628SOL     OW11782   1.703   6.929   2.139
 3628SOL    HW111783   1.641   6.959   2.067
 3628SOL    HW211784   1.658   6.858   2.195
 3629SOL     OW11785   6.719   2.076   5.025
 3629SOL    HW111786   6.637   2.107   5.072
 3629SOL    HW211787   6.695   2.045   4.933
 3630SOL     OW11788   5.632   2.808   3.920
 3630SOL    HW111789   5.602   2.757   3.839
 3630SOL    HW211790   5.686   2.887   3.891
 3631SOL     OW11791   2.054   0.325   4.325
 3631SOL    HW111792   2.109   0.393   4.373
 3631SOL    HW211793   2.075   0.234   4.360
 3632SOL     OW11794   5.050   0.861   0.756
 3632SOL    HW111795   5.039   0.892   0.850
 3632SOL    HW211796   4.977   0.797   0.733
 3633SOL     OW11797   3.104   2.418   5.983
 3633SOL    HW111798   3.025   2.409   6.045
 3633SOL    HW211799   3.072   2.439   5.891
 3634SOL     OW11800   0.868   5.616   4.675
 3634SOL    HW111801   0.846   5.523   4.706
 3634SOL    HW211802   0.789   5.675   4.689
 3635SOL     OW11803   3.930   0.506   5.293
 3635SOL    HW111804   3.875   0.426   5.269
 3635SOL    HW211805   3.942   0.563   5.212
 3636SOL     OW11806   0.871   6.347   5.517
 3636SOL    HW111807   0.921   6.400   5.586
 3636SOL    HW211808   0.929   6.273   5.484
 3637SOL     OW11809   6.543   1.756   1.464
 3637SOL    HW111810   6.501   1.847   1.468
 3637SOL    HW211811   6.632   1.759   1.509
 3638SOL     OW11812   6.364   4.475   4.238
 3638SOL    HW111813   6.284   4.468   4.298
 3638SOL    HW211814   6.445   4.497   4.292
 3639SOL     OW11815   4.362   3.815   1.039
 3639SOL    HW111816   4.301   3.826   0.961
 3639SOL    HW211817   4.451   3.783   1.008
 3640SOL     OW11818   3.552   6.712   6.520
 3640SOL    HW111819   3.554   6.668   6.609
 3640SOL    HW211820   3.573   6.645   6.448
 3641SOL     OW11821   4.268   2.139   5.094
 3641SOL    HW111822   4.356   2.135   5.141
 3641SOL    HW211823   4.277   2.194   5.011
 3642SOL     OW11824   4.808   1.901   5.997
 3642SOL    HW111825   4.871   1.917   6.074
 3642SOL    HW211826   4.842   1.948   5.916
 3643SOL     OW11827   2.873   5.872   4.749
 3643SOL    HW111828   2.820   5.814   4.687
 3643SOL    HW211829   2.815   5.902   4.825
 3644SOL     OW11830   6.948   1.264   1.670
 3644SOL    HW111831   6.999   1.245   1.754
 3644SOL    HW211832   6.850   1.248   1.686
 3645SOL     OW11833   5.392   0.947   3.891
 3645SOL    HW111834   5.456   0.977   3.962
 3645SOL    HW211835   5.359   1.027   3.841
 3646SOL     OW11836   0.467   4.932   6.126
 3646SOL    HW111837   0.538   4.917   6.196
 3646SOL    HW211838   0.458   5.030   6.108
 3647SOL     OW11839   1.683   4.048   0.586
 3647SOL    HW111840   1.729   3.997   0.513
 3647SOL    HW211841   1.605   3.994   0.620
 3648SOL     OW11842   3.261   6.051   2.712
 3648SOL    HW111843   3.267   5.961   2.757
 3648SOL    HW211844   3.185   6.050   2.648
 3649SOL     OW11845   4.300   3.270   1.461
 3649SOL    HW111846   4.258   3.183   1.433
 3649SOL    HW211847   4.351   3.257   1.545
 3650SOL     OW11848   6.865   5.545   0.757
 3650SOL    HW111849   6.797   5.587   0.816
 3650SOL    HW211850   6.953   5.539   0.805
 3651SOL     OW11851   0.697   5.966   3.100
 3651SOL    HW111852   0.718   5.894   3.034
 3651SOL    HW211853   0.600   5.989   3.093
 3652SOL     OW11854   5.141   5.970   3.264
 3652SOL    HW111855   5.103   6.056   3.229
 3652SOL    HW211856   5.206   5.990   3.337
 3653SOL     OW11857   6.620   0.705   3.462
 3653SOL    HW111858   6.591   0.765   3.536
 3653SOL    HW211859   6.663   0.759   3.390
 3654SOL     OW11860   1.931   6.870   0.037
 3654SOL    HW111861   1.986   6.945   7.026
 3654SOL    HW211862   1.960   6.784   7.021
 3655SOL     OW11863   1.206   6.761   3.896
 3655SOL    HW111864   1.135   6.692   3.911
 3655SOL    HW211865   1.169   6.851   3.915
 3656SOL     OW11866   1.723   3.080   1.316
 3656SOL    HW111867   1.789   3.125   1.255
 3656SOL    HW211868   1.656   3.147   1.349
 3657SOL     OW11869   4.998   5.898   5.704
 3657SOL    HW111870   5.012   5.926   5.799
 3657SOL    HW211871   5.013   5.799   5.696
 3658SOL     OW11872   1.347   5.521   4.105
 3658SOL    HW111873   1.419   5.591   4.109
 3658SOL    HW211874   1.389   5.432   4.085
 3659SOL     OW11875   3.245   3.658   5.674
 3659SOL    HW111876   3.266   3.691   5.582
 3659SOL    HW211877   3.286   3.567   5.687
 3660SOL     OW11878   5.168   6.305   2.168
 3660SOL    HW111879   5.143   6.377   2.233
 3660SOL    HW211880   5.194   6.223   2.219
 3661SOL     OW11881   4.485   2.312   6.501
 3661SOL    HW111882   4.567   2.300   6.557
 3661SOL    HW211883   4.458   2.224   6.462
 3662SOL     OW11884   3.248   0.776   4.112
 3662SOL    HW111885   3.207   0.759   4.022
 3662SOL    HW211886   3.204   0.854   4.155
 3663SOL     OW11887   1.660   1.351   0.242
 3663SOL    HW111888   1.603   1.424   0.280
 3663SOL    HW211889   1.667   1.276   0.308
 3664SOL     OW11890   5.002   2.136   1.573
 3664SOL    HW111891   5.063   2.085   1.634
 3664SOL    HW211892   5.019   2.109   1.478
 3665SOL     OW11893   0.641   6.233   5.400
 3665SOL    HW111894   0.715   6.267   5.457
 3665SOL    HW211895   0.561   6.293   5.409
 3666SOL     OW11896   1.987   3.993   3.335
 3666SOL    HW111897   2.046   3.995   3.416
 3666SOL    HW211898   1.891   3.998   3.364
 3667SOL     OW11899   6.338   0.151   0.531
 3667SOL    HW111900   6.283   0.223   0.573
 3667SOL    HW211901   6.419   0.191   0.487
 3668SOL     OW11902   1.307   0.451   1.302
 3668SOL    HW111903   1.271   0.408   1.219
 3668SOL    HW211904   1.403   0.427   1.312
 3669SOL     OW11905   5.891   1.238   4.817
 3669SOL    HW111906   5.920   1.248   4.913
 3669SOL    HW211907   5.859   1.144   4.803
 3670SOL     OW11908   1.861   5.106   0.673
 3670SOL    HW111909   1.944   5.152   0.704
 3670SOL    HW211910   1.831   5.040   0.742
 3671SOL     OW11911   5.991   0.575   3.461
 3671SOL    HW111912   5.983   0.496   3.400
 3671SOL    HW211913   5.905   0.627   3.458
 3672SOL     OW11914   5.611   1.643   1.157
 3672SOL    HW111915   5.698   1.687   1.178
 3672SOL    HW211916   5.595   1.646   1.058
 3673SOL     OW11917   3.053   0.599   5.755
 3673SOL    HW111918   2.988   0.667   5.723
 3673SOL    HW211919   3.005   0.526   5.804
 3674SOL     OW11920   0.525   0.550   5.607
 3674SOL    HW111921   0.601   0.549   5.672
 3674SOL    HW211922   0.442   0.517   5.653
 3675SOL     OW11923   1.687   2.944   5.009
 3675SOL    HW111924   1.654   3.024   5.059
 3675SOL    HW211925   1.655   2.948   4.914
 3676SOL     OW11926   4.351   4.749   4.385
 3676SOL    HW111927   4.305   4.797   4.460
 3676SOL    HW211928   4.284   4.695   4.333
 3677SOL     OW11929   1.202   5.980   2.902
 3677SOL    HW111930   1.173   6.047   2.971
 3677SOL    HW211931   1.264   5.914   2.944
 3678SOL     OW11932   1.228   3.146   4.020
 3678SOL    HW111933   1.190   3.238   4.023
 3678SOL    HW211934   1.200   3.095   4.102
 3679SOL     OW11935   1.054   0.862   2.937
 3679SOL    HW111936   1.140   0.851   2.988
 3679SOL    HW211937   0.984   0.898   2.999
 3680SOL     OW11938   6.151   3.000   3.529
 3680SOL    HW111939   6.123   3.081   3.581
 3680SOL    HW211940   6.115   2.918   3.574
 3681SOL     OW11941   0.330   0.517   5.433
 3681SOL    HW111942   0.403   0.549   5.494
 3681SOL    HW211943   0.347   0.421   5.410
 3682SOL     OW11944   6.481   2.565   6.007
 3682SOL    HW111945   6.388   2.537   6.027
 3682SOL    HW211946   6.529   2.492   5.959
 3683SOL     OW11947   0.120   0.449   4.578
 3683SOL    HW111948   0.057   0.498   4.518
 3683SOL    HW211949   0.128   0.354   4.548
 3684SOL     OW11950   1.513   3.732   0.482
 3684SOL    HW111951   1.494   3.830   0.483
 3684SOL    HW211952   1.441   3.683   0.532
 3685SOL     OW11953   6.473   6.259   6.189
 3685SOL    HW111954   6.388   6.265   6.137
 3685SOL    HW211955   6.548   6.296   6.136
 3686SOL     OW11956   6.404   5.205   3.601
 3686SOL    HW111957   6.409   5.165   3.693
 3686SOL    HW211958   6.496   5.209   3.562
 3687SOL     OW11959   3.093   5.951   5.599
 3687SOL    HW111960   3.193   5.946   5.595
 3687SOL    HW211961   3.059   5.883   5.664
 3688SOL     OW11962   1.368   3.723   6.862
 3688SOL    HW111963   1.406   3.814   6.875
 3688SOL    HW211964   1.285   3.729   6.806
 3689SOL     OW11965   1.420   0.790   5.878
 3689SOL    HW111966   1.432   0.887   5.857
 3689SOL    HW211967   1.497   0.757   5.933
 3690SOL     OW11968   3.919   0.135   6.276
 3690SOL    HW111969   3.983   0.116   6.202
 3690SOL    HW211970   3.926   0.065   6.347
 3691SOL     OW11971   2.219   3.029   0.620
 3691SOL    HW111972   2.127   3.009   0.653
 3691SOL    HW211973   2.216   3.107   0.558
 3692SOL     OW11974   0.998   6.034   5.152
 3692SOL    HW111975   1.002   5.934   5.152
 3692SOL    HW211976   0.910   6.064   5.115
 3693SOL     OW11977   1.911   3.299   2.482
 3693SOL    HW111978   1.855   3.361   2.427
 3693SOL    HW211979   1.987   3.349   2.522
 3694SOL     OW11980   1.103   5.571   2.475
 3694SOL    HW111981   1.140   5.492   2.524
 3694SOL    HW211982   1.177   5.618   2.428
 3695SOL     OW11983   0.170   2.696   2.595
 3695SOL    HW111984   0.244   2.677   2.660
 3695SOL    HW211985   0.086   2.717   2.645
 3696SOL     OW11986   4.285   5.446   4.895
 3696SOL    HW111987   4.353   5.373   4.894
 3696SOL    HW211988   4.200   5.413   4.938
 3697SOL     OW11989   0.043   5.405   3.758
 3697SOL    HW111990   6.987   5.348   3.766
 3697SOL    HW211991   0.124   5.349   3.772
 3698SOL     OW11992   3.698   6.424   4.686
 3698SOL    HW111993   3.599   6.423   4.667
 3698SOL    HW211994   3.736   6.333   4.672
 3699SOL     OW11995   6.470   3.790   2.815
 3699SOL    HW111996   6.404   3.716   2.803
 3699SOL    HW211997   6.463   3.854   2.739
 3700SOL     OW11998   6.443   0.434   4.081
 3700SOL    HW111999   6.371   0.465   4.019
 3700SOL    HW212000   6.530   0.429   4.031
 3701SOL     OW12001   0.779   1.049   3.373
 3701SOL    HW112002   0.862   1.105   3.366
 3701SOL    HW212003   0.704   1.105   3.408
 3702SOL     OW12004   4.144   0.404   2.295
 3702SOL    HW112005   4.155   0.358   2.383
 3702SOL    HW212006   4.073   0.474   2.302
 3703SOL     OW12007   4.275   3.123   6.364
 3703SOL    HW112008   4.258   3.212   6.406
 3703SOL    HW212009   4.261   3.051   6.432
 3704SOL     OW12010   3.028   0.487   1.509
 3704SOL    HW112011   3.079   0.404   1.485
 3704SOL    HW212012   3.085   0.545   1.567
 3705SOL     OW12013   4.968   6.440   4.195
 3705SOL    HW112014   4.967   6.380   4.275
 3705SOL    HW212015   4.988   6.534   4.223
 3706SOL     OW12016   0.887   3.068   4.551
 3706SOL    HW112017   0.874   3.157   4.508
 3706SOL    HW212018   0.978   3.033   4.530
 3707SOL     OW12019   5.382   4.071   5.378
 3707SOL    HW112020   5.412   4.153   5.331
 3707SOL    HW212021   5.416   3.990   5.330
 3708SOL     OW12022   6.174   0.925   6.678
 3708SOL    HW112023   6.271   0.946   6.664
 3708SOL    HW212024   6.141   0.870   6.601
 3709SOL     OW12025   3.864   0.561   0.264
 3709SOL    HW112026   3.767   0.557   0.288
 3709SOL    HW212027   3.905   0.642   0.307
 3710SOL     OW12028   6.542   5.515   0.172
 3710SOL    HW112029   6.598   5.450   0.224
 3710SOL    HW212030   6.598   5.559   0.102
 3711SOL     OW12031   6.948   6.035   2.138
 3711SOL    HW112032   7.019   6.036   2.069
 3711SOL    HW212033   6.988   6.019   2.228
 3712SOL     OW12034   6.801   6.089   6.650
 3712SOL    HW112035   6.769   6.150   6.577
 3712SOL    HW212036   6.761   5.999   6.638
 3713SOL     OW12037   1.541   6.263   4.634
 3713SOL    HW112038   1.446   6.246   4.660
 3713SOL    HW212039   1.602   6.206   4.690
 3714SOL     OW12040   4.760   5.984   4.786
 3714SOL    HW112041   4.796   6.005   4.695
 3714SOL    HW212042   4.661   5.993   4.785
 3715SOL     OW12043   6.017   3.885   4.493
 3715SOL    HW112044   5.990   3.791   4.473
 3715SOL    HW212045   6.116   3.893   4.486
 3716SOL     OW12046   6.241   0.121   5.033
 3716SOL    HW112047   6.223   0.184   5.108
 3716SOL    HW212048   6.332   0.139   4.995
 3717SOL     OW12049   6.254   5.254   6.800
 3717SOL    HW112050   6.288   5.163   6.775
 3717SOL    HW212051   6.228   5.256   6.896
 3718SOL     OW12052   2.380   6.671   5.450
 3718SOL    HW112053   2.458   6.638   5.397
 3718SOL    HW212054   2.312   6.597   5.458
 3719SOL     OW12055   4.869   4.703   0.647
 3719SOL    HW112056   4.932   4.780   0.639
 3719SOL    HW212057   4.808   4.701   0.567
 3720SOL     OW12058   5.436   2.169   5.735
 3720SOL    HW112059   5.444   2.093   5.799
 3720SOL    HW212060   5.434   2.135   5.641
 3721SOL     OW12061   5.059   4.898   0.642
 3721SOL    HW112062   5.030   4.991   0.664
 3721SOL    HW212063   5.108   4.859   0.720
 3722SOL     OW12064   0.111   0.154   2.593
 3722SOL    HW112065   0.142   0.061   2.571
 3722SOL    HW212066   0.023   0.171   2.549
 3723SOL     OW12067   6.666   6.341   1.789
 3723SOL    HW112068   6.602   6.291   1.848
 3723SOL    HW212069   6.757   6.300   1.797
 3724SOL     OW12070   2.418   5.336   6.771
 3724SOL    HW112071   2.391   5.427   6.738
 3724SOL    HW212072   2.370   5.266   6.718
 3725SOL     OW12073   5.297   6.225   0.217
 3725SOL    HW112074   5.220   6.282   0.190
 3725SOL    HW212075   5.273   6.174   0.300
 3726SOL     OW12076   6.397   4.886   1.403
 3726SOL    HW112077   6.351   4.828   1.471
 3726SOL    HW212078   6.452   4.828   1.342
 3727SOL     OW12079   0.071   3.057   5.848
 3727SOL    HW112080   0.045   2.989   5.917
 3727SOL    HW212081   0.059   3.149   5.886
 3728SOL     OW12082   1.668   3.786   0.139
 3728SOL    HW112083   1.628   3.878   0.141
 3728SOL    HW212084   1.735   3.779   0.065
 3729SOL     OW12085   1.131   2.266   3.564
 3729SOL    HW112086   1.110   2.300   3.655
 3729SOL    HW212087   1.197   2.327   3.520
 3730SOL     OW12088   2.649   5.710   6.567
 3730SOL    HW112089   2.669   5.620   6.605
 3730SOL    HW212090   2.732   5.766   6.570
 3731SOL     OW12091   4.353   0.142   0.519
 3731SOL    HW112092   4.332   0.073   0.450
 3731SOL    HW212093   4.450   0.135   0.543
 3732SOL     OW12094   1.527   2.979   0.024
 3732SOL    HW112095   1.431   2.953   0.014
 3732SOL    HW212096   1.584   2.919   6.993
 3733SOL     OW12097   1.556   3.812   1.249
 3733SOL    HW112098   1.603   3.741   1.196
 3733SOL    HW212099   1.461   3.819   1.218
 3734SOL     OW12100   4.213   1.454   1.874
 3734SOL    HW112101   4.217   1.547   1.836
 3734SOL    HW212102   4.124   1.440   1.918
 3735SOL     OW12103   1.587   1.918   3.628
 3735SOL    HW112104   1.665   1.858   3.644
 3735SOL    HW212105   1.576   1.934   3.530
 3736SOL     OW12106   0.024   3.377   0.558
 3736SOL    HW112107   6.951   3.369   0.574
 3736SOL    HW212108   0.070   3.300   0.602
 3737SOL     OW12109   5.422   0.263   2.960
 3737SOL    HW112110   5.339   0.229   3.004
 3737SOL    HW212111   5.399   0.342   2.903
 3738SOL     OW12112   6.736   6.467   3.437
 3738SOL    HW112113   6.681   6.505   3.363
 3738SOL    HW212114   6.676   6.426   3.506
 3739SOL     OW12115   1.823   4.433   1.902
 3739SOL    HW112116   1.729   4.464   1.890
 3739SOL    HW212117   1.881   4.475   1.832
 3740SOL     OW12118   4.609   0.182   0.169
 3740SOL    HW112119   4.619   0.083   0.180
 3740SOL    HW212120   4.643   0.209   0.079
 3741SOL     OW12121   4.665   3.364   1.514
 3741SOL    HW112122   4.674   3.269   1.487
 3741SOL    HW212123   4.694   3.424   1.439
 3742SOL     OW12124   2.729   1.956   5.530
 3742SOL    HW112125   2.648   2.015   5.521
 3742SOL    HW212126   2.797   2.002   5.586
 3743SOL     OW12127   5.463   4.499   1.033
 3743SOL    HW112128   5.541   4.437   1.047
 3743SOL    HW212129   5.463   4.569   1.104
 3744SOL     OW12130   0.973   5.510   3.247
 3744SOL    HW112131   0.943   5.430   3.299
 3744SOL    HW212132   0.964   5.592   3.303
 3745SOL     OW12133   3.469   5.406   2.139
 3745SOL    HW112134   3.445   5.311   2.160
 3745SOL    HW212135   3.403   5.443   2.073
 3746SOL     OW12136   4.383   1.439   2.132
 3746SOL    HW112137   4.440   1.386   2.069
 3746SOL    HW212138   4.287   1.432   2.104
 3747SOL     OW12139   3.442   0.051   5.896
 3747SOL    HW112140   3.452   0.118   5.970
 3747SOL    HW212141   3.482   0.088   5.812
 3748SOL     OW12142   5.459   0.445   1.728
 3748SOL    HW112143   5.461   0.542   1.701
 3748SOL    HW212144   5.394   0.432   1.803
 3749SOL     OW12145   1.561   6.439   3.810
 3749SOL    HW112146   1.611   6.354   3.794
 3749SOL    HW212147   1.510   6.464   3.728
 3750SOL     OW12148   1.867   4.262   0.224
 3750SOL    HW112149   1.964   4.284   0.212
 3750SOL    HW212150   1.858   4.186   0.288
 3751SOL     OW12151   6.715   3.665   2.438
 3751SOL    HW112152   6.789   3.657   2.371
 3751SOL    HW212153   6.635   3.706   2.394
 3752SOL     OW12154   4.908   0.756   5.323
 3752SOL    HW112155   4.871   0.764   5.231
 3752SOL    HW212156   4.909   0.660   5.350
 3753SOL     OW12157   6.025   0.395   4.759
 3753SOL    HW112158   5.985   0.303   4.755
 3753SOL    HW212159   6.031   0.433   4.666
 3754SOL     OW12160   2.314   1.078   1.980
 3754SOL    HW112161   2.248   1.091   1.906
 3754SOL    HW212162   2.405   1.064   1.942
 3755SOL     OW12163   3.321   5.704   4.633
 3755SOL    HW112164   3.287   5.672   4.545
 3755SOL    HW212165   3.374   5.631   4.676
 3756SOL     OW12166   3.026   5.444   6.555
 3756SOL    HW112167   2.936   5.441   6.512
 3756SOL    HW212168   3.097   5.439   6.485
 3757SOL     OW12169   6.687   5.115   1.846
 3757SOL    HW112170   6.610   5.051   1.840
 3757SOL    HW212171   6.766   5.069   1.886
 3758SOL     OW12172   2.037   1.329   4.599
 3758SOL    HW112173   2.018   1.243   4.647
 3758SOL    HW212174   2.136   1.338   4.586
 3759SOL     OW12175   4.276   0.679   5.200
 3759SOL    HW112176   4.372   0.707   5.203
 3759SOL    HW212177   4.225   0.740   5.139
 3760SOL     OW12178   0.024   6.862   3.483
 3760SOL    HW112179   0.072   6.855   3.570
 3760SOL    HW212180   6.956   6.893   3.498
 3761SOL     OW12181   6.416   1.065   4.378
 3761SOL    HW112182   6.419   1.094   4.473
 3761SOL    HW212183   6.509   1.050   4.344
 3762SOL     OW12184   1.342   4.110   2.359
 3762SOL    HW112185   1.353   4.049   2.280
 3762SOL    HW212186   1.256   4.087   2.406
 3763SOL     OW12187   6.057   3.853   0.321
 3763SOL    HW112188   6.141   3.880   0.369
 3763SOL    HW212189   6.061   3.755   0.301
 3764SOL     OW12190   1.957   0.656   3.009
 3764SOL    HW112191   1.868   0.699   3.021
 3764SOL    HW212192   2.006   0.656   3.096
 3765SOL     OW12193   6.028   1.602   1.674
 3765SOL    HW112194   5.970   1.550   1.610
 3765SOL    HW212195   6.118   1.616   1.634
 3766SOL     OW12196   2.196   2.230   3.987
 3766SOL    HW112197   2.162   2.144   3.951
 3766SOL    HW212198   2.282   2.215   4.035
 3767SOL     OW12199   3.693   4.107   6.122
 3767SOL    HW112200   3.753   4.176   6.163
 3767SOL    HW212201   3.614   4.092   6.181
 3768SOL     OW12202   1.094   0.584   4.487
 3768SOL    HW112203   1.040   0.662   4.457
 3768SOL    HW212204   1.187   0.592   4.451
 3769SOL     OW12205   5.663   5.462   5.319
 3769SOL    HW112206   5.695   5.549   5.283
 3769SOL    HW212207   5.585   5.430   5.265
 3770SOL     OW12208   1.455   1.303   6.886
 3770SOL    HW112209   1.536   1.351   6.920
 3770SOL    HW212210   1.373   1.345   6.925
 3771SOL     OW12211   6.007   4.970   0.245
 3771SOL    HW112212   5.937   4.909   0.281
 3771SOL    HW212213   6.087   4.916   0.216
 3772SOL     OW12214   1.223   6.620   0.096
 3772SOL    HW112215   1.277   6.689   0.145
 3772SOL    HW212216   1.233   6.634   7.024
 3773SOL     OW12217   5.317   3.925   5.751
 3773SOL    HW112218   5.361   3.932   5.662
 3773SOL    HW212219   5.231   3.976   5.750
 3774SOL     OW12220   5.779   4.828   1.528
 3774SOL    HW112221   5.687   4.858   1.504
 3774SOL    HW212222   5.787   4.820   1.627
 3775SOL     OW12223   3.853   4.814   3.524
 3775SOL    HW112224   3.829   4.881   3.454
 3775SOL    HW212225   3.950   4.792   3.516
 3776SOL     OW12226   3.538   2.933   6.114
 3776SOL    HW112227   3.541   2.985   6.199
 3776SOL    HW212228   3.519   2.994   6.037
 3777SOL     OW12229   2.591   6.089   3.004
 3777SOL    HW112230   2.513   6.105   2.943
 3777SOL    HW212231   2.558   6.073   3.097
 3778SOL     OW12232   1.755   6.255   4.309
 3778SOL    HW112233   1.675   6.227   4.257
 3778SOL    HW212234   1.732   6.335   4.365
 3779SOL     OW12235   0.156   4.973   0.733
 3779SOL    HW112236   0.250   5.005   0.746
 3779SOL    HW212237   0.113   5.024   0.659
 3780SOL     OW12238   0.463   2.790   3.121
 3780SOL    HW112239   0.408   2.826   3.045
 3780SOL    HW212240   0.514   2.864   3.163
 3781SOL     OW12241   0.671   6.589   4.674
 3781SOL    HW112242   0.757   6.635   4.699
 3781SOL    HW212243   0.616   6.574   4.756
 3782SOL     OW12244   3.698   6.500   2.456
 3782SOL    HW112245   3.640   6.570   2.415
 3782SOL    HW212246   3.653   6.411   2.449
 3783SOL     OW12247   5.618   4.968   5.116
 3783SOL    HW112248   5.585   4.878   5.144
 3783SOL    HW212249   5.581   4.991   5.026
 3784SOL     OW12250   5.409   2.551   2.095
 3784SOL    HW112251   5.475   2.570   2.168
 3784SOL    HW212252   5.316   2.560   2.131
 3785SOL     OW12253   0.977   3.003   5.104
 3785SOL    HW112254   0.924   3.043   5.028
 3785SOL    HW212255   0.918   2.995   5.184
 3786SOL     OW12256   1.980   2.848   3.053
 3786SOL    HW112257   1.882   2.842   3.033
 3786SOL    HW212258   1.998   2.933   3.103
 3787SOL     OW12259   4.811   0.163   3.061
 3787SOL    HW112260   4.871   0.150   3.141
 3787SOL    HW212261   4.719   0.186   3.092
 3788SOL     OW12262   6.412   4.582   5.169
 3788SOL    HW112263   6.334   4.602   5.229
 3788SOL    HW212264   6.417   4.483   5.152
 3789SOL     OW12265   6.759   3.460   2.940
 3789SOL    HW112266   6.732   3.368   2.912
 3789SOL    HW212267   6.752   3.522   2.862
 3790SOL     OW12268   1.002   5.696   6.731
 3790SOL    HW112269   0.945   5.774   6.705
 3790SOL    HW212270   1.076   5.685   6.665
 3791SOL     OW12271   5.086   1.901   6.822
 3791SOL    HW112272   5.105   1.997   6.803
 3791SOL    HW212273   5.063   1.853   6.737
 3792SOL     OW12274   1.225   1.261   4.197
 3792SOL    HW112275   1.241   1.304   4.108
 3792SOL    HW212276   1.200   1.330   4.264
 3793SOL     OW12277   5.452   6.307   1.236
 3793SOL    HW112278   5.470   6.209   1.232
 3793SOL    HW212279   5.538   6.356   1.248
 3794SOL     OW12280   2.248   2.928   1.524
 3794SOL    HW112281   2.250   2.977   1.612
 3794SOL    HW212282   2.318   2.858   1.524
 3795SOL     OW12283   3.141   5.461   1.038
 3795SOL    HW112284   3.141   5.495   0.944
 3795SOL    HW212285   3.235   5.454   1.071
 3796SOL     OW12286   4.419   1.832   1.183
 3796SOL    HW112287   4.380   1.910   1.231
 3796SOL    HW212288   4.457   1.862   1.095
 3797SOL     OW12289   1.106   3.985   3.294
 3797SOL    HW112290   1.110   3.890   3.263
 3797SOL    HW212291   1.062   3.989   3.384
 3798SOL     OW12292   2.719   6.544   2.364
 3798SOL    HW112293   2.723   6.456   2.411
 3798SOL    HW212294   2.727   6.618   2.430
 3799SOL     OW12295   0.001   2.479   3.627
 3799SOL    HW112296   6.992   2.456   3.718
 3799SOL    HW212297   6.952   2.515   3.571
 3800SOL     OW12298   4.849   1.832   3.593
 3800SOL    HW112299   4.931   1.880   3.561
 3800SOL    HW212300   4.828   1.757   3.531
 3801SOL     OW12301   5.362   0.000   1.892
 3801SOL    HW112302   5.353   6.928   1.874
 3801SOL    HW212303   5.458   0.022   1.911
 3802SOL     OW12304   0.412   1.804   2.604
 3802SOL    HW112305   0.344   1.733   2.623
 3802SOL    HW212306   0.484   1.801   2.674
 3803SOL     OW12307   3.849   3.731   4.078
 3803SOL    HW112308   3.780   3.666   4.112
 3803SOL    HW212309   3.938   3.686   4.074
 3804SOL     OW12310   2.785   1.896   4.091
 3804SOL    HW112311   2.717   1.936   4.153
 3804SOL    HW212312   2.868   1.952   4.091
 3805SOL     OW12313   1.776   2.554   1.723
 3805SOL    HW112314   1.769   2.654   1.717
 3805SOL    HW212315   1.868   2.530   1.753
 3806SOL     OW12316   3.993   3.613   6.554
 3806SOL    HW112317   4.060   3.682   6.581
 3806SOL    HW212318   3.929   3.596   6.629
 3807SOL     OW12319   1.542   4.608   4.648
 3807SOL    HW112320   1.484   4.668   4.591
 3807SOL    HW212321   1.636   4.641   4.646
 3808SOL     OW12322   4.781   0.401   5.914
 3808SOL    HW112323   4.819   0.399   6.006
 3808SOL    HW212324   4.742   0.311   5.892
 3809SOL     OW12325   5.944   1.940   2.278
 3809SOL    HW112326   5.871   1.901   2.222
 3809SOL    HW212327   6.030   1.937   2.228
 3810SOL     OW12328   0.001   2.399   3.228
 3810SOL    HW112329   7.007   2.303   3.211
 3810SOL    HW212330   0.096   2.409   3.256
 3811SOL     OW12331   0.300   6.182   4.295
 3811SOL    HW112332   0.377   6.118   4.291
 3811SOL    HW212333   0.226   6.147   4.238
 3812SOL     OW12334   3.085   5.285   6.181
 3812SOL    HW112335   3.001   5.326   6.146
 3812SOL    HW212336   3.150   5.274   6.106
 3813SOL     OW12337   5.671   3.974   0.896
 3813SOL    HW112338   5.610   4.003   0.823
 3813SOL    HW212339   5.766   3.987   0.867
 3814SOL     OW12340   0.018   6.893   3.841
 3814SOL    HW112341   0.031   6.795   3.828
 3814SOL    HW212342   0.079   6.944   3.780
 3815SOL     OW12343   4.603   2.549   0.833
 3815SOL    HW112344   4.592   2.612   0.910
 3815SOL    HW212345   4.523   2.553   0.774
 3816SOL     OW12346   1.002   5.233   4.949
 3816SOL    HW112347   0.938   5.181   5.006
 3816SOL    HW212348   0.953   5.309   4.906
 3817SOL     OW12349   4.908   3.299   1.970
 3817SOL    HW112350   4.888   3.229   2.039
 3817SOL    HW212351   5.006   3.296   1.947
 3818SOL     OW12352   0.066   0.799   1.188
 3818SOL    HW112353   0.044   0.708   1.154
 3818SOL    HW212354   0.164   0.805   1.208
 3819SOL     OW12355   6.284   4.149   2.551
 3819SOL    HW112356   6.321   4.236   2.584
 3819SOL    HW212357   6.210   4.120   2.612
 3820SOL     OW12358   5.851   6.348   3.429
 3820SOL    HW112359   5.794   6.429   3.421
 3820SOL    HW212360   5.913   6.358   3.507
 3821SOL     OW12361   0.997   0.811   1.057
 3821SOL    HW112362   1.032   0.901   1.085
 3821SOL    HW212363   0.971   0.814   0.961
 3822SOL     OW12364   2.684   0.341   6.334
 3822SOL    HW112365   2.639   0.253   6.318
 3822SOL    HW212366   2.731   0.369   6.250
 3823SOL     OW12367   4.610   4.238   6.386
 3823SOL    HW112368   4.677   4.308   6.414
 3823SOL    HW212369   4.520   4.262   6.423
 3824SOL     OW12370   0.811   2.396   0.925
 3824SOL    HW112371   0.793   2.494   0.937
 3824SOL    HW212372   0.866   2.363   1.003
 3825SOL     OW12373   0.824   3.992   0.924
 3825SOL    HW112374   0.877   3.967   1.005
 3825SOL    HW212375   0.759   3.919   0.904
 3826SOL     OW12376   6.905   3.568   1.765
 3826SOL    HW112377   6.934   3.500   1.698
 3826SOL    HW212378   6.971   3.643   1.767
 3827SOL     OW12379   0.369   0.367   1.281
 3827SOL    HW112380   0.425   0.297   1.325
 3827SOL    HW212381   0.344   0.437   1.348
 3828SOL     OW12382   3.619   3.872   4.693
 3828SOL    HW112383   3.520   3.857   4.693
 3828SOL    HW212384   3.654   3.869   4.786
 3829SOL     OW12385   0.489   5.162   1.914
 3829SOL    HW112386   0.467   5.069   1.886
 3829SOL    HW212387   0.503   5.164   2.013
 3830SOL     OW12388   0.365   1.341   5.673
 3830SOL    HW112389   0.453   1.348   5.719
 3830SOL    HW212390   0.313   1.425   5.689
 3831SOL     OW12391   4.199   2.127   2.622
 3831SOL    HW112392   4.266   2.095   2.689
 3831SOL    HW212393   4.245   2.150   2.536
 3832SOL     OW12394   6.957   0.505   2.770
 3832SOL    HW112395   6.946   0.550   2.681
 3832SOL    HW212396   7.003   0.417   2.758
 3833SOL     OW12397   1.063   6.704   6.259
 3833SOL    HW112398   1.151   6.677   6.298
 3833SOL    HW212399   1.070   6.797   6.222
 3834SOL     OW12400   4.017   4.371   1.116
 3834SOL    HW112401   3.982   4.279   1.131
 3834SOL    HW212402   3.981   4.408   1.031
 3835SOL     OW12403   4.025   5.752   5.260
 3835SOL    HW112404   4.051   5.685   5.191
 3835SOL    HW212405   3.934   5.787   5.239
 3836SOL     OW12406   0.291   5.136   5.643
 3836SOL    HW112407   0.239   5.051   5.653
 3836SOL    HW212408   0.246   5.210   5.693
 3837SOL     OW12409   4.526   5.124   5.193
 3837SOL    HW112410   4.605   5.183   5.211
 3837SOL    HW212411   4.552   5.052   5.128
 3838SOL     OW12412   1.741   2.604   2.992
 3838SOL    HW112413   1.796   2.583   3.072
 3838SOL    HW212414   1.675   2.675   3.014
 3839SOL     OW12415   4.579   1.399   2.531
 3839SOL    HW112416   4.545   1.308   2.506
 3839SOL    HW212417   4.638   1.392   2.611
 3840SOL     OW12418   3.152   1.917   6.543
 3840SOL    HW112419   3.076   1.976   6.513
 3840SOL    HW212420   3.229   1.928   6.479
 3841SOL     OW12421   0.891   3.804   4.635
 3841SOL    HW112422   0.882   3.844   4.543
 3841SOL    HW212423   0.916   3.876   4.700
 3842SOL     OW12424   2.549   2.565   3.888
 3842SOL    HW112425   2.466   2.516   3.860
 3842SOL    HW212426   2.524   2.639   3.951
 3843SOL     OW12427   5.171   3.024   1.545
 3843SOL    HW112428   5.134   3.076   1.622
 3843SOL    HW212429   5.127   2.934   1.542
 3844SOL     OW12430   1.518   3.680   6.510
 3844SOL    HW112431   1.616   3.664   6.495
 3844SOL    HW212432   1.485   3.622   6.584
 3845SOL     OW12433   2.951   5.594   6.184
 3845SOL    HW112434   3.003   5.590   6.099
 3845SOL    HW212435   3.009   5.567   6.261
 3846SOL     OW12436   1.121   3.863   4.103
 3846SOL    HW112437   1.186   3.842   4.030
 3846SOL    HW212438   1.159   3.835   4.191
 3847SOL     OW12439   5.208   2.787   4.464
 3847SOL    HW112440   5.139   2.821   4.528
 3847SOL    HW212441   5.277   2.857   4.448
 3848SOL     OW12442   4.879   4.108   2.424
 3848SOL    HW112443   4.850   4.061   2.341
 3848SOL    HW212444   4.917   4.040   2.488
 3849SOL     OW12445   1.114   1.036   5.974
 3849SOL    HW112446   1.017   1.016   5.959
 3849SOL    HW212447   1.167   1.006   5.894
 3850SOL     OW12448   2.848   3.281   1.999
 3850SOL    HW112449   2.785   3.275   1.921
 3850SOL    HW212450   2.935   3.237   1.974
 3851SOL     OW12451   6.733   4.687   3.326
 3851SOL    HW112452   6.815   4.700   3.271
 3851SOL    HW212453   6.659   4.745   3.291
 3852SOL     OW12454   3.276   5.913   3.755
 3852SOL    HW112455   3.340   5.990   3.749
 3852SOL    HW212456   3.197   5.929   3.696
 3853SOL     OW12457   1.190   3.436   3.294
 3853SOL    HW112458   1.130   3.369   3.337
 3853SOL    HW212459   1.250   3.477   3.363
 3854SOL     OW12460   1.024   2.546   2.556
 3854SOL    HW112461   1.075   2.518   2.474
 3854SOL    HW212462   1.088   2.584   2.623
 3855SOL     OW12463   4.432   6.220   6.735
 3855SOL    HW112464   4.439   6.198   6.637
 3855SOL    HW212465   4.401   6.314   6.746
 3856SOL     OW12466   0.702   1.222   6.163
 3856SOL    HW112467   0.763   1.156   6.209
 3856SOL    HW212468   0.667   1.287   6.230
 3857SOL     OW12469   0.871   6.394   0.018
 3857SOL    HW112470   0.842   6.457   6.973
 3857SOL    HW212471   0.828   6.305   0.003
 3858SOL     OW12472   3.353   1.359   5.992
 3858SOL    HW112473   3.373   1.456   6.008
 3858SOL    HW212474   3.439   1.308   5.993
 3859SOL     OW12475   6.210   0.876   1.743
 3859SOL    HW112476   6.210   0.835   1.652
 3859SOL    HW212477   6.300   0.866   1.784
 3860SOL     OW12478   1.716   0.963   4.294
 3860SOL    HW112479   1.645   1.033   4.303
 3860SOL    HW212480   1.675   0.873   4.307
 3861SOL     OW12481   4.569   5.397   3.695
 3861SOL    HW112482   4.616   5.485   3.690
 3861SOL    HW212483   4.612   5.340   3.766
 3862SOL     OW12484   0.455   0.819   4.604
 3862SOL    HW112485   0.418   0.726   4.613
 3862SOL    HW212486   0.500   0.845   4.690
 3863SOL     OW12487   6.259   2.072   6.989
 3863SOL    HW112488   6.237   2.170   6.985
 3863SOL    HW212489   6.194   2.025   0.022
 3864SOL     OW12490   2.285   0.669   5.281
 3864SOL    HW112491   2.293   0.742   5.349
 3864SOL    HW212492   2.313   0.582   5.322
 3865SOL     OW12493   4.222   1.138   1.180
 3865SOL    HW112494   4.137   1.104   1.221
 3865SOL    HW212495   4.269   1.197   1.246
 3866SOL     OW12496   4.041   0.278   0.444
 3866SOL    HW112497   4.133   0.301   0.475
 3866SOL    HW212498   3.976   0.344   0.482
 3867SOL     OW12499   0.783   4.719   3.565
 3867SOL    HW112500   0.693   4.755   3.588
 3867SOL    HW212501   0.853   4.784   3.594
 3868SOL     OW12502   3.541   0.310   0.351
 3868SOL    HW112503   3.610   0.253   0.395
 3868SOL    HW212504   3.517   0.270   0.262
 3869SOL     OW12505   6.524   2.984   4.121
 3869SOL    HW112506   6.600   3.038   4.156
 3869SOL    HW212507   6.544   2.887   4.135
 3870SOL     OW12508   0.012   6.452   1.021
 3870SOL    HW112509   6.976   6.442   0.943
 3870SOL    HW212510   0.059   6.540   1.015
 3871SOL     OW12511   3.572   0.717   3.363
 3871SOL    HW112512   3.626   0.751   3.286
 3871SOL    HW212513   3.477   0.709   3.336
 3872SOL     OW12514   3.211   3.270   4.743
 3872SOL    HW112515   3.192   3.224   4.830
 3872SOL    HW212516   3.270   3.212   4.687
 3873SOL     OW12517   5.602   3.720   1.248
 3873SOL    HW112518   5.695   3.754   1.236
 3873SOL    HW212519   5.545   3.792   1.286
 3874SOL     OW12520   4.645   6.623   0.267
 3874SOL    HW112521   4.630   6.584   0.176
 3874SOL    HW212522   4.691   6.712   0.257
 3875SOL     OW12523   2.099   3.377   3.119
 3875SOL    HW112524   2.129   3.470   3.139
 3875SOL    HW212525   2.060   3.336   3.201
 3876SOL     OW12526   3.874   5.178   1.155
 3876SOL    HW112527   3.828   5.246   1.097
 3876SOL    HW212528   3.939   5.224   1.215
 3877SOL     OW12529   6.218   2.335   1.520
 3877SOL    HW112530   6.182   2.398   1.451
 3877SOL    HW212531   6.167   2.249   1.517
 3878SOL     OW12532   4.331   6.273   4.693
 3878SOL    HW112533   4.327   6.312   4.601
 3878SOL    HW212534   4.390   6.329   4.751
 3879SOL     OW12535   6.210   5.475   1.117
 3879SOL    HW112536   6.272   5.523   1.181
 3879SOL    HW212537   6.121   5.519   1.119
 3880SOL     OW12538   5.232   4.171   4.744
 3880SOL    HW112539   5.326   4.179   4.712
 3880SOL    HW212540   5.169   4.202   4.672
 3881SOL     OW12541   0.923   3.448   1.437
 3881SOL    HW112542   0.842   3.502   1.457
 3881SOL    HW212543   0.994   3.467   1.505
 3882SOL     OW12544   0.946   1.590   5.824
 3882SOL    HW112545   0.982   1.641   5.902
 3882SOL    HW212546   0.995   1.503   5.815
 3883SOL     OW12547   3.984   1.222   2.098
 3883SOL    HW112548   4.046   1.281   2.149
 3883SOL    HW212549   3.892   1.229   2.137
 3884SOL     OW12550   0.972   6.165   2.246
 3884SOL    HW112551   0.932   6.142   2.158
 3884SOL    HW212552   1.001   6.081   2.293
 3885SOL     OW12553   6.320   5.379   2.685
 3885SOL    HW112554   6.320   5.370   2.784
 3885SOL    HW212555   6.394   5.440   2.657
 3886SOL     OW12556   5.143   5.650   4.902
 3886SOL    HW112557   5.055   5.694   4.922
 3886SOL    HW212558   5.133   5.592   4.821
 3887SOL     OW12559   1.400   0.292   6.734
 3887SOL    HW112560   1.377   0.208   6.783
 3887SOL    HW212561   1.321   0.354   6.735
 3888SOL     OW12562   6.786   0.623   5.351
 3888SOL    HW112563   6.800   0.722   5.350
 3888SOL    HW212564   6.776   0.592   5.446
 3889SOL     OW12565   6.940   3.968   0.223
 3889SOL    HW112566   6.912   4.064   0.218
 3889SOL    HW212567   6.861   3.912   0.250
 3890SOL     OW12568   6.525   4.768   3.040
 3890SOL    HW112569   6.517   4.809   3.131
 3890SOL    HW212570   6.463   4.815   2.977
 3891SOL     OW12571   5.336   3.710   4.187
 3891SOL    HW112572   5.276   3.734   4.264
 3891SOL    HW212573   5.376   3.793   4.149
 3892SOL     OW12574   6.943   1.603   1.586
 3892SOL    HW112575   7.012   1.637   1.650
 3892SOL    HW212576   6.972   1.623   1.492
 3893SOL     OW12577   4.312   4.308   0.078
 3893SOL    HW112578   4.366   4.231   0.045
 3893SOL    HW212579   4.369   4.369   0.133
 3894SOL     OW12580   4.180   0.980   0.620
 3894SOL    HW112581   4.141   1.001   0.531
 3894SOL    HW212582   4.184   1.063   0.675
 3895SOL     OW12583   1.809   0.641   5.759
 3895SOL    HW112584   1.788   0.712   5.826
 3895SOL    HW212585   1.743   0.646   5.684
 3896SOL     OW12586   0.018   1.175   5.104
 3896SOL    HW112587   6.967   1.155   5.045
 3896SOL    HW212588   0.073   1.092   5.116
 3897SOL     OW12589   3.714   5.919   2.879
 3897SOL    HW112590   3.777   5.957   2.946
 3897SOL    HW212591   3.638   5.874   2.926
 3898SOL     OW12592   2.077   3.223   5.932
 3898SOL    HW112593   2.096   3.201   5.836
 3898SOL    HW212594   2.157   3.268   5.972
 3899SOL     OW12595   4.512   6.547   5.496
 3899SOL    HW112596   4.552   6.594   5.417
 3899SOL    HW212597   4.585   6.506   5.551
 3900SOL     OW12598   4.718   2.796   3.621
 3900SOL    HW112599   4.669   2.711   3.638
 3900SOL    HW212600   4.726   2.847   3.707
 3901SOL     OW12601   2.683   0.347   5.399
 3901SOL    HW112602   2.618   0.408   5.444
 3901SOL    HW212603   2.752   0.317   5.465
 3902SOL     OW12604   5.915   3.060   1.580
 3902SOL    HW112605   5.879   3.142   1.626
 3902SOL    HW212606   5.841   3.014   1.532
 3903SOL     OW12607   3.869   6.165   6.113
 3903SOL    HW112608   3.794   6.123   6.164
 3903SOL    HW212609   3.950   6.173   6.171
 3904SOL     OW12610   2.773   1.498   5.410
 3904SOL    HW112611   2.698   1.553   5.373
 3904SOL    HW212612   2.767   1.405   5.375
 3905SOL     OW12613   0.595   6.997   7.008
 3905SOL    HW112614   0.573   6.901   7.025
 3905SOL    HW212615   0.634   0.011   0.064
 3906SOL     OW12616   5.717   6.083   5.557
 3906SOL    HW112617   5.767   6.134   5.486
 3906SOL    HW212618   5.620   6.109   5.554
 3907SOL     OW12619   5.649   0.943   3.663
 3907SOL    HW112620   5.705   0.874   3.616
 3907SOL    HW212621   5.683   0.956   3.756
 3908SOL     OW12622   1.368   2.261   0.518
 3908SOL    HW112623   1.438   2.279   0.587
 3908SOL    HW212624   1.340   2.347   0.475
 3909SOL     OW12625   6.893   5.832   5.377
 3909SOL    HW112626   6.803   5.832   5.420
 3909SOL    HW212627   6.962   5.802   5.443
 3910SOL     OW12628   3.602   3.176   2.636
 3910SOL    HW112629   3.563   3.105   2.696
 3910SOL    HW212630   3.579   3.155   2.541
 3911SOL     OW12631   4.629   1.844   6.447
 3911SOL    HW112632   4.686   1.922   6.422
 3911SOL    HW212633   4.686   1.761   6.449
 3912SOL     OW12634   4.300   0.408   5.223
 3912SOL    HW112635   4.266   0.384   5.314
 3912SOL    HW212636   4.289   0.506   5.208
 3913SOL     OW12637   2.000   6.974   6.313
 3913SOL    HW112638   2.089   6.998   6.275
 3913SOL    HW212639   2.009   6.963   6.412
 3914SOL     OW12640   3.204   0.839   0.965
 3914SOL    HW112641   3.138   0.860   1.038
 3914SOL    HW212642   3.291   0.812   1.006
 3915SOL     OW12643   4.132   5.286   2.235
 3915SOL    HW112644   4.151   5.379   2.206
 3915SOL    HW212645   4.177   5.222   2.173
 3916SOL     OW12646   1.581   6.646   4.116
 3916SOL    HW112647   1.606   6.703   4.194
 3916SOL    HW212648   1.541   6.560   4.149
 3917SOL     OW12649   6.326   5.661   0.057
 3917SOL    HW112650   6.353   5.753   0.086
 3917SOL    HW212651   6.386   5.594   0.100
 3918SOL     OW12652   4.489   6.482   1.706
 3918SOL    HW112653   4.488   6.582   1.709
 3918SOL    HW212654   4.467   6.451   1.614
 3919SOL     OW12655   2.173   6.451   6.396
 3919SOL    HW112656   2.140   6.542   6.371
 3919SOL    HW212657   2.257   6.431   6.346
 3920SOL     OW12658   3.497   2.758   0.845
 3920SOL    HW112659   3.439   2.788   0.921
 3920SOL    HW212660   3.587   2.732   0.881
 3921SOL     OW12661   0.417   3.206   1.382
 3921SOL    HW112662   0.400   3.151   1.465
 3921SOL    HW212663   0.456   3.148   1.311
 3922SOL     OW12664   5.919   3.681   1.788
 3922SOL    HW112665   5.898   3.682   1.691
 3922SOL    HW212666   5.944   3.773   1.818
 3923SOL     OW12667   6.420   1.829   6.725
 3923SOL    HW112668   6.491   1.760   6.739
 3923SOL    HW212669   6.439   1.881   6.642
 3924SOL     OW12670   0.329   4.694   3.588
 3924SOL    HW112671   0.375   4.675   3.502
 3924SOL    HW212672   0.233   4.716   3.571
 3925SOL     OW12673   2.941   5.023   0.926
 3925SOL    HW112674   2.852   4.978   0.920
 3925SOL    HW212675   3.007   4.962   0.970
 3926SOL     OW12676   6.917   5.889   3.239
 3926SOL    HW112677   6.940   5.793   3.252
 3926SOL    HW212678   6.962   5.923   3.157
 3927SOL     OW12679   6.525   2.954   3.589
 3927SOL    HW112680   6.435   2.979   3.553
 3927SOL    HW212681   6.575   3.036   3.616
 3928SOL     OW12682   3.417   6.256   5.512
 3928SOL    HW112683   3.372   6.173   5.480
 3928SOL    HW212684   3.431   6.318   5.434
 3929SOL     OW12685   6.879   1.286   5.571
 3929SOL    HW112686   6.920   1.207   5.616
 3929SOL    HW212687   6.920   1.299   5.481
 3930SOL     OW12688   2.432   1.450   3.390
 3930SOL    HW112689   2.425   1.476   3.486
 3930SOL    HW212690   2.527   1.428   3.368
 3931SOL     OW12691   1.851   1.486   1.847
 3931SOL    HW112692   1.772   1.492   1.909
 3931SOL    HW212693   1.894   1.397   1.855
 3932SOL     OW12694   1.511   4.191   3.162
 3932SOL    HW112695   1.507   4.224   3.068
 3932SOL    HW212696   1.505   4.091   3.162
 3933SOL     OW12697   2.041   6.364   0.283
 3933SOL    HW112698   1.992   6.324   0.206
 3933SOL    HW212699   2.029   6.307   0.364
 3934SOL     OW12700   6.597   1.331   0.569
 3934SOL    HW112701   6.608   1.236   0.598
 3934SOL    HW212702   6.630   1.341   0.475
 3935SOL     OW12703   2.865   6.896   6.591
 3935SOL    HW112704   2.957   6.933   6.579
 3935SOL    HW212705   2.867   6.822   6.658
 3936SOL     OW12706   0.129   4.955   5.354
 3936SOL    HW112707   0.190   4.890   5.308
 3936SOL    HW212708   0.070   4.905   5.418
 3937SOL     OW12709   6.730   0.973   2.965
 3937SOL    HW112710   6.768   1.033   3.035
 3937SOL    HW212711   6.793   0.896   2.950
 3938SOL     OW12712   0.345   1.195   4.122
 3938SOL    HW112713   0.376   1.100   4.118
 3938SOL    HW212714   0.388   1.240   4.201
 3939SOL     OW12715   2.240   1.868   2.502
 3939SOL    HW112716   2.219   1.888   2.406
 3939SOL    HW212717   2.227   1.950   2.557
 3940SOL     OW12718   4.596   5.308   1.660
 3940SOL    HW112719   4.654   5.309   1.741
 3940SOL    HW212720   4.567   5.401   1.639
 3941SOL     OW12721   4.547   2.708   6.549
 3941SOL    HW112722   4.600   2.709   6.465
 3941SOL    HW212723   4.492   2.625   6.553
 3942SOL     OW12724   0.278   0.287   6.953
 3942SOL    HW112725   0.367   0.270   6.909
 3942SOL    HW212726   0.267   0.385   6.969
 3943SOL     OW12727   6.734   3.697   3.127
 3943SOL    HW112728   6.750   3.763   3.054
 3943SOL    HW212729   6.707   3.609   3.087
 3944SOL     OW12730   5.143   3.020   5.043
 3944SOL    HW112731   5.070   3.056   5.100
 3944SOL    HW212732   5.225   3.005   5.099
 3945SOL     OW12733   0.389   1.644   1.424
 3945SOL    HW112734   0.387   1.700   1.507
 3945SOL    HW212735   0.400   1.548   1.449
 3946SOL     OW12736   5.721   6.162   6.006
 3946SOL    HW112737   5.706   6.148   6.104
 3946SOL    HW212738   5.682   6.085   5.955
 3947SOL     OW12739   5.996   5.674   0.820
 3947SOL    HW112740   5.954   5.640   0.736
 3947SOL    HW212741   5.960   5.624   0.899
 3948SOL     OW12742   1.395   5.868   1.773
 3948SOL    HW112743   1.460   5.792   1.773
 3948SOL    HW212744   1.303   5.833   1.758
 3949SOL     OW12745   5.191   0.226   3.091
 3949SOL    HW112746   5.111   0.223   3.030
 3949SOL    HW212747   5.164   0.191   3.181
 3950SOL     OW12748   1.752   4.147   1.448
 3950SOL    HW112749   1.827   4.086   1.422
 3950SOL    HW212750   1.673   4.128   1.390
 3951SOL     OW12751   6.201   6.513   0.616
 3951SOL    HW112752   6.101   6.518   0.614
 3951SOL    HW212753   6.231   6.426   0.578
 3952SOL     OW12754   6.374   3.506   2.692
 3952SOL    HW112755   6.323   3.591   2.676
 3952SOL    HW212756   6.424   3.481   2.609
 3953SOL     OW12757   4.048   4.525   1.691
 3953SOL    HW112758   4.128   4.469   1.714
 3953SOL    HW212759   4.055   4.556   1.597
 3954SOL     OW12760   4.565   4.933   5.001
 3954SOL    HW112761   4.639   4.915   4.936
 3954SOL    HW212762   4.528   4.846   5.034
 3955SOL     OW12763   3.193   5.461   6.358
 3955SOL    HW112764   3.266   5.517   6.318
 3955SOL    HW212765   3.167   5.390   6.293
 3956SOL     OW12766   6.827   0.774   3.857
 3956SOL    HW112767   6.899   0.825   3.904
 3956SOL    HW212768   6.865   0.727   3.778
 3957SOL     OW12769   4.579   6.386   3.815
 3957SOL    HW112770   4.552   6.291   3.833
 3957SOL    HW212771   4.647   6.415   3.882
 3958SOL     OW12772   5.739   0.541   5.049
 3958SOL    HW112773   5.702   0.594   4.972
 3958SOL    HW212774   5.673   0.469   5.075
 3959SOL     OW12775   4.272   6.225   0.799
 3959SOL    HW112776   4.193   6.231   0.861
 3959SOL    HW212777   4.240   6.215   0.705
 3960SOL     OW12778   4.685   1.559   6.725
 3960SOL    HW112779   4.620   1.633   6.745
 3960SOL    HW212780   4.676   1.487   6.794
 3961SOL     OW12781   5.251   2.204   2.751
 3961SOL    HW112782   5.309   2.227   2.673
 3961SOL    HW212783   5.241   2.285   2.809
 3962SOL     OW12784   2.415   4.295   0.104
 3962SOL    HW112785   2.500   4.288   0.052
 3962SOL    HW212786   2.424   4.367   0.173
 3963SOL     OW12787   4.527   4.858   4.196
 3963SOL    HW112788   4.590   4.782   4.179
 3963SOL    HW212789   4.470   4.837   4.275
 3964SOL     OW12790   4.330   5.056   3.494
 3964SOL    HW112791   4.409   5.118   3.494
 3964SOL    HW212792   4.346   4.984   3.562
 3965SOL     OW12793   4.758   3.072   5.898
 3965SOL    HW112794   4.662   3.089   5.880
 3965SOL    HW212795   4.808   3.159   5.899
 3966SOL     OW12796   5.326   5.750   0.051
 3966SOL    HW112797   5.398   5.741   7.008
 3966SOL    HW212798   5.300   5.660   0.085
 3967SOL     OW12799   1.627   3.778   1.847
 3967SOL    HW112800   1.567   3.754   1.923
 3967SOL    HW212801   1.597   3.865   1.808
 3968SOL     OW12802   5.133   0.609   1.369
 3968SOL    HW112803   5.113   0.674   1.443
 3968SOL    HW212804   5.119   0.516   1.403
 3969SOL     OW12805   1.615   4.207   1.991
 3969SOL    HW112806   1.657   4.128   2.034
 3969SOL    HW212807   1.627   4.200   1.891
 3970SOL     OW12808   6.520   6.017   3.422
 3970SOL    HW112809   6.586   6.067   3.367
 3970SOL    HW212810   6.451   5.976   3.363
 3971SOL     OW12811   2.615   4.636   2.452
 3971SOL    HW112812   2.669   4.670   2.376
 3971SOL    HW212813   2.538   4.583   2.417
 3972SOL     OW12814   1.216   4.436   0.886
 3972SOL    HW112815   1.170   4.447   0.798
 3972SOL    HW212816   1.304   4.391   0.872
 3973SOL     OW12817   1.801   5.159   6.748
 3973SOL    HW112818   1.873   5.159   6.817
 3973SOL    HW212819   1.816   5.083   6.684
 3974SOL     OW12820   2.237   1.031   4.218
 3974SOL    HW112821   2.161   0.980   4.259
 3974SOL    HW212822   2.200   1.103   4.160
 3975SOL     OW12823   5.669   0.935   5.035
 3975SOL    HW112824   5.571   0.920   5.042
 3975SOL    HW212825   5.710   0.925   5.126
 3976SOL     OW12826   1.888   6.678   1.640
 3976SOL    HW112827   1.850   6.586   1.637
 3976SOL    HW212828   1.816   6.745   1.621
 3977SOL     OW12829   2.659   3.909   5.622
 3977SOL    HW112830   2.643   3.923   5.720
 3977SOL    HW212831   2.660   3.997   5.575
 3978SOL     OW12832   5.531   5.030   4.851
 3978SOL    HW112833   5.443   5.062   4.817
 3978SOL    HW212834   5.604   5.088   4.815
 3979SOL     OW12835   2.892   6.289   0.939
 3979SOL    HW112836   2.860   6.288   1.034
 3979SOL    HW212837   2.847   6.363   0.889
 3980SOL     OW12838   6.630   5.551   0.516
 3980SOL    HW112839   6.689   5.504   0.451
 3980SOL    HW212840   6.678   5.630   0.554
 3981SOL     OW12841   2.563   0.608   0.084
 3981SOL    HW112842   2.644   0.569   0.041
 3981SOL    HW212843   2.509   0.657   0.016
 3982SOL     OW12844   2.241   0.199   3.879
 3982SOL    HW112845   2.213   0.154   3.795
 3982SOL    HW212846   2.310   0.144   3.925
 3983SOL     OW12847   5.444   4.801   3.870
 3983SOL    HW112848   5.454   4.760   3.961
 3983SOL    HW212849   5.453   4.900   3.877
 3984SOL     OW12850   6.449   1.358   3.232
 3984SOL    HW112851   6.379   1.290   3.210
 3984SOL    HW212852   6.534   1.311   3.254
 3985SOL     OW12853   3.306   4.351   6.477
 3985SOL    HW112854   3.257   4.375   6.393
 3985SOL    HW212855   3.259   4.275   6.522
 3986SOL     OW12856   6.185   2.677   3.139
 3986SOL    HW112857   6.132   2.601   3.101
 3986SOL    HW212858   6.225   2.650   3.226
 3987SOL     OW12859   3.356   5.310   4.049
 3987SOL    HW112860   3.286   5.343   3.985
 3987SOL    HW212861   3.444   5.303   4.001
 3988SOL     OW12862   3.814   4.382   0.156
 3988SOL    HW112863   3.818   4.394   0.255
 3988SOL    HW212864   3.894   4.330   0.126
 3989SOL     OW12865   6.571   2.775   0.098
 3989SOL    HW112866   6.579   2.677   0.118
 3989SOL    HW212867   6.648   2.803   0.040
 3990SOL     OW12868   5.056   2.022   2.663
 3990SOL    HW112869   5.096   1.979   2.582
 3990SOL    HW212870   5.124   2.081   2.707
 3991SOL     OW12871   5.852   1.115   2.638
 3991SOL    HW112872   5.916   1.142   2.567
 3991SOL    HW212873   5.792   1.191   2.660
 3992SOL     OW12874   3.981   2.475   0.560
 3992SOL    HW112875   3.949   2.565   0.591
 3992SOL    HW212876   4.053   2.487   0.492
 3993SOL     OW12877   1.531   1.925   2.596
 3993SOL    HW112878   1.458   1.921   2.665
 3993SOL    HW212879   1.553   1.833   2.566
 3994SOL     OW12880   1.284   0.693   5.649
 3994SOL    HW112881   1.348   0.745   5.706
 3994SOL    HW212882   1.263   0.606   5.693
 3995SOL     OW12883   2.214   3.656   5.795
 3995SOL    HW112884   2.210   3.747   5.753
 3995SOL    HW212885   2.134   3.643   5.853
 3996SOL     OW12886   1.219   0.150   4.420
 3996SOL    HW112887   1.287   0.081   4.394
 3996SOL    HW212888   1.265   0.230   4.457
 3997SOL     OW12889   5.311   1.418   4.367
 3997SOL    HW112890   5.379   1.473   4.318
 3997SOL    HW212891   5.343   1.324   4.374
 3998SOL     OW12892   4.216   1.391   4.334
 3998SOL    HW112893   4.308   1.431   4.336
 3998SOL    HW212894   4.157   1.441   4.397
 3999SOL     OW12895   5.842   3.372   4.164
 3999SOL    HW112896   5.914   3.400   4.229
 3999SOL    HW212897   5.883   3.326   4.086
 4000SOL     OW12898   2.921   5.900   3.347
 4000SOL    HW112899   2.952   5.921   3.440
 4000SOL    HW212900   2.999   5.868   3.293
 4001SOL     OW12901   2.713   2.101   3.510
 4001SOL    HW112902   2.692   2.067   3.419
 4001SOL    HW212903   2.726   2.024   3.573
 4002SOL     OW12904   3.036   3.522   0.467
 4002SOL    HW112905   3.095   3.460   0.415
 4002SOL    HW212906   2.996   3.473   0.544
 4003SOL     OW12907   3.085   6.691   3.615
 4003SOL    HW112908   3.000   6.654   3.578
 4003SOL    HW212909   3.111   6.773   3.565
 4004SOL     OW12910   5.013   1.825   4.648
 4004SOL    HW112911   4.924   1.854   4.612
 4004SOL    HW212912   5.066   1.781   4.575
 4005SOL     OW12913   5.235   5.155   0.470
 4005SOL    HW112914   5.208   5.060   0.453
 4005SOL    HW212915   5.181   5.192   0.545
 4006SOL     OW12916   4.303   4.958   2.376
 4006SOL    HW112917   4.287   4.995   2.467
 4006SOL    HW212918   4.376   5.010   2.331
 4007SOL     OW12919   0.435   1.697   0.836
 4007SOL    HW112920   0.483   1.785   0.841
 4007SOL    HW212921   0.446   1.649   0.923
 4008SOL     OW12922   3.184   2.042   3.924
 4008SOL    HW112923   3.170   1.948   3.894
 4008SOL    HW212924   3.205   2.100   3.845
 4009SOL     OW12925   4.582   3.420   0.896
 4009SOL    HW112926   4.641   3.340   0.893
 4009SOL    HW212927   4.553   3.444   0.803
 4010SOL     OW12928   2.753   3.371   1.465
 4010SOL    HW112929   2.750   3.336   1.372
 4010SOL    HW212930   2.835   3.427   1.477
 4011SOL     OW12931   0.427   0.917   2.008
 4011SOL    HW112932   0.519   0.883   1.987
 4011SOL    HW212933   0.409   0.999   1.953
 4012SOL     OW12934   5.404   5.219   1.654
 4012SOL    HW112935   5.374   5.313   1.640
 4012SOL    HW212936   5.372   5.187   1.743
 4013SOL     OW12937   2.589   1.088   5.089
 4013SOL    HW112938   2.568   1.169   5.144
 4013SOL    HW212939   2.662   1.109   5.025
 4014SOL     OW12940   4.918   6.571   2.123
 4014SOL    HW112941   4.847   6.572   2.053
 4014SOL    HW212942   4.894   6.504   2.194
 4015SOL     OW12943   5.368   4.926   5.844
 4015SOL    HW112944   5.347   4.994   5.914
 4015SOL    HW212945   5.467   4.923   5.830
 4016SOL     OW12946   2.389   6.088   6.334
 4016SOL    HW112947   2.375   6.150   6.412
 4016SOL    HW212948   2.436   6.006   6.366
 4017SOL     OW12949   0.400   5.689   0.247
 4017SOL    HW112950   0.375   5.779   0.211
 4017SOL    HW212951   0.496   5.690   0.276
 4018SOL     OW12952   4.317   6.344   3.122
 4018SOL    HW112953   4.373   6.416   3.164
 4018SOL    HW212954   4.364   6.308   3.042
 4019SOL     OW12955   5.597   3.330   2.721
 4019SOL    HW112956   5.674   3.380   2.680
 4019SOL    HW212957   5.528   3.396   2.752
 4020SOL     OW12958   4.758   1.795   5.587
 4020SOL    HW112959   4.844   1.751   5.613
 4020SOL    HW212960   4.776   1.890   5.561
 4021SOL     OW12961   3.841   4.820   6.158
 4021SOL    HW112962   3.842   4.799   6.256
 4021SOL    HW212963   3.870   4.915   6.144
 4022SOL     OW12964   4.654   0.808   6.690
 4022SOL    HW112965   4.624   0.730   6.746
 4022SOL    HW212966   4.575   0.849   6.645
 4023SOL     OW12967   5.779   1.791   4.489
 4023SOL    HW112968   5.776   1.820   4.394
 4023SOL    HW212969   5.687   1.772   4.522
 4024SOL     OW12970   3.460   6.398   3.821
 4024SOL    HW112971   3.467   6.485   3.772
 4024SOL    HW212972   3.478   6.323   3.758
 4025SOL     OW12973   0.854   6.056   4.225
 4025SOL    HW112974   0.897   6.003   4.152
 4025SOL    HW212975   0.854   6.003   4.310
 4026SOL     OW12976   5.679   5.468   4.445
 4026SOL    HW112977   5.692   5.548   4.505
 4026SOL    HW212978   5.666   5.499   4.351
 4027SOL     OW12979   3.792   4.443   1.659
 4027SOL    HW112980   3.726   4.499   1.710
 4027SOL    HW212981   3.884   4.461   1.694
 4028SOL     OW12982   1.702   2.440   4.118
 4028SOL    HW112983   1.801   2.427   4.106
 4028SOL    HW212984   1.686   2.508   4.189
 4029SOL     OW12985   2.564   4.378   5.912
 4029SOL    HW112986   2.541   4.299   5.969
 4029SOL    HW212987   2.516   4.371   5.824
 4030SOL     OW12988   1.021   2.204   5.560
 4030SOL    HW112989   1.080   2.222   5.481
 4030SOL    HW212990   0.958   2.281   5.573
 4031SOL     OW12991   5.071   5.478   3.784
 4031SOL    HW112992   5.038   5.385   3.800
 4031SOL    HW212993   5.171   5.477   3.776
 4032SOL     OW12994   6.528   6.530   3.740
 4032SOL    HW112995   6.504   6.528   3.837
 4032SOL    HW212996   6.627   6.537   3.730
 4033SOL     OW12997   3.397   3.321   3.505
 4033SOL    HW112998   3.453   3.302   3.586
 4033SOL    HW212999   3.301   3.300   3.525
 4034SOL     OW13000   5.815   1.477   5.188
 4034SOL    HW113001   5.892   1.441   5.242
 4034SOL    HW213002   5.812   1.576   5.197
 4035SOL     OW13003   0.191   3.571   0.494
 4035SOL    HW113004   0.154   3.653   0.450
 4035SOL    HW213005   0.118   3.505   0.510
 4036SOL     OW13006   6.135   6.481   2.419
 4036SOL    HW113007   6.106   6.406   2.359
 4036SOL    HW213008   6.059   6.503   2.481
 4037SOL     OW13009   1.771   2.862   6.950
 4037SOL    HW113010   1.764   2.787   6.884
 4037SOL    HW213011   1.773   2.824   0.017
 4038SOL     OW13012   4.722   4.905   1.974
 4038SOL    HW113013   4.719   4.930   1.878
 4038SOL    HW213014   4.630   4.876   2.003
 4039SOL     OW13015   5.239   5.759   0.560
 4039SOL    HW113016   5.239   5.659   0.562
 4039SOL    HW213017   5.211   5.791   0.469
 4040SOL     OW13018   2.857   6.582   0.519
 4040SOL    HW113019   2.826   6.645   0.448
 4040SOL    HW213020   2.947   6.611   0.552
 4041SOL     OW13021   1.319   5.963   2.393
 4041SOL    HW113022   1.221   5.983   2.403
 4041SOL    HW213023   1.373   6.042   2.422
 4042SOL     OW13024   6.199   5.335   2.442
 4042SOL    HW113025   6.275   5.324   2.506
 4042SOL    HW213026   6.113   5.318   2.489
 4043SOL     OW13027   5.349   1.940   3.538
 4043SOL    HW113028   5.408   1.953   3.458
 4043SOL    HW213029   5.397   1.973   3.620
 4044SOL     OW13030   6.183   0.136   3.936
 4044SOL    HW113031   6.182   0.227   3.894
 4044SOL    HW213032   6.089   0.106   3.955
 4045SOL     OW13033   2.839   4.129   5.994
 4045SOL    HW113034   2.899   4.200   5.958
 4045SOL    HW213035   2.763   4.114   5.931
 4046SOL     OW13036   1.081   1.834   2.317
 4046SOL    HW113037   1.099   1.881   2.403
 4046SOL    HW213038   1.063   1.901   2.245
 4047SOL     OW13039   3.266   3.809   0.760
 4047SOL    HW113040   3.256   3.774   0.854
 4047SOL    HW213041   3.187   3.866   0.737
 4048SOL     OW13042   5.437   0.704   1.624
 4048SOL    HW113043   5.533   0.731   1.617
 4048SOL    HW213044   5.399   0.689   1.533
 4049SOL     OW13045   6.492   6.463   6.380
 4049SOL    HW113046   6.507   6.418   6.292
 4049SOL    HW213047   6.400   6.441   6.414
 4050SOL     OW13048   1.768   6.549   0.202
 4050SOL    HW113049   1.853   6.497   0.193
 4050SOL    HW213050   1.789   6.644   0.224
 4051SOL     OW13051   3.105   4.191   0.786
 4051SOL    HW113052   3.039   4.257   0.822
 4051SOL    HW213053   3.068   4.099   0.793
 4052SOL     OW13054   0.963   0.326   0.989
 4052SOL    HW113055   0.904   0.350   1.066
 4052SOL    HW213056   0.926   0.245   0.942
 4053SOL     OW13057   2.871   4.734   3.659
 4053SOL    HW113058   2.966   4.738   3.629
 4053SOL    HW213059   2.868   4.704   3.755
 4054SOL     OW13060   2.663   3.032   0.586
 4054SOL    HW113061   2.717   3.035   0.501
 4054SOL    HW213062   2.724   3.013   0.663
 4055SOL     OW13063   2.379   3.056   5.896
 4055SOL    HW113064   2.333   3.070   5.808
 4055SOL    HW213065   2.313   3.020   5.962
 4056SOL     OW13066   4.060   3.257   6.865
 4056SOL    HW113067   3.967   3.275   6.833
 4056SOL    HW213068   4.126   3.288   6.797
 4057SOL     OW13069   5.333   3.194   0.427
 4057SOL    HW113070   5.295   3.214   0.337
 4057SOL    HW213071   5.431   3.212   0.427
 4058SOL     OW13072   2.502   1.585   4.413
 4058SOL    HW113073   2.530   1.509   4.353
 4058SOL    HW213074   2.549   1.577   4.501
 4059SOL     OW13075   2.086   2.123   3.611
 4059SOL    HW113076   1.995   2.153   3.636
 4059SOL    HW213077   2.082   2.028   3.578
 4060SOL     OW13078   3.759   5.507   4.319
 4060SOL    HW113079   3.757   5.408   4.336
 4060SOL    HW213080   3.734   5.525   4.224
 4061SOL     OW13081   3.378   4.495   1.690
 4061SOL    HW113082   3.410   4.404   1.666
 4061SOL    HW213083   3.436   4.534   1.761
 4062SOL     OW13084   3.803   1.364   2.586
 4062SOL    HW113085   3.832   1.372   2.682
 4062SOL    HW213086   3.881   1.377   2.526
 4063SOL     OW13087   3.817   6.760   5.600
 4063SOL    HW113088   3.786   6.714   5.517
 4063SOL    HW213089   3.737   6.784   5.656
 4064SOL     OW13090   1.504   0.841   2.626
 4064SOL    HW113091   1.559   0.778   2.681
 4064SOL    HW213092   1.421   0.796   2.595
 4065SOL     OW13093   0.140   6.965   1.216
 4065SOL    HW113094   0.134   6.948   1.314
 4065SOL    HW213095   0.051   6.994   1.181
 4066SOL     OW13096   5.457   4.352   1.344
 4066SOL    HW113097   5.497   4.444   1.345
 4066SOL    HW213098   5.497   4.298   1.418
 4067SOL     OW13099   5.263   1.699   3.375
 4067SOL    HW113100   5.342   1.650   3.338
 4067SOL    HW213101   5.294   1.773   3.435
 4068SOL     OW13102   4.690   0.427   4.871
 4068SOL    HW113103   4.664   0.518   4.902
 4068SOL    HW213104   4.707   0.368   4.950
 4069SOL     OW13105   4.846   4.568   1.087
 4069SOL    HW113106   4.804   4.607   1.169
 4069SOL    HW213107   4.945   4.582   1.091
 4070SOL     OW13108   1.806   3.640   2.638
 4070SOL    HW113109   1.875   3.639   2.711
 4070SOL    HW213110   1.803   3.730   2.596
 4071SOL     OW13111   1.192   0.914   4.850
 4071SOL    HW113112   1.221   0.909   4.946
 4071SOL    HW213113   1.146   0.829   4.824
 4072SOL     OW13114   2.039   6.322   4.244
 4072SOL    HW113115   1.943   6.314   4.271
 4072SOL    HW213116   2.084   6.390   4.301
 4073SOL     OW13117   2.148   5.958   6.305
 4073SOL    HW113118   2.062   5.985   6.347
 4073SOL    HW213119   2.219   6.025   6.327
 4074SOL     OW13120   0.833   1.943   1.836
 4074SOL    HW113121   0.891   1.865   1.861
 4074SOL    HW213122   0.745   1.935   1.883
 4075SOL     OW13123   4.331   1.793   2.248
 4075SOL    HW113124   4.376   1.704   2.243
 4075SOL    HW213125   4.395   1.865   2.219
 4076SOL     OW13126   2.146   3.877   5.186
 4076SOL    HW113127   2.198   3.848   5.266
 4076SOL    HW213128   2.204   3.934   5.128
 4077SOL     OW13129   2.959   6.970   0.834
 4077SOL    HW113130   2.933   6.874   0.836
 4077SOL    HW213131   3.049   6.979   0.791
 4078SOL     OW13132   6.482   4.391   1.703
 4078SOL    HW113133   6.560   4.418   1.761
 4078SOL    HW213134   6.499   4.300   1.665
 4079SOL     OW13135   0.786   1.436   3.564
 4079SOL    HW113136   0.712   1.458   3.628
 4079SOL    HW213137   0.820   1.520   3.522
 4080SOL     OW13138   3.072   4.067   0.358
 4080SOL    HW113139   3.069   3.990   0.294
 4080SOL    HW213140   3.075   4.033   0.452
 4081SOL     OW13141   2.321   1.382   4.595
 4081SOL    HW113142   2.381   1.416   4.667
 4081SOL    HW213143   2.370   1.314   4.540
 4082SOL     OW13144   1.059   2.363   5.829
 4082SOL    HW113145   1.103   2.277   5.804
 4082SOL    HW213146   0.971   2.343   5.873
 4083SOL     OW13147   5.878   4.319   3.002
 4083SOL    HW113148   5.957   4.358   3.050
 4083SOL    HW213149   5.897   4.223   2.981
 4084SOL     OW13150   4.779   2.432   2.973
 4084SOL    HW113151   4.766   2.524   2.938
 4084SOL    HW213152   4.705   2.410   3.038
 4085SOL     OW13153   2.975   5.532   1.521
 4085SOL    HW113154   2.991   5.443   1.564
 4085SOL    HW213155   2.953   5.600   1.591
 4086SOL     OW13156   6.683   5.523   6.678
 4086SOL    HW113157   6.703   5.610   6.632
 4086SOL    HW213158   6.586   5.501   6.667
 4087SOL     OW13159   2.648   0.269   2.661
 4087SOL    HW113160   2.724   0.331   2.676
 4087SOL    HW213161   2.607   0.287   2.572
 4088SOL     OW13162   6.657   1.081   5.358
 4088SOL    HW113163   6.681   1.038   5.445
 4088SOL    HW213164   6.560   1.067   5.339
 4089SOL     OW13165   6.936   5.937   4.367
 4089SOL    HW113166   6.942   5.843   4.402
 4089SOL    HW213167   6.989   5.997   4.426
 4090SOL     OW13168   2.402   6.423   4.780
 4090SOL    HW113169   2.407   6.448   4.683
 4090SOL    HW213170   2.327   6.474   4.823
 4091SOL     OW13171   1.135   5.172   1.057
 4091SOL    HW113172   1.198   5.096   1.047
 4091SOL    HW213173   1.147   5.214   1.147
 4092SOL     OW13174   4.809   2.982   4.901
 4092SOL    HW113175   4.848   3.056   4.846
 4092SOL    HW213176   4.777   2.909   4.841
 4093SOL     OW13177   5.997   5.428   2.247
 4093SOL    HW113178   6.009   5.329   2.232
 4093SOL    HW213179   6.051   5.456   2.326
 4094SOL     OW13180   0.295   4.752   7.017
 4094SOL    HW113181   0.255   4.844   7.013
 4094SOL    HW213182   0.334   4.728   6.929
 4095SOL     OW13183   0.456   3.911   0.201
 4095SOL    HW113184   0.460   3.923   0.300
 4095SOL    HW213185   0.407   3.826   0.179
 4096SOL     OW13186   1.878   1.672   6.637
 4096SOL    HW113187   1.824   1.588   6.631
 4096SOL    HW213188   1.967   1.652   6.678
 4097SOL     OW13189   0.183   4.044   4.988
 4097SOL    HW113190   0.207   4.033   4.891
 4097SOL    HW213191   0.107   4.109   4.997
 4098SOL     OW13192   2.075   3.992   2.157
 4098SOL    HW113193   2.006   4.058   2.187
 4098SOL    HW213194   2.115   4.022   2.070
 4099SOL     OW13195   4.530   4.721   6.762
 4099SOL    HW113196   4.436   4.687   6.766
 4099SOL    HW213197   4.586   4.670   6.828
 4100SOL     OW13198   1.215   1.521   3.676
 4100SOL    HW113199   1.229   1.619   3.665
 4100SOL    HW213200   1.301   1.473   3.659
 4101SOL     OW13201   6.422   0.746   6.668
 4101SOL    HW113202   6.384   0.724   6.578
 4101SOL    HW213203   6.446   0.844   6.671
 4102SOL     OW13204   1.926   0.754   0.196
 4102SOL    HW113205   1.835   0.755   0.238
 4102SOL    HW213206   1.918   0.740   0.098
 4103SOL     OW13207   0.594   6.569   2.111
 4103SOL    HW113208   0.678   6.567   2.165
 4103SOL    HW213209   0.616   6.587   2.015
 4104SOL     OW13210   0.422   6.007   3.078
 4104SOL    HW113211   0.408   6.066   2.998
 4104SOL    HW213212   0.350   6.024   3.145
 4105SOL     OW13213   4.744   1.176   1.627
 4105SOL    HW113214   4.674   1.241   1.653
 4105SOL    HW213215   4.797   1.150   1.708
 4106SOL     OW13216   0.370   1.946   3.864
 4106SOL    HW113217   0.374   1.958   3.963
 4106SOL    HW213218   0.331   1.857   3.843
 4107SOL     OW13219   0.755   6.066   6.171
 4107SOL    HW113220   0.695   6.107   6.240
 4107SOL    HW213221   0.849   6.097   6.187
 4108SOL     OW13222   0.427   4.764   4.191
 4108SOL    HW113223   0.330   4.773   4.214
 4108SOL    HW213224   0.463   4.853   4.165
 4109SOL     OW13225   6.405   5.593   2.996
 4109SOL    HW113226   6.491   5.611   2.948
 4109SOL    HW213227   6.334   5.653   2.960
 4110SOL     OW13228   4.573   2.777   0.166
 4110SOL    HW113229   4.672   2.766   0.182
 4110SOL    HW213230   4.540   2.857   0.215
 4111SOL     OW13231   6.638   5.083   6.136
 4111SOL    HW113232   6.545   5.096   6.102
 4111SOL    HW213233   6.703   5.127   6.074
 4112SOL     OW13234   4.767   6.517   5.035
 4112SOL    HW113235   4.782   6.551   4.942
 4112SOL    HW213236   4.784   6.419   5.038
 4113SOL     OW13237   4.423   4.613   4.692
 4113SOL    HW113238   4.392   4.625   4.787
 4113SOL    HW213239   4.370   4.674   4.633
 4114SOL     OW13240   5.987   1.643   3.395
 4114SOL    HW113241   6.022   1.725   3.442
 4114SOL    HW213242   6.064   1.583   3.373
 4115SOL     OW13243   2.766   5.374   2.894
 4115SOL    HW113244   2.794   5.282   2.920
 4115SOL    HW213245   2.765   5.433   2.975
 4116SOL     OW13246   5.352   2.843   3.495
 4116SOL    HW113247   5.257   2.871   3.505
 4116SOL    HW213248   5.400   2.907   3.435
 4117SOL     OW13249   1.521   2.127   2.407
 4117SOL    HW113250   1.431   2.171   2.402
 4117SOL    HW213251   1.516   2.048   2.468
 4118SOL     OW13252   6.296   6.324   6.571
 4118SOL    HW113253   6.292   6.230   6.539
 4118SOL    HW213254   6.307   6.325   6.670
 4119SOL     OW13255   2.776   0.800   3.316
 4119SOL    HW113256   2.734   0.751   3.240
 4119SOL    HW213257   2.716   0.798   3.395
 4120SOL     OW13258   3.185   1.471   6.310
 4120SOL    HW113259   3.249   1.395   6.316
 4120SOL    HW213260   3.234   1.558   6.313
 4121SOL     OW13261   6.942   6.810   2.866
 4121SOL    HW113262   7.000   6.875   2.915
 4121SOL    HW213263   6.952   6.824   2.768
 4122SOL     OW13264   0.116   5.601   4.462
 4122SOL    HW113265   0.038   5.596   4.400
 4122SOL    HW213266   0.086   5.637   4.551
 4123SOL     OW13267   3.901   5.200   3.483
 4123SOL    HW113268   3.892   5.104   3.458
 4123SOL    HW213269   3.991   5.216   3.522
 4124SOL     OW13270   6.685   6.230   1.040
 4124SOL    HW113271   6.685   6.145   1.093
 4124SOL    HW213272   6.650   6.211   0.948
 4125SOL     OW13273   5.004   2.438   2.685
 4125SOL    HW113274   4.976   2.464   2.592
 4125SOL    HW213275   4.967   2.348   2.707
 4126SOL     OW13276   1.203   2.986   2.062
 4126SOL    HW113277   1.289   2.943   2.035
 4126SOL    HW213278   1.222   3.076   2.102
 4127SOL     OW13279   3.776   2.107   4.083
 4127SOL    HW113280   3.859   2.110   4.139
 4127SOL    HW213281   3.696   2.101   4.142
 4128SOL     OW13282   0.758   3.103   1.743
 4128SOL    HW113283   0.854   3.079   1.758
 4128SOL    HW213284   0.711   3.104   1.831
 4129SOL     OW13285   3.618   2.624   0.571
 4129SOL    HW113286   3.596   2.530   0.596
 4129SOL    HW213287   3.565   2.687   0.628
 4130SOL     OW13288   6.357   2.688   1.384
 4130SOL    HW113289   6.342   2.604   1.331
 4130SOL    HW213290   6.400   2.664   1.471
 4131SOL     OW13291   5.814   0.753   2.537
 4131SOL    HW113292   5.880   0.819   2.500
 4131SOL    HW213293   5.734   0.749   2.477
 4132SOL     OW13294   6.317   4.260   4.579
 4132SOL    HW113295   6.251   4.320   4.623
 4132SOL    HW213296   6.278   4.224   4.494
 4133SOL     OW13297   5.290   6.367   1.535
 4133SOL    HW113298   5.234   6.288   1.511
 4133SOL    HW213299   5.299   6.427   1.456
 4134SOL     OW13300   2.784   3.803   1.365
 4134SOL    HW113301   2.685   3.817   1.364
 4134SOL    HW213302   2.820   3.821   1.457
 4135SOL     OW13303   0.448   2.365   2.141
 4135SOL    HW113304   0.516   2.373   2.215
 4135SOL    HW213305   0.385   2.443   2.145
 4136SOL     OW13306   0.411   4.048   1.057
 4136SOL    HW113307   0.501   4.035   1.015
 4136SOL    HW213308   0.412   4.013   1.150
 4137SOL     OW13309   1.870   2.943   0.450
 4137SOL    HW113310   1.865   3.026   0.395
 4137SOL    HW213311   1.931   2.877   0.405
 4138SOL     OW13312   4.468   5.848   0.766
 4138SOL    HW113313   4.510   5.937   0.748
 4138SOL    HW213314   4.394   5.833   0.701
 4139SOL     OW13315   1.854   1.988   2.945
 4139SOL    HW113316   1.851   1.969   3.044
 4139SOL    HW213317   1.828   2.083   2.929
 4140SOL     OW13318   2.710   2.367   3.985
 4140SOL    HW113319   2.646   2.435   3.949
 4140SOL    HW213320   2.761   2.326   3.910
 4141SOL     OW13321   4.104   6.985   6.554
 4141SOL    HW113322   4.029   6.932   6.514
 4141SOL    HW213323   4.179   6.991   6.488
 4142SOL     OW13324   6.294   3.866   2.040
 4142SOL    HW113325   6.235   3.936   2.079
 4142SOL    HW213326   6.327   3.897   1.950
 4143SOL     OW13327   5.895   3.563   0.850
 4143SOL    HW113328   5.800   3.534   0.864
 4143SOL    HW213329   5.906   3.596   0.756
 4144SOL     OW13330   5.276   1.763   1.217
 4144SOL    HW113331   5.243   1.722   1.302
 4144SOL    HW213332   5.351   1.708   1.180
 4145SOL     OW13333   1.098   6.589   0.945
 4145SOL    HW113334   1.067   6.499   0.975
 4145SOL    HW213335   1.063   6.607   0.853
 4146SOL     OW13336   5.712   6.705   3.803
 4146SOL    HW113337   5.797   6.725   3.755
 4146SOL    HW213338   5.663   6.633   3.755
 4147SOL     OW13339   5.347   4.645   5.909
 4147SOL    HW113340   5.441   4.612   5.914
 4147SOL    HW213341   5.347   4.744   5.900
 4148SOL     OW13342   3.152   6.960   5.419
 4148SOL    HW113343   3.133   6.963   5.517
 4148SOL    HW213344   3.068   6.941   5.369
 4149SOL     OW13345   1.940   2.729   0.980
 4149SOL    HW113346   1.986   2.642   0.969
 4149SOL    HW213347   1.987   2.799   0.925
 4150SOL     OW13348   6.185   2.923   5.925
 4150SOL    HW113349   6.230   2.867   5.994
 4150SOL    HW213350   6.154   3.008   5.966
 4151SOL     OW13351   2.416   0.106   4.570
 4151SOL    HW113352   2.388   0.116   4.665
 4151SOL    HW213353   2.472   0.184   4.543
 4152SOL     OW13354   3.529   5.487   1.815
 4152SOL    HW113355   3.510   5.402   1.765
 4152SOL    HW213356   3.443   5.525   1.849
 4153SOL     OW13357   6.744   4.594   1.166
 4153SOL    HW113358   6.785   4.637   1.086
 4153SOL    HW213359   6.816   4.568   1.230
 4154SOL     OW13360   0.055   5.576   3.559
 4154SOL    HW113361   6.991   5.618   3.551
 4154SOL    HW213362   0.059   5.522   3.643
 4155SOL     OW13363   0.061   2.229   1.524
 4155SOL    HW113364   0.061   2.134   1.496
 4155SOL    HW213365   0.150   2.270   1.504
 4156SOL     OW13366   0.007   4.646   5.187
 4156SOL    HW113367   0.092   4.634   5.237
 4156SOL    HW213368   6.961   4.675   5.250
 4157SOL     OW13369   6.721   6.680   2.428
 4157SOL    HW113370   6.655   6.629   2.373
 4157SOL    HW213371   6.673   6.736   2.495
 4158SOL     OW13372   2.115   2.083   1.653
 4158SOL    HW113373   2.188   2.150   1.637
 4158SOL    HW213374   2.026   2.127   1.636
 4159SOL     OW13375   2.964   2.043   2.963
 4159SOL    HW113376   2.940   2.042   2.866
 4159SOL    HW213377   2.900   2.102   3.013
 4160SOL     OW13378   6.753   0.107   6.883
 4160SOL    HW113379   6.663   0.066   6.894
 4160SOL    HW213380   6.743   0.203   6.856
 4161SOL     OW13381   1.766   2.199   0.672
 4161SOL    HW113382   1.789   2.138   0.748
 4161SOL    HW213383   1.846   2.253   0.647
 4162SOL     OW13384   6.761   5.885   0.541
 4162SOL    HW113385   6.811   5.908   0.624
 4162SOL    HW213386   6.697   5.958   0.519
 4163SOL     OW13387   5.168   0.599   2.167
 4163SOL    HW113388   5.224   0.573   2.088
 4163SOL    HW213389   5.126   0.517   2.206
 4164SOL     OW13390   6.958   0.049   5.460
 4164SOL    HW113391   7.023   7.003   5.436
 4164SOL    HW213392   6.949   0.054   5.560
 4165SOL     OW13393   4.151   0.205   5.758
 4165SOL    HW113394   4.248   0.212   5.734
 4165SOL    HW213395   4.097   0.202   5.674
 4166SOL     OW13396   5.825   1.269   2.128
 4166SOL    HW113397   5.834   1.201   2.056
 4166SOL    HW213398   5.894   1.340   2.117
 4167SOL     OW13399   2.295   4.741   6.056
 4167SOL    HW113400   2.251   4.680   6.122
 4167SOL    HW213401   2.299   4.696   5.967
 4168SOL     OW13402   6.917   4.546   0.248
 4168SOL    HW113403   6.988   4.574   0.184
 4168SOL    HW213404   6.930   4.594   0.335
 4169SOL     OW13405   5.961   4.086   5.353
 4169SOL    HW113406   6.035   4.040   5.304
 4169SOL    HW213407   5.938   4.171   5.306
 4170SOL     OW13408   4.922   3.151   4.714
 4170SOL    HW113409   4.892   3.238   4.676
 4170SOL    HW213410   5.012   3.162   4.756
 4171SOL     OW13411   1.121   4.502   1.457
 4171SOL    HW113412   1.033   4.463   1.486
 4171SOL    HW213413   1.191   4.479   1.525
 4172SOL     OW13414   2.880   3.238   0.336
 4172SOL    HW113415   2.835   3.327   0.346
 4172SOL    HW213416   2.979   3.251   0.331
 4173SOL     OW13417   4.352   2.725   5.742
 4173SOL    HW113418   4.287   2.669   5.793
 4173SOL    HW213419   4.442   2.719   5.786
 4174SOL     OW13420   4.368   0.218   3.750
 4174SOL    HW113421   4.278   0.193   3.715
 4174SOL    HW213422   4.358   0.291   3.819
 4175SOL     OW13423   1.756   4.599   5.853
 4175SOL    HW113424   1.786   4.675   5.910
 4175SOL    HW213425   1.831   4.533   5.843
 4176SOL     OW13426   4.743   6.251   0.915
 4176SOL    HW113427   4.829   6.241   0.865
 4176SOL    HW213428   4.706   6.342   0.900
 4177SOL     OW13429   4.990   4.910   4.534
 4177SOL    HW113430   4.951   4.980   4.593
 4177SOL    HW213431   5.053   4.853   4.587
 4178SOL     OW13432   4.375   6.389   2.808
 4178SOL    HW113433   4.430   6.472   2.813
 4178SOL    HW213434   4.291   6.407   2.757
 4179SOL     OW13435   5.024   3.940   3.468
 4179SOL    HW113436   5.036   4.033   3.432
 4179SOL    HW213437   5.105   3.915   3.521
 4180SOL     OW13438   5.330   3.337   0.930
 4180SOL    HW113439   5.256   3.403   0.939
 4180SOL    HW213440   5.383   3.357   0.848
 4181SOL     OW13441   5.489   0.388   6.274
 4181SOL    HW113442   5.407   0.368   6.220
 4181SOL    HW213443   5.499   0.320   6.347
 4182SOL     OW13444   0.404   5.206   3.539
 4182SOL    HW113445   0.330   5.261   3.499
 4182SOL    HW213446   0.364   5.132   3.593
 4183SOL     OW13447   2.493   0.973   0.812
 4183SOL    HW113448   2.494   1.016   0.902
 4183SOL    HW213449   2.558   0.898   0.809
 4184SOL     OW13450   3.899   7.003   1.900
 4184SOL    HW113451   3.900   0.018   1.809
 4184SOL    HW213452   3.989   7.016   1.942
 4185SOL     OW13453   0.529   4.071   3.117
 4185SOL    HW113454   0.579   4.155   3.095
 4185SOL    HW213455   0.591   4.008   3.164
 4186SOL     OW13456   2.438   5.845   6.449
 4186SOL    HW113457   2.512   5.788   6.485
 4186SOL    HW213458   2.355   5.790   6.442
 4187SOL     OW13459   2.877   3.585   0.034
 4187SOL    HW113460   2.882   3.508   6.997
 4187SOL    HW213461   2.867   3.552   0.128
 4188SOL     OW13462   5.274   0.276   5.056
 4188SOL    HW113463   5.212   0.355   5.054
 4188SOL    HW213464   5.243   0.208   4.989
 4189SOL     OW13465   3.708   5.164   3.695
 4189SOL    HW113466   3.619   5.190   3.656
 4189SOL    HW213467   3.780   5.180   3.628
 4190SOL     OW13468   0.401   6.403   0.929
 4190SOL    HW113469   0.442   6.417   0.839
 4190SOL    HW213470   0.409   6.486   0.983
 4191SOL     OW13471   5.501   4.302   6.076
 4191SOL    HW113472   5.516   4.386   6.127
 4191SOL    HW213473   5.403   4.282   6.072
 4192SOL     OW13474   1.059   1.220   2.061
 4192SOL    HW113475   0.979   1.280   2.058
 4192SOL    HW213476   1.133   1.266   2.110
 4193SOL     OW13477   5.406   0.439   0.414
 4193SOL    HW113478   5.442   0.519   0.462
 4193SOL    HW213479   5.463   0.360   0.434
 4194SOL     OW13480   4.652   0.049   4.537
 4194SOL    HW113481   4.678   0.072   4.443
 4194SOL    HW213482   4.696   0.113   4.600
 4195SOL     OW13483   4.477   6.151   1.420
 4195SOL    HW113484   4.464   6.250   1.428
 4195SOL    HW213485   4.400   6.111   1.370
 4196SOL     OW13486   0.265   2.486   3.270
 4196SOL    HW113487   0.299   2.400   3.233
 4196SOL    HW213488   0.341   2.538   3.310
 4197SOL     OW13489   4.223   5.998   5.219
 4197SOL    HW113490   4.182   5.906   5.219
 4197SOL    HW213491   4.245   6.025   5.126
 4198SOL     OW13492   6.805   1.218   2.537
 4198SOL    HW113493   6.829   1.315   2.526
 4198SOL    HW213494   6.777   1.202   2.631
 4199SOL     OW13495   1.169   2.567   5.674
 4199SOL    HW113496   1.133   2.495   5.735
 4199SOL    HW213497   1.092   2.613   5.630
 4200SOL     OW13498   3.206   0.203   5.734
 4200SOL    HW113499   3.135   0.134   5.720
 4200SOL    HW213500   3.292   0.171   5.694
 4201SOL     OW13501   6.272   6.951   2.862
 4201SOL    HW113502   6.201   7.009   2.903
 4201SOL    HW213503   6.245   6.855   2.869
 4202SOL     OW13504   3.317   5.902   6.385
 4202SOL    HW113505   3.308   5.819   6.330
 4202SOL    HW213506   3.340   5.878   6.479
 4203SOL     OW13507   5.171   4.657   0.498
 4203SOL    HW113508   5.178   4.675   0.597
 4203SOL    HW213509   5.075   4.665   0.470
 4204SOL     OW13510   3.873   3.349   5.439
 4204SOL    HW113511   3.892   3.446   5.458
 4204SOL    HW213512   3.925   3.292   5.502
 4205SOL     OW13513   3.705   5.351   4.751
 4205SOL    HW113514   3.766   5.364   4.673
 4205SOL    HW213515   3.660   5.262   4.744
 4206SOL     OW13516   6.555   1.764   4.812
 4206SOL    HW113517   6.609   1.847   4.795
 4206SOL    HW213518   6.576   1.695   4.743
 4207SOL     OW13519   2.404   2.710   1.529
 4207SOL    HW113520   2.406   2.610   1.529
 4207SOL    HW213521   2.482   2.745   1.477
 4208SOL     OW13522   0.904   3.790   6.147
 4208SOL    HW113523   0.974   3.737   6.196
 4208SOL    HW213524   0.932   3.801   6.052
 4209SOL     OW13525   6.927   6.177   2.755
 4209SOL    HW113526   6.886   6.250   2.809
 4209SOL    HW213527   7.006   6.212   2.705
 4210SOL     OW13528   4.019   3.489   2.937
 4210SOL    HW113529   4.021   3.448   3.028
 4210SOL    HW213530   4.000   3.587   2.944
 4211SOL     OW13531   3.541   1.546   5.330
 4211SOL    HW113532   3.511   1.574   5.422
 4211SOL    HW213533   3.539   1.625   5.269
 4212SOL     OW13534   6.285   1.937   3.888
 4212SOL    HW113535   6.367   1.882   3.873
 4212SOL    HW213536   6.312   2.029   3.918
 4213SOL     OW13537   2.632   0.116   3.107
 4213SOL    HW113538   2.598   0.027   3.138
 4213SOL    HW213539   2.621   0.122   3.007
 4214SOL     OW13540   0.496   5.833   4.712
 4214SOL    HW113541   0.492   5.756   4.648
 4214SOL    HW213542   0.580   5.827   4.766
 4215SOL     OW13543   5.551   7.018   5.420
 4215SOL    HW113544   5.602   6.996   5.503
 4215SOL    HW213545   5.520   6.933   5.376
 4216SOL     OW13546   1.362   0.791   1.953
 4216SOL    HW113547   1.337   0.887   1.966
 4216SOL    HW213548   1.459   0.785   1.932
 4217SOL     OW13549   1.135   0.806   1.755
 4217SOL    HW113550   1.177   0.844   1.672
 4217SOL    HW213551   1.206   0.767   1.814
 4218SOL     OW13552   3.412   0.451   1.405
 4218SOL    HW113553   3.319   0.417   1.385
 4218SOL    HW213554   3.459   0.470   1.319
 4219SOL     OW13555   4.629   6.530   4.375
 4219SOL    HW113556   4.687   6.472   4.432
 4219SOL    HW213557   4.635   6.625   4.406
 4220SOL     OW13558   5.695   3.348   2.381
 4220SOL    HW113559   5.693   3.264   2.435
 4220SOL    HW213560   5.716   3.426   2.441
 4221SOL     OW13561   6.121   4.652   6.083
 4221SOL    HW113562   6.211   4.628   6.047
 4221SOL    HW213563   6.064   4.570   6.091
 4222SOL     OW13564   6.657   1.287   3.393
 4222SOL    HW113565   6.660   1.255   3.488
 4222SOL    HW213566   6.718   1.366   3.383
 4223SOL     OW13567   3.957   3.728   1.061
 4223SOL    HW113568   4.010   3.657   1.014
 4223SOL    HW213569   3.986   3.818   1.030
 4224SOL     OW13570   4.942   5.072   4.856
 4224SOL    HW113571   4.964   5.139   4.927
 4224SOL    HW213572   4.955   4.980   4.891
 4225SOL     OW13573   1.862   2.117   5.293
 4225SOL    HW113574   1.824   2.197   5.249
 4225SOL    HW213575   1.806   2.092   5.372
 4226SOL     OW13576   1.185   5.224   3.432
 4226SOL    HW113577   1.213   5.169   3.510
 4226SOL    HW213578   1.260   5.230   3.367
 4227SOL     OW13579   5.011   6.499   1.768
 4227SOL    HW113580   4.997   6.596   1.785
 4227SOL    HW213581   5.080   6.464   1.831
 4228SOL     OW13582   0.060   6.618   5.537
 4228SOL    HW113583   0.097   6.566   5.614
 4228SOL    HW213584   0.085   6.573   5.451
 4229SOL     OW13585   4.607   5.536   5.221
 4229SOL    HW113586   4.564   5.564   5.307
 4229SOL    HW213587   4.548   5.562   5.145
 4230SOL     OW13588   1.049   6.322   3.488
 4230SOL    HW113589   0.974   6.289   3.546
 4230SOL    HW213590   1.061   6.420   3.500
 4231SOL     OW13591   5.103   0.259   5.628
 4231SOL    HW113592   5.160   0.181   5.604
 4231SOL    HW213593   5.154   0.344   5.615
 4232SOL     OW13594   1.624   4.818   3.836
 4232SOL    HW113595   1.692   4.752   3.868
 4232SOL    HW213596   1.604   4.801   3.740
 4233SOL     OW13597   6.943   0.882   4.726
 4233SOL    HW113598   7.012   0.811   4.742
 4233SOL    HW213599   6.864   0.841   4.679
 4234SOL     OW13600   2.253   5.466   5.236
 4234SOL    HW113601   2.194   5.441   5.313
 4234SOL    HW213602   2.200   5.464   5.151
 4235SOL     OW13603   6.988   4.748   6.223
 4235SOL    HW113604   6.975   4.649   6.230
 4235SOL    HW213605   0.059   4.768   6.215
 4236SOL     OW13606   6.761   4.371   1.867
 4236SOL    HW113607   6.764   4.275   1.838
 4236SOL    HW213608   6.723   4.376   1.959
 4237SOL     OW13609   0.008   4.018   4.251
 4237SOL    HW113610   6.959   4.070   4.290
 4237SOL    HW213611   0.061   4.077   4.189
 4238SOL     OW13612   1.145   0.329   3.151
 4238SOL    HW113613   1.240   0.346   3.178
 4238SOL    HW213614   1.143   0.295   3.058
 4239SOL     OW13615   4.311   1.515   2.649
 4239SOL    HW113616   4.332   1.567   2.732
 4239SOL    HW213617   4.396   1.486   2.605
 4240SOL     OW13618   2.301   5.450   0.394
 4240SOL    HW113619   2.397   5.420   0.386
 4240SOL    HW213620   2.289   5.537   0.347
 4241SOL     OW13621   5.447   0.712   0.579
 4241SOL    HW113622   5.547   0.723   0.582
 4241SOL    HW213623   5.412   0.753   0.495
 4242SOL     OW13624   2.999   2.069   4.132
 4242SOL    HW113625   2.967   2.163   4.146
 4242SOL    HW213626   3.076   2.069   4.068
 4243SOL     OW13627   5.514   1.735   3.058
 4243SOL    HW113628   5.441   1.667   3.066
 4243SOL    HW213629   5.477   1.826   3.079
 4244SOL     OW13630   3.624   4.618   1.500
 4244SOL    HW113631   3.721   4.603   1.516
 4244SOL    HW213632   3.571   4.571   1.571
 4245SOL     OW13633   6.308   2.416   6.504
 4245SOL    HW113634   6.282   2.447   6.413
 4245SOL    HW213635   6.405   2.391   6.506
 4246SOL     OW13636   6.343   4.095   3.626
 4246SOL    HW113637   6.275   4.044   3.573
 4246SOL    HW213638   6.338   4.068   3.722
 4247SOL     OW13639   1.644   6.609   3.473
 4247SOL    HW113640   1.690   6.525   3.444
 4247SOL    HW213641   1.631   6.669   3.394
 4248SOL     OW13642   2.580   2.032   4.489
 4248SOL    HW113643   2.511   2.060   4.422
 4248SOL    HW213644   2.654   2.099   4.491
 4249SOL     OW13645   6.502   2.749   5.197
 4249SOL    HW113646   6.525   2.815   5.125
 4249SOL    HW213647   6.559   2.667   5.187
 4250SOL     OW13648   0.037   4.501   3.317
 4250SOL    HW113649   0.118   4.443   3.309
 4250SOL    HW213650   7.014   4.479   3.401
 4251SOL     OW13651   5.758   4.735   0.740
 4251SOL    HW113652   5.678   4.794   0.730
 4251SOL    HW213653   5.841   4.790   0.739
 4252SOL     OW13654   6.174   6.528   5.682
 4252SOL    HW113655   6.077   6.508   5.670
 4252SOL    HW213656   6.186   6.622   5.714
 4253SOL     OW13657   2.545   0.397   1.717
 4253SOL    HW113658   2.554   0.471   1.650
 4253SOL    HW213659   2.469   0.338   1.691
 4254SOL     OW13660   0.814   2.539   2.361
 4254SOL    HW113661   0.881   2.576   2.298
 4254SOL    HW213662   0.851   2.540   2.454
 4255SOL     OW13663   5.928   3.215   3.616
 4255SOL    HW113664   5.876   3.184   3.696
 4255SOL    HW213665   5.927   3.315   3.611
 4256SOL     OW13666   1.586   6.621   0.983
 4256SOL    HW113667   1.499   6.578   1.010
 4256SOL    HW213668   1.575   6.665   0.894
 4257SOL     OW13669   3.583   0.448   4.688
 4257SOL    HW113670   3.539   0.470   4.775
 4257SOL    HW213671   3.573   0.350   4.669
 4258SOL     OW13672   5.864   6.305   1.561
 4258SOL    HW113673   5.766   6.301   1.581
 4258SOL    HW213674   5.878   6.353   1.474
 4259SOL     OW13675   3.086   0.235   6.530
 4259SOL    HW113676   3.138   0.197   6.607
 4259SOL    HW213677   2.988   0.223   6.547
 4260SOL     OW13678   5.265   6.740   5.441
 4260SOL    HW113679   5.330   6.771   5.371
 4260SOL    HW213680   5.177   6.784   5.426
 4261SOL     OW13681   1.855   0.725   1.843
 4261SOL    HW113682   1.895   0.796   1.785
 4261SOL    HW213683   1.869   0.749   1.939
 4262SOL     OW13684   1.176   4.689   5.877
 4262SOL    HW113685   1.094   4.637   5.854
 4262SOL    HW213686   1.252   4.660   5.819
 4263SOL     OW13687   2.675   6.315   3.533
 4263SOL    HW113688   2.608   6.248   3.566
 4263SOL    HW213689   2.695   6.297   3.437
 4264SOL     OW13690   6.644   1.890   2.785
 4264SOL    HW113691   6.741   1.875   2.803
 4264SOL    HW213692   6.606   1.811   2.738
 4265SOL     OW13693   5.570   1.406   0.442
 4265SOL    HW113694   5.514   1.393   0.524
 4265SOL    HW213695   5.511   1.438   0.367
 4266SOL     OW13696   1.926   5.667   0.824
 4266SOL    HW113697   1.837   5.681   0.780
 4266SOL    HW213698   1.941   5.569   0.838
 4267SOL     OW13699   1.714   3.656   5.303
 4267SOL    HW113700   1.755   3.743   5.275
 4267SOL    HW213701   1.615   3.663   5.299
 4268SOL     OW13702   1.470   6.545   6.468
 4268SOL    HW113703   1.507   6.476   6.531
 4268SOL    HW213704   1.427   6.618   6.520
 4269SOL     OW13705   2.406   1.666   0.699
 4269SOL    HW113706   2.343   1.721   0.644
 4269SOL    HW213707   2.469   1.725   0.748
 4270SOL     OW13708   3.577   3.109   4.168
 4270SOL    HW113709   3.491   3.059   4.155
 4270SOL    HW213710   3.562   3.185   4.231
 4271SOL     OW13711   0.630   1.315   6.526
 4271SOL    HW113712   0.552   1.340   6.467
 4271SOL    HW213713   0.638   1.383   6.599
 4272SOL     OW13714   0.798   4.449   5.018
 4272SOL    HW113715   0.775   4.542   5.045
 4272SOL    HW213716   0.846   4.450   4.930
 4273SOL     OW13717   4.952   6.083   4.954
 4273SOL    HW113718   5.034   6.077   4.896
 4273SOL    HW213719   4.872   6.057   4.900
 4274SOL     OW13720   1.378   0.288   2.915
 4274SOL    HW113721   1.354   0.240   2.831
 4274SOL    HW213722   1.444   0.234   2.967
 4275SOL     OW13723   6.881   1.852   5.014
 4275SOL    HW113724   6.950   1.876   4.945
 4275SOL    HW213725   6.813   1.925   5.021
 4276SOL     OW13726   0.945   4.271   3.840
 4276SOL    HW113727   0.854   4.297   3.807
 4276SOL    HW213728   1.014   4.325   3.792
 4277SOL     OW13729   6.123   4.446   4.343
 4277SOL    HW113730   6.057   4.496   4.399
 4277SOL    HW213731   6.122   4.349   4.368
 4278SOL     OW13732   0.033   0.814   4.283
 4278SOL    HW113733   6.995   0.875   4.330
 4278SOL    HW213734   0.035   0.725   4.329
 4279SOL     OW13735   3.600   6.660   5.449
 4279SOL    HW113736   3.642   6.633   5.362
 4279SOL    HW213737   3.541   6.739   5.435
 4280SOL     OW13738   5.206   1.085   5.517
 4280SOL    HW113739   5.270   1.036   5.575
 4280SOL    HW213740   5.201   1.040   5.427
 4281SOL     OW13741   2.467   4.734   4.562
 4281SOL    HW113742   2.547   4.700   4.611
 4281SOL    HW213743   2.410   4.788   4.625
 4282SOL     OW13744   3.133   2.450   0.511
 4282SOL    HW113745   3.065   2.483   0.446
 4282SOL    HW213746   3.151   2.520   0.580
 4283SOL     OW13747   1.766   0.927   3.558
 4283SOL    HW113748   1.735   1.011   3.603
 4283SOL    HW213749   1.815   0.870   3.624
 4284SOL     OW13750   4.986   5.942   2.128
 4284SOL    HW113751   4.992   5.935   2.228
 4284SOL    HW213752   4.946   5.857   2.092
 4285SOL     OW13753   0.831   0.711   5.969
 4285SOL    HW113754   0.854   0.808   5.965
 4285SOL    HW213755   0.814   0.685   6.064
 4286SOL     OW13756   5.263   5.793   6.602
 4286SOL    HW113757   5.360   5.817   6.607
 4286SOL    HW213758   5.250   5.698   6.629
 4287SOL     OW13759   5.818   0.956   6.437
 4287SOL    HW113760   5.811   0.896   6.357
 4287SOL    HW213761   5.905   1.004   6.435
 4288SOL     OW13762   1.174   5.314   3.113
 4288SOL    HW113763   1.132   5.373   3.181
 4288SOL    HW213764   1.273   5.329   3.112
 4289SOL     OW13765   5.977   3.091   0.945
 4289SOL    HW113766   5.881   3.118   0.938
 4289SOL    HW213767   6.032   3.170   0.972
 4290SOL     OW13768   2.733   6.583   2.095
 4290SOL    HW113769   2.826   6.570   2.060
 4290SOL    HW213770   2.719   6.525   2.175
 4291SOL     OW13771   4.532   3.743   1.694
 4291SOL    HW113772   4.558   3.830   1.652
 4291SOL    HW213773   4.433   3.730   1.686
 4292SOL     OW13774   6.522   4.739   6.217
 4292SOL    HW113775   6.429   4.711   6.239
 4292SOL    HW213776   6.584   4.714   6.291
 4293SOL     OW13777   0.093   2.954   0.357
 4293SOL    HW113778   0.095   2.883   0.427
 4293SOL    HW213779   0.155   2.930   0.283
 4294SOL     OW13780   3.882   2.839   0.369
 4294SOL    HW113781   3.905   2.931   0.336
 4294SOL    HW213782   3.901   2.772   0.297
 4295SOL     OW13783   3.660   5.911   4.794
 4295SOL    HW113784   3.756   5.884   4.796
 4295SOL    HW213785   3.607   5.847   4.849
 4296SOL     OW13786   3.343   1.320   7.007
 4296SOL    HW113787   3.261   1.337   6.953
 4296SOL    HW213788   3.422   1.313   6.946
 4297SOL     OW13789   5.338   0.734   6.056
 4297SOL    HW113790   5.292   0.807   6.107
 4297SOL    HW213791   5.275   0.693   5.990
 4298SOL     OW13792   2.466   5.140   6.323
 4298SOL    HW113793   2.566   5.151   6.320
 4298SOL    HW213794   2.422   5.226   6.298
 4299SOL     OW13795   0.515   3.156   0.303
 4299SOL    HW113796   0.424   3.189   0.327
 4299SOL    HW213797   0.516   3.129   0.207
 4300SOL     OW13798   4.035   1.022   6.799
 4300SOL    HW113799   4.129   1.055   6.793
 4300SOL    HW213800   3.974   1.089   6.756
 4301SOL     OW13801   2.983   1.266   0.540
 4301SOL    HW113802   3.028   1.235   0.457
 4301SOL    HW213803   2.899   1.212   0.554
 4302SOL     OW13804   0.604   6.804   5.444
 4302SOL    HW113805   0.649   6.784   5.531
 4302SOL    HW213806   0.513   6.762   5.442
 4303SOL     OW13807   5.808   5.083   3.682
 4303SOL    HW113808   5.787   5.006   3.742
 4303SOL    HW213809   5.791   5.168   3.731
 4304SOL     OW13810   2.936   3.559   4.204
 4304SOL    HW113811   2.919   3.544   4.107
 4304SOL    HW213812   2.944   3.657   4.222
 4305SOL     OW13813   6.034   0.889   4.181
 4305SOL    HW113814   6.011   0.966   4.122
 4305SOL    HW213815   6.000   0.906   4.273
 4306SOL     OW13816   6.518   3.770   6.464
 4306SOL    HW113817   6.419   3.774   6.455
 4306SOL    HW213818   6.554   3.694   6.411
 4307SOL     OW13819   5.304   4.006   6.594
 4307SOL    HW113820   5.211   4.042   6.588
 4307SOL    HW213821   5.320   3.944   6.518
 4308SOL     OW13822   5.678   5.386   6.168
 4308SOL    HW113823   5.659   5.375   6.266
 4308SOL    HW213824   5.773   5.416   6.155
 4309SOL     OW13825   1.354   0.483   0.354
 4309SOL    HW113826   1.275   0.544   0.350
 4309SOL    HW213827   1.422   0.513   0.287
 4310SOL     OW13828   2.055   2.247   3.083
 4310SOL    HW113829   2.019   2.230   2.991
 4310SOL    HW213830   2.154   2.262   3.077
 4311SOL     OW13831   1.583   5.688   3.043
 4311SOL    HW113832   1.623   5.600   3.019
 4311SOL    HW213833   1.495   5.699   2.996
 4312SOL     OW13834   1.674   5.427   0.800
 4312SOL    HW113835   1.682   5.422   0.701
 4312SOL    HW213836   1.591   5.477   0.825
 4313SOL     OW13837   5.126   1.486   1.889
 4313SOL    HW113838   5.170   1.400   1.864
 4313SOL    HW213839   5.042   1.498   1.835
 4314SOL     OW13840   5.818   1.823   3.974
 4314SOL    HW113841   5.759   1.760   3.922
 4314SOL    HW213842   5.774   1.844   4.061
 4315SOL     OW13843   2.382   0.773   2.297
 4315SOL    HW113844   2.312   0.840   2.273
 4315SOL    HW213845   2.338   0.687   2.325
 4316SOL     OW13846   5.235   6.793   0.966
 4316SOL    HW113847   5.211   6.741   0.884
 4316SOL    HW213848   5.162   6.784   1.034
 4317SOL     OW13849   3.680   1.269   4.508
 4317SOL    HW113850   3.662   1.360   4.547
 4317SOL    HW213851   3.766   1.271   4.457
 4318SOL     OW13852   1.560   3.115   3.616
 4318SOL    HW113853   1.474   3.138   3.660
 4318SOL    HW213854   1.626   3.189   3.632
 4319SOL     OW13855   2.444   2.854   0.650
 4319SOL    HW113856   2.506   2.929   0.627
 4319SOL    HW213857   2.351   2.889   0.658
 4320SOL     OW13858   0.579   5.822   1.912
 4320SOL    HW113859   0.484   5.797   1.930
 4320SOL    HW213860   0.624   5.845   1.999
 4321SOL     OW13861   6.972   0.080   4.317
 4321SOL    HW113862   7.001   7.018   4.280
 4321SOL    HW213863   6.880   0.072   4.354
 4322SOL     OW13864   6.075   1.762   6.567
 4322SOL    HW113865   6.139   1.830   6.530
 4322SOL    HW213866   6.108   1.727   6.654
 4323SOL     OW13867   5.183   4.161   1.387
 4323SOL    HW113868   5.231   4.225   1.326
 4323SOL    HW213869   5.130   4.097   1.331
 4324SOL     OW13870   5.763   4.466   6.864
 4324SOL    HW113871   5.822   4.531   6.912
 4324SOL    HW213872   5.754   4.383   6.919
 4325SOL     OW13873   1.774   0.503   0.262
 4325SOL    HW113874   1.782   0.518   0.361
 4325SOL    HW213875   1.692   0.549   0.228
 4326SOL     OW13876   6.226   2.745   4.624
 4326SOL    HW113877   6.129   2.744   4.599
 4326SOL    HW213878   6.275   2.807   4.563
 4327SOL     OW13879   5.963   5.147   2.172
 4327SOL    HW113880   5.943   5.112   2.264
 4327SOL    HW213881   5.878   5.147   2.118
 4328SOL     OW13882   4.359   4.165   5.873
 4328SOL    HW113883   4.398   4.257   5.872
 4328SOL    HW213884   4.432   4.097   5.863
 4329SOL     OW13885   3.605   1.780   6.216
 4329SOL    HW113886   3.659   1.856   6.181
 4329SOL    HW213887   3.664   1.720   6.271
 4330SOL     OW13888   2.945   0.438   5.207
 4330SOL    HW113889   2.863   0.406   5.254
 4330SOL    HW213890   2.977   0.523   5.248
 4331SOL     OW13891   4.500   3.093   0.646
 4331SOL    HW113892   4.402   3.078   0.662
 4331SOL    HW213893   4.550   3.009   0.669
 4332SOL     OW13894   5.537   4.795   2.458
 4332SOL    HW113895   5.516   4.751   2.371
 4332SOL    HW213896   5.484   4.752   2.531
 4333SOL     OW13897   4.588   0.550   5.390
 4333SOL    HW113898   4.673   0.528   5.437
 4333SOL    HW213899   4.540   0.623   5.439
 4334SOL     OW13900   2.022   2.543   2.236
 4334SOL    HW113901   2.037   2.486   2.317
 4334SOL    HW213902   1.980   2.629   2.263
 4335SOL     OW13903   3.244   4.009   3.337
 4335SOL    HW113904   3.148   4.011   3.309
 4335SOL    HW213905   3.252   4.043   3.431
 4336SOL     OW13906   1.122   6.671   5.304
 4336SOL    HW113907   1.032   6.627   5.298
 4336SOL    HW213908   1.193   6.603   5.291
 4337SOL     OW13909   1.208   4.814   0.340
 4337SOL    HW113910   1.195   4.851   0.433
 4337SOL    HW213911   1.304   4.792   0.327
 4338SOL     OW13912   5.041   5.950   4.302
 4338SOL    HW113913   5.079   5.858   4.314
 4338SOL    HW213914   5.067   5.984   4.211
 4339SOL     OW13915   5.791   3.839   5.283
 4339SOL    HW113916   5.783   3.831   5.183
 4339SOL    HW213917   5.826   3.930   5.306
 4340SOL     OW13918   6.049   4.442   2.249
 4340SOL    HW113919   5.973   4.378   2.261
 4340SOL    HW213920   6.100   4.449   2.334
 4341SOL     OW13921   1.140   5.828   2.040
 4341SOL    HW113922   1.056   5.867   2.079
 4341SOL    HW213923   1.194   5.785   2.112
 4342SOL     OW13924   6.844   3.641   3.896
 4342SOL    HW113925   6.851   3.635   3.797
 4342SOL    HW213926   6.907   3.575   3.938
 4343SOL     OW13927   2.354   6.547   6.010
 4343SOL    HW113928   2.281   6.494   5.967
 4343SOL    HW213929   2.380   6.504   6.096
 4344SOL     OW13930   1.605   4.924   2.808
 4344SOL    HW113931   1.572   4.844   2.859
 4344SOL    HW213932   1.698   4.945   2.837
 4345SOL     OW13933   1.875   2.624   5.618
 4345SOL    HW113934   1.863   2.702   5.681
 4345SOL    HW213935   1.895   2.658   5.527
 4346SOL     OW13936   2.030   3.181   1.495
 4346SOL    HW113937   1.952   3.217   1.546
 4346SOL    HW213938   2.026   3.081   1.493
 4347SOL     OW13939   5.987   0.223   2.683
 4347SOL    HW113940   5.919   0.229   2.756
 4347SOL    HW213941   6.005   0.128   2.662
 4348SOL     OW13942   0.499   3.283   2.445
 4348SOL    HW113943   0.512   3.205   2.384
 4348SOL    HW213944   0.418   3.266   2.502
 4349SOL     OW13945   6.595   1.676   3.121
 4349SOL    HW113946   6.578   1.773   3.139
 4349SOL    HW213947   6.580   1.623   3.204
 4350SOL     OW13948   4.879   2.535   4.474
 4350SOL    HW113949   4.931   2.542   4.560
 4350SOL    HW213950   4.849   2.626   4.446
 4351SOL     OW13951   1.890   6.332   1.081
 4351SOL    HW113952   1.851   6.272   1.011
 4351SOL    HW213953   1.927   6.414   1.037
 4352SOL     OW13954   0.997   2.294   2.223
 4352SOL    HW113955   0.960   2.208   2.257
 4352SOL    HW213956   0.946   2.323   2.142
 4353SOL     OW13957   3.395   4.379   0.269
 4353SOL    HW113958   3.340   4.313   0.319
 4353SOL    HW213959   3.447   4.435   0.333
 4354SOL     OW13960   2.026   6.609   5.313
 4354SOL    HW113961   2.105   6.569   5.265
 4354SOL    HW213962   2.054   6.636   5.405
 4355SOL     OW13963   3.281   0.356   2.459
 4355SOL    HW113964   3.357   0.386   2.402
 4355SOL    HW213965   3.229   0.436   2.490
 4356SOL     OW13966   4.672   4.391   1.759
 4356SOL    HW113967   4.604   4.327   1.793
 4356SOL    HW213968   4.712   4.441   1.836
 4357SOL     OW13969   6.099   0.208   6.887
 4357SOL    HW113970   6.060   0.217   6.979
 4357SOL    HW213971   6.131   0.114   6.874
 4358SOL     OW13972   6.873   5.852   0.254
 4358SOL    HW113973   6.971   5.869   0.251
 4358SOL    HW213974   6.844   5.838   0.349
 4359SOL     OW13975   1.346   2.045   5.590
 4359SOL    HW113976   1.418   1.994   5.636
 4359SOL    HW213977   1.257   2.010   5.619
 4360SOL     OW13978   1.303   3.254   2.952
 4360SOL    HW113979   1.322   3.227   2.857
 4360SOL    HW213980   1.389   3.280   2.997
 4361SOL     OW13981   2.884   2.791   1.654
 4361SOL    HW113982   2.978   2.804   1.622
 4361SOL    HW213983   2.861   2.694   1.656
 4362SOL     OW13984   6.015   4.243   3.773
 4362SOL    HW113985   5.950   4.319   3.782
 4362SOL    HW213986   5.996   4.174   3.843
 4363SOL     OW13987   5.372   2.495   6.850
 4363SOL    HW113988   5.364   2.508   6.949
 4363SOL    HW213989   5.402   2.581   6.808
 4364SOL     OW13990   3.145   3.718   5.206
 4364SOL    HW113991   3.078   3.791   5.221
 4364SOL    HW213992   3.142   3.690   5.110
 4365SOL     OW13993   2.280   2.643   1.800
 4365SOL    HW113994   2.212   2.635   1.874
 4365SOL    HW213995   2.243   2.601   1.717
 4366SOL     OW13996   5.496   6.583   0.481
 4366SOL    HW113997   5.588   6.621   0.490
 4366SOL    HW213998   5.500   6.483   0.484
 4367SOL     OW13999   2.237   5.029   5.078
 4367SOL    HW114000   2.300   5.103   5.056
 4367SOL    HW214001   2.285   4.958   5.130
 4368SOL     OW14002   3.964   5.532   1.369
 4368SOL    HW114003   4.052   5.495   1.339
 4368SOL    HW214004   3.933   5.481   1.450
 4369SOL     OW14005   4.458   5.760   3.372
 4369SOL    HW114006   4.448   5.853   3.336
 4369SOL    HW214007   4.402   5.697   3.319
 4370SOL     OW14008   4.673   4.521   3.049
 4370SOL    HW114009   4.614   4.521   2.968
 4370SOL    HW214010   4.768   4.533   3.022
 4371SOL     OW14011   6.523   0.652   1.297
 4371SOL    HW114012   6.472   0.681   1.216
 4371SOL    HW214013   6.591   0.583   1.271
 4372SOL     OW14014   4.244   1.098   3.362
 4372SOL    HW114015   4.211   1.028   3.425
 4372SOL    HW214016   4.228   1.067   3.268
 4373SOL     OW14017   0.056   2.355   6.567
 4373SOL    HW114018   0.030   2.429   6.629
 4373SOL    HW214019   0.100   2.393   6.486
 4374SOL     OW14020   1.204   1.618   1.945
 4374SOL    HW114021   1.105   1.629   1.933
 4374SOL    HW214022   1.245   1.706   1.969
 4375SOL     OW14023   3.392   0.560   3.915
 4375SOL    HW114024   3.474   0.586   3.965
 4375SOL    HW214025   3.370   0.464   3.934
 4376SOL     OW14026   6.607   6.844   3.147
 4376SOL    HW114027   6.696   6.828   3.103
 4376SOL    HW214028   6.610   6.808   3.241
 4377SOL     OW14029   6.079   4.114   0.500
 4377SOL    HW114030   6.107   4.204   0.534
 4377SOL    HW214031   6.160   4.063   0.473
 4378SOL     OW14032   1.988   1.373   2.729
 4378SOL    HW114033   2.028   1.415   2.648
 4378SOL    HW214034   1.973   1.276   2.712
 4379SOL     OW14035   2.169   1.067   3.482
 4379SOL    HW114036   2.262   1.101   3.495
 4379SOL    HW214037   2.104   1.132   3.522
 4380SOL     OW14038   1.259   0.119   1.429
 4380SOL    HW114039   1.218   0.192   1.484
 4380SOL    HW214040   1.336   0.156   1.378
 4381SOL     OW14041   0.898   6.267   4.762
 4381SOL    HW114042   0.969   6.251   4.693
 4381SOL    HW214043   0.814   6.297   4.718
 4382SOL     OW14044   0.143   3.737   5.909
 4382SOL    HW114045   0.200   3.696   5.980
 4382SOL    HW214046   0.198   3.755   5.828
 4383SOL     OW14047   0.250   3.855   6.186
 4383SOL    HW114048   0.290   3.942   6.160
 4383SOL    HW214049   0.319   3.783   6.182
 4384SOL     OW14050   6.110   0.400   3.954
 4384SOL    HW114051   6.128   0.475   4.018
 4384SOL    HW214052   6.112   0.434   3.860
 4385SOL     OW14053   4.602   2.453   5.207
 4385SOL    HW114054   4.690   2.413   5.183
 4385SOL    HW214055   4.575   2.518   5.136
 4386SOL     OW14056   1.248   4.020   5.000
 4386SOL    HW114057   1.208   4.060   5.083
 4386SOL    HW214058   1.325   3.961   5.024
 4387SOL     OW14059   0.008   2.333   2.125
 4387SOL    HW114060   0.062   2.414   2.147
 4387SOL    HW214061   6.995   2.342   2.033
 4388SOL     OW14062   3.775   2.384   6.251
 4388SOL    HW114063   3.702   2.397   6.184
 4388SOL    HW214064   3.843   2.320   6.215
 4389SOL     OW14065   6.766   3.993   0.587
 4389SOL    HW114066   6.832   3.992   0.661
 4389SOL    HW214067   6.770   4.080   0.538
 4390SOL     OW14068   4.622   0.182   1.346
 4390SOL    HW114069   4.692   0.127   1.393
 4390SOL    HW214070   4.662   0.225   1.266
 4391SOL     OW14071   3.023   4.644   6.942
 4391SOL    HW114072   3.074   4.634   0.001
 4391SOL    HW214073   3.085   4.674   6.869
 4392SOL     OW14074   1.149   2.135   4.626
 4392SOL    HW114075   1.133   2.232   4.606
 4392SOL    HW214076   1.238   2.124   4.670
 4393SOL     OW14077   6.320   0.587   1.720
 4393SOL    HW114078   6.396   0.581   1.785
 4393SOL    HW214079   6.292   0.495   1.692
 4394SOL     OW14080   0.366   6.069   2.523
 4394SOL    HW114081   0.330   5.983   2.556
 4394SOL    HW214082   0.297   6.116   2.468
 4395SOL     OW14083   1.935   0.306   1.767
 4395SOL    HW114084   1.868   0.377   1.744
 4395SOL    HW214085   1.950   0.305   1.865
 4396SOL     OW14086   1.770   1.184   3.722
 4396SOL    HW114087   1.768   1.282   3.707
 4396SOL    HW214088   1.738   1.163   3.814
 4397SOL     OW14089   1.985   2.841   4.630
 4397SOL    HW114090   1.956   2.849   4.725
 4397SOL    HW214091   2.081   2.869   4.622
 4398SOL     OW14092   1.632   3.429   6.046
 4398SOL    HW114093   1.540   3.392   6.053
 4398SOL    HW214094   1.643   3.477   5.959
 4399SOL     OW14095   2.999   6.548   1.987
 4399SOL    HW114096   3.091   6.533   2.025
 4399SOL    HW214097   2.993   6.507   1.896
 4400SOL     OW14098   2.157   6.805   3.648
 4400SOL    HW114099   2.161   6.737   3.575
 4400SOL    HW214100   2.116   6.764   3.729
 4401SOL     OW14101   3.933   6.492   5.110
 4401SOL    HW114102   3.897   6.442   5.189
 4401SOL    HW214103   3.938   6.430   5.031
 4402SOL     OW14104   0.921   6.955   2.942
 4402SOL    HW114105   0.879   6.868   2.971
 4402SOL    HW214106   0.906   6.969   2.845
 4403SOL     OW14107   1.408   6.799   0.460
 4403SOL    HW114108   1.461   6.855   0.396
 4403SOL    HW214109   1.315   6.788   0.425
 4404SOL     OW14110   0.424   6.404   5.361
 4404SOL    HW114111   0.382   6.492   5.381
 4404SOL    HW214112   0.371   6.357   5.291
 4405SOL     OW14113   2.287   4.896   2.257
 4405SOL    HW114114   2.229   4.913   2.336
 4405SOL    HW214115   2.374   4.944   2.268
 4406SOL     OW14116   6.681   2.701   0.469
 4406SOL    HW114117   6.645   2.793   0.481
 4406SOL    HW214118   6.780   2.704   0.463
 4407SOL     OW14119   6.918   5.346   1.647
 4407SOL    HW114120   6.821   5.329   1.667
 4407SOL    HW214121   6.949   5.283   1.576
 4408SOL     OW14122   1.964   6.610   6.961
 4408SOL    HW114123   1.991   6.514   6.968
 4408SOL    HW214124   1.918   6.626   6.874
 4409SOL     OW14125   4.625   1.170   1.385
 4409SOL    HW114126   4.527   1.170   1.408
 4409SOL    HW214127   4.678   1.147   1.467
 4410SOL     OW14128   6.913   5.497   0.025
 4410SOL    HW114129   6.874   5.587   0.043
 4410SOL    HW214130   6.844   5.427   0.043
 4411SOL     OW14131   3.365   4.665   5.286
 4411SOL    HW114132   3.330   4.752   5.253
 4411SOL    HW214133   3.307   4.631   5.360
 4412SOL     OW14134   4.733   6.439   4.059
 4412SOL    HW114135   4.814   6.435   4.118
 4412SOL    HW214136   4.651   6.424   4.114
 4413SOL     OW14137   5.617   5.745   3.572
 4413SOL    HW114138   5.547   5.759   3.502
 4413SOL    HW214139   5.605   5.812   3.645
 4414SOL     OW14140   3.973   5.923   1.124
 4414SOL    HW114141   3.873   5.926   1.133
 4414SOL    HW214142   4.006   6.013   1.096
 4415SOL     OW14143   4.151   3.071   0.474
 4415SOL    HW114144   4.206   3.087   0.557
 4415SOL    HW214145   4.123   2.975   0.471
 4416SOL     OW14146   4.094   1.888   3.471
 4416SOL    HW114147   4.120   1.984   3.455
 4416SOL    HW214148   4.021   1.885   3.539
 4417SOL     OW14149   5.346   3.215   4.062
 4417SOL    HW114150   5.360   3.239   3.966
 4417SOL    HW214151   5.428   3.238   4.114
 4418SOL     OW14152   6.402   2.120   2.579
 4418SOL    HW114153   6.487   2.137   2.629
 4418SOL    HW214154   6.368   2.205   2.539
 4419SOL     OW14155   6.645   0.408   5.752
 4419SOL    HW114156   6.703   0.326   5.750
 4419SOL    HW214157   6.569   0.397   5.688
 4420SOL     OW14158   3.640   1.593   0.847
 4420SOL    HW114159   3.716   1.572   0.910
 4420SOL    HW214160   3.553   1.570   0.892
 4421SOL     OW14161   2.254   1.633   5.256
 4421SOL    HW114162   2.270   1.728   5.232
 4421SOL    HW214163   2.187   1.628   5.331
 4422SOL     OW14164   1.209   4.253   6.988
 4422SOL    HW114165   1.168   4.318   0.026
 4422SOL    HW214166   1.163   4.258   6.900
 4423SOL     OW14167   0.209   4.529   5.899
 4423SOL    HW114168   0.250   4.495   5.983
 4423SOL    HW214169   0.127   4.583   5.922
 4424SOL     OW14170   5.418   6.172   4.860
 4424SOL    HW114171   5.491   6.178   4.928
 4424SOL    HW214172   5.347   6.111   4.893
 4425SOL     OW14173   1.401   5.326   1.076
 4425SOL    HW114174   1.466   5.261   1.116
 4425SOL    HW214175   1.389   5.306   0.979
 4426SOL     OW14176   0.356   1.442   4.008
 4426SOL    HW114177   0.453   1.462   4.027
 4426SOL    HW214178   0.328   1.361   4.060
 4427SOL     OW14179   4.396   5.969   2.624
 4427SOL    HW114180   4.350   6.056   2.607
 4427SOL    HW214181   4.409   5.920   2.537
 4428SOL     OW14182   4.093   0.684   4.390
 4428SOL    HW114183   4.181   0.729   4.409
 4428SOL    HW214184   4.018   0.745   4.415
 4429SOL     OW14185   2.685   6.380   2.722
 4429SOL    HW114186   2.767   6.434   2.740
 4429SOL    HW214187   2.706   6.306   2.659
 4430SOL     OW14188   4.905   4.814   5.001
 4430SOL    HW114189   4.952   4.725   5.000
 4430SOL    HW214190   4.816   4.805   4.957
 4431SOL     OW14191   2.717   1.119   3.001
 4431SOL    HW114192   2.652   1.046   3.023
 4431SOL    HW214193   2.808   1.080   2.988
 4432SOL     OW14194   2.390   3.548   6.831
 4432SOL    HW114195   2.335   3.483   6.777
 4432SOL    HW214196   2.345   3.637   6.830
 4433SOL     OW14197   7.016   2.782   4.549
 4433SOL    HW114198   0.072   2.767   4.495
 4433SOL    HW214199   7.014   2.717   4.625
 4434SOL     OW14200   5.491   1.949   3.307
 4434SOL    HW114201   5.585   1.926   3.283
 4434SOL    HW214202   5.438   1.962   3.223
 4435SOL     OW14203   3.678   4.159   1.451
 4435SOL    HW114204   3.752   4.111   1.499
 4435SOL    HW214205   3.635   4.224   1.514
 4436SOL     OW14206   3.917   1.369   1.358
 4436SOL    HW114207   3.940   1.286   1.307
 4436SOL    HW214208   3.846   1.348   1.425
 4437SOL     OW14209   0.641   3.470   2.806
 4437SOL    HW114210   0.601   3.501   2.720
 4437SOL    HW214211   0.568   3.453   2.872
 4438SOL     OW14212   5.359   6.812   5.923
 4438SOL    HW114213   5.410   6.727   5.906
 4438SOL    HW214214   5.269   6.790   5.959
 4439SOL     OW14215   0.542   4.895   2.323
 4439SOL    HW114216   0.571   4.854   2.410
 4439SOL    HW214217   0.507   4.824   2.262
 4440SOL     OW14218   2.253   5.069   0.564
 4440SOL    HW114219   2.342   5.048   0.524
 4440SOL    HW214220   2.181   5.038   0.503
 4441SOL     OW14221   6.848   1.120   0.940
 4441SOL    HW114222   6.818   1.040   0.992
 4441SOL    HW214223   6.822   1.203   0.989
 4442SOL     OW14224   1.626   5.505   5.106
 4442SOL    HW114225   1.553   5.565   5.138
 4442SOL    HW214226   1.714   5.550   5.120
 4443SOL     OW14227   0.805   4.083   5.882
 4443SOL    HW114228   0.754   4.129   5.810
 4443SOL    HW214229   0.877   4.144   5.916
 4444SOL     OW14230   4.546   3.621   0.394
 4444SOL    HW114231   4.626   3.657   0.346
 4444SOL    HW214232   4.463   3.666   0.361
 4445SOL     OW14233   1.441   6.065   0.246
 4445SOL    HW114234   1.348   6.070   0.210
 4445SOL    HW214235   1.487   6.153   0.230
 4446SOL     OW14236   5.563   1.698   0.419
 4446SOL    HW114237   5.479   1.650   0.392
 4446SOL    HW214238   5.575   1.692   0.518
 4447SOL     OW14239   5.846   4.090   4.535
 4447SOL    HW114240   5.896   4.003   4.529
 4447SOL    HW214241   5.794   4.093   4.620
 4448SOL     OW14242   3.116   6.479   1.067
 4448SOL    HW114243   3.137   6.387   1.037
 4448SOL    HW214244   3.114   6.482   1.167
 4449SOL     OW14245   4.882   1.213   5.907
 4449SOL    HW114246   4.894   1.210   6.007
 4449SOL    HW214247   4.925   1.132   5.867
 4450SOL     OW14248   3.042   1.378   6.910
 4450SOL    HW114249   2.957   1.326   6.909
 4450SOL    HW214250   3.044   1.441   6.833
 4451SOL     OW14251   4.609   5.210   4.561
 4451SOL    HW114252   4.607   5.164   4.472
 4451SOL    HW214253   4.704   5.223   4.590
 4452SOL     OW14254   6.457   5.150   4.673
 4452SOL    HW114255   6.438   5.166   4.576
 4452SOL    HW214256   6.514   5.069   4.683
 4453SOL     OW14257   1.282   2.667   1.742
 4453SOL    HW114258   1.382   2.662   1.741
 4453SOL    HW214259   1.253   2.750   1.695
 4454SOL     OW14260   1.437   1.668   6.987
 4454SOL    HW114261   1.425   1.678   6.888
 4454SOL    HW214262   1.497   1.590   7.005
 4455SOL     OW14263   5.353   5.858   5.557
 4455SOL    HW114264   5.281   5.829   5.494
 4455SOL    HW214265   5.376   5.783   5.619
 4456SOL     OW14266   2.145   5.834   3.433
 4456SOL    HW114267   2.164   5.783   3.349
 4456SOL    HW214268   2.121   5.771   3.506
 4457SOL     OW14269   2.454   1.830   3.970
 4457SOL    HW114270   2.474   1.835   4.068
 4457SOL    HW214271   2.512   1.759   3.929
 4458SOL     OW14272   2.836   3.741   1.715
 4458SOL    HW114273   2.749   3.784   1.692
 4458SOL    HW214274   2.831   3.701   1.806
 4459SOL     OW14275   3.392   1.696   4.059
 4459SOL    HW114276   3.449   1.617   4.040
 4459SOL    HW214277   3.429   1.746   4.137
 4460SOL     OW14278   1.098   2.567   6.454
 4460SOL    HW114279   1.193   2.598   6.449
 4460SOL    HW214280   1.041   2.640   6.492
 4461SOL     OW14281   1.722   0.786   0.713
 4461SOL    HW114282   1.684   0.729   0.786
 4461SOL    HW214283   1.813   0.818   0.740
 4462SOL     OW14284   6.039   4.411   1.927
 4462SOL    HW114285   5.941   4.409   1.905
 4462SOL    HW214286   6.051   4.412   2.026
 4463SOL     OW14287   4.972   0.910   1.288
 4463SOL    HW114288   4.873   0.900   1.283
 4463SOL    HW214289   4.995   0.998   1.329
 4464SOL     OW14290   0.516   6.087   0.052
 4464SOL    HW114291   0.460   6.036   7.012
 4464SOL    HW214292   0.463   6.165   0.086
 4465SOL     OW14293   2.534   5.061   6.869
 4465SOL    HW114294   2.445   5.090   6.835
 4465SOL    HW214295   2.562   5.120   6.944
 4466SOL     OW14296   1.170   1.953   2.559
 4466SOL    HW114297   1.259   1.970   2.516
 4466SOL    HW214298   1.147   2.031   2.618
 4467SOL     OW14299   2.546   5.252   3.637
 4467SOL    HW114300   2.527   5.278   3.542
 4467SOL    HW214301   2.602   5.169   3.639
 4468SOL     OW14302   0.860   4.539   1.191
 4468SOL    HW114303   0.908   4.618   1.153
 4468SOL    HW214304   0.903   4.455   1.160
 4469SOL     OW14305   3.036   1.036   1.599
 4469SOL    HW114306   2.945   1.076   1.612
 4469SOL    HW214307   3.032   0.969   1.525
 4470SOL     OW14308   0.794   1.536   2.135
 4470SOL    HW114309   0.738   1.566   2.212
 4470SOL    HW214310   0.775   1.440   2.115
 4471SOL     OW14311   1.656   2.552   6.917
 4471SOL    HW114312   1.681   2.460   6.887
 4471SOL    HW214313   1.656   2.556   7.017
 4472SOL     OW14314   0.610   1.609   0.607
 4472SOL    HW114315   0.545   1.623   0.682
 4472SOL    HW214316   0.593   1.677   0.535
 4473SOL     OW14317   5.015   2.609   4.140
 4473SOL    HW114318   5.044   2.658   4.057
 4473SOL    HW214319   5.095   2.575   4.189
 4474SOL     OW14320   2.938   6.737   2.257
 4474SOL    HW114321   2.923   6.778   2.167
 4474SOL    HW214322   2.868   6.667   2.275
 4475SOL     OW14323   1.254   3.550   1.391
 4475SOL    HW114324   1.222   3.455   1.394
 4475SOL    HW214325   1.273   3.575   1.296
 4476SOL     OW14326   6.306   0.662   4.404
 4476SOL    HW114327   6.334   0.695   4.495
 4476SOL    HW214328   6.336   0.728   4.335
 4477SOL     OW14329   1.694   0.278   5.028
 4477SOL    HW114330   1.711   0.237   5.118
 4477SOL    HW214331   1.609   0.330   5.031
 4478SOL     OW14332   1.426   0.438   1.922
 4478SOL    HW114333   1.485   0.377   1.974
 4478SOL    HW214334   1.343   0.458   1.975
 4479SOL     OW14335   1.531   1.853   1.015
 4479SOL    HW114336   1.452   1.799   1.043
 4479SOL    HW214337   1.588   1.872   1.094
 4480SOL     OW14338   0.712   4.717   5.021
 4480SOL    HW114339   0.786   4.767   5.066
 4480SOL    HW214340   0.630   4.774   5.018
 4481SOL     OW14341   2.424   5.205   5.048
 4481SOL    HW114342   2.468   5.228   4.961
 4481SOL    HW214343   2.494   5.178   5.114
 4482SOL     OW14344   2.189   2.825   5.638
 4482SOL    HW114345   2.287   2.840   5.625
 4482SOL    HW214346   2.163   2.737   5.599
 4483SOL     OW14347   0.347   2.613   2.201
 4483SOL    HW114348   0.318   2.678   2.271
 4483SOL    HW214349   0.443   2.630   2.178
 4484SOL     OW14350   2.518   2.679   0.141
 4484SOL    HW114351   2.422   2.681   0.113
 4484SOL    HW214352   2.523   2.664   0.240
 4485SOL     OW14353   4.945   2.833   5.331
 4485SOL    HW114354   5.023   2.787   5.291
 4485SOL    HW214355   4.867   2.828   5.269
 4486SOL     OW14356   5.845   5.112   5.047
 4486SOL    HW114357   5.773   5.060   5.095
 4486SOL    HW214358   5.868   5.194   5.100
 4487SOL     OW14359   2.517   3.101   0.354
 4487SOL    HW114360   2.563   3.025   0.400
 4487SOL    HW214361   2.501   3.175   0.419
 4488SOL     OW14362   0.710   3.665   4.814
 4488SOL    HW114363   0.749   3.728   4.746
 4488SOL    HW214364   0.690   3.577   4.770
 4489SOL     OW14365   4.727   5.417   4.982
 4489SOL    HW114366   4.703   5.440   5.076
 4489SOL    HW214367   4.816   5.371   4.981
 4490SOL     OW14368   4.974   1.870   1.707
 4490SOL    HW114369   5.052   1.858   1.767
 4490SOL    HW214370   4.912   1.938   1.745
 4491SOL     OW14371   0.614   3.327   3.446
 4491SOL    HW114372   0.663   3.364   3.525
 4491SOL    HW214373   0.672   3.261   3.398
 4492SOL     OW14374   5.813   2.978   1.879
 4492SOL    HW114375   5.736   3.020   1.927
 4492SOL    HW214376   5.864   3.048   1.829
 4493SOL     OW14377   5.651   6.644   4.924
 4493SOL    HW114378   5.573   6.586   4.899
 4493SOL    HW214379   5.685   6.617   5.014
 4494SOL     OW14380   1.198   0.659   6.009
 4494SOL    HW114381   1.247   0.728   5.956
 4494SOL    HW214382   1.175   0.697   6.099
 4495SOL     OW14383   4.311   0.268   3.095
 4495SOL    HW114384   4.321   0.173   3.126
 4495SOL    HW214385   4.238   0.273   3.027
 4496SOL     OW14386   5.538   6.010   0.713
 4496SOL    HW114387   5.601   6.053   0.777
 4496SOL    HW214388   5.569   6.025   0.619
 4497SOL     OW14389   3.931   2.569   6.457
 4497SOL    HW114390   3.902   2.657   6.493
 4497SOL    HW214391   4.025   2.575   6.424
 4498SOL     OW14392   6.635   4.678   6.446
 4498SOL    HW114393   6.602   4.624   6.524
 4498SOL    HW214394   6.732   4.697   6.457
 4499SOL     OW14395   6.341   2.263   3.700
 4499SOL    HW114396   6.255   2.212   3.707
 4499SOL    HW214397   6.323   2.356   3.670
 4500SOL     OW14398   3.871   4.487   6.379
 4500SOL    HW114399   3.817   4.570   6.388
 4500SOL    HW214400   3.892   4.451   6.471
 4501SOL     OW14401   6.303   2.844   2.942
 4501SOL    HW114402   6.228   2.804   2.994
 4501SOL    HW214403   6.279   2.938   2.917
 4502SOL     OW14404   1.301   3.707   0.100
 4502SOL    HW114405   1.341   3.711   0.009
 4502SOL    HW214406   1.364   3.661   0.163
 4503SOL     OW14407   3.019   0.063   2.200
 4503SOL    HW114408   2.996   0.061   2.103
 4503SOL    HW214409   2.951   0.011   2.251
 4504SOL     OW14410   6.120   2.251   4.430
 4504SOL    HW114411   6.159   2.255   4.522
 4504SOL    HW214412   6.117   2.344   4.392
 4505SOL     OW14413   6.463   4.531   1.479
 4505SOL    HW114414   6.449   4.465   1.553
 4505SOL    HW214415   6.561   4.540   1.461
 4506SOL     OW14416   5.303   2.577   3.502
 4506SOL    HW114417   5.317   2.676   3.499
 4506SOL    HW214418   5.300   2.540   3.409
 4507SOL     OW14419   0.136   3.256   3.611
 4507SOL    HW114420   0.220   3.259   3.664
 4507SOL    HW214421   0.154   3.216   3.521
 4508SOL     OW14422   1.432   4.830   0.178
 4508SOL    HW114423   1.517   4.882   0.194
 4508SOL    HW214424   1.361   4.892   0.145
 4509SOL     OW14425   4.588   2.236   3.098
 4509SOL    HW114426   4.549   2.283   3.019
 4509SOL    HW214427   4.666   2.181   3.069
 4510SOL     OW14428   4.554   1.071   4.335
 4510SOL    HW114429   4.533   1.070   4.433
 4510SOL    HW214430   4.640   1.119   4.320
 4511SOL     OW14431   6.000   3.365   0.210
 4511SOL    HW114432   6.057   3.284   0.201
 4511SOL    HW214433   5.907   3.339   0.236
 4512SOL     OW14434   3.371   1.938   5.987
 4512SOL    HW114435   3.354   1.886   5.903
 4512SOL    HW214436   3.467   1.967   5.989
 4513SOL     OW14437   0.920   6.456   6.322
 4513SOL    HW114438   0.848   6.482   6.386
 4513SOL    HW214439   0.961   6.538   6.283
 4514SOL     OW14440   3.446   2.708   6.515
 4514SOL    HW114441   3.515   2.642   6.542
 4514SOL    HW214442   3.487   2.799   6.506
 4515SOL     OW14443   5.597   1.998   4.905
 4515SOL    HW114444   5.677   2.021   4.961
 4515SOL    HW214445   5.605   1.903   4.874
 4516SOL     OW14446   2.475   0.495   5.469
 4516SOL    HW114447   2.420   0.419   5.433
 4516SOL    HW214448   2.425   0.540   5.543
 4517SOL     OW14449   4.385   6.830   6.726
 4517SOL    HW114450   4.464   6.791   6.774
 4517SOL    HW214451   4.316   6.858   6.793
 4518SOL     OW14452   0.615   6.900   1.470
 4518SOL    HW114453   0.583   6.924   1.561
 4518SOL    HW214454   0.702   6.850   1.477
 4519SOL     OW14455   5.114   6.402   0.131
 4519SOL    HW114456   5.169   6.482   0.107
 4519SOL    HW214457   5.017   6.426   0.129
 4520SOL     OW14458   4.457   5.733   5.718
 4520SOL    HW114459   4.361   5.703   5.720
 4520SOL    HW214460   4.510   5.668   5.663
 4521SOL     OW14461   4.842   2.383   4.845
 4521SOL    HW114462   4.873   2.463   4.896
 4521SOL    HW214463   4.876   2.389   4.751
 4522SOL     OW14464   5.778   3.986   2.374
 4522SOL    HW114465   5.695   4.003   2.426
 4522SOL    HW214466   5.813   3.895   2.395
 4523SOL     OW14467   1.753   3.745   6.874
 4523SOL    HW114468   1.707   3.664   6.837
 4523SOL    HW214469   1.757   3.817   6.804
 4524SOL     OW14470   6.288   3.487   2.309
 4524SOL    HW114471   6.194   3.511   2.335
 4524SOL    HW214472   6.322   3.416   2.371
 4525SOL     OW14473   3.111   1.965   5.689
 4525SOL    HW114474   3.038   1.940   5.626
 4525SOL    HW214475   3.164   1.884   5.713
 4526SOL     OW14476   0.062   0.895   6.833
 4526SOL    HW114477   0.036   0.803   6.805
 4526SOL    HW214478   0.138   0.890   6.898
 4527SOL     OW14479   6.556   0.079   3.126
 4527SOL    HW114480   6.605   0.116   3.205
 4527SOL    HW214481   6.558   7.005   3.129
 4528SOL     OW14482   4.546   0.869   6.330
 4528SOL    HW114483   4.617   0.799   6.333
 4528SOL    HW214484   4.505   0.878   6.421
 4529SOL     OW14485   3.010   1.193   5.763
 4529SOL    HW114486   3.030   1.284   5.801
 4529SOL    HW214487   2.953   1.142   5.828
 4530SOL     OW14488   2.435   5.411   3.839
 4530SOL    HW114489   2.512   5.367   3.792
 4530SOL    HW214490   2.407   5.354   3.916
 4531SOL     OW14491   1.209   3.750   6.072
 4531SOL    HW114492   1.283   3.695   6.034
 4531SOL    HW214493   1.176   3.708   6.156
 4532SOL     OW14494   5.338   0.499   3.352
 4532SOL    HW114495   5.371   0.579   3.302
 4532SOL    HW214496   5.414   0.439   3.375
 4533SOL     OW14497   1.563   1.379   2.861
 4533SOL    HW114498   1.580   1.402   2.766
 4533SOL    HW214499   1.630   1.312   2.892
 4534SOL     OW14500   4.307   2.133   5.409
 4534SOL    HW114501   4.384   2.166   5.353
 4534SOL    HW214502   4.342   2.071   5.479
 4535SOL     OW14503   3.458   0.937   1.242
 4535SOL    HW114504   3.552   0.930   1.210
 4535SOL    HW214505   3.452   1.007   1.313
 4536SOL     OW14506   3.301   1.508   5.105
 4536SOL    HW114507   3.202   1.493   5.112
 4536SOL    HW214508   3.322   1.600   5.138
 4537SOL     OW14509   4.175   3.268   2.108
 4537SOL    HW114510   4.148   3.263   2.012
 4537SOL    HW214511   4.249   3.333   2.119
 4538SOL     OW14512   2.305   1.481   2.132
 4538SOL    HW114513   2.378   1.413   2.143
 4538SOL    HW214514   2.344   1.573   2.141
 4539SOL     OW14515   2.161   5.205   4.155
 4539SOL    HW114516   2.163   5.178   4.251
 4539SOL    HW214517   2.235   5.270   4.138
 4540SOL     OW14518   1.658   1.519   0.850
 4540SOL    HW114519   1.730   1.451   0.837
 4540SOL    HW214520   1.688   1.587   0.917
 4541SOL     OW14521   4.711   1.129   0.109
 4541SOL    HW114522   4.773   1.051   0.123
 4541SOL    HW214523   4.632   1.119   0.170
 4542SOL     OW14524   0.074   1.937   1.394
 4542SOL    HW114525   7.000   1.935   1.396
 4542SOL    HW214526   0.109   1.848   1.367
 4543SOL     OW14527   4.790   2.061   0.774
 4543SOL    HW114528   4.763   2.007   0.694
 4543SOL    HW214529   4.747   2.151   0.769
 4544SOL     OW14530   4.086   4.748   0.823
 4544SOL    HW114531   4.050   4.831   0.780
 4544SOL    HW214532   4.068   4.751   0.921
 4545SOL     OW14533   0.344   3.585   5.480
 4545SOL    HW114534   0.290   3.607   5.561
 4545SOL    HW214535   0.427   3.641   5.479
 4546SOL     OW14536   2.725   6.981   5.010
 4546SOL    HW114537   2.801   6.993   5.075
 4546SOL    HW214538   2.744   0.009   4.928
 4547SOL     OW14539   6.402   0.819   0.286
 4547SOL    HW114540   6.366   0.790   0.375
 4547SOL    HW214541   6.326   0.826   0.221
 4548SOL     OW14542   2.491   2.156   3.310
 4548SOL    HW114543   2.497   2.223   3.383
 4548SOL    HW214544   2.412   2.097   3.325
 4549SOL     OW14545   5.112   4.074   2.054
 4549SOL    HW114546   5.024   4.064   2.100
 4549SOL    HW214547   5.114   4.018   1.971
 4550SOL     OW14548   1.163   4.253   3.585
 4550SOL    HW114549   1.192   4.272   3.491
 4550SOL    HW214550   1.130   4.337   3.627
 4551SOL     OW14551   0.575   3.871   5.189
 4551SOL    HW114552   0.620   3.812   5.256
 4551SOL    HW214553   0.485   3.898   5.223
 4552SOL     OW14554   6.044   2.123   1.506
 4552SOL    HW114555   5.963   2.118   1.449
 4552SOL    HW214556   6.068   2.031   1.538
 4553SOL     OW14557   5.183   4.491   6.542
 4553SOL    HW114558   5.160   4.472   6.447
 4553SOL    HW214559   5.248   4.422   6.574
 4554SOL     OW14560   0.231   0.151   1.482
 4554SOL    HW114561   0.227   0.051   1.470
 4554SOL    HW214562   0.162   0.179   1.549
 4555SOL     OW14563   1.362   1.224   6.655
 4555SOL    HW114564   1.329   1.130   6.670
 4555SOL    HW214565   1.391   1.263   6.742
 4556SOL     OW14566   5.960   3.195   5.312
 4556SOL    HW114567   5.890   3.167   5.247
 4556SOL    HW214568   5.993   3.286   5.288
 4557SOL     OW14569   6.148   4.856   4.666
 4557SOL    HW114570   6.126   4.893   4.757
 4557SOL    HW214571   6.079   4.887   4.601
 4558SOL     OW14572   6.865   3.307   5.343
 4558SOL    HW114573   6.846   3.263   5.255
 4558SOL    HW214574   6.822   3.253   5.416
 4559SOL     OW14575   0.351   3.635   2.731
 4559SOL    HW114576   0.315   3.721   2.693
 4559SOL    HW214577   0.397   3.583   2.659
 4560SOL     OW14578   6.177   4.501   2.474
 4560SOL    HW114579   6.254   4.544   2.426
 4560SOL    HW214580   6.197   4.497   2.572
 4561SOL     OW14581   3.831   1.681   3.612
 4561SOL    HW114582   3.743   1.638   3.592
 4561SOL    HW214583   3.816   1.774   3.647
 4562SOL     OW14584   1.551   6.906   0.248
 4562SOL    HW114585   1.642   6.864   0.247
 4562SOL    HW214586   1.502   6.882   0.164
 4563SOL     OW14587   6.378   3.236   0.879
 4563SOL    HW114588   6.297   3.277   0.922
 4563SOL    HW214589   6.458   3.255   0.935
 4564SOL     OW14590   0.151   4.845   2.283
 4564SOL    HW114591   0.248   4.820   2.283
 4564SOL    HW214592   0.097   4.768   2.248
 4565SOL     OW14593   1.618   1.053   4.756
 4565SOL    HW114594   1.554   1.126   4.731
 4565SOL    HW214595   1.650   1.008   4.674
 4566SOL     OW14596   0.350   3.245   0.887
 4566SOL    HW114597   0.375   3.301   0.807
 4566SOL    HW214598   0.432   3.211   0.931
 4567SOL     OW14599   0.212   0.533   6.981
 4567SOL    HW114600   0.160   0.540   0.040
 4567SOL    HW214601   0.156   0.566   6.905
 4568SOL     OW14602   1.202   4.464   5.188
 4568SOL    HW114603   1.268   4.390   5.177
 4568SOL    HW214604   1.178   4.500   5.098
 4569SOL     OW14605   2.901   0.804   2.750
 4569SOL    HW114606   2.849   0.762   2.676
 4569SOL    HW214607   2.978   0.745   2.775
 4570SOL     OW14608   6.471   6.650   2.250
 4570SOL    HW114609   6.381   6.673   2.212
 4570SOL    HW214610   6.463   6.569   2.308
 4571SOL     OW14611   4.041   3.124   6.550
 4571SOL    HW114612   4.093   3.197   6.594
 4571SOL    HW214613   4.020   3.053   6.617
 4572SOL     OW14614   1.813   1.819   6.387
 4572SOL    HW114615   1.886   1.770   6.339
 4572SOL    HW214616   1.792   1.772   6.472
 4573SOL     OW14617   0.845   7.008   0.424
 4573SOL    HW114618   0.882   6.951   0.350
 4573SOL    HW214619   0.764   6.963   0.462
 4574SOL     OW14620   5.969   4.209   6.936
 4574SOL    HW114621   5.972   4.123   6.985
 4574SOL    HW214622   6.046   4.267   6.965
 4575SOL     OW14623   5.883   0.689   4.503
 4575SOL    HW114624   5.833   0.724   4.424
 4575SOL    HW214625   5.912   0.595   4.486
 4576SOL     OW14626   2.513   4.616   5.599
 4576SOL    HW114627   2.482   4.577   5.512
 4576SOL    HW214628   2.466   4.570   5.675
 4577SOL     OW14629   1.397   2.605   3.060
 4577SOL    HW114630   1.472   2.670   3.055
 4577SOL    HW214631   1.362   2.601   3.154
 4578SOL     OW14632   0.939   1.313   4.387
 4578SOL    HW114633   0.909   1.355   4.472
 4578SOL    HW214634   1.035   1.335   4.370
 4579SOL     OW14635   4.614   1.154   2.237
 4579SOL    HW114636   4.515   1.152   2.251
 4579SOL    HW214637   4.650   1.061   2.233
 4580SOL     OW14638   5.460   4.062   1.073
 4580SOL    HW114639   5.518   4.044   0.994
 4580SOL    HW214640   5.374   4.102   1.043
 4581SOL     OW14641   2.516   6.019   2.285
 4581SOL    HW114642   2.541   6.083   2.358
 4581SOL    HW214643   2.435   6.052   2.237
 4582SOL     OW14644   4.628   0.944   3.488
 4582SOL    HW114645   4.621   0.997   3.572
 4582SOL    HW214646   4.560   0.870   3.490
 4583SOL     OW14647   2.915   1.351   6.434
 4583SOL    HW114648   2.922   1.253   6.415
 4583SOL    HW214649   3.006   1.392   6.430
 4584SOL     OW14650   2.093   6.228   5.646
 4584SOL    HW114651   2.189   6.226   5.673
 4584SOL    HW214652   2.076   6.157   5.578
 4585SOL     OW14653   1.337   4.021   3.458
 4585SOL    HW114654   1.359   4.119   3.464
 4585SOL    HW214655   1.246   4.010   3.418
 4586SOL     OW14656   5.140   4.035   0.483
 4586SOL    HW114657   5.225   4.084   0.464
 4586SOL    HW214658   5.154   3.971   0.558
 4587SOL     OW14659   3.735   3.278   4.363
 4587SOL    HW114660   3.780   3.366   4.346
 4587SOL    HW214661   3.804   3.206   4.369
 4588SOL     OW14662   3.474   3.129   5.926
 4588SOL    HW114663   3.410   3.084   5.864
 4588SOL    HW214664   3.425   3.194   5.984
 4589SOL     OW14665   5.535   6.644   1.986
 4589SOL    HW114666   5.631   6.662   2.004
 4589SOL    HW214667   5.480   6.675   2.064
 4590SOL     OW14668   3.862   5.742   1.767
 4590SOL    HW114669   3.871   5.840   1.752
 4590SOL    HW214670   3.811   5.726   1.851
 4591SOL     OW14671   1.540   0.634   4.750
 4591SOL    HW114672   1.489   0.704   4.700
 4591SOL    HW214673   1.480   0.558   4.774
 4592SOL     OW14674   2.939   1.922   3.601
 4592SOL    HW114675   3.019   1.975   3.630
 4592SOL    HW214676   2.873   1.916   3.677
 4593SOL     OW14677   6.214   5.887   2.302
 4593SOL    HW114678   6.267   5.813   2.262
 4593SOL    HW214679   6.274   5.944   2.360
 4594SOL     OW14680   3.400   0.386   3.224
 4594SOL    HW114681   3.334   0.385   3.150
 4594SOL    HW214682   3.352   0.384   3.312
 4595SOL     OW14683   4.579   2.645   5.873
 4595SOL    HW114684   4.552   2.550   5.892
 4595SOL    HW214685   4.670   2.646   5.833
 4596SOL     OW14686   6.596   0.451   2.614
 4596SOL    HW114687   6.530   0.520   2.644
 4596SOL    HW214688   6.634   0.405   2.694
 4597SOL     OW14689   2.759   5.406   6.454
 4597SOL    HW114690   2.692   5.461   6.405
 4597SOL    HW214691   2.718   5.369   6.537
 4598SOL     OW14692   1.977   5.657   1.353
 4598SOL    HW114693   2.009   5.745   1.319
 4598SOL    HW214694   1.889   5.634   1.312
 4599SOL     OW14695   1.733   3.980   2.179
 4599SOL    HW114696   1.780   3.892   2.170
 4599SOL    HW214697   1.782   4.037   2.245
 4600SOL     OW14698   0.374   0.267   5.394
 4600SOL    HW114699   0.452   0.270   5.332
 4600SOL    HW214700   0.399   0.218   5.478
 4601SOL     OW14701   0.881   1.958   5.502
 4601SOL    HW114702   0.946   2.033   5.516
 4601SOL    HW214703   0.788   1.994   5.497
 4602SOL     OW14704   3.031   0.012   6.048
 4602SOL    HW114705   3.000   7.009   6.138
 4602SOL    HW214706   3.004   0.107   6.033
 4603SOL     OW14707   3.263   5.857   0.865
 4603SOL    HW114708   3.207   5.928   0.823
 4603SOL    HW214709   3.233   5.767   0.832
 4604SOL     OW14710   5.234   6.985   6.190
 4604SOL    HW114711   5.332   6.981   6.168
 4604SOL    HW214712   5.210   6.910   6.250
 4605SOL     OW14713   2.221   0.308   1.943
 4605SOL    HW114714   2.172   0.224   1.962
 4605SOL    HW214715   2.188   0.381   2.002
 4606SOL     OW14716   6.349   0.029   2.537
 4606SOL    HW114717   6.380   0.120   2.509
 4606SOL    HW214718   6.408   6.986   2.495
 4607SOL     OW14719   2.054   3.676   3.492
 4607SOL    HW114720   2.140   3.694   3.444
 4607SOL    HW214721   1.978   3.716   3.442
 4608SOL     OW14722   0.405   3.732   3.309
 4608SOL    HW114723   0.406   3.757   3.212
 4608SOL    HW214724   0.391   3.633   3.317
 4609SOL     OW14725   4.886   5.170   6.791
 4609SOL    HW114726   4.922   5.248   6.844
 4609SOL    HW214727   4.945   5.155   6.712
 4610SOL     OW14728   4.873   1.768   6.984
 4610SOL    HW114729   4.791   1.814   6.953
 4610SOL    HW214730   4.944   1.774   6.913
 4611SOL     OW14731   0.832   1.004   5.946
 4611SOL    HW114732   0.804   1.059   6.025
 4611SOL    HW214733   0.758   1.001   5.880
 4612SOL     OW14734   2.646   6.952   2.084
 4612SOL    HW114735   2.728   6.908   2.048
 4612SOL    HW214736   2.663   6.980   2.179
 4613SOL     OW14737   1.326   5.691   2.912
 4613SOL    HW114738   1.246   5.676   2.971
 4613SOL    HW214739   1.299   5.687   2.816
 4614SOL     OW14740   6.134   3.480   3.731
 4614SOL    HW114741   6.180   3.566   3.755
 4614SOL    HW214742   6.198   3.422   3.680
 4615SOL     OW14743   1.232   0.888   1.524
 4615SOL    HW114744   1.234   0.810   1.462
 4615SOL    HW214745   1.322   0.931   1.526
 4616SOL     OW14746   6.128   3.029   3.980
 4616SOL    HW114747   6.121   2.988   4.071
 4616SOL    HW214748   6.140   2.956   3.912
 4617SOL     OW14749   1.911   2.364   2.059
 4617SOL    HW114750   1.824   2.409   2.082
 4617SOL    HW214751   1.987   2.418   2.096
 4618SOL     OW14752   2.353   3.192   5.603
 4618SOL    HW114753   2.376   3.146   5.517
 4618SOL    HW214754   2.433   3.244   5.635
 4619SOL     OW14755   3.779   6.688   3.973
 4619SOL    HW114756   3.789   6.731   4.062
 4619SOL    HW214757   3.696   6.632   3.972
 4620SOL     OW14758   0.389   4.805   1.490
 4620SOL    HW114759   0.447   4.877   1.528
 4620SOL    HW214760   0.432   4.766   1.408
 4621SOL     OW14761   5.413   0.960   2.530
 4621SOL    HW114762   5.424   1.055   2.559
 4621SOL    HW214763   5.483   0.938   2.462
 4622SOL     OW14764   4.069   5.162   1.352
 4622SOL    HW114765   4.109   5.072   1.334
 4622SOL    HW214766   4.142   5.229   1.365
 4623SOL     OW14767   3.394   5.371   0.798
 4623SOL    HW114768   3.473   5.341   0.743
 4623SOL    HW214769   3.426   5.430   0.872
 4624SOL     OW14770   3.210   1.358   3.489
 4624SOL    HW114771   3.227   1.452   3.521
 4624SOL    HW214772   3.284   1.330   3.428
 4625SOL     OW14773   2.203   5.702   2.051
 4625SOL    HW114774   2.264   5.629   2.083
 4625SOL    HW214775   2.146   5.734   2.126
 4626SOL     OW14776   4.488   4.632   1.277
 4626SOL    HW114777   4.437   4.546   1.278
 4626SOL    HW214778   4.586   4.613   1.284
 4627SOL     OW14779   0.532   5.802   5.083
 4627SOL    HW114780   0.461   5.751   5.036
 4627SOL    HW214781   0.605   5.825   5.018
 4628SOL     OW14782   5.032   4.320   4.280
 4628SOL    HW114783   4.934   4.341   4.286
 4628SOL    HW214784   5.079   4.394   4.230
 4629SOL     OW14785   2.426   4.874   6.360
 4629SOL    HW114786   2.437   4.973   6.359
 4629SOL    HW214787   2.329   4.850   6.356
 4630SOL     OW14788   2.386   5.308   2.468
 4630SOL    HW114789   2.311   5.372   2.453
 4630SOL    HW214790   2.405   5.302   2.567
 4631SOL     OW14791   0.764   6.967   3.844
 4631SOL    HW114792   0.762   6.869   3.865
 4631SOL    HW214793   0.841   6.986   3.782
 4632SOL     OW14794   2.162   5.026   2.970
 4632SOL    HW114795   2.163   5.120   2.936
 4632SOL    HW214796   2.145   5.026   3.069
 4633SOL     OW14797   4.856   1.041   5.164
 4633SOL    HW114798   4.870   0.965   5.100
 4633SOL    HW214799   4.922   1.114   5.144
 4634SOL     OW14800   2.982   3.767   4.813
 4634SOL    HW114801   2.900   3.800   4.861
 4634SOL    HW214802   3.009   3.679   4.850
 4635SOL     OW14803   4.503   4.383   1.511
 4635SOL    HW114804   4.433   4.424   1.569
 4635SOL    HW214805   4.591   4.384   1.559
 4636SOL     OW14806   1.750   4.920   0.853
 4636SOL    HW114807   1.757   4.823   0.832
 4636SOL    HW214808   1.661   4.955   0.824
 4637SOL     OW14809   0.930   6.650   0.236
 4637SOL    HW114810   0.936   6.577   0.168
 4637SOL    HW214811   0.939   6.739   0.190
 4638SOL     OW14812   3.912   5.585   6.597
 4638SOL    HW114813   3.838   5.621   6.654
 4638SOL    HW214814   3.993   5.569   6.653
 4639SOL     OW14815   2.579   2.564   6.227
 4639SOL    HW114816   2.622   2.531   6.311
 4639SOL    HW214817   2.546   2.487   6.174
 4640SOL     OW14818   6.329   3.178   4.120
 4640SOL    HW114819   6.390   3.099   4.128
 4640SOL    HW214820   6.247   3.151   4.068
 4641SOL     OW14821   2.014   0.194   3.493
 4641SOL    HW114822   2.069   0.211   3.411
 4641SOL    HW214823   1.999   0.280   3.542
 4642SOL     OW14824   1.463   0.405   3.248
 4642SOL    HW114825   1.494   0.333   3.310
 4642SOL    HW214826   1.397   0.464   3.295
 4643SOL     OW14827   6.598   2.681   0.984
 4643SOL    HW114828   6.660   2.650   1.057
 4643SOL    HW214829   6.637   2.657   0.895
 4644SOL     OW14830   0.093   0.970   5.694
 4644SOL    HW114831   0.102   0.876   5.725
 4644SOL    HW214832   0.043   0.972   5.607
 4645SOL     OW14833   1.301   0.613   4.295
 4645SOL    HW114834   1.283   0.711   4.288
 4645SOL    HW214835   1.311   0.574   4.204
 4646SOL     OW14836   2.766   4.994   4.334
 4646SOL    HW114837   2.751   5.032   4.425
 4646SOL    HW214838   2.697   4.923   4.316
 4647SOL     OW14839   1.032   0.523   3.490
 4647SOL    HW114840   1.062   0.560   3.402
 4647SOL    HW214841   1.012   0.598   3.552
 4648SOL     OW14842   2.648   0.773   4.490
 4648SOL    HW114843   2.549   0.761   4.482
 4648SOL    HW214844   2.694   0.693   4.451
 4649SOL     OW14845   5.504   0.632   1.052
 4649SOL    HW114846   5.598   0.634   1.016
 4649SOL    HW214847   5.459   0.719   1.029
 4650SOL     OW14848   4.354   5.889   1.718
 4650SOL    HW114849   4.429   5.879   1.783
 4650SOL    HW214850   4.275   5.929   1.765
 4651SOL     OW14851   5.923   3.423   6.978
 4651SOL    HW114852   5.968   3.508   6.952
 4651SOL    HW214853   5.955   3.395   0.043
 4652SOL     OW14854   6.152   6.543   5.115
 4652SOL    HW114855   6.172   6.593   5.200
 4652SOL    HW214856   6.056   6.515   5.115
 4653SOL     OW14857   4.840   5.530   0.442
 4653SOL    HW114858   4.872   5.612   0.396
 4653SOL    HW214859   4.915   5.492   0.498
 4654SOL     OW14860   0.171   6.477   5.738
 4654SOL    HW114861   0.077   6.443   5.744
 4654SOL    HW214862   0.233   6.411   5.780
 4655SOL     OW14863   4.866   3.973   2.169
 4655SOL    HW114864   4.838   4.058   2.124
 4655SOL    HW214865   4.889   3.905   2.100
 4656SOL     OW14866   0.721   0.597   1.779
 4656SOL    HW114867   0.771   0.530   1.834
 4656SOL    HW214868   0.627   0.565   1.764
 4657SOL     OW14869   5.221   5.668   2.239
 4657SOL    HW114870   5.314   5.698   2.264
 4657SOL    HW214871   5.157   5.698   2.310
 4658SOL     OW14872   2.765   2.469   5.562
 4658SOL    HW114873   2.690   2.535   5.561
 4658SOL    HW214874   2.814   2.474   5.475
 4659SOL     OW14875   3.220   4.585   0.750
 4659SOL    HW114876   3.155   4.608   0.822
 4659SOL    HW214877   3.198   4.636   0.668
 4660SOL     OW14878   1.421   6.404   4.062
 4660SOL    HW114879   1.457   6.427   3.972
 4660SOL    HW214880   1.326   6.376   4.054
 4661SOL     OW14881   2.273   4.544   5.863
 4661SOL    HW114882   2.274   4.484   5.783
 4661SOL    HW214883   2.306   4.494   5.943
 4662SOL     OW14884   3.126   0.245   5.331
 4662SOL    HW114885   3.077   0.300   5.264
 4662SOL    HW214886   3.174   0.171   5.285
 4663SOL     OW14887   0.351   6.992   0.638
 4663SOL    HW114888   0.450   6.997   0.629
 4663SOL    HW214889   0.312   0.058   0.640
 4664SOL     OW14890   0.168   0.501   0.432
 4664SOL    HW114891   0.248   0.526   0.377
 4664SOL    HW214892   0.144   0.406   0.413
 4665SOL     OW14893   2.424   0.273   5.912
 4665SOL    HW114894   2.507   0.304   5.867
 4665SOL    HW214895   2.405   0.178   5.885
 4666SOL     OW14896   2.018   2.699   6.653
 4666SOL    HW114897   2.084   2.706   6.578
 4666SOL    HW214898   1.941   2.760   6.635
 4667SOL     OW14899   0.000   4.130   1.939
 4667SOL    HW114900   0.045   4.044   1.965
 4667SOL    HW214901   6.950   4.110   1.877
 4668SOL     OW14902   4.620   1.603   5.125
 4668SOL    HW114903   4.589   1.676   5.063
 4668SOL    HW214904   4.653   1.644   5.210
 4669SOL     OW14905   5.684   0.340   6.532
 4669SOL    HW114906   5.766   0.323   6.588
 4669SOL    HW214907   5.648   0.252   6.500
 4670SOL     OW14908   1.138   3.030   0.085
 4670SOL    HW114909   1.054   2.980   0.103
 4670SOL    HW214910   1.199   2.974   0.028
 4671SOL     OW14911   1.153   3.417   0.196
 4671SOL    HW114912   1.099   3.490   0.154
 4671SOL    HW214913   1.212   3.455   0.266
 4672SOL     OW14914   3.929   4.471   5.941
 4672SOL    HW114915   3.918   4.560   5.898
 4672SOL    HW214916   3.916   4.399   5.872
 4673SOL     OW14917   4.974   0.050   6.967
 4673SOL    HW114918   5.054   0.079   6.914
 4673SOL    HW214919   4.921   0.130   6.994
 4674SOL     OW14920   5.415   1.969   0.545
 4674SOL    HW114921   5.435   2.064   0.569
 4674SOL    HW214922   5.466   1.908   0.604
 4675SOL     OW14923   3.730   0.215   0.000
 4675SOL    HW114924   3.733   0.315   7.024
 4675SOL    HW214925   3.823   0.179   0.001
 4676SOL     OW14926   0.049   6.544   4.501
 4676SOL    HW114927   0.087   6.637   4.492
 4676SOL    HW214928   0.073   6.508   4.591
 4677SOL     OW14929   3.029   0.513   6.743
 4677SOL    HW114930   2.966   0.580   6.782
 4677SOL    HW214931   3.038   0.435   6.806
 4678SOL     OW14932   2.313   5.416   2.106
 4678SOL    HW114933   2.273   5.332   2.070
 4678SOL    HW214934   2.399   5.435   2.059
 4679SOL     OW14935   3.927   1.257   6.614
 4679SOL    HW114936   3.977   1.245   6.527
 4679SOL    HW214937   3.829   1.262   6.596
 4680SOL     OW14938   2.636   6.578   1.597
 4680SOL    HW114939   2.537   6.589   1.585
 4680SOL    HW214940   2.664   6.621   1.683
 4681SOL     OW14941   6.206   6.159   4.327
 4681SOL    HW114942   6.228   6.184   4.421
 4681SOL    HW214943   6.253   6.074   4.303
 4682SOL     OW14944   4.661   5.525   6.844
 4682SOL    HW114945   4.602   5.529   6.764
 4682SOL    HW214946   4.625   5.458   6.909
 4683SOL     OW14947   5.131   4.341   2.162
 4683SOL    HW114948   5.123   4.256   2.110
 4683SOL    HW214949   5.097   4.326   2.255
 4684SOL     OW14950   0.216   2.702   4.430
 4684SOL    HW114951   0.262   2.614   4.442
 4684SOL    HW214952   0.285   2.773   4.417
 4685SOL     OW14953   6.792   5.175   4.303
 4685SOL    HW114954   6.815   5.083   4.337
 4685SOL    HW214955   6.870   5.212   4.253
 4686SOL     OW14956   5.166   5.866   0.284
 4686SOL    HW114957   5.218   5.937   0.331
 4686SOL    HW214958   5.219   5.831   0.207
 4687SOL     OW14959   6.495   4.269   5.199
 4687SOL    HW114960   6.563   4.327   5.244
 4687SOL    HW214961   6.540   4.214   5.129
 4688SOL     OW14962   0.278   2.672   6.102
 4688SOL    HW114963   0.237   2.758   6.135
 4688SOL    HW214964   0.344   2.639   6.170
 4689SOL     OW14965   5.562   0.651   6.216
 4689SOL    HW114966   5.474   0.685   6.183
 4689SOL    HW214967   5.553   0.555   6.243
 4690SOL     OW14968   1.172   0.841   6.999
 4690SOL    HW114969   1.177   0.887   0.062
 4690SOL    HW214970   1.148   0.909   6.929
 4691SOL     OW14971   3.054   4.098   1.799
 4691SOL    HW114972   3.069   4.112   1.897
 4691SOL    HW214973   3.008   4.178   1.760
 4692SOL     OW14974   6.700   4.853   2.721
 4692SOL    HW114975   6.753   4.785   2.669
 4692SOL    HW214976   6.629   4.806   2.774
 4693SOL     OW14977   0.834   0.851   4.209
 4693SOL    HW114978   0.750   0.813   4.249
 4693SOL    HW214979   0.809   0.922   4.143
 4694SOL     OW14980   2.998   0.680   0.071
 4694SOL    HW114981   2.996   0.609   0.142
 4694SOL    HW214982   3.088   0.680   0.027
 4695SOL     OW14983   3.121   3.211   1.951
 4695SOL    HW114984   3.162   3.153   2.022
 4695SOL    HW214985   3.186   3.224   1.876
 4696SOL     OW14986   1.202   5.219   6.099
 4696SOL    HW114987   1.223   5.193   6.005
 4696SOL    HW214988   1.246   5.155   6.162
 4697SOL     OW14989   1.661   3.631   0.767
 4697SOL    HW114990   1.663   3.536   0.796
 4697SOL    HW214991   1.742   3.652   0.711
 4698SOL     OW14992   4.773   4.997   2.258
 4698SOL    HW114993   4.804   4.956   2.172
 4698SOL    HW214994   4.769   4.926   2.329
 4699SOL     OW14995   0.754   0.141   2.528
 4699SOL    HW114996   0.664   0.172   2.497
 4699SOL    HW214997   0.757   0.041   2.526
 4700SOL     OW14998   5.486   1.514   1.696
 4700SOL    HW114999   5.581   1.515   1.728
 4700SOL    HW215000   5.469   1.596   1.640
 4701SOL     OW15001   1.383   1.813   0.212
 4701SOL    HW115002   1.308   1.764   0.258
 4701SOL    HW215003   1.386   1.784   0.116
 4702SOL     OW15004   4.742   4.685   6.598
 4702SOL    HW115005   4.792   4.771   6.593
 4702SOL    HW215006   4.655   4.699   6.645
 4703SOL     OW15007   0.687   2.313   2.305
 4703SOL    HW115008   0.757   2.241   2.303
 4703SOL    HW215009   0.731   2.403   2.301
 4704SOL     OW15010   6.919   6.222   1.209
 4704SOL    HW115011   6.842   6.224   1.145
 4704SOL    HW215012   7.004   6.235   1.159
 4705SOL     OW15013   3.014   3.241   3.290
 4705SOL    HW115014   3.024   3.260   3.192
 4705SOL    HW215015   3.071   3.163   3.315
 4706SOL     OW15016   3.986   6.354   6.546
 4706SOL    HW115017   4.066   6.396   6.589
 4706SOL    HW215018   3.904   6.379   6.597
 4707SOL     OW15019   2.187   6.072   0.840
 4707SOL    HW115020   2.186   5.984   0.889
 4707SOL    HW215021   2.258   6.069   0.770
 4708SOL     OW15022   1.977   2.943   0.715
 4708SOL    HW115023   1.932   2.993   0.641
 4708SOL    HW215024   1.920   2.866   0.742
 4709SOL     OW15025   4.106   5.518   5.145
 4709SOL    HW115026   4.073   5.434   5.189
 4709SOL    HW215027   4.199   5.537   5.175
 4710SOL     OW15028   3.899   1.293   6.108
 4710SOL    HW115029   3.842   1.375   6.105
 4710SOL    HW215030   3.917   1.262   6.015
 4711SOL     OW15031   4.555   0.634   2.748
 4711SOL    HW115032   4.540   0.623   2.650
 4711SOL    HW215033   4.609   0.556   2.782
 4712SOL     OW15034   2.441   4.698   0.548
 4712SOL    HW115035   2.498   4.780   0.550
 4712SOL    HW215036   2.345   4.723   0.554
 4713SOL     OW15037   2.865   4.307   0.893
 4713SOL    HW115038   2.835   4.226   0.944
 4713SOL    HW215039   2.823   4.389   0.932
 4714SOL     OW15040   2.515   2.196   0.022
 4714SOL    HW115041   2.518   2.118   0.085
 4714SOL    HW215042   2.450   2.177   6.975
 4715SOL     OW15043   6.276   3.589   2.050
 4715SOL    HW115044   6.292   3.562   2.144
 4715SOL    HW215045   6.263   3.688   2.045
 4716SOL     OW15046   3.735   5.189   6.293
 4716SOL    HW115047   3.762   5.276   6.332
 4716SOL    HW215048   3.641   5.194   6.260
 4717SOL     OW15049   1.465   6.040   2.939
 4717SOL    HW115050   1.511   6.126   2.961
 4717SOL    HW215051   1.380   6.059   2.889
 4718SOL     OW15052   5.562   1.481   6.931
 4718SOL    HW115053   5.576   1.571   6.972
 4718SOL    HW215054   5.595   1.483   6.836
 4719SOL     OW15055   4.812   2.950   2.575
 4719SOL    HW115056   4.803   2.929   2.673
 4719SOL    HW215057   4.837   3.046   2.564
 4720SOL     OW15058   2.948   6.348   5.459
 4720SOL    HW115059   2.996   6.311   5.539
 4720SOL    HW215060   3.014   6.362   5.385
 4721SOL     OW15061   6.970   2.305   1.802
 4721SOL    HW115062   0.029   2.261   1.775
 4721SOL    HW215063   6.894   2.265   1.751
 4722SOL     OW15064   1.399   5.758   6.828
 4722SOL    HW115065   1.433   5.780   6.919
 4722SOL    HW215066   1.425   5.664   6.804
 4723SOL     OW15067   1.861   5.453   5.631
 4723SOL    HW115068   1.844   5.450   5.729
 4723SOL    HW215069   1.774   5.460   5.582
 4724SOL     OW15070   4.479   6.278   2.585
 4724SOL    HW115071   4.460   6.322   2.673
 4724SOL    HW215072   4.418   6.315   2.515
 4725SOL     OW15073   5.332   6.251   2.975
 4725SOL    HW115074   5.402   6.296   3.031
 4725SOL    HW215075   5.335   6.288   2.882
 4726SOL     OW15076   1.323   3.268   6.740
 4726SOL    HW115077   1.371   3.281   6.827
 4726SOL    HW215078   1.389   3.265   6.666
 4727SOL     OW15079   0.045   6.085   6.651
 4727SOL    HW115080   0.074   6.007   6.707
 4727SOL    HW215081   6.972   6.086   6.644
 4728SOL     OW15082   4.784   1.702   1.020
 4728SOL    HW115083   4.721   1.779   1.018
 4728SOL    HW215084   4.811   1.679   0.926
 4729SOL     OW15085   2.349   1.067   2.827
 4729SOL    HW115086   2.437   1.026   2.803
 4729SOL    HW215087   2.341   1.156   2.782
 4730SOL     OW15088   2.579   6.075   5.504
 4730SOL    HW115089   2.560   6.077   5.406
 4730SOL    HW215090   2.651   6.141   5.525
 4731SOL     OW15091   5.292   0.298   6.093
 4731SOL    HW115092   5.317   0.292   5.996
 4731SOL    HW215093   5.276   0.207   6.128
 4732SOL     OW15094   6.803   2.901   6.143
 4732SOL    HW115095   6.740   2.848   6.087
 4732SOL    HW215096   6.770   2.903   6.237
 4733SOL     OW15097   1.015   4.022   3.532
 4733SOL    HW115098   0.995   3.957   3.605
 4733SOL    HW215099   1.056   4.104   3.571
 4734SOL     OW15100   5.075   3.206   6.819
 4734SOL    HW115101   4.983   3.200   6.858
 4734SOL    HW215102   5.078   3.279   6.751
 4735SOL     OW15103   0.516   5.025   3.797
 4735SOL    HW115104   0.588   5.070   3.744
 4735SOL    HW215105   0.493   4.938   3.754
 4736SOL     OW15106   0.073   1.899   6.527
 4736SOL    HW115107   0.020   1.943   6.454
 4736SOL    HW215108   0.135   1.966   6.568
 4737SOL     OW15109   1.933   5.011   2.452
 4737SOL    HW115110   1.944   4.917   2.484
 4737SOL    HW215111   1.929   5.012   2.352
 4738SOL     OW15112   0.609   6.148   2.603
 4738SOL    HW115113   0.519   6.105   2.595
 4738SOL    HW215114   0.673   6.083   2.644
 4739SOL     OW15115   4.133   7.020   2.051
 4739SOL    HW115116   4.213   6.980   2.007
 4739SOL    HW215117   4.120   6.978   2.141
 4740SOL     OW15118   0.209   1.295   2.358
 4740SOL    HW115119   0.161   1.378   2.326
 4740SOL    HW215120   0.301   1.320   2.389
 4741SOL     OW15121   3.491   2.318   1.629
 4741SOL    HW115122   3.567   2.315   1.695
 4741SOL    HW215123   3.419   2.254   1.658
 4742SOL     OW15124   2.014   6.904   6.581
 4742SOL    HW115125   1.977   6.823   6.627
 4742SOL    HW215126   2.106   6.923   6.617
 4743SOL     OW15127   2.089   3.668   3.198
 4743SOL    HW115128   2.007   3.721   3.220
 4743SOL    HW215129   2.170   3.725   3.211
 4744SOL     OW15130   1.701   5.333   0.541
 4744SOL    HW115131   1.755   5.254   0.570
 4744SOL    HW215132   1.761   5.402   0.501
 4745SOL     OW15133   2.940   4.129   6.989
 4745SOL    HW115134   2.912   4.069   0.037
 4745SOL    HW215135   3.033   4.106   6.960
 4746SOL     OW15136   4.129   6.101   4.043
 4746SOL    HW115137   4.034   6.127   4.063
 4746SOL    HW215138   4.170   6.059   4.124
 4747SOL     OW15139   1.301   3.604   0.680
 4747SOL    HW115140   1.318   3.522   0.735
 4747SOL    HW215141   1.266   3.677   0.739
 4748SOL     OW15142   1.488   6.873   1.739
 4748SOL    HW115143   1.477   6.970   1.759
 4748SOL    HW215144   1.566   6.860   1.678
 4749SOL     OW15145   2.129   6.655   6.213
 4749SOL    HW115146   2.173   6.663   6.124
 4749SOL    HW215147   2.031   6.669   6.203
 4750SOL     OW15148   6.368   4.024   5.420
 4750SOL    HW115149   6.463   4.001   5.441
 4750SOL    HW215150   6.329   4.078   5.495
 4751SOL     OW15151   4.803   2.067   3.017
 4751SOL    HW115152   4.855   2.118   2.949
 4751SOL    HW215153   4.866   2.030   3.086
 4752SOL     OW15154   4.390   0.905   0.332
 4752SOL    HW115155   4.342   0.819   0.351
 4752SOL    HW215156   4.451   0.892   0.254
 4753SOL     OW15157   1.255   6.794   4.738
 4753SOL    HW115158   1.203   6.750   4.811
 4753SOL    HW215159   1.352   6.783   4.755
 4754SOL     OW15160   4.568   3.905   5.825
 4754SOL    HW115161   4.522   3.842   5.887
 4754SOL    HW215162   4.658   3.928   5.861
 4755SOL     OW15163   1.893   0.915   0.901
 4755SOL    HW115164   1.896   1.014   0.911
 4755SOL    HW215165   1.858   0.874   0.985
 4756SOL     OW15166   7.010   4.059   6.257
 4756SOL    HW115167   0.040   4.119   6.199
 4756SOL    HW215168   0.035   4.036   6.340
 4757SOL     OW15169   1.905   2.921   1.460
 4757SOL    HW115170   1.819   2.958   1.425
 4757SOL    HW215171   1.948   2.864   1.391
 4758SOL     OW15172   1.263   7.018   3.664
 4758SOL    HW115173   1.223   6.987   3.750
 4758SOL    HW215174   1.336   0.057   3.682
 4759SOL     OW15175   0.331   5.913   6.926
 4759SOL    HW115176   0.237   5.943   6.908
 4759SOL    HW215177   0.338   5.814   6.913
 4760SOL     OW15178   1.382   0.069   0.579
 4760SOL    HW115179   1.370   6.999   0.556
 4760SOL    HW215180   1.444   0.077   0.657
 4761SOL     OW15181   0.420   0.395   0.595
 4761SOL    HW115182   0.436   0.357   0.504
 4761SOL    HW215183   0.345   0.346   0.639
 4762SOL     OW15184   1.720   5.837   1.955
 4762SOL    HW115185   1.771   5.897   1.894
 4762SOL    HW215186   1.653   5.785   1.903
 4763SOL     OW15187   4.639   6.528   2.470
 4763SOL    HW115188   4.615   6.558   2.378
 4763SOL    HW215189   4.687   6.440   2.465
 4764SOL     OW15190   4.638   3.414   5.370
 4764SOL    HW115191   4.651   3.492   5.307
 4764SOL    HW215192   4.546   3.377   5.358
 4765SOL     OW15193   3.525   0.608   5.991
 4765SOL    HW115194   3.548   0.592   5.895
 4765SOL    HW215195   3.606   0.594   6.048
 4766SOL     OW15196   6.320   6.508   4.373
 4766SOL    HW115197   6.268   6.443   4.317
 4766SOL    HW215198   6.335   6.592   4.322
 4767SOL     OW15199   2.443   5.659   5.277
 4767SOL    HW115200   2.405   5.730   5.335
 4767SOL    HW215201   2.370   5.598   5.247
 4768SOL     OW15202   4.623   3.297   6.476
 4768SOL    HW115203   4.597   3.256   6.389
 4768SOL    HW215204   4.561   3.265   6.548
 4769SOL     OW15205   2.705   5.998   0.817
 4769SOL    HW115206   2.668   5.906   0.829
 4769SOL    HW215207   2.638   6.066   0.846
 4770SOL     OW15208   0.093   2.342   5.106
 4770SOL    HW115209   0.177   2.354   5.159
 4770SOL    HW215210   0.057   2.432   5.081
 4771SOL     OW15211   2.412   0.004   5.075
 4771SOL    HW115212   2.388   0.045   4.987
 4771SOL    HW215213   2.511   7.021   5.081
 4772SOL     OW15214   3.306   5.266   0.405
 4772SOL    HW115215   3.321   5.167   0.411
 4772SOL    HW215216   3.394   5.313   0.400
 4773SOL     OW15217   1.075   6.152   4.559
 4773SOL    HW115218   1.040   6.158   4.466
 4773SOL    HW215219   1.054   6.061   4.596
 4774SOL     OW15220   1.583   4.315   0.573
 4774SOL    HW115221   1.604   4.219   0.551
 4774SOL    HW215222   1.660   4.354   0.624
 4775SOL     OW15223   5.026   6.877   4.937
 4775SOL    HW115224   4.990   6.970   4.943
 4775SOL    HW215225   4.958   6.813   4.972
 4776SOL     OW15226   1.662   0.808   5.031
 4776SOL    HW115227   1.598   0.784   4.958
 4776SOL    HW215228   1.679   0.907   5.029
 4777SOL     OW15229   1.465   5.806   0.659
 4777SOL    HW115230   1.430   5.725   0.612
 4777SOL    HW215231   1.564   5.809   0.652
 4778SOL     OW15232   0.705   2.766   4.248
 4778SOL    HW115233   0.708   2.692   4.180
 4778SOL    HW215234   0.796   2.805   4.258
 4779SOL     OW15235   6.118   6.658   4.159
 4779SOL    HW115236   6.212   6.687   4.143
 4779SOL    HW215237   6.079   6.713   4.233
 4780SOL     OW15238   5.780   2.668   5.663
 4780SOL    HW115239   5.781   2.569   5.679
 4780SOL    HW215240   5.861   2.709   5.705
 4781SOL     OW15241   2.406   5.785   2.402
 4781SOL    HW115242   2.419   5.849   2.327
 4781SOL    HW215243   2.350   5.827   2.473
 4782SOL     OW15244   6.321   5.543   5.728
 4782SOL    HW115245   6.313   5.455   5.775
 4782SOL    HW215246   6.235   5.594   5.737
 4783SOL     OW15247   6.088   3.626   0.203
 4783SOL    HW115248   6.046   3.537   0.220
 4783SOL    HW215249   6.182   3.614   0.170
 4784SOL     OW15250   6.314   1.916   5.842
 4784SOL    HW115251   6.355   1.825   5.837
 4784SOL    HW215252   6.287   1.946   5.751
 4785SOL     OW15253   0.252   6.711   2.803
 4785SOL    HW115254   0.255   6.805   2.768
 4785SOL    HW215255   0.312   6.705   2.883
 4786SOL     OW15256   2.826   0.198   0.676
 4786SOL    HW115257   2.728   0.192   0.659
 4786SOL    HW215258   2.854   0.122   0.735
 4787SOL     OW15259   4.328   2.023   4.590
 4787SOL    HW115260   4.295   2.071   4.509
 4787SOL    HW215261   4.250   1.985   4.640
 4788SOL     OW15262   6.043   5.684   0.478
 4788SOL    HW115263   6.030   5.694   0.380
 4788SOL    HW215264   5.956   5.662   0.522
 4789SOL     OW15265   4.961   1.674   2.067
 4789SOL    HW115266   5.042   1.655   2.012
 4789SOL    HW215267   4.887   1.613   2.039
 4790SOL     OW15268   5.313   1.597   5.544
 4790SOL    HW115269   5.392   1.629   5.492
 4790SOL    HW215270   5.305   1.498   5.536
 4791SOL     OW15271   0.371   2.721   1.145
 4791SOL    HW115272   0.439   2.755   1.080
 4791SOL    HW215273   0.288   2.694   1.096
 4792SOL     OW15274   1.840   4.983   4.565
 4792SOL    HW115275   1.875   4.931   4.487
 4792SOL    HW215276   1.871   5.078   4.559
 4793SOL     OW15277   0.999   3.849   5.898
 4793SOL    HW115278   0.938   3.923   5.869
 4793SOL    HW215279   1.085   3.887   5.932
 4794SOL     OW15280   4.636   0.321   4.125
 4794SOL    HW115281   4.577   0.391   4.164
 4794SOL    HW215282   4.620   0.315   4.026
 4795SOL     OW15283   0.008   1.606   4.447
 4795SOL    HW115284   0.073   1.608   4.524
 4795SOL    HW215285   0.046   1.551   4.373
 4796SOL     OW15286   3.864   0.875   5.927
 4796SOL    HW115287   3.954   0.853   5.888
 4796SOL    HW215288   3.857   0.838   6.019
 4797SOL     OW15289   0.081   5.310   4.362
 4797SOL    HW115290   0.094   5.395   4.413
 4797SOL    HW215291   0.149   5.243   4.391
 4798SOL     OW15292   5.860   5.072   6.038
 4798SOL    HW115293   5.903   5.072   5.947
 4798SOL    HW215294   5.922   5.030   6.104
 4799SOL     OW15295   3.543   1.778   7.005
 4799SOL    HW115296   3.502   1.757   0.068
 4799SOL    HW215297   3.613   1.848   7.017
 4800SOL     OW15298   1.891   4.272   6.762
 4800SOL    HW115299   1.831   4.283   6.840
 4800SOL    HW215300   1.986   4.266   6.793
 4801SOL     OW15301   3.943   2.833   0.844
 4801SOL    HW115302   3.939   2.931   0.822
 4801SOL    HW215303   3.909   2.780   0.767
 4802SOL     OW15304   6.966   6.445   1.761
 4802SOL    HW115305   6.935   6.508   1.690
 4802SOL    HW215306   6.960   6.489   1.850
 4803SOL     OW15307   5.556   4.974   0.755
 4803SOL    HW115308   5.495   4.990   0.832
 4803SOL    HW215309   5.521   5.023   0.675
 4804SOL     OW15310   5.283   1.564   0.642
 4804SOL    HW115311   5.297   1.653   0.686
 4804SOL    HW215312   5.350   1.499   0.677
 4805SOL     OW15313   6.556   1.436   2.324
 4805SOL    HW115314   6.571   1.347   2.281
 4805SOL    HW215315   6.606   1.440   2.410
 4806SOL     OW15316   1.558   3.646   3.224
 4806SOL    HW115317   1.501   3.688   3.295
 4806SOL    HW215318   1.523   3.670   3.134
 4807SOL     OW15319   1.587   3.099   6.581
 4807SOL    HW115320   1.592   3.099   6.681
 4807SOL    HW215321   1.648   3.170   6.545
 4808SOL     OW15322   3.730   5.812   0.625
 4808SOL    HW115323   3.744   5.897   0.676
 4808SOL    HW215324   3.738   5.734   0.686
 4809SOL     OW15325   3.500   4.844   1.517
 4809SOL    HW115326   3.508   4.909   1.442
 4809SOL    HW215327   3.536   4.755   1.488
 4810SOL     OW15328   0.973   3.905   4.399
 4810SOL    HW115329   1.061   3.950   4.413
 4810SOL    HW215330   0.923   3.953   4.327
 4811SOL     OW15331   3.878   4.102   4.578
 4811SOL    HW115332   3.880   4.191   4.623
 4811SOL    HW215333   3.786   4.063   4.586
 4812SOL     OW15334   0.693   6.979   1.898
 4812SOL    HW115335   0.771   6.992   1.838
 4812SOL    HW215336   0.690   0.026   1.966
 4813SOL     OW15337   5.717   1.905   6.746
 4813SOL    HW115338   5.713   1.992   6.794
 4813SOL    HW215339   5.770   1.840   6.799
 4814SOL     OW15340   6.910   3.810   2.631
 4814SOL    HW115341   6.817   3.845   2.618
 4814SOL    HW215342   6.910   3.742   2.704
 4815SOL     OW15343   5.110   5.022   2.713
 4815SOL    HW115344   5.160   4.988   2.634
 4815SOL    HW215345   5.037   5.082   2.683
 4816SOL     OW15346   1.963   0.148   1.545
 4816SOL    HW115347   1.948   0.230   1.601
 4816SOL    HW215348   1.879   0.126   1.495
 4817SOL     OW15349   3.729   1.192   1.716
 4817SOL    HW115350   3.811   1.140   1.696
 4817SOL    HW215351   3.650   1.149   1.672
 4818SOL     OW15352   1.979   0.505   3.923
 4818SOL    HW115353   2.059   0.492   3.981
 4818SOL    HW215354   1.907   0.440   3.949
 4819SOL     OW15355   3.344   2.093   1.372
 4819SOL    HW115356   3.357   2.113   1.274
 4819SOL    HW215357   3.346   1.994   1.386
 4820SOL     OW15358   6.379   2.999   1.018
 4820SOL    HW115359   6.360   3.069   0.948
 4820SOL    HW215360   6.469   2.959   1.000
 4821SOL     OW15361   6.570   5.430   1.463
 4821SOL    HW115362   6.522   5.464   1.544
 4821SOL    HW215363   6.614   5.343   1.484
 4822SOL     OW15364   1.866   3.120   3.696
 4822SOL    HW115365   1.875   3.062   3.614
 4822SOL    HW215366   1.869   3.216   3.669
 4823SOL     OW15367   0.177   0.018   3.687
 4823SOL    HW115368   0.172   0.038   3.590
 4823SOL    HW215369   0.232   0.089   3.733
 4824SOL     OW15370   5.477   2.250   3.834
 4824SOL    HW115371   5.476   2.162   3.786
 4824SOL    HW215372   5.546   2.309   3.792
 4825SOL     OW15373   2.006   2.893   4.089
 4825SOL    HW115374   1.961   2.923   4.173
 4825SOL    HW215375   1.963   2.936   4.010
 4826SOL     OW15376   0.116   6.699   1.172
 4826SOL    HW115377   0.122   6.793   1.206
 4826SOL    HW215378   0.209   6.663   1.158
 4827SOL     OW15379   5.340   0.842   2.039
 4827SOL    HW115380   5.305   0.926   2.081
 4827SOL    HW215381   5.286   0.821   1.957
 4828SOL     OW15382   5.651   3.928   1.496
 4828SOL    HW115383   5.577   3.922   1.428
 4828SOL    HW215384   5.708   4.007   1.476
 4829SOL     OW15385   3.777   6.900   6.109
 4829SOL    HW115386   3.692   6.909   6.160
 4829SOL    HW215387   3.787   6.977   6.046
 4830SOL     OW15388   5.329   5.505   3.732
 4830SOL    HW115389   5.386   5.539   3.806
 4830SOL    HW215390   5.387   5.469   3.659
 4831SOL     OW15391   6.909   4.843   5.714
 4831SOL    HW115392   6.929   4.782   5.637
 4831SOL    HW215393   6.810   4.853   5.725
 4832SOL     OW15394   2.892   2.439   6.173
 4832SOL    HW115395   2.863   2.347   6.198
 4832SOL    HW215396   2.816   2.488   6.130
 4833SOL     OW15397   4.643   1.662   3.136
 4833SOL    HW115398   4.650   1.711   3.049
 4833SOL    HW215399   4.645   1.564   3.119
 4834SOL     OW15400   3.813   0.059   0.703
 4834SOL    HW115401   3.863   0.097   0.781
 4834SOL    HW215402   3.818   6.985   0.706
 4835SOL     OW15403   1.636   6.803   6.656
 4835SOL    HW115404   1.603   6.792   6.563
 4835SOL    HW215405   1.668   6.897   6.670
 4836SOL     OW15406   4.390   2.357   3.693
 4836SOL    HW115407   4.318   2.293   3.667
 4836SOL    HW215408   4.391   2.368   3.792
 4837SOL     OW15409   3.534   2.795   1.975
 4837SOL    HW115410   3.592   2.731   1.925
 4837SOL    HW215411   3.438   2.777   1.953
 4838SOL     OW15412   2.621   4.931   2.524
 4838SOL    HW115413   2.619   4.967   2.430
 4838SOL    HW215414   2.623   4.831   2.521
 4839SOL     OW15415   0.761   3.830   5.663
 4839SOL    HW115416   0.796   3.821   5.757
 4839SOL    HW215417   0.827   3.880   5.607
 4840SOL     OW15418   6.600   0.331   6.536
 4840SOL    HW115419   6.510   0.353   6.573
 4840SOL    HW215420   6.618   0.389   6.456
 4841SOL     OW15421   3.299   5.540   1.938
 4841SOL    HW115422   3.248   5.600   1.999
 4841SOL    HW215423   3.247   5.526   1.854
 4842SOL     OW15424   3.291   4.854   1.748
 4842SOL    HW115425   3.245   4.937   1.717
 4842SOL    HW215426   3.222   4.786   1.774
 4843SOL     OW15427   5.885   4.082   0.708
 4843SOL    HW115428   5.826   4.164   0.712
 4843SOL    HW215429   5.940   4.084   0.625
 4844SOL     OW15430   0.058   3.694   6.662
 4844SOL    HW115431   7.004   3.671   6.718
 4844SOL    HW215432   0.029   3.743   6.580
 4845SOL     OW15433   6.735   5.346   4.530
 4845SOL    HW115434   6.757   5.309   4.439
 4845SOL    HW215435   6.653   5.402   4.524
 4846SOL     OW15436   6.962   3.575   1.241
 4846SOL    HW115437   6.910   3.505   1.292
 4846SOL    HW215438   0.016   3.532   1.199
 4847SOL     OW15439   3.395   1.578   5.551
 4847SOL    HW115440   3.371   1.491   5.594
 4847SOL    HW215441   3.312   1.631   5.535
 4848SOL     OW15442   1.750   0.753   4.568
 4848SOL    HW115443   1.712   0.696   4.642
 4848SOL    HW215444   1.839   0.788   4.596
 4849SOL     OW15445   1.711   0.007   0.445
 4849SOL    HW115446   1.632   7.013   0.388
 4849SOL    HW215447   1.795   7.022   0.391
 4850SOL     OW15448   4.041   0.828   1.644
 4850SOL    HW115449   4.086   0.742   1.666
 4850SOL    HW215450   3.992   0.862   1.724
 4851SOL     OW15451   3.764   5.864   5.190
 4851SOL    HW115452   3.725   5.957   5.197
 4851SOL    HW215453   3.710   5.811   5.125
 4852SOL     OW15454   1.284   0.132   6.184
 4852SOL    HW115455   1.282   0.230   6.200
 4852SOL    HW215456   1.279   0.114   6.085
 4853SOL     OW15457   3.369   1.498   2.440
 4853SOL    HW115458   3.441   1.565   2.422
 4853SOL    HW215459   3.291   1.516   2.380
 4854SOL     OW15460   4.839   6.162   2.712
 4854SOL    HW115461   4.803   6.198   2.626
 4854SOL    HW215462   4.778   6.090   2.746
 4855SOL     OW15463   5.954   2.669   2.463
 4855SOL    HW115464   5.964   2.587   2.408
 4855SOL    HW215465   6.037   2.684   2.517
 4856SOL     OW15466   1.662   4.041   2.840
 4856SOL    HW115467   1.607   3.976   2.788
 4856SOL    HW215468   1.641   4.134   2.810
 4857SOL     OW15469   1.656   2.197   5.845
 4857SOL    HW115470   1.714   2.256   5.788
 4857SOL    HW215471   1.664   2.224   5.941
 4858SOL     OW15472   1.978   0.793   4.039
 4858SOL    HW115473   1.966   0.890   4.018
 4858SOL    HW215474   2.075   0.771   4.047
 4859SOL     OW15475   0.506   6.630   4.461
 4859SOL    HW115476   0.484   6.534   4.478
 4859SOL    HW215477   0.571   6.662   4.531
 4860SOL     OW15478   3.594   4.929   2.600
 4860SOL    HW115479   3.530   4.986   2.651
 4860SOL    HW215480   3.641   4.867   2.663
 4861SOL     OW15481   4.816   5.231   0.567
 4861SOL    HW115482   4.852   5.179   0.644
 4861SOL    HW215483   4.778   5.318   0.599
 4862SOL     OW15484   2.174   4.582   3.828
 4862SOL    HW115485   2.182   4.620   3.736
 4862SOL    HW215486   2.262   4.544   3.856
 4863SOL     OW15487   5.509   5.237   0.569
 4863SOL    HW115488   5.416   5.219   0.537
 4863SOL    HW215489   5.566   5.263   0.492
 4864SOL     OW15490   3.040   1.278   4.167
 4864SOL    HW115491   3.054   1.321   4.256
 4864SOL    HW215492   3.033   1.179   4.178
 4865SOL     OW15493   1.683   0.453   5.396
 4865SOL    HW115494   1.688   0.552   5.380
 4865SOL    HW215495   1.589   0.422   5.385
 4866SOL     OW15496   6.341   3.786   1.318
 4866SOL    HW115497   6.242   3.802   1.319
 4866SOL    HW215498   6.388   3.873   1.307
 4867SOL     OW15499   4.506   5.676   2.434
 4867SOL    HW115500   4.495   5.596   2.374
 4867SOL    HW215501   4.441   5.747   2.406
 4868SOL     OW15502   6.510   4.636   2.079
 4868SOL    HW115503   6.545   4.730   2.077
 4868SOL    HW215504   6.448   4.622   2.002
 4869SOL     OW15505   1.860   1.519   0.536
 4869SOL    HW115506   1.783   1.524   0.473
 4869SOL    HW215507   1.921   1.446   0.508
 4870SOL     OW15508   0.288   6.007   1.226
 4870SOL    HW115509   0.238   6.056   1.298
 4870SOL    HW215510   0.352   6.069   1.181
 4871SOL     OW15511   1.086   6.996   3.922
 4871SOL    HW115512   1.053   6.988   4.016
 4871SOL    HW215513   1.049   0.053   3.881
 4872SOL     OW15514   6.289   0.151   3.170
 4872SOL    HW115515   6.275   0.249   3.184
 4872SOL    HW215516   6.386   0.131   3.167
 4873SOL     OW15517   6.496   5.713   4.495
 4873SOL    HW115518   6.458   5.680   4.581
 4873SOL    HW215519   6.567   5.781   4.514
 4874SOL     OW15520   4.917   3.203   2.600
 4874SOL    HW115521   5.016   3.190   2.597
 4874SOL    HW215522   4.897   3.296   2.632
 4875SOL     OW15523   5.911   0.688   0.489
 4875SOL    HW115524   5.943   0.782   0.499
 4875SOL    HW215525   5.975   0.637   0.432
 4876SOL     OW15526   6.899   1.143   3.682
 4876SOL    HW115527   6.823   1.086   3.715
 4876SOL    HW215528   6.923   1.209   3.753
 4877SOL     OW15529   0.409   2.111   5.311
 4877SOL    HW115530   0.376   2.033   5.259
 4877SOL    HW215531   0.407   2.089   5.409
 4878SOL     OW15532   6.538   1.641   1.888
 4878SOL    HW115533   6.478   1.571   1.925
 4878SOL    HW215534   6.619   1.597   1.847
 4879SOL     OW15535   4.302   2.273   1.732
 4879SOL    HW115536   4.224   2.218   1.705
 4879SOL    HW215537   4.382   2.214   1.746
 4880SOL     OW15538   6.334   3.602   0.079
 4880SOL    HW115539   6.376   3.573   7.019
 4880SOL    HW215540   6.394   3.578   0.155
 4881SOL     OW15541   1.849   1.074   6.964
 4881SOL    HW115542   1.896   1.005   6.909
 4881SOL    HW215543   1.896   1.084   0.026
 4882SOL     OW15544   4.051   1.753   5.564
 4882SOL    HW115545   3.967   1.720   5.522
 4882SOL    HW215546   4.094   1.679   5.617
 4883SOL     OW15547   4.972   3.971   0.828
 4883SOL    HW115548   4.919   3.950   0.746
 4883SOL    HW215549   5.060   3.924   0.824
 4884SOL     OW15550   3.299   5.297   1.459
 4884SOL    HW115551   3.219   5.251   1.420
 4884SOL    HW215552   3.351   5.341   1.385
 4885SOL     OW15553   2.241   4.944   1.171
 4885SOL    HW115554   2.238   5.026   1.228
 4885SOL    HW215555   2.241   4.863   1.230
 4886SOL     OW15556   3.056   6.649   1.426
 4886SOL    HW115557   3.095   6.721   1.484
 4886SOL    HW215558   3.104   6.563   1.444
 4887SOL     OW15559   0.170   6.249   1.789
 4887SOL    HW115560   0.252   6.291   1.750
 4887SOL    HW215561   0.092   6.309   1.775
 4888SOL     OW15562   2.931   6.981   2.989
 4888SOL    HW115563   2.854   7.010   2.932
 4888SOL    HW215564   2.990   6.920   2.936
 4889SOL     OW15565   6.759   2.031   5.320
 4889SOL    HW115566   6.695   2.052   5.245
 4889SOL    HW215567   6.849   2.069   5.298
 4890SOL     OW15568   0.122   1.834   5.172
 4890SOL    HW115569   0.171   1.758   5.129
 4890SOL    HW215570   0.034   1.801   5.206
 4891SOL     OW15571   2.759   5.334   0.233
 4891SOL    HW115572   2.845   5.298   0.197
 4891SOL    HW215573   2.729   5.411   0.176
 4892SOL     OW15574   5.408   5.761   2.438
 4892SOL    HW115575   5.426   5.850   2.478
 4892SOL    HW215576   5.324   5.723   2.477
 4893SOL     OW15577   6.478   3.063   1.985
 4893SOL    HW115578   6.476   3.161   1.966
 4893SOL    HW215579   6.412   3.042   2.057
 4894SOL     OW15580   3.649   0.549   2.669
 4894SOL    HW115581   3.551   0.546   2.685
 4894SOL    HW215582   3.671   0.624   2.607
 4895SOL     OW15583   0.543   4.777   3.700
 4895SOL    HW115584   0.540   4.738   3.792
 4895SOL    HW215585   0.464   4.746   3.648
 4896SOL     OW15586   2.462   4.504   2.688
 4896SOL    HW115587   2.371   4.541   2.668
 4896SOL    HW215588   2.529   4.548   2.628
 4897SOL     OW15589   2.078   5.821   5.047
 4897SOL    HW115590   2.084   5.918   5.027
 4897SOL    HW215591   2.040   5.807   5.139
 4898SOL     OW15592   3.751   1.191   4.965
 4898SOL    HW115593   3.663   1.235   4.980
 4898SOL    HW215594   3.821   1.236   5.020
 4899SOL     OW15595   6.423   4.913   2.846
 4899SOL    HW115596   6.364   4.881   2.771
 4899SOL    HW215597   6.424   5.013   2.846
 4900SOL     OW15598   3.819   6.013   5.605
 4900SOL    HW115599   3.788   6.077   5.675
 4900SOL    HW215600   3.882   6.059   5.543
 4901SOL     OW15601   1.936   1.317   5.458
 4901SOL    HW115602   1.850   1.266   5.452
 4901SOL    HW215603   2.013   1.255   5.438
 4902SOL     OW15604   0.796   1.475   5.224
 4902SOL    HW115605   0.872   1.508   5.167
 4902SOL    HW215606   0.709   1.491   5.177
 4903SOL     OW15607   4.695   5.495   0.730
 4903SOL    HW115608   4.705   5.589   0.760
 4903SOL    HW215609   4.645   5.493   0.643
 4904SOL     OW15610   2.060   0.337   5.625
 4904SOL    HW115611   1.962   0.328   5.603
 4904SOL    HW215612   2.070   0.375   5.717
 4905SOL     OW15613   2.541   0.888   3.526
 4905SOL    HW115614   2.616   0.900   3.591
 4905SOL    HW215615   2.462   0.849   3.573
 4906SOL     OW15616   4.689   2.643   6.276
 4906SOL    HW115617   4.602   2.600   6.251
 4906SOL    HW215618   4.764   2.586   6.242
 4907SOL     OW15619   4.959   0.403   1.466
 4907SOL    HW115620   4.942   0.403   1.564
 4907SOL    HW215621   5.000   0.316   1.439
 4908SOL     OW15622   5.186   6.755   0.252
 4908SOL    HW115623   5.179   6.854   0.239
 4908SOL    HW215624   5.225   6.714   0.170
 4909SOL     OW15625   6.831   5.417   3.351
 4909SOL    HW115626   6.861   5.511   3.335
 4909SOL    HW215627   6.910   5.356   3.350
 4910SOL     OW15628   5.748   0.729   4.284
 4910SOL    HW115629   5.707   0.640   4.263
 4910SOL    HW215630   5.688   0.802   4.253
 4911SOL     OW15631   1.819   3.731   3.325
 4911SOL    HW115632   1.771   3.643   3.318
 4911SOL    HW215633   1.765   3.794   3.381
 4912SOL     OW15634   5.453   1.888   5.926
 4912SOL    HW115635   5.469   1.796   5.891
 4912SOL    HW215636   5.471   1.891   6.024
 4913SOL     OW15637   4.663   3.767   5.579
 4913SOL    HW115638   4.620   3.804   5.662
 4913SOL    HW215639   4.601   3.779   5.502
 4914SOL     OW15640   4.561   6.703   5.273
 4914SOL    HW115641   4.500   6.689   5.195
 4914SOL    HW215642   4.547   6.795   5.310
 4915SOL     OW15643   2.840   6.729   4.960
 4915SOL    HW115644   2.770   6.793   4.992
 4915SOL    HW215645   2.890   6.770   4.883
 4916SOL     OW15646   0.704   1.008   3.774
 4916SOL    HW115647   0.628   1.073   3.777
 4916SOL    HW215648   0.668   0.915   3.768
 4917SOL     OW15649   3.736   5.652   0.868
 4917SOL    HW115650   3.640   5.663   0.897
 4917SOL    HW215651   3.794   5.645   0.948
 4918SOL     OW15652   5.820   6.346   2.049
 4918SOL    HW115653   5.726   6.327   2.021
 4918SOL    HW215654   5.867   6.397   1.977
 4919SOL     OW15655   3.157   2.973   2.577
 4919SOL    HW115656   3.193   2.914   2.505
 4919SOL    HW215657   3.189   2.940   2.666
 4920SOL     OW15658   5.469   0.273   4.779
 4920SOL    HW115659   5.443   0.179   4.800
 4920SOL    HW215660   5.553   0.296   4.828
 4921SOL     OW15661   1.713   5.229   0.220
 4921SOL    HW115662   1.635   5.255   0.277
 4921SOL    HW215663   1.714   5.286   0.138
 4922SOL     OW15664   2.999   2.218   4.627
 4922SOL    HW115665   2.977   2.255   4.717
 4922SOL    HW215666   2.957   2.274   4.556
 4923SOL     OW15667   2.710   1.296   2.206
 4923SOL    HW115668   2.625   1.261   2.246
 4923SOL    HW215669   2.708   1.396   2.203
 4924SOL     OW15670   2.853   1.821   4.521
 4924SOL    HW115671   2.883   1.733   4.557
 4924SOL    HW215672   2.758   1.837   4.546
 4925SOL     OW15673   5.023   0.461   2.618
 4925SOL    HW115674   5.034   0.554   2.651
 4925SOL    HW215675   4.941   0.455   2.561
 4926SOL     OW15676   5.505   1.888   1.908
 4926SOL    HW115677   5.553   1.858   1.826
 4926SOL    HW215678   5.545   1.973   1.941
 4927SOL     OW15679   2.838   2.995   5.594
 4927SOL    HW115680   2.811   2.980   5.689
 4927SOL    HW215681   2.763   3.042   5.546
 4928SOL     OW15682   1.110   0.552   6.549
 4928SOL    HW115683   1.101   0.506   6.637
 4928SOL    HW215684   1.186   0.511   6.498
 4929SOL     OW15685   6.842   7.013   3.558
 4929SOL    HW115686   6.755   6.979   3.523
 4929SOL    HW215687   6.824   0.061   3.624
 4930SOL     OW15688   5.719   0.298   2.878
 4930SOL    HW115689   5.646   0.261   2.936
 4930SOL    HW215690   5.682   0.321   2.788
 4931SOL     OW15691   6.518   6.394   1.375
 4931SOL    HW115692   6.581   6.386   1.298
 4931SOL    HW215693   6.440   6.452   1.350
 4932SOL     OW15694   3.747   3.365   3.267
 4932SOL    HW115695   3.725   3.287   3.208
 4932SOL    HW215696   3.780   3.441   3.212
 4933SOL     OW15697   2.200   6.587   2.601
 4933SOL    HW115698   2.286   6.538   2.614
 4933SOL    HW215699   2.149   6.589   2.687
 4934SOL     OW15700   3.564   6.484   2.811
 4934SOL    HW115701   3.550   6.542   2.732
 4934SOL    HW215702   3.492   6.415   2.816
 4935SOL     OW15703   1.515   1.983   6.059
 4935SOL    HW115704   1.583   2.051   6.085
 4935SOL    HW215705   1.539   1.895   6.100
 4936SOL     OW15706   2.525   5.006   1.060
 4936SOL    HW115707   2.437   4.963   1.038
 4936SOL    HW215708   2.516   5.057   1.145
 4937SOL     OW15709   5.115   2.862   5.631
 4937SOL    HW115710   5.026   2.859   5.676
 4937SOL    HW215711   5.109   2.814   5.543
 4938SOL     OW15712   2.781   5.615   5.691
 4938SOL    HW115713   2.717   5.574   5.756
 4938SOL    HW215714   2.732   5.642   5.608
 4939SOL     OW15715   5.648   2.297   4.913
 4939SOL    HW115716   5.731   2.244   4.926
 4939SOL    HW215717   5.584   2.245   4.856
 4940SOL     OW15718   1.332   0.807   4.637
 4940SOL    HW115719   1.313   0.874   4.708
 4940SOL    HW215720   1.339   0.854   4.549
 4941SOL     OW15721   3.751   2.069   6.433
 4941SOL    HW115722   3.832   2.009   6.433
 4941SOL    HW215723   3.778   2.161   6.460
 4942SOL     OW15724   4.814   3.523   5.533
 4942SOL    HW115725   4.762   3.607   5.550
 4942SOL    HW215726   4.760   3.461   5.476
 4943SOL     OW15727   3.583   2.969   1.078
 4943SOL    HW115728   3.584   2.949   1.176
 4943SOL    HW215729   3.588   2.884   1.027
 4944SOL     OW15730   1.990   3.633   2.906
 4944SOL    HW115731   2.057   3.668   2.840
 4944SOL    HW215732   2.036   3.612   2.992
 4945SOL     OW15733   1.212   1.091   3.835
 4945SOL    HW115734   1.120   1.078   3.797
 4945SOL    HW215735   1.280   1.071   3.765
 4946SOL     OW15736   0.785   3.069   1.464
 4946SOL    HW115737   0.737   3.111   1.541
 4946SOL    HW215738   0.865   3.019   1.497
 4947SOL     OW15739   1.342   0.064   1.041
 4947SOL    HW115740   1.385   0.077   0.952
 4947SOL    HW215741   1.329   6.992   1.057
 4948SOL     OW15742   2.536   0.351   2.423
 4948SOL    HW115743   2.464   0.420   2.417
 4948SOL    HW215744   2.588   0.350   2.338
 4949SOL     OW15745   4.419   0.247   5.727
 4949SOL    HW115746   4.415   0.271   5.630
 4949SOL    HW215747   4.445   0.328   5.780
 4950SOL     OW15748   3.074   5.444   3.581
 4950SOL    HW115749   3.076   5.388   3.499
 4950SOL    HW215750   2.982   5.480   3.595
 4951SOL     OW15751   5.211   1.428   4.795
 4951SOL    HW115752   5.184   1.408   4.700
 4951SOL    HW215753   5.219   1.342   4.846
 4952SOL     OW15754   0.408   0.353   4.989
 4952SOL    HW115755   0.417   0.350   4.890
 4952SOL    HW215756   0.449   0.437   5.024
 4953SOL     OW15757   2.571   6.084   1.917
 4953SOL    HW115758   2.667   6.109   1.927
 4953SOL    HW215759   2.546   6.088   1.820
 4954SOL     OW15760   4.290   4.597   6.796
 4954SOL    HW115761   4.311   4.501   6.779
 4954SOL    HW215762   4.204   4.604   6.846
 4955SOL     OW15763   1.540   5.812   0.033
 4955SOL    HW115764   1.511   5.868   0.109
 4955SOL    HW215765   1.631   5.841   0.002
 4956SOL     OW15766   3.845   0.091   5.001
 4956SOL    HW115767   3.878   0.077   4.907
 4956SOL    HW215768   3.755   0.135   4.999
 4957SOL     OW15769   0.075   0.983   3.523
 4957SOL    HW115770   0.071   0.884   3.512
 4957SOL    HW215771   7.019   1.014   3.572
 4958SOL     OW15772   0.578   6.597   6.014
 4958SOL    HW115773   0.636   6.644   6.080
 4958SOL    HW215774   0.486   6.585   6.053
 4959SOL     OW15775   0.307   1.094   0.086
 4959SOL    HW115776   0.262   1.106   0.174
 4959SOL    HW215777   0.302   0.998   0.058
 4960SOL     OW15778   3.137   6.124   4.024
 4960SOL    HW115779   3.183   6.037   4.008
 4960SOL    HW215780   3.113   6.166   3.936
 4961SOL     OW15781   5.320   1.323   5.262
 4961SOL    HW115782   5.417   1.298   5.269
 4961SOL    HW215783   5.270   1.283   5.339
 4962SOL     OW15784   5.481   3.121   1.702
 4962SOL    HW115785   5.452   3.078   1.788
 4962SOL    HW215786   5.481   3.053   1.629
 4963SOL     OW15787   6.189   5.994   1.679
 4963SOL    HW115788   6.158   6.087   1.659
 4963SOL    HW215789   6.207   5.986   1.777
 4964SOL     OW15790   3.503   6.473   3.149
 4964SOL    HW115791   3.470   6.457   3.242
 4964SOL    HW215792   3.598   6.441   3.141
 4965SOL     OW15793   0.481   6.957   5.171
 4965SOL    HW115794   0.569   6.912   5.154
 4965SOL    HW215795   0.497   0.028   5.188
 4966SOL     OW15796   2.469   6.187   4.301
 4966SOL    HW115797   2.546   6.128   4.327
 4966SOL    HW215798   2.494   6.282   4.317
 4967SOL     OW15799   3.757   3.292   6.495
 4967SOL    HW115800   3.823   3.269   6.424
 4967SOL    HW215801   3.805   3.307   6.582
 4968SOL     OW15802   5.178   3.088   3.307
 4968SOL    HW115803   5.159   3.118   3.214
 4968SOL    HW215804   5.261   3.033   3.309
 4969SOL     OW15805   1.923   1.116   2.597
 4969SOL    HW115806   1.912   1.039   2.661
 4969SOL    HW215807   1.834   1.151   2.571
 4970SOL     OW15808   1.381   2.503   4.627
 4970SOL    HW115809   1.429   2.552   4.699
 4970SOL    HW215810   1.444   2.441   4.580
 4971SOL     OW15811   6.377   5.488   3.734
 4971SOL    HW115812   6.443   5.482   3.660
 4971SOL    HW215813   6.397   5.418   3.803
 4972SOL     OW15814   2.442   3.223   0.882
 4972SOL    HW115815   2.436   3.123   0.877
 4972SOL    HW215816   2.351   3.263   0.868
 4973SOL     OW15817   6.768   6.928   2.002
 4973SOL    HW115818   6.767   6.852   1.937
 4973SOL    HW215819   6.856   6.976   1.996
 4974SOL     OW15820   6.398   4.705   0.948
 4974SOL    HW115821   6.446   4.623   0.981
 4974SOL    HW215822   6.451   4.749   0.876
 4975SOL     OW15823   6.118   5.849   1.017
 4975SOL    HW115824   6.080   5.799   0.939
 4975SOL    HW215825   6.064   5.829   1.099
 4976SOL     OW15826   2.996   0.466   4.276
 4976SOL    HW115827   3.096   0.473   4.271
 4976SOL    HW215828   2.954   0.551   4.244
 4977SOL     OW15829   4.983   3.688   0.655
 4977SOL    HW115830   5.073   3.700   0.613
 4977SOL    HW215831   4.958   3.592   0.653
 4978SOL     OW15832   6.766   3.557   5.384
 4978SOL    HW115833   6.827   3.478   5.388
 4978SOL    HW215834   6.773   3.600   5.294
 4979SOL     OW15835   6.876   2.250   5.196
 4979SOL    HW115836   6.828   2.196   5.128
 4979SOL    HW215837   6.965   2.278   5.161
 4980SOL     OW15838   4.252   6.831   3.395
 4980SOL    HW115839   4.339   6.816   3.443
 4980SOL    HW215840   4.246   6.768   3.318
 4981SOL     OW15841   4.784   6.090   5.782
 4981SOL    HW115842   4.876   6.056   5.762
 4981SOL    HW215843   4.788   6.152   5.860
 4982SOL     OW15844   2.258   1.401   6.400
 4982SOL    HW115845   2.189   1.448   6.345
 4982SOL    HW215846   2.338   1.460   6.411
 4983SOL     OW15847   4.900   3.384   4.577
 4983SOL    HW115848   4.998   3.399   4.564
 4983SOL    HW215849   4.853   3.397   4.489
 4984SOL     OW15850   5.524   3.492   4.654
 4984SOL    HW115851   5.448   3.550   4.682
 4984SOL    HW215852   5.489   3.405   4.619
 4985SOL     OW15853   6.407   6.095   3.954
 4985SOL    HW115854   6.490   6.043   3.930
 4985SOL    HW215855   6.333   6.070   3.891
 4986SOL     OW15856   5.953   4.468   2.768
 4986SOL    HW115857   5.921   4.394   2.827
 4986SOL    HW215858   6.045   4.495   2.795
 4987SOL     OW15859   0.713   2.151   1.171
 4987SOL    HW115860   0.740   2.058   1.147
 4987SOL    HW215861   0.615   2.153   1.195
 4988SOL     OW15862   0.091   1.227   4.028
 4988SOL    HW115863   0.190   1.225   4.039
 4988SOL    HW215864   0.054   1.134   4.039
 4989SOL     OW15865   5.251   1.219   1.856
 4989SOL    HW115866   5.321   1.260   1.915
 4989SOL    HW215867   5.206   1.144   1.906
 4990SOL     OW15868   1.182   2.083   6.523
 4990SOL    HW115869   1.282   2.086   6.516
 4990SOL    HW215870   1.149   2.172   6.556
 4991SOL     OW15871   0.827   3.283   4.379
 4991SOL    HW115872   0.908   3.341   4.385
 4991SOL    HW215873   0.745   3.338   4.396
 4992SOL     OW15874   3.923   0.876   4.444
 4992SOL    HW115875   3.942   0.957   4.499
 4992SOL    HW215876   3.906   0.904   4.349
 4993SOL     OW15877   2.434   4.474   3.874
 4993SOL    HW115878   2.501   4.544   3.899
 4993SOL    HW215879   2.456   4.438   3.783
 4994SOL     OW15880   1.173   0.095   2.430
 4994SOL    HW115881   1.152   0.000   2.406
 4994SOL    HW215882   1.234   0.097   2.509
 4995SOL     OW15883   6.696   3.249   5.879
 4995SOL    HW115884   6.720   3.295   5.964
 4995SOL    HW215885   6.651   3.162   5.900
 4996SOL     OW15886   0.775   0.465   2.253
 4996SOL    HW115887   0.825   0.415   2.323
 4996SOL    HW215888   0.797   0.562   2.259
 4997SOL     OW15889   0.031   2.528   2.959
 4997SOL    HW115890   7.009   2.494   3.040
 4997SOL    HW215891   0.054   2.452   2.899
 4998SOL     OW15892   1.935   4.642   5.137
 4998SOL    HW115893   1.887   4.569   5.186
 4998SOL    HW215894   1.910   4.730   5.178
 4999SOL     OW15895   5.033   5.779   1.647
 4999SOL    HW115896   4.956   5.791   1.710
 4999SOL    HW215897   5.025   5.846   1.573
 5000SOL     OW15898   0.839   0.596   3.951
 5000SOL    HW115899   0.772   0.621   3.882
 5000SOL    HW215900   0.909   0.668   3.958
 5001SOL     OW15901   1.937   3.860   6.368
 5001SOL    HW115902   1.940   3.960   6.370
 5001SOL    HW215903   2.008   3.826   6.306
 5002SOL     OW15904   1.050   2.737   2.965
 5002SOL    HW115905   1.054   2.697   3.057
 5002SOL    HW215906   0.968   2.792   2.956
 5003SOL     OW15907   0.696   6.748   3.357
 5003SOL    HW115908   0.686   6.834   3.307
 5003SOL    HW215909   0.607   6.702   3.362
 5004SOL     OW15910   2.522   5.990   5.774
 5004SOL    HW115911   2.524   6.029   5.682
 5004SOL    HW215912   2.612   6.001   5.816
 5005SOL     OW15913   3.892   2.153   0.295
 5005SOL    HW115914   3.938   2.139   0.382
 5005SOL    HW215915   3.826   2.227   0.303
 5006SOL     OW15916   5.784   0.146   6.280
 5006SOL    HW115917   5.763   0.195   6.364
 5006SOL    HW215918   5.793   0.212   6.205
 5007SOL     OW15919   2.686   0.362   5.697
 5007SOL    HW115920   2.778   0.331   5.719
 5007SOL    HW215921   2.671   0.452   5.737
 5008SOL     OW15922   6.119   0.553   3.713
 5008SOL    HW115923   6.084   0.565   3.620
 5008SOL    HW215924   6.218   0.560   3.713
 5009SOL     OW15925   1.730   6.250   1.740
 5009SOL    HW115926   1.759   6.322   1.677
 5009SOL    HW215927   1.791   6.248   1.819
 5010SOL     OW15928   3.446   3.552   3.939
 5010SOL    HW115929   3.390   3.483   3.894
 5010SOL    HW215930   3.392   3.598   4.010
 5011SOL     OW15931   2.100   3.198   2.044
 5011SOL    HW115932   2.093   3.180   2.142
 5011SOL    HW215933   2.165   3.272   2.028
 5012SOL     OW15934   6.067   2.686   6.073
 5012SOL    HW115935   6.015   2.770   6.065
 5012SOL    HW215936   6.157   2.705   6.113
 5013SOL     OW15937   4.844   0.716   6.519
 5013SOL    HW115938   4.780   0.750   6.587
 5013SOL    HW215939   4.794   0.693   6.435
 5014SOL     OW15940   6.500   5.499   0.750
 5014SOL    HW115941   6.518   5.495   0.652
 5014SOL    HW215942   6.401   5.496   0.766
 5015SOL     OW15943   4.240   1.714   4.263
 5015SOL    HW115944   4.305   1.688   4.191
 5015SOL    HW215945   4.289   1.732   4.348
 5016SOL     OW15946   2.328   1.208   2.442
 5016SOL    HW115947   2.427   1.197   2.456
 5016SOL    HW215948   2.292   1.269   2.513
 5017SOL     OW15949   2.329   2.612   0.717
 5017SOL    HW115950   2.268   2.562   0.655
 5017SOL    HW215951   2.358   2.697   0.673
 5018SOL     OW15952   0.401   4.357   2.056
 5018SOL    HW115953   0.480   4.315   2.102
 5018SOL    HW215954   0.432   4.404   1.973
 5019SOL     OW15955   2.124   4.337   0.202
 5019SOL    HW115956   2.093   4.366   0.112
 5019SOL    HW215957   2.224   4.331   0.203
 5020SOL     OW15958   6.012   6.239   5.665
 5020SOL    HW115959   5.933   6.257   5.723
 5020SOL    HW215960   6.096   6.252   5.718
 5021SOL     OW15961   0.934   4.342   6.497
 5021SOL    HW115962   0.886   4.420   6.539
 5021SOL    HW215963   0.899   4.257   6.536
 5022SOL     OW15964   1.712   0.187   0.655
 5022SOL    HW115965   1.766   0.264   0.620
 5022SOL    HW215966   1.720   0.110   0.592
 5023SOL     OW15967   6.197   2.706   0.794
 5023SOL    HW115968   6.140   2.763   0.852
 5023SOL    HW215969   6.270   2.665   0.850
 5024SOL     OW15970   6.684   3.983   2.675
 5024SOL    HW115971   6.615   3.969   2.603
 5024SOL    HW215972   6.667   4.070   2.721
 5025SOL     OW15973   4.824   1.742   2.307
 5025SOL    HW115974   4.848   1.833   2.340
 5025SOL    HW215975   4.887   1.715   2.234
 5026SOL     OW15976   6.232   5.898   5.909
 5026SOL    HW115977   6.175   5.842   5.850
 5026SOL    HW215978   6.175   5.947   5.975
 5027SOL     OW15979   1.134   6.973   3.221
 5027SOL    HW115980   1.145   6.945   3.126
 5027SOL    HW215981   1.198   0.020   3.242
 5028SOL     OW15982   0.252   5.631   2.121
 5028SOL    HW115983   0.319   5.689   2.166
 5028SOL    HW215984   0.239   5.661   2.027
 5029SOL     OW15985   0.064   2.978   2.841
 5029SOL    HW115986   6.995   2.965   2.814
 5029SOL    HW215987   0.087   2.916   2.917
 5030SOL     OW15988   0.416   0.613   0.313
 5030SOL    HW115989   0.471   0.536   0.281
 5030SOL    HW215990   0.471   0.672   0.371
 5031SOL     OW15991   6.063   1.163   4.610
 5031SOL    HW115992   5.983   1.174   4.670
 5031SOL    HW215993   6.056   1.077   4.560
 5032SOL     OW15994   0.960   4.803   0.869
 5032SOL    HW115995   0.997   4.752   0.791
 5032SOL    HW215996   0.999   4.895   0.870
 5033SOL     OW15997   2.722   5.123   5.658
 5033SOL    HW115998   2.758   5.036   5.623
 5033SOL    HW215999   2.647   5.154   5.599
 5034SOL     OW16000   6.676   3.478   1.850
 5034SOL    HW116001   6.758   3.534   1.843
 5034SOL    HW216002   6.655   3.437   1.761
 5035SOL     OW16003   5.691   4.943   1.059
 5035SOL    HW116004   5.640   4.945   0.973
 5035SOL    HW216005   5.633   4.905   1.131
 5036SOL     OW16006   0.982   6.204   6.233
 5036SOL    HW116007   0.958   6.281   6.292
 5036SOL    HW216008   1.031   6.237   6.153
 5037SOL     OW16009   4.361   2.071   3.159
 5037SOL    HW116010   4.443   2.117   3.127
 5037SOL    HW216011   4.382   1.977   3.184
 5038SOL     OW16012   1.842   5.926   5.581
 5038SOL    HW116013   1.898   5.861   5.633
 5038SOL    HW216014   1.801   5.992   5.644
 5039SOL     OW16015   2.152   2.960   5.040
 5039SOL    HW116016   2.139   2.919   5.130
 5039SOL    HW216017   2.248   2.953   5.014
 5040SOL     OW16018   2.895   3.539   6.544
 5040SOL    HW116019   2.947   3.472   6.598
 5040SOL    HW216020   2.821   3.575   6.600
 5041SOL     OW16021   0.681   3.434   1.038
 5041SOL    HW116022   0.778   3.454   1.054
 5041SOL    HW216023   0.633   3.434   1.126
 5042SOL     OW16024   6.553   2.787   6.753
 5042SOL    HW116025   6.620   2.828   6.815
 5042SOL    HW216026   6.475   2.848   6.743
 5043SOL     OW16027   3.620   1.308   5.457
 5043SOL    HW116028   3.608   1.378   5.386
 5043SOL    HW216029   3.554   1.235   5.443
 5044SOL     OW16030   6.465   6.229   3.618
 5044SOL    HW116031   6.513   6.154   3.573
 5044SOL    HW216032   6.419   6.285   3.549
 5045SOL     OW16033   5.167   3.572   0.410
 5045SOL    HW116034   5.244   3.516   0.380
 5045SOL    HW216035   5.082   3.521   0.398
 5046SOL     OW16036   3.346   2.829   5.013
 5046SOL    HW116037   3.436   2.827   4.970
 5046SOL    HW216038   3.343   2.760   5.086
 5047SOL     OW16039   6.055   1.425   2.429
 5047SOL    HW116040   6.015   1.502   2.480
 5047SOL    HW216041   6.146   1.405   2.466
 5048SOL     OW16042   6.749   2.456   2.172
 5048SOL    HW116043   6.837   2.421   2.204
 5048SOL    HW216044   6.678   2.433   2.238
 5049SOL     OW16045   6.524   1.271   2.976
 5049SOL    HW116046   6.456   1.199   2.989
 5049SOL    HW216047   6.551   1.309   3.064
 5050SOL     OW16048   0.232   1.443   1.985
 5050SOL    HW116049   0.302   1.384   2.025
 5050SOL    HW216050   0.152   1.388   1.962
 5051SOL     OW16051   3.009   4.063   1.266
 5051SOL    HW116052   3.035   4.048   1.362
 5051SOL    HW216053   3.065   4.006   1.207
 5052SOL     OW16054   3.570   4.562   0.406
 5052SOL    HW116055   3.631   4.618   0.350
 5052SOL    HW216056   3.624   4.514   0.476
 5053SOL     OW16057   2.089   3.938   2.433
 5053SOL    HW116058   2.104   3.970   2.339
 5053SOL    HW216059   1.994   3.912   2.445
 5054SOL     OW16060   3.641   5.727   5.422
 5054SOL    HW116061   3.659   5.782   5.503
 5054SOL    HW216062   3.661   5.780   5.340
 5055SOL     OW16063   0.534   1.678   4.891
 5055SOL    HW116064   0.616   1.689   4.836
 5055SOL    HW216065   0.519   1.761   4.945
 5056SOL     OW16066   0.108   4.044   6.491
 5056SOL    HW116067   0.049   4.119   6.522
 5056SOL    HW216068   0.203   4.073   6.493
 5057SOL     OW16069   0.634   5.625   3.185
 5057SOL    HW116070   0.670   5.620   3.092
 5057SOL    HW216071   0.534   5.620   3.184
 5058SOL     OW16072   3.877   3.906   6.656
 5058SOL    HW116073   3.804   3.966   6.691
 5058SOL    HW216074   3.871   3.901   6.556
 5059SOL     OW16075   4.520   2.655   5.030
 5059SOL    HW116076   4.493   2.574   4.977
 5059SOL    HW216077   4.439   2.696   5.071
 5060SOL     OW16078   6.744   3.125   5.150
 5060SOL    HW116079   6.683   3.048   5.132
 5060SOL    HW216080   6.709   3.207   5.104
 5061SOL     OW16081   2.984   3.283   4.206
 5061SOL    HW116082   2.904   3.265   4.150
 5061SOL    HW216083   2.986   3.379   4.232
 5062SOL     OW16084   5.059   1.581   2.904
 5062SOL    HW116085   5.075   1.637   2.823
 5062SOL    HW216086   5.046   1.640   2.983
 5063SOL     OW16087   1.304   6.699   1.695
 5063SOL    HW116088   1.388   6.750   1.715
 5063SOL    HW216089   1.321   6.636   1.619
 5064SOL     OW16090   4.551   5.034   1.007
 5064SOL    HW116091   4.587   5.041   0.914
 5064SOL    HW216092   4.566   4.941   1.041
 5065SOL     OW16093   1.323   0.610   3.368
 5065SOL    HW116094   1.239   0.664   3.361
 5065SOL    HW216095   1.357   0.613   3.462
 5066SOL     OW16096   2.138   4.059   1.877
 5066SOL    HW116097   2.077   4.096   1.807
 5066SOL    HW216098   2.182   3.976   1.844
 5067SOL     OW16099   4.077   2.117   1.721
 5067SOL    HW116100   4.021   2.192   1.686
 5067SOL    HW216101   4.075   2.117   1.821
 5068SOL     OW16102   3.439   5.581   0.232
 5068SOL    HW116103   3.521   5.636   0.213
 5068SOL    HW216104   3.363   5.641   0.255
 5069SOL     OW16105   1.872   3.284   5.618
 5069SOL    HW116106   1.947   3.221   5.638
 5069SOL    HW216107   1.909   3.375   5.599
 5070SOL     OW16108   5.886   4.025   3.937
 5070SOL    HW116109   5.883   3.930   3.968
 5070SOL    HW216110   5.792   4.061   3.930
 5071SOL     OW16111   3.883   1.948   3.653
 5071SOL    HW116112   3.927   1.990   3.733
 5071SOL    HW216113   3.848   2.020   3.593
 5072SOL     OW16114   1.577   1.132   1.061
 5072SOL    HW116115   1.537   1.182   0.983
 5072SOL    HW216116   1.548   1.037   1.057
 5073SOL     OW16117   2.354   6.524   1.695
 5073SOL    HW116118   2.278   6.589   1.686
 5073SOL    HW216119   2.321   6.441   1.742
 5074SOL     OW16120   3.738   1.638   1.521
 5074SOL    HW116121   3.707   1.543   1.520
 5074SOL    HW216122   3.660   1.699   1.507
 5075SOL     OW16123   1.337   2.762   0.416
 5075SOL    HW116124   1.252   2.814   0.415
 5075SOL    HW216125   1.411   2.819   0.379
 5076SOL     OW16126   5.332   0.408   6.877
 5076SOL    HW116127   5.386   0.425   6.794
 5076SOL    HW216128   5.391   0.373   6.949
 5077SOL     OW16129   1.563   3.741   5.598
 5077SOL    HW116130   1.553   3.832   5.638
 5077SOL    HW216131   1.560   3.749   5.498
 5078SOL     OW16132   0.607   1.307   4.737
 5078SOL    HW116133   0.573   1.241   4.670
 5078SOL    HW216134   0.551   1.389   4.734
 5079SOL     OW16135   1.949   1.794   5.602
 5079SOL    HW116136   1.912   1.754   5.686
 5079SOL    HW216137   2.004   1.726   5.554
 5080SOL     OW16138   6.407   5.735   5.542
 5080SOL    HW116139   6.335   5.764   5.478
 5080SOL    HW216140   6.368   5.670   5.608
 5081SOL     OW16141   2.600   5.125   5.239
 5081SOL    HW116142   2.582   5.128   5.337
 5081SOL    HW216143   2.668   5.054   5.220
 5082SOL     OW16144   4.835   6.443   0.212
 5082SOL    HW116145   4.832   6.494   0.126
 5082SOL    HW216146   4.762   6.475   0.272
 5083SOL     OW16147   3.180   0.593   1.746
 5083SOL    HW116148   3.220   0.553   1.829
 5083SOL    HW216149   3.086   0.620   1.765
 5084SOL     OW16150   0.962   4.852   5.122
 5084SOL    HW116151   1.024   4.826   5.047
 5084SOL    HW216152   0.985   4.800   5.204
 5085SOL     OW16153   1.118   2.331   6.161
 5085SOL    HW116154   1.117   2.246   6.213
 5085SOL    HW216155   1.210   2.349   6.126
 5086SOL     OW16156   0.827   4.402   2.174
 5086SOL    HW116157   0.766   4.325   2.190
 5086SOL    HW216158   0.793   4.483   2.223
 5087SOL     OW16159   6.778   5.226   2.419
 5087SOL    HW116160   6.758   5.170   2.499
 5087SOL    HW216161   6.734   5.315   2.429
 5088SOL     OW16162   4.330   5.736   2.820
 5088SOL    HW116163   4.403   5.700   2.879
 5088SOL    HW216164   4.294   5.820   2.860
 5089SOL     OW16165   5.728   4.244   4.210
 5089SOL    HW116166   5.775   4.160   4.238
 5089SOL    HW216167   5.697   4.234   4.116
 5090SOL     OW16168   2.310   0.496   3.265
 5090SOL    HW116169   2.367   0.554   3.323
 5090SOL    HW216170   2.216   0.532   3.265
 5091SOL     OW16171   6.830   0.306   0.851
 5091SOL    HW116172   6.886   0.251   0.789
 5091SOL    HW216173   6.861   0.401   0.849
 5092SOL     OW16174   4.115   3.643   4.068
 5092SOL    HW116175   4.196   3.700   4.054
 5092SOL    HW216176   4.143   3.547   4.074
 5093SOL     OW16177   2.358   1.619   1.590
 5093SOL    HW116178   2.390   1.582   1.678
 5093SOL    HW216179   2.436   1.650   1.536
 5094SOL     OW16180   2.154   6.257   6.770
 5094SOL    HW116181   2.101   6.336   6.739
 5094SOL    HW216182   2.228   6.287   6.830
 5095SOL     OW16183   0.179   1.707   3.361
 5095SOL    HW116184   0.199   1.613   3.334
 5095SOL    HW216185   0.263   1.761   3.360
 5096SOL     OW16186   5.884   4.758   6.400
 5096SOL    HW116187   5.906   4.661   6.388
 5096SOL    HW216188   5.944   4.813   6.342
 5097SOL     OW16189   6.513   0.293   0.390
 5097SOL    HW116190   6.520   0.305   0.291
 5097SOL    HW216191   6.605   0.288   0.430
 5098SOL     OW16192   3.882   2.232   1.246
 5098SOL    HW116193   3.896   2.319   1.294
 5098SOL    HW216194   3.850   2.163   1.311
 5099SOL     OW16195   0.469   6.347   1.617
 5099SOL    HW116196   0.476   6.258   1.662
 5099SOL    HW216197   0.468   6.419   1.686
 5100SOL     OW16198   4.046   5.226   3.021
 5100SOL    HW116199   4.059   5.318   3.057
 5100SOL    HW216200   4.135   5.180   3.013
 5101SOL     OW16201   3.917   0.762   4.707
 5101SOL    HW116202   3.939   0.788   4.613
 5101SOL    HW216203   3.871   0.838   4.753
 5102SOL     OW16204   5.168   5.691   4.244
 5102SOL    HW116205   5.255   5.696   4.293
 5102SOL    HW216206   5.163   5.605   4.194
 5103SOL     OW16207   0.756   1.131   4.437
 5103SOL    HW116208   0.768   1.049   4.381
 5103SOL    HW216209   0.821   1.201   4.408
 5104SOL     OW16210   3.510   5.902   1.915
 5104SOL    HW116211   3.502   5.975   1.983
 5104SOL    HW216212   3.562   5.826   1.954
 5105SOL     OW16213   3.298   3.150   6.864
 5105SOL    HW116214   3.313   3.130   6.768
 5105SOL    HW216215   3.301   3.066   6.917
 5106SOL     OW16216   3.787   1.448   1.113
 5106SOL    HW116217   3.846   1.465   1.034
 5106SOL    HW216218   3.843   1.432   1.193
 5107SOL     OW16219   4.908   2.454   1.340
 5107SOL    HW116220   5.007   2.440   1.334
 5107SOL    HW216221   4.873   2.413   1.424
 5108SOL     OW16222   4.247   3.879   5.567
 5108SOL    HW116223   4.325   3.867   5.628
 5108SOL    HW216224   4.230   3.977   5.554
 5109SOL     OW16225   1.115   2.296   1.009
 5109SOL    HW116226   1.107   2.268   0.913
 5109SOL    HW216227   1.179   2.235   1.056
 5110SOL     OW16228   0.333   0.546   6.331
 5110SOL    HW116229   0.325   0.452   6.300
 5110SOL    HW216230   0.315   0.609   6.255
 5111SOL     OW16231   1.212   6.742   4.407
 5111SOL    HW116232   1.241   6.647   4.405
 5111SOL    HW216233   1.223   6.778   4.500
 5112SOL     OW16234   0.335   0.478   2.764
 5112SOL    HW116235   0.261   0.421   2.800
 5112SOL    HW216236   0.328   0.570   2.802
 5113SOL     OW16237   1.474   5.786   1.327
 5113SOL    HW116238   1.449   5.691   1.305
 5113SOL    HW216239   1.527   5.788   1.411
 5114SOL     OW16240   3.942   6.588   0.558
 5114SOL    HW116241   3.876   6.574   0.632
 5114SOL    HW216242   3.903   6.555   0.472
 5115SOL     OW16243   1.873   3.656   1.881
 5115SOL    HW116244   1.849   3.570   1.926
 5115SOL    HW216245   1.790   3.709   1.863
 5116SOL     OW16246   2.291   6.371   6.974
 5116SOL    HW116247   2.310   6.464   7.003
 5116SOL    HW216248   2.274   6.313   0.028
 5117SOL     OW16249   1.081   3.367   4.009
 5117SOL    HW116250   1.115   3.456   3.978
 5117SOL    HW216251   0.994   3.379   4.057
 5118SOL     OW16252   6.162   6.711   0.142
 5118SOL    HW116253   6.221   6.696   0.221
 5118SOL    HW216254   6.068   6.727   0.173
 5119SOL     OW16255   4.680   1.414   1.009
 5119SOL    HW116256   4.683   1.514   1.008
 5119SOL    HW216257   4.597   1.383   1.054
 5120SOL     OW16258   4.725   6.823   5.003
 5120SOL    HW116259   4.751   6.762   5.078
 5120SOL    HW216260   4.707   6.914   5.039
 5121SOL     OW16261   3.419   3.745   0.069
 5121SOL    HW116262   3.337   3.687   0.071
 5121SOL    HW216263   3.501   3.688   0.070
 5122SOL     OW16264   3.849   6.140   3.344
 5122SOL    HW116265   3.857   6.044   3.319
 5122SOL    HW216266   3.925   6.191   3.304
 5123SOL     OW16267   5.587   2.577   3.432
 5123SOL    HW116268   5.553   2.652   3.375
 5123SOL    HW216269   5.522   2.501   3.429
 5124SOL     OW16270   1.986   6.748   3.181
 5124SOL    HW116271   1.914   6.800   3.228
 5124SOL    HW216272   1.946   6.702   3.102
 5125SOL     OW16273   0.433   2.218   2.806
 5125SOL    HW116274   0.444   2.307   2.848
 5125SOL    HW216275   0.455   2.223   2.708
 5126SOL     OW16276   1.112   6.295   6.906
 5126SOL    HW116277   1.026   6.330   6.943
 5126SOL    HW216278   1.188   6.323   6.965
 5127SOL     OW16279   1.034   5.408   0.013
 5127SOL    HW116280   1.041   5.391   6.941
 5127SOL    HW216281   1.121   5.444   0.046
 5128SOL     OW16282   6.680   6.495   1.113
 5128SOL    HW116283   6.684   6.398   1.090
 5128SOL    HW216284   6.634   6.545   1.039
 5129SOL     OW16285   5.224   6.521   2.383
 5129SOL    HW116286   5.158   6.460   2.427
 5129SOL    HW216287   5.212   6.614   2.419
 5130SOL     OW16288   6.941   4.636   3.084
 5130SOL    HW116289   6.986   4.568   3.144
 5130SOL    HW216290   6.999   4.717   3.076
 5131SOL     OW16291   1.834   3.357   4.338
 5131SOL    HW116292   1.839   3.372   4.239
 5131SOL    HW216293   1.878   3.270   4.361
 5132SOL     OW16294   4.118   2.812   6.360
 5132SOL    HW116295   4.191   2.831   6.425
 5132SOL    HW216296   4.130   2.720   6.323
 5133SOL     OW16297   3.419   4.772   0.536
 5133SOL    HW116298   3.456   4.680   0.522
 5133SOL    HW216299   3.410   4.790   0.634
 5134SOL     OW16300   0.444   2.781   1.545
 5134SOL    HW116301   0.530   2.746   1.509
 5134SOL    HW216302   0.368   2.732   1.504
 5135SOL     OW16303   6.156   2.457   5.240
 5135SOL    HW116304   6.214   2.516   5.296
 5135SOL    HW216305   6.159   2.364   5.276
 5136SOL     OW16306   5.354   0.290   5.843
 5136SOL    HW116307   5.397   0.355   5.780
 5136SOL    HW216308   5.309   0.218   5.791
 5137SOL     OW16309   5.846   3.311   6.628
 5137SOL    HW116310   5.941   3.308   6.661
 5137SOL    HW216311   5.836   3.388   6.564
 5138SOL     OW16312   3.500   2.586   5.729
 5138SOL    HW116313   3.465   2.653   5.663
 5138SOL    HW216314   3.592   2.558   5.702
 5139SOL     OW16315   0.909   6.720   3.548
 5139SOL    HW116316   0.835   6.749   3.487
 5139SOL    HW216317   0.924   6.791   3.617
 5140SOL     OW16318   3.063   1.426   0.138
 5140SOL    HW116319   3.109   1.514   0.144
 5140SOL    HW216320   3.060   1.397   0.042
 5141SOL     OW16321   6.329   3.588   0.641
 5141SOL    HW116322   6.324   3.604   0.740
 5141SOL    HW216323   6.289   3.666   0.593
 5142SOL     OW16324   6.077   1.757   3.994
 5142SOL    HW116325   6.132   1.838   3.974
 5142SOL    HW216326   5.982   1.784   4.011
 5143SOL     OW16327   0.405   4.135   3.684
 5143SOL    HW116328   0.443   4.152   3.775
 5143SOL    HW216329   0.389   4.037   3.673
 5144SOL     OW16330   1.157   6.504   6.489
 5144SOL    HW116331   1.077   6.487   6.431
 5144SOL    HW216332   1.232   6.443   6.462
 5145SOL     OW16333   2.760   5.407   6.106
 5145SOL    HW116334   2.819   5.481   6.139
 5145SOL    HW216335   2.752   5.336   6.176
 5146SOL     OW16336   4.396   3.524   6.483
 5146SOL    HW116337   4.452   3.508   6.402
 5146SOL    HW216338   4.455   3.544   6.562
 5147SOL     OW16339   0.248   3.970   2.139
 5147SOL    HW116340   0.255   4.006   2.233
 5147SOL    HW216341   0.336   3.978   2.093
 5148SOL     OW16342   0.481   6.226   1.132
 5148SOL    HW116343   0.449   6.309   1.087
 5148SOL    HW216344   0.535   6.250   1.213
 5149SOL     OW16345   5.684   6.614   4.247
 5149SOL    HW116346   5.733   6.600   4.161
 5149SOL    HW216347   5.681   6.529   4.298
 5150SOL     OW16348   2.335   4.760   3.339
 5150SOL    HW116349   2.289   4.779   3.252
 5150SOL    HW216350   2.432   4.779   3.330
 5151SOL     OW16351   5.227   1.093   0.467
 5151SOL    HW116352   5.263   1.009   0.426
 5151SOL    HW216353   5.284   1.119   0.545
 5152SOL     OW16354   1.857   4.706   6.453
 5152SOL    HW116355   1.896   4.640   6.518
 5152SOL    HW216356   1.805   4.656   6.383
 5153SOL     OW16357   2.444   1.166   6.348
 5153SOL    HW116358   2.380   1.240   6.368
 5153SOL    HW216359   2.452   1.154   6.249
 5154SOL     OW16360   1.707   3.136   6.119
 5154SOL    HW116361   1.647   3.095   6.051
 5154SOL    HW216362   1.700   3.236   6.115
 5155SOL     OW16363   4.130   6.468   2.157
 5155SOL    HW116364   4.159   6.435   2.067
 5155SOL    HW216365   4.093   6.561   2.148
 5156SOL     OW16366   6.816   2.981   5.758
 5156SOL    HW116367   6.817   2.881   5.752
 5156SOL    HW216368   6.886   3.011   5.823
 5157SOL     OW16369   4.686   2.512   3.739
 5157SOL    HW116370   4.618   2.493   3.669
 5157SOL    HW216371   4.773   2.469   3.714
 5158SOL     OW16372   3.533   1.850   1.438
 5158SOL    HW116373   3.488   1.808   1.517
 5158SOL    HW216374   3.580   1.933   1.468
 5159SOL     OW16375   0.558   3.005   4.993
 5159SOL    HW116376   0.628   2.935   4.980
 5159SOL    HW216377   0.585   3.065   5.068
 5160SOL     OW16378   0.762   3.834   4.183
 5160SOL    HW116379   0.841   3.774   4.170
 5160SOL    HW216380   0.755   3.897   4.106
 5161SOL     OW16381   1.042   3.873   4.853
 5161SOL    HW116382   1.022   3.950   4.791
 5161SOL    HW216383   1.114   3.900   4.917
 5162SOL     OW16384   0.739   5.104   4.199
 5162SOL    HW116385   0.763   5.201   4.208
 5162SOL    HW216386   0.727   5.064   4.289
 5163SOL     OW16387   3.834   4.995   1.370
 5163SOL    HW116388   3.892   4.925   1.412
 5163SOL    HW216389   3.881   5.035   1.292
 5164SOL     OW16390   6.247   2.407   6.045
 5164SOL    HW116391   6.155   2.428   6.014
 5164SOL    HW216392   6.279   2.323   6.002
 5165SOL     OW16393   5.522   4.282   5.038
 5165SOL    HW116394   5.590   4.307   4.970
 5165SOL    HW216395   5.564   4.278   5.128
 5166SOL     OW16396   1.426   5.126   1.674
 5166SOL    HW116397   1.371   5.172   1.744
 5166SOL    HW216398   1.479   5.193   1.623
 5167SOL     OW16399   6.168   0.234   5.590
 5167SOL    HW116400   6.202   0.229   5.684
 5167SOL    HW216401   6.148   0.142   5.556
 5168SOL     OW16402   5.031   2.213   3.401
 5168SOL    HW116403   5.074   2.266   3.474
 5168SOL    HW216404   5.000   2.275   3.329
 5169SOL     OW16405   3.307   3.025   5.736
 5169SOL    HW116406   3.224   3.080   5.737
 5169SOL    HW216407   3.292   2.941   5.683
 5170SOL     OW16408   6.999   3.938   5.995
 5170SOL    HW116409   0.057   3.892   5.968
 5170SOL    HW216410   7.008   3.974   6.088
 5171SOL     OW16411   2.358   4.885   4.771
 5171SOL    HW116412   2.437   4.946   4.775
 5171SOL    HW216413   2.274   4.939   4.780
 5172SOL     OW16414   1.035   3.112   1.856
 5172SOL    HW116415   1.077   3.054   1.926
 5172SOL    HW216416   1.079   3.201   1.855
 5173SOL     OW16417   5.791   4.452   6.397
 5173SOL    HW116418   5.819   4.463   6.493
 5173SOL    HW216419   5.711   4.509   6.379
 5174SOL     OW16420   2.003   4.845   4.362
 5174SOL    HW116421   2.065   4.922   4.345
 5174SOL    HW216422   2.057   4.762   4.379
 5175SOL     OW16423   2.315   4.392   6.221
 5175SOL    HW116424   2.287   4.351   6.308
 5175SOL    HW216425   2.408   4.364   6.200
 5176SOL     OW16426   4.063   2.954   1.102
 5176SOL    HW116427   4.055   3.031   1.038
 5176SOL    HW216428   4.017   2.874   1.064
 5177SOL     OW16429   5.059   0.052   6.031
 5177SOL    HW116430   5.126   0.004   6.089
 5177SOL    HW216431   5.068   0.020   5.937
 5178SOL     OW16432   2.719   2.533   0.787
 5178SOL    HW116433   2.792   2.601   0.779
 5178SOL    HW216434   2.680   2.537   0.879
 5179SOL     OW16435   4.929   5.798   5.226
 5179SOL    HW116436   4.929   5.799   5.126
 5179SOL    HW216437   4.847   5.844   5.260
 5180SOL     OW16438   3.017   2.664   6.331
 5180SOL    HW116439   2.981   2.757   6.321
 5180SOL    HW216440   2.956   2.600   6.283
 5181SOL     OW16441   4.225   0.985   3.091
 5181SOL    HW116442   4.302   0.983   3.027
 5181SOL    HW216443   4.148   1.033   3.049
 5182SOL     OW16444   5.222   5.045   1.555
 5182SOL    HW116445   5.130   5.070   1.583
 5182SOL    HW216446   5.283   5.123   1.566
 5183SOL     OW16447   4.573   6.717   2.222
 5183SOL    HW116448   4.653   6.740   2.278
 5183SOL    HW216449   4.497   6.779   2.246
 5184SOL     OW16450   0.638   1.523   3.959
 5184SOL    HW116451   0.626   1.569   4.047
 5184SOL    HW216452   0.735   1.503   3.944
 5185SOL     OW16453   4.553   6.993   3.091
 5185SOL    HW116454   4.540   7.015   2.995
 5185SOL    HW216455   4.463   6.978   3.134
 5186SOL     OW16456   6.099   3.735   0.990
 5186SOL    HW116457   6.180   3.691   0.953
 5186SOL    HW216458   6.017   3.688   0.956
 5187SOL     OW16459   6.585   1.193   3.650
 5187SOL    HW116460   6.618   1.108   3.692
 5187SOL    HW216461   6.495   1.177   3.610
 5188SOL     OW16462   0.639   5.420   0.951
 5188SOL    HW116463   0.604   5.378   1.035
 5188SOL    HW216464   0.739   5.412   0.948
 5189SOL     OW16465   4.579   5.190   0.265
 5189SOL    HW116466   4.627   5.222   0.346
 5189SOL    HW216467   4.482   5.176   0.287
 5190SOL     OW16468   1.330   1.861   4.351
 5190SOL    HW116469   1.398   1.906   4.293
 5190SOL    HW216470   1.239   1.871   4.310
 5191SOL     OW16471   3.550   1.019   1.612
 5191SOL    HW116472   3.507   0.987   1.696
 5191SOL    HW216473   3.614   0.949   1.579
 5192SOL     OW16474   4.732   5.733   2.548
 5192SOL    HW116475   4.775   5.651   2.587
 5192SOL    HW216476   4.643   5.708   2.510
 5193SOL     OW16477   4.593   4.346   3.831
 5193SOL    HW116478   4.667   4.412   3.841
 5193SOL    HW216479   4.614   4.284   3.755
 5194SOL     OW16480   5.085   0.189   6.299
 5194SOL    HW116481   5.163   0.166   6.358
 5194SOL    HW216482   5.076   0.119   6.228
 5195SOL     OW16483   6.364   6.350   4.628
 5195SOL    HW116484   6.336   6.411   4.555
 5195SOL    HW216485   6.448   6.302   4.602
 5196SOL     OW16486   0.899   3.549   1.169
 5196SOL    HW116487   0.932   3.514   1.257
 5196SOL    HW216488   0.877   3.646   1.178
 5197SOL     OW16489   2.074   5.925   4.091
 5197SOL    HW116490   1.991   5.943   4.145
 5197SOL    HW216491   2.141   5.997   4.108
 5198SOL     OW16492   3.017   0.044   4.531
 5198SOL    HW116493   3.059   7.014   4.459
 5198SOL    HW216494   3.026   0.141   4.509
 5199SOL     OW16495   2.417   5.804   1.118
 5199SOL    HW116496   2.368   5.877   1.166
 5199SOL    HW216497   2.368   5.718   1.130
 5200SOL     OW16498   1.408   2.160   4.778
 5200SOL    HW116499   1.436   2.179   4.872
 5200SOL    HW216500   1.428   2.239   4.721
 5201SOL     OW16501   5.431   5.710   4.394
 5201SOL    HW116502   5.511   5.756   4.355
 5201SOL    HW216503   5.451   5.612   4.405
 5202SOL     OW16504   5.146   3.406   6.649
 5202SOL    HW116505   5.130   3.366   6.559
 5202SOL    HW216506   5.140   3.505   6.644
 5203SOL     OW16507   1.724   0.372   5.982
 5203SOL    HW116508   1.805   0.331   6.025
 5203SOL    HW216509   1.705   0.326   5.896
 5204SOL     OW16510   2.891   6.695   6.807
 5204SOL    HW116511   2.958   6.725   6.875
 5204SOL    HW216512   2.906   6.599   6.785
 5205SOL     OW16513   0.077   5.493   6.876
 5205SOL    HW116514   0.060   5.562   6.805
 5205SOL    HW216515   7.026   5.492   6.940
 5206SOL     OW16516   0.548   5.048   5.631
 5206SOL    HW116517   0.457   5.086   5.647
 5206SOL    HW216518   0.611   5.082   5.701
 5207SOL     OW16519   0.138   0.103   4.018
 5207SOL    HW116520   0.176   0.015   3.991
 5207SOL    HW216521   0.085   0.093   4.101
 5208SOL     OW16522   4.499   2.441   6.775
 5208SOL    HW116523   4.582   2.428   6.721
 5208SOL    HW216524   4.519   2.502   6.851
 5209SOL     OW16525   5.018   6.968   2.628
 5209SOL    HW116526   4.959   6.980   2.708
 5209SOL    HW216527   5.091   0.010   2.629
 5210SOL     OW16528   5.229   4.143   0.981
 5210SOL    HW116529   5.158   4.198   0.936
 5210SOL    HW216530   5.187   4.061   1.021
 5211SOL     OW16531   5.199   2.212   4.397
 5211SOL    HW116532   5.143   2.186   4.475
 5211SOL    HW216533   5.143   2.265   4.332
 5212SOL     OW16534   1.120   2.226   0.739
 5212SOL    HW116535   1.112   2.128   0.756
 5212SOL    HW216536   1.105   2.245   0.642
 5213SOL     OW16537   4.146   3.777   1.907
 5213SOL    HW116538   4.189   3.751   1.821
 5213SOL    HW216539   4.077   3.847   1.891
 5214SOL     OW16540   4.816   4.500   6.194
 5214SOL    HW116541   4.784   4.406   6.194
 5214SOL    HW216542   4.916   4.502   6.187
 5215SOL     OW16543   6.781   3.454   4.224
 5215SOL    HW116544   6.855   3.489   4.167
 5215SOL    HW216545   6.699   3.441   4.168
 5216SOL     OW16546   5.072   5.397   1.305
 5216SOL    HW116547   5.096   5.495   1.302
 5216SOL    HW216548   5.082   5.363   1.398
 5217SOL     OW16549   3.757   5.445   3.784
 5217SOL    HW116550   3.774   5.347   3.784
 5217SOL    HW216551   3.671   5.464   3.736
 5218SOL     OW16552   0.600   1.358   0.907
 5218SOL    HW116553   0.566   1.441   0.953
 5218SOL    HW216554   0.533   1.328   0.839
 5219SOL     OW16555   3.451   1.469   4.678
 5219SOL    HW116556   3.422   1.527   4.754
 5219SOL    HW216557   3.541   1.430   4.698
 5220SOL     OW16558   1.418   5.006   2.987
 5220SOL    HW116559   1.478   5.010   2.907
 5220SOL    HW216560   1.335   4.955   2.964
 5221SOL     OW16561   0.063   0.280   1.681
 5221SOL    HW116562   0.037   0.361   1.629
 5221SOL    HW216563   0.089   0.307   1.774
 5222SOL     OW16564   3.787   5.426   1.877
 5222SOL    HW116565   3.687   5.421   1.882
 5222SOL    HW216566   3.826   5.362   1.943
 5223SOL     OW16567   0.062   2.265   1.216
 5223SOL    HW116568   0.051   2.181   1.164
 5223SOL    HW216569   6.997   2.305   1.234
 5224SOL     OW16570   0.972   1.838   4.285
 5224SOL    HW116571   0.920   1.770   4.338
 5224SOL    HW216572   0.973   1.810   4.189
 5225SOL     OW16573   6.584   1.528   4.400
 5225SOL    HW116574   6.577   1.623   4.371
 5225SOL    HW216575   6.570   1.468   4.321
 5226SOL     OW16576   0.237   5.429   3.444
 5226SOL    HW116577   0.164   5.479   3.491
 5226SOL    HW216578   0.288   5.493   3.385
 5227SOL     OW16579   0.446   3.909   5.877
 5227SOL    HW116580   0.396   3.995   5.870
 5227SOL    HW216581   0.511   3.915   5.953
 5228SOL     OW16582   0.876   2.607   0.087
 5228SOL    HW116583   0.898   2.586   7.017
 5228SOL    HW216584   0.780   2.584   0.104
 5229SOL     OW16585   3.659   6.102   6.263
 5229SOL    HW116586   3.671   6.034   6.190
 5229SOL    HW216587   3.594   6.171   6.234
 5230SOL     OW16588   6.850   0.521   2.489
 5230SOL    HW116589   6.874   0.428   2.459
 5230SOL    HW216590   6.751   0.528   2.500
 5231SOL     OW16591   5.089   1.515   3.480
 5231SOL    HW116592   5.140   1.590   3.439
 5231SOL    HW216593   4.994   1.518   3.449
 5232SOL     OW16594   1.620   3.940   5.979
 5232SOL    HW116595   1.586   3.916   6.070
 5232SOL    HW216596   1.679   4.020   5.986
 5233SOL     OW16597   3.301   0.660   2.402
 5233SOL    HW116598   3.205   0.676   2.378
 5233SOL    HW216599   3.345   0.748   2.422
 5234SOL     OW16600   2.902   3.382   6.876
 5234SOL    HW116601   2.898   3.285   6.901
 5234SOL    HW216602   2.982   3.398   6.819
 5235SOL     OW16603   2.177   2.448   0.590
 5235SOL    HW116604   2.083   2.439   0.557
 5235SOL    HW216605   2.222   2.359   0.586
 5236SOL     OW16606   2.875   4.952   2.135
 5236SOL    HW116607   2.958   4.985   2.089
 5236SOL    HW216608   2.852   5.014   2.210
 5237SOL     OW16609   2.161   1.562   4.307
 5237SOL    HW116610   2.125   1.475   4.341
 5237SOL    HW216611   2.254   1.574   4.341
 5238SOL     OW16612   1.134   4.462   1.880
 5238SOL    HW116613   1.041   4.456   1.845
 5238SOL    HW216614   1.159   4.558   1.891
 5239SOL     OW16615   3.462   3.974   1.100
 5239SOL    HW116616   3.516   3.893   1.125
 5239SOL    HW216617   3.451   4.033   1.180
 5240SOL     OW16618   2.773   2.394   5.230
 5240SOL    HW116619   2.793   2.308   5.183
 5240SOL    HW216620   2.857   2.429   5.274
 5241SOL     OW16621   1.219   6.316   2.245
 5241SOL    HW116622   1.125   6.286   2.230
 5241SOL    HW216623   1.273   6.301   2.162
 5242SOL     OW16624   5.056   0.294   1.786
 5242SOL    HW116625   5.078   0.241   1.868
 5242SOL    HW216626   4.991   0.243   1.730
 5243SOL     OW16627   2.277   6.059   1.542
 5243SOL    HW116628   2.240   5.996   1.611
 5243SOL    HW216629   2.224   6.144   1.544
 5244SOL     OW16630   4.681   3.109   6.931
 5244SOL    HW116631   4.733   3.108   7.016
 5244SOL    HW216632   4.742   3.130   6.855
 5245SOL     OW16633   4.084   4.175   0.356
 5245SOL    HW116634   4.087   4.266   0.396
 5245SOL    HW216635   4.052   4.110   0.425
 5246SOL     OW16636   6.251   2.316   2.430
 5246SOL    HW116637   6.306   2.347   2.353
 5246SOL    HW216638   6.159   2.294   2.399
 5247SOL     OW16639   3.869   1.147   5.450
 5247SOL    HW116640   3.824   1.058   5.451
 5247SOL    HW216641   3.801   1.220   5.457
 5248SOL     OW16642   0.241   2.038   2.677
 5248SOL    HW116643   0.307   1.964   2.689
 5248SOL    HW216644   0.228   2.086   2.764
 5249SOL     OW16645   1.407   5.470   6.479
 5249SOL    HW116646   1.361   5.526   6.411
 5249SOL    HW216647   1.434   5.527   6.557
 5250SOL     OW16648   1.646   5.896   0.342
 5250SOL    HW116649   1.585   5.969   0.313
 5250SOL    HW216650   1.659   5.901   0.441
 5251SOL     OW16651   0.967   4.814   1.163
 5251SOL    HW116652   0.876   4.838   1.199
 5251SOL    HW216653   0.964   4.813   1.063
 5252SOL     OW16654   2.764   7.012   2.343
 5252SOL    HW116655   2.672   0.024   2.343
 5252SOL    HW216656   2.797   7.004   2.438
 5253SOL     OW16657   5.754   4.610   4.859
 5253SOL    HW116658   5.834   4.626   4.801
 5253SOL    HW216659   5.753   4.676   4.934
 5254SOL     OW16660   5.760   0.712   3.441
 5254SOL    HW116661   5.691   0.660   3.491
 5254SOL    HW216662   5.741   0.707   3.343
 5255SOL     OW16663   5.677   2.234   4.581
 5255SOL    HW116664   5.720   2.147   4.557
 5255SOL    HW216665   5.596   2.248   4.524
 5256SOL     OW16666   5.091   1.328   3.700
 5256SOL    HW116667   5.077   1.375   3.613
 5256SOL    HW216668   5.010   1.338   3.757
 5257SOL     OW16669   4.679   6.960   0.523
 5257SOL    HW116670   4.667   0.031   0.542
 5257SOL    HW216671   4.605   6.908   0.564
 5258SOL     OW16672   5.351   2.044   3.058
 5258SOL    HW116673   5.258   2.076   3.074
 5258SOL    HW216674   5.398   2.105   2.994
 5259SOL     OW16675   4.887   5.178   2.585
 5259SOL    HW116676   4.936   5.172   2.498
 5259SOL    HW216677   4.789   5.167   2.569
 5260SOL     OW16678   3.937   5.375   0.101
 5260SOL    HW116679   4.024   5.349   0.060
 5260SOL    HW216680   3.897   5.452   0.050
 5261SOL     OW16681   0.329   4.372   0.270
 5261SOL    HW116682   0.363   4.466   0.262
 5261SOL    HW216683   0.340   4.325   0.183
 5262SOL     OW16684   2.932   1.030   3.277
 5262SOL    HW116685   2.923   1.110   3.336
 5262SOL    HW216686   2.863   0.962   3.302
 5263SOL     OW16687   1.856   1.482   2.940
 5263SOL    HW116688   1.936   1.464   2.883
 5263SOL    HW216689   1.813   1.395   2.966
 5264SOL     OW16690   6.796   2.186   2.392
 5264SOL    HW116691   6.877   2.154   2.442
 5264SOL    HW216692   6.724   2.117   2.397
 5265SOL     OW16693   6.118   3.220   4.496
 5265SOL    HW116694   6.086   3.238   4.589
 5265SOL    HW216695   6.048   3.168   4.447
 5266SOL     OW16696   2.457   6.796   1.343
 5266SOL    HW116697   2.517   6.785   1.264
 5266SOL    HW216698   2.397   6.874   1.329
 5267SOL     OW16699   4.538   2.530   4.639
 5267SOL    HW116700   4.544   2.509   4.737
 5267SOL    HW216701   4.621   2.497   4.594
 5268SOL     OW16702   5.108   0.751   6.738
 5268SOL    HW116703   5.088   0.770   6.642
 5268SOL    HW216704   5.206   0.734   6.749
 5269SOL     OW16705   0.846   6.338   2.413
 5269SOL    HW116706   0.754   6.314   2.443
 5269SOL    HW216707   0.881   6.266   2.353
 5270SOL     OW16708   5.216   1.637   1.458
 5270SOL    HW116709   5.257   1.701   1.523
 5270SOL    HW216710   5.202   1.549   1.502
 5271SOL     OW16711   6.326   4.469   5.704
 5271SOL    HW116712   6.398   4.526   5.663
 5271SOL    HW216713   6.310   4.389   5.646
 5272SOL     OW16714   3.490   5.725   0.978
 5272SOL    HW116715   3.409   5.763   0.933
 5272SOL    HW216716   3.540   5.798   1.025
 5273SOL     OW16717   0.944   3.680   2.594
 5273SOL    HW116718   0.970   3.685   2.690
 5273SOL    HW216719   0.867   3.742   2.577
 5274SOL     OW16720   5.343   6.410   2.747
 5274SOL    HW116721   5.284   6.489   2.764
 5274SOL    HW216722   5.436   6.431   2.777
 5275SOL     OW16723   3.272   1.107   0.846
 5275SOL    HW116724   3.191   1.096   0.904
 5275SOL    HW216725   3.338   1.035   0.869
 5276SOL     OW16726   2.490   0.604   1.875
 5276SOL    HW116727   2.407   0.631   1.826
 5276SOL    HW216728   2.538   0.533   1.824
 5277SOL     OW16729   2.891   1.085   2.621
 5277SOL    HW116730   2.952   1.161   2.639
 5277SOL    HW216731   2.862   1.043   2.707
 5278SOL     OW16732   5.067   4.840   3.593
 5278SOL    HW116733   5.081   4.767   3.525
 5278SOL    HW216734   4.979   4.885   3.575
 5279SOL     OW16735   2.319   5.563   0.970
 5279SOL    HW116736   2.231   5.516   0.963
 5279SOL    HW216737   2.373   5.544   0.888
 5280SOL     OW16738   3.023   6.097   4.679
 5280SOL    HW116739   2.960   6.027   4.712
 5280SOL    HW216740   3.008   6.112   4.581
 5281SOL     OW16741   6.564   2.041   2.348
 5281SOL    HW116742   6.602   1.954   2.379
 5281SOL    HW216743   6.483   2.064   2.402
 5282SOL     OW16744   2.416   1.174   3.516
 5282SOL    HW116745   2.490   1.113   3.489
 5282SOL    HW216746   2.424   1.261   3.466
 5283SOL     OW16747   5.044   6.551   1.504
 5283SOL    HW116748   5.129   6.591   1.468
 5283SOL    HW216749   5.056   6.532   1.602
 5284SOL     OW16750   5.318   4.433   2.837
 5284SOL    HW116751   5.266   4.348   2.842
 5284SOL    HW216752   5.260   4.507   2.802
 5285SOL     OW16753   3.089   4.964   3.769
 5285SOL    HW116754   3.104   4.917   3.856
 5285SOL    HW216755   3.164   5.029   3.754
 5286SOL     OW16756   2.283   4.205   1.298
 5286SOL    HW116757   2.227   4.262   1.238
 5286SOL    HW216758   2.376   4.241   1.300
 5287SOL     OW16759   2.553   1.411   0.715
 5287SOL    HW116760   2.501   1.491   0.685
 5287SOL    HW216761   2.520   1.330   0.666
 5288SOL     OW16762   4.321   0.343   1.221
 5288SOL    HW116763   4.392   0.412   1.239
 5288SOL    HW216764   4.232   0.381   1.246
 5289SOL     OW16765   0.885   5.344   0.231
 5289SOL    HW116766   0.920   5.292   0.309
 5289SOL    HW216767   0.948   5.335   0.154
 5290SOL     OW16768   2.949   6.013   6.887
 5290SOL    HW116769   2.860   5.971   6.873
 5290SOL    HW216770   3.011   5.985   6.813
 5291SOL     OW16771   2.642   5.565   5.901
 5291SOL    HW116772   2.662   5.488   5.962
 5291SOL    HW216773   2.596   5.637   5.953
 5292SOL     OW16774   5.840   3.169   6.944
 5292SOL    HW116775   5.754   3.190   6.991
 5292SOL    HW216776   5.888   3.254   6.922
 5293SOL     OW16777   0.785   0.827   4.648
 5293SOL    HW116778   0.838   0.840   4.565
 5293SOL    HW216779   0.778   0.913   4.698
 5294SOL     OW16780   5.585   3.271   6.657
 5294SOL    HW116781   5.565   3.324   6.739
 5294SOL    HW216782   5.680   3.284   6.631
 5295SOL     OW16783   5.281   1.152   2.885
 5295SOL    HW116784   5.359   1.206   2.918
 5295SOL    HW216785   5.201   1.211   2.877
 5296SOL     OW16786   1.903   4.663   0.203
 5296SOL    HW116787   1.896   4.620   0.294
 5296SOL    HW216788   1.824   4.637   0.148
 5297SOL     OW16789   2.421   2.352   0.821
 5297SOL    HW116790   2.449   2.439   0.781
 5297SOL    HW216791   2.391   2.367   0.916
 5298SOL     OW16792   6.422   5.297   2.016
 5298SOL    HW116793   6.504   5.241   2.027
 5298SOL    HW216794   6.366   5.291   2.099
 5299SOL     OW16795   2.972   0.775   1.447
 5299SOL    HW116796   2.926   0.749   1.532
 5299SOL    HW216797   3.069   0.756   1.455
 5300SOL     OW16798   0.244   5.521   3.038
 5300SOL    HW116799   0.257   5.444   2.976
 5300SOL    HW216800   0.301   5.597   3.008
 5301SOL     OW16801   4.195   1.781   0.023
 5301SOL    HW116802   4.270   1.845   0.007
 5301SOL    HW216803   4.232   1.693   0.054
 5302SOL     OW16804   6.760   4.268   2.499
 5302SOL    HW116805   6.755   4.222   2.588
 5302SOL    HW216806   6.683   4.237   2.442
 5303SOL     OW16807   6.491   4.774   3.919
 5303SOL    HW116808   6.443   4.808   3.838
 5303SOL    HW216809   6.521   4.680   3.903
 5304SOL     OW16810   5.037   2.214   6.088
 5304SOL    HW116811   5.092   2.225   6.005
 5304SOL    HW216812   5.059   2.288   6.153
 5305SOL     OW16813   1.854   0.765   3.758
 5305SOL    HW116814   1.910   0.847   3.752
 5305SOL    HW216815   1.897   0.700   3.821
 5306SOL     OW16816   2.398   6.255   5.612
 5306SOL    HW116817   2.485   6.303   5.620
 5306SOL    HW216818   2.414   6.161   5.582
 5307SOL     OW16819   4.456   6.882   6.469
 5307SOL    HW116820   4.427   6.861   6.562
 5307SOL    HW216821   4.484   6.978   6.463
 5308SOL     OW16822   0.044   0.293   3.861
 5308SOL    HW116823   7.021   0.350   3.926
 5308SOL    HW216824   0.091   0.220   3.911
 5309SOL     OW16825   3.731   3.608   3.670
 5309SOL    HW116826   3.729   3.509   3.657
 5309SOL    HW216827   3.825   3.641   3.664
 5310SOL     OW16828   4.804   2.329   1.529
 5310SOL    HW116829   4.718   2.318   1.578
 5310SOL    HW216830   4.868   2.257   1.557
 5311SOL     OW16831   2.167   5.612   0.209
 5311SOL    HW116832   2.078   5.572   0.232
 5311SOL    HW216833   2.176   5.700   0.256
 5312SOL     OW16834   1.113   4.830   2.547
 5312SOL    HW116835   1.210   4.809   2.535
 5312SOL    HW216836   1.096   4.858   2.641
 5313SOL     OW16837   1.170   6.049   6.656
 5313SOL    HW116838   1.093   6.062   6.718
 5313SOL    HW216839   1.137   6.039   6.563
 5314SOL     OW16840   4.638   5.322   0.017
 5314SOL    HW116841   4.708   5.331   0.088
 5314SOL    HW216842   4.614   5.225   0.006
 5315SOL     OW16843   5.181   3.973   1.830
 5315SOL    HW116844   5.167   4.062   1.786
 5315SOL    HW216845   5.216   3.908   1.764
 5316SOL     OW16846   6.753   5.046   5.000
 5316SOL    HW116847   6.668   5.082   4.961
 5316SOL    HW216848   6.742   5.035   5.098
 5317SOL     OW16849   5.696   0.976   3.044
 5317SOL    HW116850   5.662   1.047   2.983
 5317SOL    HW216851   5.659   0.990   3.136
 5318SOL     OW16852   6.750   2.861   4.581
 5318SOL    HW116853   6.845   2.848   4.551
 5318SOL    HW216854   6.691   2.797   4.532
 5319SOL     OW16855   5.489   0.282   0.025
 5319SOL    HW116856   5.589   0.270   0.023
 5319SOL    HW216857   5.452   0.232   0.104
 5320SOL     OW16858   5.684   3.713   6.805
 5320SOL    HW116859   5.615   3.714   6.877
 5320SOL    HW216860   5.649   3.762   6.725
 5321SOL     OW16861   2.058   5.411   5.436
 5321SOL    HW116862   2.074   5.312   5.427
 5321SOL    HW216863   1.987   5.427   5.504
 5322SOL     OW16864   4.296   6.266   6.280
 5322SOL    HW116865   4.352   6.224   6.351
 5322SOL    HW216866   4.333   6.356   6.257
 5323SOL     OW16867   4.040   2.195   0.072
 5323SOL    HW116868   4.017   2.275   0.018
 5323SOL    HW216869   3.988   2.196   0.157
 5324SOL     OW16870   3.905   2.864   1.527
 5324SOL    HW116871   3.905   2.888   1.430
 5324SOL    HW216872   3.869   2.941   1.580
 5325SOL     OW16873   4.770   6.221   2.389
 5325SOL    HW116874   4.736   6.247   2.299
 5325SOL    HW216875   4.743   6.127   2.409
 5326SOL     OW16876   6.933   5.631   1.909
 5326SOL    HW116877   6.861   5.622   1.839
 5326SOL    HW216878   7.010   5.572   1.884
 5327SOL     OW16879   6.530   0.175   4.631
 5327SOL    HW116880   6.471   0.121   4.691
 5327SOL    HW216881   6.475   0.244   4.584
 5328SOL     OW16882   4.256   3.707   6.665
 5328SOL    HW116883   4.331   3.759   6.706
 5328SOL    HW216884   4.290   3.657   6.585
 5329SOL     OW16885   0.646   4.849   0.686
 5329SOL    HW116886   0.656   4.862   0.785
 5329SOL    HW216887   0.681   4.930   0.638
 5330SOL     OW16888   3.537   3.614   0.982
 5330SOL    HW116889   3.468   3.620   1.054
 5330SOL    HW216890   3.579   3.703   0.968
 5331SOL     OW16891   4.404   2.065   0.396
 5331SOL    HW116892   4.316   2.034   0.431
 5331SOL    HW216893   4.458   1.986   0.368
 5332SOL     OW16894   6.309   5.190   0.793
 5332SOL    HW116895   6.225   5.164   0.841
 5332SOL    HW216896   6.378   5.219   0.859
 5333SOL     OW16897   2.017   1.104   3.236
 5333SOL    HW116898   2.097   1.096   3.177
 5333SOL    HW216899   2.045   1.109   3.332
 5334SOL     OW16900   4.299   4.643   3.448
 5334SOL    HW116901   4.347   4.657   3.361
 5334SOL    HW216902   4.323   4.553   3.485
 5335SOL     OW16903   0.098   4.535   1.766
 5335SOL    HW116904   0.154   4.459   1.798
 5335SOL    HW216905   0.105   4.541   1.666
 5336SOL     OW16906   1.952   1.612   3.830
 5336SOL    HW116907   1.897   1.548   3.885
 5336SOL    HW216908   2.009   1.667   3.891
 5337SOL     OW16909   6.427   4.080   1.303
 5337SOL    HW116910   6.464   4.058   1.213
 5337SOL    HW216911   6.475   4.161   1.339
 5338SOL     OW16912   6.310   2.811   0.061
 5338SOL    HW116913   6.404   2.808   0.094
 5338SOL    HW216914   6.286   2.906   0.038
 5339SOL     OW16915   6.145   2.406   2.663
 5339SOL    HW116916   6.184   2.382   2.575
 5339SOL    HW216917   6.091   2.329   2.698
 5340SOL     OW16918   5.825   2.846   2.283
 5340SOL    HW116919   5.811   2.781   2.209
 5340SOL    HW216920   5.872   2.800   2.359
 5341SOL     OW16921   4.800   4.651   3.562
 5341SOL    HW116922   4.756   4.672   3.475
 5341SOL    HW216923   4.761   4.707   3.634
 5342SOL     OW16924   6.055   0.014   5.451
 5342SOL    HW116925   5.961   0.036   5.479
 5342SOL    HW216926   6.083   6.955   5.496
 5343SOL     OW16927   3.957   3.618   5.411
 5343SOL    HW116928   3.922   3.705   5.448
 5343SOL    HW216929   4.022   3.637   5.338
 5344SOL     OW16930   0.625   1.378   6.963
 5344SOL    HW116931   0.580   1.289   6.965
 5344SOL    HW216932   0.725   1.365   6.962
 5345SOL     OW16933   5.135   1.321   6.611
 5345SOL    HW116934   5.157   1.228   6.641
 5345SOL    HW216935   5.052   1.352   6.659
 5346SOL     OW16936   3.092   4.876   3.515
 5346SOL    HW116937   3.084   4.917   3.606
 5346SOL    HW216938   3.106   4.947   3.447
 5347SOL     OW16939   6.410   2.611   4.044
 5347SOL    HW116940   6.427   2.514   4.027
 5347SOL    HW216941   6.314   2.624   4.069
 5348SOL     OW16942   5.288   2.031   4.161
 5348SOL    HW116943   5.259   2.041   4.256
 5348SOL    HW216944   5.208   2.009   4.104
 5349SOL     OW16945   1.028   2.689   1.912
 5349SOL    HW116946   1.077   2.749   1.849
 5349SOL    HW216947   1.022   2.598   1.873
 5350SOL     OW16948   1.833   6.531   5.919
 5350SOL    HW116949   1.821   6.440   5.880
 5350SOL    HW216950   1.757   6.590   5.892
 5351SOL     OW16951   0.588   5.368   1.761
 5351SOL    HW116952   0.552   5.312   1.836
 5351SOL    HW216953   0.687   5.376   1.771
 5352SOL     OW16954   1.631   4.029   3.735
 5352SOL    HW116955   1.727   4.045   3.757
 5352SOL    HW216956   1.621   3.936   3.698
 5353SOL     OW16957   4.570   5.198   3.495
 5353SOL    HW116958   4.573   5.234   3.402
 5353SOL    HW216959   4.574   5.274   3.560
 5354SOL     OW16960   3.641   5.350   0.669
 5354SOL    HW116961   3.736   5.365   0.698
 5354SOL    HW216962   3.624   5.396   0.582
 5355SOL     OW16963   5.210   5.175   5.210
 5355SOL    HW116964   5.132   5.117   5.232
 5355SOL    HW216965   5.207   5.199   5.112
 5356SOL     OW16966   0.195   4.247   1.586
 5356SOL    HW116967   0.096   4.253   1.577
 5356SOL    HW216968   0.221   4.258   1.682
 5357SOL     OW16969   4.022   5.060   1.767
 5357SOL    HW116970   4.007   5.039   1.864
 5357SOL    HW216971   4.086   5.136   1.759
 5358SOL     OW16972   4.266   1.510   0.156
 5358SOL    HW116973   4.337   1.467   0.212
 5358SOL    HW216974   4.177   1.493   0.197
 5359SOL     OW16975   1.898   1.885   0.209
 5359SOL    HW116976   1.819   1.914   0.262
 5359SOL    HW216977   1.980   1.887   0.267
 5360SOL     OW16978   5.787   4.922   4.047
 5360SOL    HW116979   5.750   5.005   4.088
 5360SOL    HW216980   5.754   4.913   3.953
 5361SOL     OW16981   3.277   6.323   2.839
 5361SOL    HW116982   3.263   6.232   2.802
 5361SOL    HW216983   3.244   6.391   2.774
 5362SOL     OW16984   4.894   0.084   2.182
 5362SOL    HW116985   4.911   7.012   2.178
 5362SOL    HW216986   4.863   0.109   2.274
 5363SOL     OW16987   6.009   5.771   4.626
 5363SOL    HW116988   5.989   5.867   4.645
 5363SOL    HW216989   6.092   5.744   4.674
 5364SOL     OW16990   4.716   0.431   2.859
 5364SOL    HW116991   4.676   0.398   2.944
 5364SOL    HW216992   4.812   0.455   2.874
 5365SOL     OW16993   3.317   3.238   4.060
 5365SOL    HW116994   3.292   3.171   4.130
 5365SOL    HW216995   3.324   3.193   3.971
 5366SOL     OW16996   6.299   0.096   1.685
 5366SOL    HW116997   6.342   0.071   1.598
 5366SOL    HW216998   6.333   0.035   1.757
 5367SOL     OW16999   6.897   6.534   0.790
 5367SOL    HW117000   6.961   6.610   0.785
 5367SOL    HW217001   6.827   6.545   0.719
 5368SOL     OW17002   6.706   5.677   3.000
 5368SOL    HW117003   6.692   5.740   3.077
 5368SOL    HW217004   6.736   5.588   3.035
 5369SOL     OW17005   2.556   5.427   1.947
 5369SOL    HW117006   2.561   5.475   1.860
 5369SOL    HW217007   2.602   5.482   2.018
 5370SOL     OW17008   3.106   4.286   1.100
 5370SOL    HW117009   3.100   4.218   1.173
 5370SOL    HW217010   3.183   4.264   1.040
 5371SOL     OW17011   6.854   5.562   5.179
 5371SOL    HW117012   6.797   5.644   5.185
 5371SOL    HW217013   6.826   5.508   5.099
 5372SOL     OW17014   1.095   0.367   2.738
 5372SOL    HW117015   1.079   0.336   2.645
 5372SOL    HW217016   1.135   0.292   2.792
 5373SOL     OW17017   4.390   6.816   5.700
 5373SOL    HW117018   4.365   6.722   5.721
 5373SOL    HW217019   4.488   6.821   5.683
 5374SOL     OW17020   2.724   5.222   1.102
 5374SOL    HW117021   2.762   5.243   1.012
 5374SOL    HW217022   2.718   5.122   1.113
 5375SOL     OW17023   1.176   5.698   4.815
 5375SOL    HW117024   1.219   5.789   4.821
 5375SOL    HW217025   1.247   5.628   4.819
 5376SOL     OW17026   1.372   1.354   0.568
 5376SOL    HW117027   1.402   1.370   0.474
 5376SOL    HW217028   1.295   1.414   0.589
 5377SOL     OW17029   2.248   0.818   2.957
 5377SOL    HW117030   2.287   0.895   2.905
 5377SOL    HW217031   2.151   0.834   2.972
 5378SOL     OW17032   5.669   0.630   1.304
 5378SOL    HW117033   5.590   0.612   1.247
 5378SOL    HW217034   5.646   0.700   1.372
 5379SOL     OW17035   1.016   2.807   5.658
 5379SOL    HW117036   0.985   2.882   5.716
 5379SOL    HW217037   1.111   2.823   5.631
 5380SOL     OW17038   4.454   6.875   1.456
 5380SOL    HW117039   4.470   6.973   1.458
 5380SOL    HW217040   4.497   6.832   1.536
 5381SOL     OW17041   5.104   6.484   3.018
 5381SOL    HW117042   5.148   6.404   3.059
 5381SOL    HW217043   5.037   6.454   2.950
 5382SOL     OW17044   4.079   1.629   2.979
 5382SOL    HW117045   4.102   1.684   2.898
 5382SOL    HW217046   3.983   1.643   3.002
 5383SOL     OW17047   1.731   3.105   4.305
 5383SOL    HW117048   1.719   3.157   4.220
 5383SOL    HW217049   1.651   3.118   4.363
 5384SOL     OW17050   4.794   5.612   5.480
 5384SOL    HW117051   4.704   5.570   5.475
 5384SOL    HW217052   4.796   5.695   5.425
 5385SOL     OW17053   6.092   2.434   5.793
 5385SOL    HW117054   5.996   2.411   5.778
 5385SOL    HW217055   6.149   2.353   5.778
 5386SOL     OW17056   6.363   3.686   4.075
 5386SOL    HW117057   6.460   3.691   4.096
 5386SOL    HW217058   6.349   3.701   3.977
 5387SOL     OW17059   2.204   0.966   2.229
 5387SOL    HW117060   2.139   1.003   2.295
 5387SOL    HW217061   2.207   1.024   2.148
 5388SOL     OW17062   0.713   6.417   2.653
 5388SOL    HW117063   0.762   6.343   2.697
 5388SOL    HW217064   0.615   6.398   2.654
 5389SOL     OW17065   4.492   1.809   4.484
 5389SOL    HW117066   4.585   1.798   4.518
 5389SOL    HW217067   4.456   1.897   4.513
 5390SOL     OW17068   6.525   3.450   3.723
 5390SOL    HW117069   6.457   3.377   3.736
 5390SOL    HW217070   6.484   3.525   3.671
 5391SOL     OW17071   2.171   2.129   0.095
 5391SOL    HW117072   2.203   2.176   0.177
 5391SOL    HW217073   2.115   2.192   0.040
 5392SOL     OW17074   4.808   1.874   3.845
 5392SOL    HW117075   4.727   1.827   3.878
 5392SOL    HW217076   4.821   1.855   3.748
 5393SOL     OW17077   4.207   0.889   5.505
 5393SOL    HW117078   4.134   0.863   5.441
 5393SOL    HW217079   4.225   0.987   5.498
 5394SOL     OW17080   2.164   0.607   0.598
 5394SOL    HW117081   2.255   0.612   0.639
 5394SOL    HW217082   2.173   0.604   0.498
 5395SOL     OW17083   4.597   1.932   1.522
 5395SOL    HW117084   4.593   2.015   1.466
 5395SOL    HW217085   4.511   1.882   1.513
 5396SOL     OW17086   5.920   5.548   2.492
 5396SOL    HW117087   5.822   5.564   2.482
 5396SOL    HW217088   5.938   5.451   2.503
 5397SOL     OW17089   6.218   1.299   3.068
 5397SOL    HW117090   6.258   1.299   2.977
 5397SOL    HW217091   6.161   1.217   3.079
 5398SOL     OW17092   4.815   1.971   3.361
 5398SOL    HW117093   4.731   1.994   3.409
 5398SOL    HW217094   4.892   2.015   3.407
 5399SOL     OW17095   1.928   6.962   5.377
 5399SOL    HW117096   1.867   6.988   5.452
 5399SOL    HW217097   2.014   7.011   5.385
 5400SOL     OW17098   3.494   3.306   1.232
 5400SOL    HW117099   3.419   3.370   1.220
 5400SOL    HW217100   3.560   3.317   1.157
 5401SOL     OW17101   5.749   4.385   2.537
 5401SOL    HW117102   5.806   4.464   2.557
 5401SOL    HW217103   5.708   4.395   2.447
 5402SOL     OW17104   2.122   0.169   0.914
 5402SOL    HW117105   2.086   0.242   0.855
 5402SOL    HW217106   2.101   0.190   1.009
 5403SOL     OW17107   4.733   3.422   0.117
 5403SOL    HW117108   4.802   3.408   0.046
 5403SOL    HW217109   4.751   3.509   0.164
 5404SOL     OW17110   6.757   0.762   0.876
 5404SOL    HW117111   6.748   0.821   0.956
 5404SOL    HW217112   6.737   0.815   0.794
 5405SOL     OW17113   5.167   5.529   6.726
 5405SOL    HW117114   5.079   5.551   6.768
 5405SOL    HW217115   5.222   5.476   6.791
 5406SOL     OW17116   2.497   0.424   4.515
 5406SOL    HW117117   2.583   0.475   4.508
 5406SOL    HW217118   2.460   0.410   4.423
 5407SOL     OW17119   2.620   0.883   1.437
 5407SOL    HW117120   2.531   0.924   1.417
 5407SOL    HW217121   2.650   0.828   1.359
 5408SOL     OW17122   2.605   2.447   4.322
 5408SOL    HW117123   2.639   2.502   4.246
 5408SOL    HW217124   2.523   2.489   4.360
 5409SOL     OW17125   0.767   2.475   1.354
 5409SOL    HW117126   0.829   2.412   1.307
 5409SOL    HW217127   0.674   2.459   1.323
 5410SOL     OW17128   0.784   2.126   0.846
 5410SOL    HW117129   0.809   2.222   0.831
 5410SOL    HW217130   0.864   2.069   0.832
 5411SOL     OW17131   4.356   5.522   6.890
 5411SOL    HW117132   4.393   5.462   6.819
 5411SOL    HW217133   4.337   5.469   6.972
 5412SOL     OW17134   0.510   2.172   6.205
 5412SOL    HW117135   0.426   2.119   6.188
 5412SOL    HW217136   0.588   2.110   6.211
 5413SOL     OW17137   6.710   7.016   5.092
 5413SOL    HW117138   6.638   6.994   5.026
 5413SOL    HW217139   6.736   6.932   5.141
 5414SOL     OW17140   6.792   4.073   5.867
 5414SOL    HW117141   6.753   4.109   5.951
 5414SOL    HW217142   6.872   4.017   5.888
 5415SOL     OW17143   3.136   0.145   0.631
 5415SOL    HW117144   3.180   0.205   0.564
 5415SOL    HW217145   3.040   0.129   0.605
 5416SOL     OW17146   3.246   5.187   5.657
 5416SOL    HW117147   3.341   5.213   5.645
 5416SOL    HW217148   3.230   5.097   5.616
 5417SOL     OW17149   4.833   5.842   3.575
 5417SOL    HW117150   4.868   5.789   3.498
 5417SOL    HW217151   4.795   5.928   3.542
 5418SOL     OW17152   5.863   4.427   4.597
 5418SOL    HW117153   5.828   4.334   4.589
 5418SOL    HW217154   5.838   4.479   4.515
 5419SOL     OW17155   3.410   0.081   6.536
 5419SOL    HW117156   3.391   7.010   6.552
 5419SOL    HW217157   3.447   0.122   6.619
 5420SOL     OW17158   1.443   1.592   1.102
 5420SOL    HW117159   1.423   1.577   1.006
 5420SOL    HW217160   1.524   1.540   1.128
 5421SOL     OW17161   3.583   5.010   2.347
 5421SOL    HW117162   3.580   4.967   2.437
 5421SOL    HW217163   3.502   4.985   2.296
 5422SOL     OW17164   1.981   5.896   3.834
 5422SOL    HW117165   1.902   5.834   3.834
 5422SOL    HW217166   2.014   5.908   3.927
 5423SOL     OW17167   6.595   6.194   2.567
 5423SOL    HW117168   6.630   6.183   2.660
 5423SOL    HW217169   6.515   6.135   2.554
 5424SOL     OW17170   4.590   4.325   5.202
 5424SOL    HW117171   4.624   4.231   5.194
 5424SOL    HW217172   4.616   4.377   5.121
 5425SOL     OW17173   0.449   3.724   6.524
 5425SOL    HW117174   0.475   3.662   6.598
 5425SOL    HW217175   0.420   3.812   6.563
 5426SOL     OW17176   5.732   5.155   2.046
 5426SOL    HW117177   5.727   5.238   1.991
 5426SOL    HW217178   5.643   5.138   2.089
 5427SOL     OW17179   4.945   2.328   0.101
 5427SOL    HW117180   4.933   2.419   0.063
 5427SOL    HW217181   5.016   2.330   0.171
 5428SOL     OW17182   6.714   5.049   3.277
 5428SOL    HW117183   6.740   5.034   3.181
 5428SOL    HW217184   6.788   5.022   3.337
 5429SOL     OW17185   2.600   0.548   3.928
 5429SOL    HW117186   2.657   0.469   3.904
 5429SOL    HW217187   2.509   0.536   3.890
 5430SOL     OW17188   3.019   3.781   6.531
 5430SOL    HW117189   2.981   3.873   6.540
 5430SOL    HW217190   2.945   3.714   6.534
 5431SOL     OW17191   3.000   5.110   6.367
 5431SOL    HW117192   3.047   5.094   6.454
 5431SOL    HW217193   3.050   5.180   6.315
 5432SOL     OW17194   5.737   5.868   1.622
 5432SOL    HW117195   5.665   5.930   1.591
 5432SOL    HW217196   5.774   5.901   1.709
 5433SOL     OW17197   1.584   0.323   0.883
 5433SOL    HW117198   1.605   0.267   0.804
 5433SOL    HW217199   1.487   0.347   0.884
 5434SOL     OW17200   4.741   1.366   5.715
 5434SOL    HW117201   4.720   1.327   5.626
 5434SOL    HW217202   4.793   1.300   5.769
 5435SOL     OW17203   5.962   3.972   0.965
 5435SOL    HW117204   5.980   4.015   0.876
 5435SOL    HW217205   6.014   3.886   0.971
 5436SOL     OW17206   1.576   5.219   2.526
 5436SOL    HW117207   1.483   5.252   2.508
 5436SOL    HW217208   1.635   5.241   2.449
 5437SOL     OW17209   3.776   5.547   7.012
 5437SOL    HW117210   3.712   5.486   6.965
 5437SOL    HW217211   3.729   5.632   0.011
 5438SOL     OW17212   4.531   4.554   2.823
 5438SOL    HW117213   4.562   4.644   2.793
 5438SOL    HW217214   4.471   4.515   2.754
 5439SOL     OW17215   0.746   4.551   0.918
 5439SOL    HW117216   0.755   4.493   1.000
 5439SOL    HW217217   0.780   4.642   0.938
 5440SOL     OW17218   5.668   6.124   3.360
 5440SOL    HW117219   5.687   6.141   3.456
 5440SOL    HW217220   5.742   6.161   3.304
 5441SOL     OW17221   4.566   2.665   3.945
 5441SOL    HW117222   4.517   2.597   3.999
 5441SOL    HW217223   4.591   2.626   3.857
 5442SOL     OW17224   5.163   6.854   4.690
 5442SOL    HW117225   5.112   6.873   4.606
 5442SOL    HW217226   5.101   6.859   4.768
 5443SOL     OW17227   4.813   6.595   4.752
 5443SOL    HW117228   4.767   6.680   4.727
 5443SOL    HW217229   4.887   6.577   4.688
 5444SOL     OW17230   0.210   0.645   3.801
 5444SOL    HW117231   0.166   0.646   3.891
 5444SOL    HW217232   0.235   0.739   3.775
 5445SOL     OW17233   5.637   5.966   5.813
 5445SOL    HW117234   5.549   5.933   5.845
 5445SOL    HW217235   5.629   5.999   5.719
 5446SOL     OW17236   0.443   4.397   5.828
 5446SOL    HW117237   0.524   4.447   5.797
 5446SOL    HW217238   0.373   4.461   5.859
 5447SOL     OW17239   1.519   1.569   0.348
 5447SOL    HW117240   1.502   1.647   0.288
 5447SOL    HW217241   1.516   1.599   0.444
 5448SOL     OW17242   4.234   5.701   3.685
 5448SOL    HW117243   4.156   5.676   3.742
 5448SOL    HW217244   4.315   5.711   3.741
 5449SOL     OW17245   3.133   1.648   1.931
 5449SOL    HW117246   3.225   1.609   1.937
 5449SOL    HW217247   3.140   1.747   1.918
 5450SOL     OW17248   4.150   5.819   2.114
 5450SOL    HW117249   4.122   5.847   2.206
 5450SOL    HW217250   4.108   5.879   2.046
 5451SOL     OW17251   1.069   0.751   3.285
 5451SOL    HW117252   1.026   0.838   3.260
 5451SOL    HW217253   1.037   0.679   3.223
 5452SOL     OW17254   1.971   4.550   2.391
 5452SOL    HW117255   2.054   4.517   2.347
 5452SOL    HW217256   1.894   4.542   2.328
 5453SOL     OW17257   5.777   4.041   3.346
 5453SOL    HW117258   5.858   4.073   3.297
 5453SOL    HW217259   5.704   4.020   3.281
 5454SOL     OW17260   6.144   5.314   3.217
 5454SOL    HW117261   6.112   5.289   3.309
 5454SOL    HW217262   6.068   5.349   3.163
 5455SOL     OW17263   0.064   1.854   2.351
 5455SOL    HW117264   7.007   1.817   2.394
 5455SOL    HW217265   0.114   1.910   2.416
 5456SOL     OW17266   5.238   0.994   6.551
 5456SOL    HW117267   5.283   1.004   6.462
 5456SOL    HW217268   5.297   0.943   6.613
 5457SOL     OW17269   6.099   2.214   0.804
 5457SOL    HW117270   6.075   2.119   0.782
 5457SOL    HW217271   6.053   2.275   0.739
 5458SOL     OW17272   5.755   4.586   1.216
 5458SOL    HW117273   5.822   4.590   1.289
 5458SOL    HW217274   5.767   4.664   1.155
 5459SOL     OW17275   1.969   4.740   5.977
 5459SOL    HW117276   2.010   4.667   6.031
 5459SOL    HW217277   1.966   4.824   6.031
 5460SOL     OW17278   1.694   0.822   0.435
 5460SOL    HW117279   1.615   0.763   0.418
 5460SOL    HW217280   1.733   0.800   0.524
 5461SOL     OW17281   6.994   1.434   6.445
 5461SOL    HW117282   0.057   1.442   6.490
 5461SOL    HW217283   7.006   1.437   6.346
 5462SOL     OW17284   4.951   6.068   6.748
 5462SOL    HW117285   4.890   6.079   6.826
 5462SOL    HW217286   4.952   5.972   6.719
 5463SOL     OW17287   0.058   2.531   6.784
 5463SOL    HW117288   6.993   2.529   6.826
 5463SOL    HW217289   0.114   2.602   6.827
 5464SOL     OW17290   6.255   6.279   5.789
 5464SOL    HW117291   6.352   6.262   5.804
 5464SOL    HW217292   6.244   6.355   5.725
 5465SOL     OW17293   0.148   6.396   3.582
 5465SOL    HW117294   0.236   6.405   3.534
 5465SOL    HW217295   0.075   6.434   3.526
 5466SOL     OW17296   5.907   2.575   5.267
 5466SOL    HW117297   6.001   2.569   5.233
 5466SOL    HW217298   5.888   2.669   5.297
 5467SOL     OW17299   5.715   3.707   3.576
 5467SOL    HW117300   5.728   3.663   3.665
 5467SOL    HW217301   5.647   3.780   3.585
 5468SOL     OW17302   6.605   2.169   2.724
 5468SOL    HW117303   6.645   2.078   2.718
 5468SOL    HW217304   6.590   2.192   2.820
 5469SOL     OW17305   2.154   0.949   5.610
 5469SOL    HW117306   2.105   0.868   5.576
 5469SOL    HW217307   2.250   0.927   5.625
 5470SOL     OW17308   4.176   5.328   4.390
 5470SOL    HW117309   4.125   5.326   4.477
 5470SOL    HW217310   4.204   5.235   4.366
 5471SOL     OW17311   4.985   6.851   2.189
 5471SOL    HW117312   4.964   6.754   2.202
 5471SOL    HW217313   5.082   6.867   2.210
 5472SOL     OW17314   3.456   1.614   6.052
 5472SOL    HW117315   3.362   1.643   6.069
 5472SOL    HW217316   3.519   1.679   6.094
 5473SOL     OW17317   1.911   4.841   1.275
 5473SOL    HW117318   1.842   4.769   1.273
 5473SOL    HW217319   2.002   4.801   1.263
 5474SOL     OW17320   0.791   5.440   3.559
 5474SOL    HW117321   0.736   5.517   3.527
 5474SOL    HW217322   0.885   5.471   3.575
 5475SOL     OW17323   0.977   2.197   6.861
 5475SOL    HW117324   1.061   2.207   6.915
 5475SOL    HW217325   0.996   2.141   6.780
 5476SOL     OW17326   2.698   6.327   5.576
 5476SOL    HW117327   2.764   6.328   5.501
 5476SOL    HW217328   2.722   6.397   5.643
 5477SOL     OW17329   2.010   4.999   4.008
 5477SOL    HW117330   2.074   5.062   4.053
 5477SOL    HW217331   2.058   4.915   3.984
 5478SOL     OW17332   6.008   4.884   6.171
 5478SOL    HW117333   6.023   4.805   6.112
 5478SOL    HW217334   6.093   4.936   6.180
 5479SOL     OW17335   4.494   1.763   4.957
 5479SOL    HW117336   4.466   1.842   4.902
 5479SOL    HW217337   4.432   1.687   4.942
 5480SOL     OW17338   6.187   4.373   5.351
 5480SOL    HW117339   6.160   4.305   5.283
 5480SOL    HW217340   6.124   4.369   5.429
 5481SOL     OW17341   3.963   1.152   6.331
 5481SOL    HW117342   4.057   1.121   6.319
 5481SOL    HW217343   3.929   1.192   6.245
 5482SOL     OW17344   3.719   3.754   2.086
 5482SOL    HW117345   3.813   3.739   2.115
 5482SOL    HW217346   3.707   3.718   1.994
 5483SOL     OW17347   6.083   3.149   6.067
 5483SOL    HW117348   6.083   3.206   6.150
 5483SOL    HW217349   6.035   3.197   5.994
 5484SOL     OW17350   6.834   6.347   4.100
 5484SOL    HW117351   6.902   6.274   4.095
 5484SOL    HW217352   6.752   6.321   4.048
 5485SOL     OW17353   3.522   0.209   4.607
 5485SOL    HW117354   3.451   0.175   4.546
 5485SOL    HW217355   3.611   0.176   4.577
 5486SOL     OW17356   1.398   0.587   3.636
 5486SOL    HW117357   1.431   0.643   3.712
 5486SOL    HW217358   1.322   0.531   3.667
 5487SOL     OW17359   6.222   4.389   0.580
 5487SOL    HW117360   6.213   4.434   0.669
 5487SOL    HW217361   6.271   4.450   0.517
 5488SOL     OW17362   4.668   2.223   0.072
 5488SOL    HW117363   4.744   2.214   0.008
 5488SOL    HW217364   4.588   2.175   0.036
 5489SOL     OW17365   1.438   4.579   2.250
 5489SOL    HW117366   1.419   4.513   2.178
 5489SOL    HW217367   1.460   4.531   2.335
 5490SOL     OW17368   3.509   0.080   0.742
 5490SOL    HW117369   3.503   0.168   0.696
 5490SOL    HW217370   3.604   0.062   0.767
 5491SOL     OW17371   1.663   4.626   0.078
 5491SOL    HW117372   1.583   4.679   0.106
 5491SOL    HW217373   1.643   4.578   7.019
 5492SOL     OW17374   1.183   1.508   6.215
 5492SOL    HW117375   1.255   1.562   6.258
 5492SOL    HW217376   1.094   1.551   6.233
 5493SOL     OW17377   3.687   2.836   5.565
 5493SOL    HW117378   3.691   2.835   5.664
 5493SOL    HW217379   3.772   2.874   5.528
 5494SOL     OW17380   6.820   3.338   0.781
 5494SOL    HW117381   6.826   3.427   0.827
 5494SOL    HW217382   6.793   3.352   0.686
 5495SOL     OW17383   3.548   3.809   1.414
 5495SOL    HW117384   3.631   3.803   1.469
 5495SOL    HW217385   3.486   3.877   1.454
 5496SOL     OW17386   3.639   6.073   1.724
 5496SOL    HW117387   3.601   5.999   1.780
 5496SOL    HW217388   3.677   6.035   1.640
 5497SOL     OW17389   0.485   1.934   2.863
 5497SOL    HW117390   0.464   2.031   2.871
 5497SOL    HW217391   0.575   1.922   2.822
 5498SOL     OW17392   4.498   1.394   6.405
 5498SOL    HW117393   4.528   1.300   6.390
 5498SOL    HW217394   4.449   1.426   6.323
 5499SOL     OW17395   0.277   0.647   3.374
 5499SOL    HW117396   0.201   0.681   3.319
 5499SOL    HW217397   0.324   0.574   3.324
 5500SOL     OW17398   2.111   5.327   6.744
 5500SOL    HW117399   2.116   5.277   6.831
 5500SOL    HW217400   2.103   5.261   6.669
 5501SOL     OW17401   2.663   0.430   2.175
 5501SOL    HW117402   2.627   0.346   2.133
 5501SOL    HW217403   2.614   0.509   2.138
 5502SOL     OW17404   6.019   4.249   5.575
 5502SOL    HW117405   5.993   4.204   5.489
 5502SOL    HW217406   5.952   4.228   5.645
 5503SOL     OW17407   0.841   5.042   3.165
 5503SOL    HW117408   0.748   5.016   3.189
 5503SOL    HW217409   0.903   5.015   3.238
 5504SOL     OW17410   3.054   0.557   4.848
 5504SOL    HW117411   3.098   0.625   4.907
 5504SOL    HW217412   3.111   0.541   4.768
 5505SOL     OW17413   2.086   6.079   4.948
 5505SOL    HW117414   2.076   6.174   4.974
 5505SOL    HW217415   2.093   6.072   4.848
 5506SOL     OW17416   6.762   0.708   4.319
 5506SOL    HW117417   6.671   0.668   4.314
 5506SOL    HW217418   6.777   0.745   4.411
 5507SOL     OW17419   2.569   6.385   2.988
 5507SOL    HW117420   2.637   6.401   2.916
 5507SOL    HW217421   2.496   6.327   2.953
 5508SOL     OW17422   2.569   0.755   6.742
 5508SOL    HW117423   2.575   0.745   6.643
 5508SOL    HW217424   2.532   0.845   6.764
 5509SOL     OW17425   6.449   5.906   0.214
 5509SOL    HW117426   6.518   5.957   0.264
 5509SOL    HW217427   6.379   5.968   0.179
 5510SOL     OW17428   4.162   6.945   6.832
 5510SOL    HW117429   4.073   6.946   6.878
 5510SOL    HW217430   4.154   6.989   6.743
 5511SOL     OW17431   1.244   0.726   2.633
 5511SOL    HW117432   1.260   0.646   2.692
 5511SOL    HW217433   1.259   0.809   2.686
 5512SOL     OW17434   6.687   2.114   0.634
 5512SOL    HW117435   6.722   2.207   0.649
 5512SOL    HW217436   6.641   2.111   0.545
 5513SOL     OW17437   4.985   4.372   4.848
 5513SOL    HW117438   4.963   4.455   4.900
 5513SOL    HW217439   4.971   4.390   4.750
 5514SOL     OW17440   5.831   4.896   2.714
 5514SOL    HW117441   5.815   4.798   2.714
 5514SOL    HW217442   5.788   4.938   2.634
 5515SOL     OW17443   6.547   2.862   1.662
 5515SOL    HW117444   6.615   2.877   1.733
 5515SOL    HW217445   6.546   2.940   1.599
 5516SOL     OW17446   1.881   3.183   0.290
 5516SOL    HW117447   1.789   3.197   0.255
 5516SOL    HW217448   1.934   3.128   0.226
 5517SOL     OW17449   3.383   2.092   1.957
 5517SOL    HW117450   3.355   2.141   1.874
 5517SOL    HW217451   3.327   2.124   2.034
 5518SOL     OW17452   5.936   5.302   6.179
 5518SOL    HW117453   5.889   5.217   6.152
 5518SOL    HW217454   5.932   5.312   6.278
 5519SOL     OW17455   5.393   3.638   3.003
 5519SOL    HW117456   5.305   3.605   2.967
 5519SOL    HW217457   5.393   3.630   3.103
 5520SOL     OW17458   1.251   4.049   3.009
 5520SOL    HW117459   1.218   4.025   3.100
 5520SOL    HW217460   1.193   4.122   2.971
 5521SOL     OW17461   4.936   6.205   2.035
 5521SOL    HW117462   5.025   6.245   2.059
 5521SOL    HW217463   4.942   6.105   2.037
 5522SOL     OW17464   2.276   3.947   1.403
 5522SOL    HW117465   2.281   4.042   1.371
 5522SOL    HW217466   2.192   3.905   1.371
 5523SOL     OW17467   3.317   6.899   3.127
 5523SOL    HW117468   3.406   6.874   3.164
 5523SOL    HW217469   3.317   6.885   3.028
 5524SOL     OW17470   0.301   6.035   4.778
 5524SOL    HW117471   0.358   5.955   4.796
 5524SOL    HW217472   0.226   6.038   4.844
 5525SOL     OW17473   0.084   4.583   0.057
 5525SOL    HW117474   0.162   4.646   0.052
 5525SOL    HW217475   0.098   4.509   7.017
 5526SOL     OW17476   5.950   3.664   4.327
 5526SOL    HW117477   6.015   3.589   4.336
 5526SOL    HW217478   5.857   3.627   4.318
 5527SOL     OW17479   0.475   3.115   2.254
 5527SOL    HW117480   0.399   3.100   2.191
 5527SOL    HW217481   0.542   3.041   2.244
 5528SOL     OW17482   0.271   1.972   6.152
 5528SOL    HW117483   0.263   1.909   6.075
 5528SOL    HW217484   0.265   1.920   6.238
 5529SOL     OW17485   2.053   0.026   4.653
 5529SOL    HW117486   1.971   7.021   4.700
 5529SOL    HW217487   2.070   0.122   4.675
 5530SOL     OW17488   0.431   2.223   1.886
 5530SOL    HW117489   0.518   2.189   1.851
 5530SOL    HW217490   0.447   2.281   1.966
 5531SOL     OW17491   4.147   3.360   4.660
 5531SOL    HW117492   4.242   3.328   4.659
 5531SOL    HW217493   4.105   3.338   4.748
 5532SOL     OW17494   1.556   0.993   0.746
 5532SOL    HW117495   1.616   0.914   0.734
 5532SOL    HW217496   1.490   0.973   0.819
 5533SOL     OW17497   2.643   1.342   2.673
 5533SOL    HW117498   2.644   1.312   2.768
 5533SOL    HW217499   2.606   1.269   2.615
 5534SOL     OW17500   0.864   3.013   6.926
 5534SOL    HW117501   0.772   2.999   6.889
 5534SOL    HW217502   0.889   3.110   6.917
 5535SOL     OW17503   7.012   3.429   2.648
 5535SOL    HW117504   6.999   3.503   2.714
 5535SOL    HW217505   0.040   3.461   2.571
 5536SOL     OW17506   2.483   0.926   4.052
 5536SOL    HW117507   2.459   0.834   4.021
 5536SOL    HW217508   2.469   0.933   4.151
 5537SOL     OW17509   3.437   0.768   4.942
 5537SOL    HW117510   3.368   0.731   5.004
 5537SOL    HW217511   3.451   0.865   4.961
 5538SOL     OW17512   4.281   7.004   5.065
 5538SOL    HW117513   4.324   6.939   5.002
 5538SOL    HW217514   4.192   6.970   5.092
 5539SOL     OW17515   0.455   2.088   1.390
 5539SOL    HW117516   0.533   2.095   1.453
 5539SOL    HW217517   0.463   2.004   1.337
 5540SOL     OW17518   5.224   2.623   1.338
 5540SOL    HW117519   5.201   2.682   1.416
 5540SOL    HW217520   5.294   2.557   1.367
 5541SOL     OW17521   5.198   3.235   5.913
 5541SOL    HW117522   5.106   3.246   5.951
 5541SOL    HW217523   5.213   3.138   5.892
 5542SOL     OW17524   6.096   5.722   5.743
 5542SOL    HW117525   6.008   5.700   5.785
 5542SOL    HW217526   6.086   5.801   5.684
 5543SOL     OW17527   2.318   5.570   6.685
 5543SOL    HW117528   2.395   5.624   6.720
 5543SOL    HW217529   2.236   5.593   6.737
 5544SOL     OW17530   5.900   5.715   5.430
 5544SOL    HW117531   5.852   5.656   5.365
 5544SOL    HW217532   5.866   5.697   5.523
 5545SOL     OW17533   4.549   0.856   2.436
 5545SOL    HW117534   4.469   0.881   2.490
 5545SOL    HW217535   4.629   0.905   2.471
 5546SOL     OW17536   0.703   6.434   4.355
 5546SOL    HW117537   0.682   6.365   4.286
 5546SOL    HW217538   0.739   6.389   4.436
 5547SOL     OW17539   4.123   0.887   5.061
 5547SOL    HW117540   4.138   0.937   5.147
 5547SOL    HW217541   4.104   0.952   4.988
 5548SOL     OW17542   6.288   4.081   5.867
 5548SOL    HW117543   6.316   4.164   5.917
 5548SOL    HW217544   6.190   4.067   5.878
 5549SOL     OW17545   4.162   3.899   1.208
 5549SOL    HW117546   4.234   3.853   1.155
 5549SOL    HW217547   4.204   3.946   1.286
 5550SOL     OW17548   2.183   4.245   2.777
 5550SOL    HW117549   2.153   4.331   2.817
 5550SOL    HW217550   2.189   4.254   2.678
 5551SOL     OW17551   1.600   6.366   2.579
 5551SOL    HW117552   1.536   6.364   2.503
 5551SOL    HW217553   1.577   6.293   2.644
 5552SOL     OW17554   5.820   0.965   6.738
 5552SOL    HW117555   5.826   0.937   6.643
 5552SOL    HW217556   5.833   1.064   6.745
 5553SOL     OW17557   4.243   6.795   6.045
 5553SOL    HW117558   4.198   6.830   6.127
 5553SOL    HW217559   4.202   6.836   5.964
 5554SOL     OW17560   4.827   2.949   1.347
 5554SOL    HW117561   4.755   2.966   1.415
 5554SOL    HW217562   4.809   2.862   1.302
 5555SOL     OW17563   1.127   3.797   2.097
 5555SOL    HW117564   1.158   3.755   2.012
 5555SOL    HW217565   1.153   3.894   2.099
 5556SOL     OW17566   6.288   0.930   3.916
 5556SOL    HW117567   6.197   0.888   3.916
 5556SOL    HW217568   6.277   1.029   3.926
 5557SOL     OW17569   3.646   5.691   2.037
 5557SOL    HW117570   3.641   5.593   2.016
 5557SOL    HW217571   3.586   5.711   2.115
 5558SOL     OW17572   3.042   3.177   6.202
 5558SOL    HW117573   2.992   3.256   6.167
 5558SOL    HW217574   3.054   3.109   6.128
 5559SOL     OW17575   1.284   0.667   2.178
 5559SOL    HW117576   1.253   0.589   2.123
 5559SOL    HW217577   1.325   0.736   2.118
 5560SOL     OW17578   0.268   5.297   1.324
 5560SOL    HW117579   0.343   5.359   1.346
 5560SOL    HW217580   0.290   5.204   1.356
 5561SOL     OW17581   2.383   0.751   4.505
 5561SOL    HW117582   2.364   0.683   4.576
 5561SOL    HW217583   2.337   0.837   4.528
 5562SOL     OW17584   4.436   3.094   0.045
 5562SOL    HW117585   4.415   3.050   0.133
 5562SOL    HW217586   4.533   3.088   0.026
 5563SOL     OW17587   2.916   5.142   2.898
 5563SOL    HW117588   3.011   5.114   2.912
 5563SOL    HW217589   2.876   5.090   2.822
 5564SOL     OW17590   4.573   0.185   6.911
 5564SOL    HW117591   4.495   0.171   6.850
 5564SOL    HW217592   4.644   0.118   6.890
 5565SOL     OW17593   3.753   2.657   6.238
 5565SOL    HW117594   3.804   2.579   6.276
 5565SOL    HW217595   3.657   2.633   6.229
 5566SOL     OW17596   2.187   4.449   6.958
 5566SOL    HW117597   2.270   4.462   6.905
 5566SOL    HW217598   2.157   4.537   6.996
 5567SOL     OW17599   0.011   3.878   1.522
 5567SOL    HW117600   6.985   3.868   1.606
 5567SOL    HW217601   6.982   3.844   1.445
 5568SOL     OW17602   5.310   1.554   3.773
 5568SOL    HW117603   5.245   1.517   3.707
 5568SOL    HW217604   5.386   1.597   3.725
 5569SOL     OW17605   1.808   2.102   2.002
 5569SOL    HW117606   1.837   2.187   2.044
 5569SOL    HW217607   1.838   2.024   2.058
 5570SOL     OW17608   5.592   3.697   4.015
 5570SOL    HW117609   5.511   3.640   4.005
 5570SOL    HW217610   5.567   3.793   4.003
 5571SOL     OW17611   6.491   5.873   1.983
 5571SOL    HW117612   6.485   5.794   1.921
 5571SOL    HW217613   6.587   5.887   2.009
 5572SOL     OW17614   1.442   4.382   4.755
 5572SOL    HW117615   1.466   4.310   4.690
 5572SOL    HW217616   1.466   4.471   4.717
 5573SOL     OW17617   1.892   5.687   4.849
 5573SOL    HW117618   1.884   5.609   4.911
 5573SOL    HW217619   1.980   5.731   4.862
 5574SOL     OW17620   0.233   2.580   1.450
 5574SOL    HW117621   0.301   2.512   1.425
 5574SOL    HW217622   0.141   2.542   1.441
 5575SOL     OW17623   6.487   1.187   0.820
 5575SOL    HW117624   6.513   1.113   0.757
 5575SOL    HW217625   6.388   1.188   0.832
 5576SOL     OW17626   1.479   4.834   2.155
 5576SOL    HW117627   1.462   4.735   2.155
 5576SOL    HW217628   1.552   4.855   2.220
 5577SOL     OW17629   2.342   2.641   6.670
 5577SOL    HW117630   2.311   2.736   6.673
 5577SOL    HW217631   2.341   2.609   6.575
 5578SOL     OW17632   3.906   4.021   2.138
 5578SOL    HW117633   3.973   4.094   2.151
 5578SOL    HW217634   3.946   3.933   2.166
 5579SOL     OW17635   0.351   3.670   0.125
 5579SOL    HW117636   0.253   3.692   0.116
 5579SOL    HW217637   0.379   3.613   0.048
 5580SOL     OW17638   4.821   2.051   5.545
 5580SOL    HW117639   4.806   2.087   5.452
 5580SOL    HW217640   4.918   2.060   5.568
 5581SOL     OW17641   1.584   0.270   2.059
 5581SOL    HW117642   1.609   0.181   2.098
 5581SOL    HW217643   1.658   0.335   2.074
 5582SOL     OW17644   3.462   3.899   6.476
 5582SOL    HW117645   3.531   3.845   6.427
 5582SOL    HW217646   3.475   3.888   6.574
 5583SOL     OW17647   4.560   0.923   2.861
 5583SOL    HW117648   4.647   0.953   2.899
 5583SOL    HW217649   4.568   0.828   2.830
 5584SOL     OW17650   6.808   4.064   4.437
 5584SOL    HW117651   6.868   4.063   4.517
 5584SOL    HW217652   6.713   4.068   4.466
 5585SOL     OW17653   5.714   5.503   3.178
 5585SOL    HW117654   5.753   5.551   3.255
 5585SOL    HW217655   5.622   5.472   3.201
 5586SOL     OW17656   0.586   3.720   6.292
 5586SOL    HW117657   0.610   3.816   6.282
 5586SOL    HW217658   0.546   3.704   6.382
 5587SOL     OW17659   4.281   6.546   0.413
 5587SOL    HW117660   4.292   6.609   0.336
 5587SOL    HW217661   4.202   6.487   0.397
 5588SOL     OW17662   2.167   5.281   2.950
 5588SOL    HW117663   2.262   5.286   2.980
 5588SOL    HW217664   2.140   5.369   2.912
 5589SOL     OW17665   6.287   3.793   5.871
 5589SOL    HW117666   6.360   3.727   5.854
 5589SOL    HW217667   6.322   3.886   5.854
 5590SOL     OW17668   0.396   6.038   3.917
 5590SOL    HW117669   0.450   5.955   3.931
 5590SOL    HW217670   0.304   6.025   3.954
 5591SOL     OW17671   5.943   2.007   1.861
 5591SOL    HW117672   5.946   2.097   1.816
 5591SOL    HW217673   6.034   1.982   1.891
 5592SOL     OW17674   2.295   6.070   3.466
 5592SOL    HW117675   2.239   6.125   3.528
 5592SOL    HW217676   2.237   6.001   3.422
 5593SOL     OW17677   0.792   3.129   0.291
 5593SOL    HW117678   0.787   3.031   0.273
 5593SOL    HW217679   0.702   3.164   0.317
 5594SOL     OW17680   5.137   0.682   5.847
 5594SOL    HW117681   5.068   0.621   5.808
 5594SOL    HW217682   5.196   0.715   5.774
 5595SOL     OW17683   0.383   1.470   4.783
 5595SOL    HW117684   0.419   1.531   4.854
 5595SOL    HW217685   0.322   1.403   4.825
 5596SOL     OW17686   4.701   0.269   2.640
 5596SOL    HW117687   4.607   0.273   2.605
 5596SOL    HW217688   4.712   0.335   2.714
 5597SOL     OW17689   4.988   2.877   4.646
 5597SOL    HW117690   4.958   2.959   4.597
 5597SOL    HW217691   4.908   2.830   4.683
 5598SOL     OW17692   4.814   3.922   4.203
 5598SOL    HW117693   4.852   3.832   4.181
 5598SOL    HW217694   4.813   3.935   4.302
 5599SOL     OW17695   1.111   2.055   3.888
 5599SOL    HW117696   1.196   2.020   3.849
 5599SOL    HW217697   1.131   2.108   3.970
 5600SOL     OW17698   1.519   1.066   1.879
 5600SOL    HW117699   1.468   1.080   1.794
 5600SOL    HW217700   1.579   0.987   1.869
 5601SOL     OW17701   2.410   0.887   5.697
 5601SOL    HW117702   2.412   0.938   5.783
 5601SOL    HW217703   2.479   0.923   5.635
 5602SOL     OW17704   6.195   1.352   1.398
 5602SOL    HW117705   6.218   1.449   1.411
 5602SOL    HW217706   6.113   1.330   1.451
 5603SOL     OW17707   5.796   2.325   6.251
 5603SOL    HW117708   5.837   2.389   6.187
 5603SOL    HW217709   5.840   2.335   6.341
 5604SOL     OW17710   6.191   1.955   4.973
 5604SOL    HW117711   6.236   1.928   4.888
 5604SOL    HW217712   6.120   1.888   4.996
 5605SOL     OW17713   6.907   1.596   5.117
 5605SOL    HW117714   6.911   1.687   5.076
 5605SOL    HW217715   6.977   1.589   5.189
 5606SOL     OW17716   4.995   6.593   0.377
 5606SOL    HW117717   5.070   6.647   0.338
 5606SOL    HW217718   4.941   6.553   0.303
 5607SOL     OW17719   5.698   1.246   2.913
 5607SOL    HW117720   5.703   1.282   2.820
 5607SOL    HW217721   5.775   1.280   2.967
 5608SOL     OW17722   5.138   0.145   4.200
 5608SOL    HW117723   5.130   0.124   4.297
 5608SOL    HW217724   5.231   0.174   4.179
 5609SOL     OW17725   3.123   6.322   1.316
 5609SOL    HW117726   3.087   6.250   1.374
 5609SOL    HW217727   3.220   6.305   1.296
 5610SOL     OW17728   3.721   6.562   0.739
 5610SOL    HW117729   3.634   6.515   0.723
 5610SOL    HW217730   3.766   6.523   0.820
 5611SOL     OW17731   0.986   5.538   2.815
 5611SOL    HW117732   1.047   5.464   2.787
 5611SOL    HW217733   0.895   5.523   2.778
 5612SOL     OW17734   3.568   2.597   6.781
 5612SOL    HW117735   3.640   2.620   6.846
 5612SOL    HW217736   3.601   2.525   6.720
 5613SOL     OW17737   5.673   4.191   3.935
 5613SOL    HW117738   5.719   4.276   3.909
 5613SOL    HW217739   5.597   4.174   3.872
 5614SOL     OW17740   4.561   2.118   4.251
 5614SOL    HW117741   4.473   2.162   4.268
 5614SOL    HW217742   4.634   2.185   4.266
 5615SOL     OW17743   0.242   1.487   4.563
 5615SOL    HW117744   0.273   1.402   4.521
 5615SOL    HW217745   0.267   1.488   4.660
 5616SOL     OW17746   2.534   1.884   4.984
 5616SOL    HW117747   2.509   1.976   4.953
 5616SOL    HW217748   2.623   1.859   4.947
 5617SOL     OW17749   2.988   0.351   5.884
 5617SOL    HW117750   2.909   0.293   5.870
 5617SOL    HW217751   3.072   0.300   5.863
 5618SOL     OW17752   0.010   4.446   4.159
 5618SOL    HW117753   6.981   4.379   4.109
 5618SOL    HW217754   0.019   4.418   4.254
 5619SOL     OW17755   2.837   3.536   5.824
 5619SOL    HW117756   2.886   3.619   5.798
 5619SOL    HW217757   2.872   3.502   5.911
 5620SOL     OW17758   4.079   3.560   0.899
 5620SOL    HW117759   4.168   3.515   0.906
 5620SOL    HW217760   4.042   3.546   0.807
 5621SOL     OW17761   1.842   1.920   6.772
 5621SOL    HW117762   1.918   1.962   6.722
 5621SOL    HW217763   1.829   1.827   6.740
 5622SOL     OW17764   4.891   0.351   6.192
 5622SOL    HW117765   4.943   0.294   6.255
 5622SOL    HW217766   4.951   0.420   6.152
 5623SOL     OW17767   2.685   5.900   4.972
 5623SOL    HW117768   2.621   5.973   4.950
 5623SOL    HW217769   2.706   5.902   5.070
 5624SOL     OW17770   0.875   4.485   3.516
 5624SOL    HW117771   0.833   4.571   3.544
 5624SOL    HW217772   0.814   4.436   3.454
 5625SOL     OW17773   6.264   1.477   4.719
 5625SOL    HW117774   6.363   1.491   4.715
 5625SOL    HW217775   6.219   1.564   4.741
 5626SOL     OW17776   2.587   6.269   4.016
 5626SOL    HW117777   2.497   6.278   3.974
 5626SOL    HW217778   2.589   6.185   4.072
 5627SOL     OW17779   0.728   5.635   6.148
 5627SOL    HW117780   0.660   5.568   6.116
 5627SOL    HW217781   0.812   5.588   6.173
 5628SOL     OW17782   0.988   2.574   0.343
 5628SOL    HW117783   0.927   2.536   0.412
 5628SOL    HW217784   0.936   2.595   0.260
 5629SOL     OW17785   3.553   4.085   2.666
 5629SOL    HW117786   3.635   4.120   2.621
 5629SOL    HW217787   3.578   4.010   2.726
 5630SOL     OW17788   1.790   4.478   0.396
 5630SOL    HW117789   1.805   4.399   0.337
 5630SOL    HW217790   1.786   4.448   0.491
 5631SOL     OW17791   4.569   1.884   0.310
 5631SOL    HW117792   4.659   1.897   0.267
 5631SOL    HW217793   4.559   1.789   0.339
 5632SOL     OW17794   3.393   2.325   5.762
 5632SOL    HW117795   3.389   2.277   5.849
 5632SOL    HW217796   3.420   2.420   5.777
 5633SOL     OW17797   6.650   3.694   4.057
 5633SOL    HW117798   6.717   3.669   3.987
 5633SOL    HW217799   6.663   3.790   4.083
 5634SOL     OW17800   2.488   5.126   4.333
 5634SOL    HW117801   2.560   5.140   4.265
 5634SOL    HW217802   2.399   5.144   4.292
 5635SOL     OW17803   2.126   4.056   5.763
 5635SOL    HW117804   2.067   4.135   5.748
 5635SOL    HW217805   2.110   3.987   5.692
 5636SOL     OW17806   4.196   6.588   4.171
 5636SOL    HW117807   4.295   6.596   4.176
 5636SOL    HW217808   4.161   6.648   4.099
 5637SOL     OW17809   5.134   6.631   3.526
 5637SOL    HW117810   5.054   6.661   3.579
 5637SOL    HW217811   5.103   6.591   3.440
 5638SOL     OW17812   6.184   3.475   1.226
 5638SOL    HW117813   6.234   3.556   1.195
 5638SOL    HW217814   6.092   3.502   1.257
 5639SOL     OW17815   0.869   0.734   0.787
 5639SOL    HW117816   0.853   0.819   0.738
 5639SOL    HW217817   0.785   0.679   0.785
 5640SOL     OW17818   2.982   0.589   3.857
 5640SOL    HW117819   3.024   0.538   3.781
 5640SOL    HW217820   2.909   0.535   3.897
 5641SOL     OW17821   0.752   5.413   5.128
 5641SOL    HW117822   0.813   5.463   5.067
 5641SOL    HW217823   0.665   5.395   5.081
 5642SOL     OW17824   2.075   6.935   5.752
 5642SOL    HW117825   2.104   7.013   5.696
 5642SOL    HW217826   1.984   6.905   5.722
 5643SOL     OW17827   4.881   1.805   5.109
 5643SOL    HW117828   4.898   1.721   5.057
 5643SOL    HW217829   4.791   1.798   5.153
 5644SOL     OW17830   3.411   0.083   4.856
 5644SOL    HW117831   3.326   0.091   4.803
 5644SOL    HW217832   3.488   0.073   4.794
 5645SOL     OW17833   6.272   4.368   3.553
 5645SOL    HW117834   6.266   4.273   3.586
 5645SOL    HW217835   6.314   4.425   3.623
 5646SOL     OW17836   1.678   5.433   3.016
 5646SOL    HW117837   1.767   5.403   3.050
 5646SOL    HW217838   1.666   5.402   2.922
 5647SOL     OW17839   5.182   6.376   1.206
 5647SOL    HW117840   5.278   6.366   1.235
 5647SOL    HW217841   5.179   6.418   1.116
 5648SOL     OW17842   2.029   5.493   2.784
 5648SOL    HW117843   2.083   5.544   2.717
 5648SOL    HW217844   1.948   5.454   2.739
 5649SOL     OW17845   0.744   6.723   3.962
 5649SOL    HW117846   0.695   6.674   3.890
 5649SOL    HW217847   0.692   6.715   4.048
 5650SOL     OW17848   1.318   4.454   1.657
 5650SOL    HW117849   1.267   4.443   1.743
 5650SOL    HW217850   1.414   4.475   1.678
 5651SOL     OW17851   2.176   1.354   0.266
 5651SOL    HW117852   2.161   1.282   0.333
 5651SOL    HW217853   2.249   1.327   0.204
 5652SOL     OW17854   6.304   6.062   1.245
 5652SOL    HW117855   6.317   6.032   1.340
 5652SOL    HW217856   6.337   5.992   1.183
 5653SOL     OW17857   6.631   6.212   6.488
 5653SOL    HW117858   6.595   6.305   6.476
 5653SOL    HW217859   6.554   6.148   6.488
 5654SOL     OW17860   0.805   5.939   4.458
 5654SOL    HW117861   0.750   6.015   4.494
 5654SOL    HW217862   0.871   5.910   4.528
 5655SOL     OW17863   7.021   3.003   3.691
 5655SOL    HW117864   0.038   3.067   3.627
 5655SOL    HW217865   6.973   2.931   3.640
 5656SOL     OW17866   6.848   3.931   6.532
 5656SOL    HW117867   6.946   3.931   6.550
 5656SOL    HW217868   6.798   3.954   6.616
 5657SOL     OW17869   5.211   3.557   5.411
 5657SOL    HW117870   5.215   3.464   5.373
 5657SOL    HW217871   5.125   3.569   5.460
 5658SOL     OW17872   2.572   3.324   6.194
 5658SOL    HW117873   2.652   3.383   6.208
 5658SOL    HW217874   2.580   3.278   6.105
 5659SOL     OW17875   4.042   3.499   6.311
 5659SOL    HW117876   4.024   3.533   6.403
 5659SOL    HW217877   4.099   3.564   6.261
 5660SOL     OW17878   4.730   6.704   5.697
 5660SOL    HW117879   4.749   6.615   5.656
 5660SOL    HW217880   4.785   6.716   5.780
 5661SOL     OW17881   1.763   5.799   4.212
 5661SOL    HW117882   1.794   5.894   4.210
 5661SOL    HW217883   1.747   5.771   4.306
 5662SOL     OW17884   2.694   0.039   2.824
 5662SOL    HW117885   2.607   7.019   2.844
 5662SOL    HW217886   2.677   0.114   2.760
 5663SOL     OW17887   2.801   1.860   0.675
 5663SOL    HW117888   2.800   1.763   0.652
 5663SOL    HW217889   2.892   1.898   0.659
 5664SOL     OW17890   6.607   3.398   4.024
 5664SOL    HW117891   6.603   3.308   3.982
 5664SOL    HW217892   6.589   3.468   3.955
 5665SOL     OW17893   1.186   6.851   0.673
 5665SOL    HW117894   1.116   6.791   0.636
 5665SOL    HW217895   1.222   6.812   0.758
 5666SOL     OW17896   6.574   0.271   3.768
 5666SOL    HW117897   6.645   0.326   3.723
 5666SOL    HW217898   6.614   0.224   3.847
 5667SOL     OW17899   1.462   5.266   4.641
 5667SOL    HW117900   1.424   5.228   4.726
 5667SOL    HW217901   1.527   5.339   4.663
 5668SOL     OW17902   6.222   3.026   3.266
 5668SOL    HW117903   6.288   2.954   3.245
 5668SOL    HW217904   6.183   3.010   3.356
 5669SOL     OW17905   6.598   4.826   0.796
 5669SOL    HW117906   6.680   4.808   0.850
 5669SOL    HW217907   6.616   4.901   0.732
 5670SOL     OW17908   1.718   3.114   3.945
 5670SOL    HW117909   1.623   3.083   3.932
 5670SOL    HW217910   1.766   3.109   3.857
 5671SOL     OW17911   6.496   5.934   5.831
 5671SOL    HW117912   6.402   5.915   5.860
 5671SOL    HW217913   6.547   5.972   5.907
 5672SOL     OW17914   5.269   4.378   5.778
 5672SOL    HW117915   5.354   4.326   5.773
 5672SOL    HW217916   5.289   4.475   5.787
 5673SOL     OW17917   1.341   6.552   1.108
 5673SOL    HW117918   1.301   6.488   1.174
 5673SOL    HW217919   1.279   6.562   1.030
 5674SOL     OW17920   2.243   4.572   4.746
 5674SOL    HW117921   2.147   4.597   4.760
 5674SOL    HW217922   2.301   4.629   4.803
 5675SOL     OW17923   4.573   2.557   0.013
 5675SOL    HW117924   4.657   2.514   0.046
 5675SOL    HW217925   4.555   2.639   0.068
 5676SOL     OW17926   2.701   2.019   2.375
 5676SOL    HW117927   2.742   2.028   2.284
 5676SOL    HW217928   2.752   1.951   2.428
 5677SOL     OW17929   0.629   0.577   0.835
 5677SOL    HW117930   0.557   0.585   0.767
 5677SOL    HW217931   0.631   0.484   0.871
 5678SOL     OW17932   4.393   0.962   2.664
 5678SOL    HW117933   4.452   0.973   2.744
 5678SOL    HW217934   4.301   0.936   2.694
 5679SOL     OW17935   5.560   1.321   4.744
 5679SOL    HW117936   5.577   1.307   4.841
 5679SOL    HW217937   5.607   1.250   4.691
 5680SOL     OW17938   1.957   5.539   6.746
 5680SOL    HW117939   2.025   5.612   6.755
 5680SOL    HW217940   2.004   5.451   6.739
 5681SOL     OW17941   0.346   3.726   2.346
 5681SOL    HW117942   0.262   3.766   2.385
 5681SOL    HW217943   0.323   3.642   2.298
 5682SOL     OW17944   2.330   5.580   4.362
 5682SOL    HW117945   2.413   5.527   4.381
 5682SOL    HW217946   2.267   5.571   4.440
 5683SOL     OW17947   3.588   2.398   6.057
 5683SOL    HW117948   3.509   2.343   6.031
 5683SOL    HW217949   3.559   2.492   6.075
 5684SOL     OW17950   2.191   3.784   6.175
 5684SOL    HW117951   2.193   3.725   6.255
 5684SOL    HW217952   2.112   3.760   6.118
 5685SOL     OW17953   2.314   1.835   2.987
 5685SOL    HW117954   2.234   1.859   3.042
 5685SOL    HW217955   2.339   1.912   2.928
 5686SOL     OW17956   3.191   1.579   4.792
 5686SOL    HW117957   3.145   1.639   4.857
 5686SOL    HW217958   3.211   1.629   4.708
 5687SOL     OW17959   0.793   6.244   5.850
 5687SOL    HW117960   0.878   6.265   5.802
 5687SOL    HW217961   0.780   6.310   5.924
 5688SOL     OW17962   1.303   2.897   2.933
 5688SOL    HW117963   1.220   2.863   2.888
 5688SOL    HW217964   1.293   2.886   3.032
 5689SOL     OW17965   2.766   1.125   1.534
 5689SOL    HW117966   2.703   1.056   1.499
 5689SOL    HW217967   2.829   1.152   1.461
 5690SOL     OW17968   1.709   5.594   6.608
 5690SOL    HW117969   1.724   5.678   6.556
 5690SOL    HW217970   1.796   5.562   6.645
 5691SOL     OW17971   3.810   0.422   1.722
 5691SOL    HW117972   3.726   0.395   1.770
 5691SOL    HW217973   3.787   0.456   1.631
 5692SOL     OW17974   5.035   4.983   1.010
 5692SOL    HW117975   4.954   4.933   0.979
 5692SOL    HW217976   5.007   5.064   1.062
 5693SOL     OW17977   4.497   0.382   1.505
 5693SOL    HW117978   4.492   0.454   1.435
 5693SOL    HW217979   4.549   0.305   1.468
 5694SOL     OW17980   0.508   0.185   2.434
 5694SOL    HW117981   0.530   0.264   2.491
 5694SOL    HW217982   0.437   0.210   2.368
 5695SOL     OW17983   1.219   1.126   2.820
 5695SOL    HW117984   1.157   1.051   2.841
 5695SOL    HW217985   1.230   1.135   2.721
 5696SOL     OW17986   1.456   6.476   4.345
 5696SOL    HW117987   1.422   6.465   4.252
 5696SOL    HW217988   1.381   6.462   4.410
 5697SOL     OW17989   5.980   2.298   2.361
 5697SOL    HW117990   5.956   2.202   2.372
 5697SOL    HW217991   5.901   2.355   2.383
 5698SOL     OW17992   1.776   4.569   4.349
 5698SOL    HW117993   1.817   4.620   4.425
 5698SOL    HW217994   1.701   4.622   4.310
 5699SOL     OW17995   1.635   2.286   2.748
 5699SOL    HW117996   1.556   2.328   2.703
 5699SOL    HW217997   1.672   2.213   2.690
 5700SOL     OW17998   6.617   6.756   3.407
 5700SOL    HW117999   6.525   6.749   3.443
 5700SOL    HW218000   6.679   6.699   3.461
 5701SOL     OW18001   6.832   0.498   1.462
 5701SOL    HW118002   6.797   0.465   1.374
 5701SOL    HW218003   6.792   0.445   1.536
 5702SOL     OW18004   1.923   6.360   3.970
 5702SOL    HW118005   1.883   6.452   3.977
 5702SOL    HW218006   1.979   6.343   4.051
 5703SOL     OW18007   6.758   4.184   6.295
 5703SOL    HW118008   6.837   4.127   6.316
 5703SOL    HW218009   6.721   4.158   6.206
 5704SOL     OW18010   4.844   3.944   2.944
 5704SOL    HW118011   4.812   4.013   2.879
 5704SOL    HW218012   4.846   3.984   3.036
 5705SOL     OW18013   4.977   5.800   6.656
 5705SOL    HW118014   5.074   5.791   6.634
 5705SOL    HW218015   4.950   5.725   6.718
 5706SOL     OW18016   5.392   2.438   1.798
 5706SOL    HW118017   5.348   2.457   1.886
 5706SOL    HW218018   5.426   2.344   1.797
 5707SOL     OW18019   6.382   0.523   0.727
 5707SOL    HW118020   6.353   0.554   0.818
 5707SOL    HW218021   6.347   0.430   0.711
 5708SOL     OW18022   5.218   6.196   2.595
 5708SOL    HW118023   5.268   6.121   2.553
 5708SOL    HW218024   5.282   6.256   2.643
 5709SOL     OW18025   0.677   1.184   2.965
 5709SOL    HW118026   0.775   1.184   2.944
 5709SOL    HW218027   0.624   1.176   2.881
 5710SOL     OW18028   3.053   2.247   0.115
 5710SOL    HW118029   3.066   2.157   0.071
 5710SOL    HW218030   2.955   2.266   0.121
 5711SOL     OW18031   5.222   0.796   1.770
 5711SOL    HW118032   5.311   0.775   1.729
 5711SOL    HW218033   5.176   0.711   1.793
 5712SOL     OW18034   6.484   6.558   0.085
 5712SOL    HW118035   6.441   6.538   0.173
 5712SOL    HW218036   6.583   6.541   0.093
 5713SOL     OW18037   2.792   4.680   1.349
 5713SOL    HW118038   2.875   4.632   1.323
 5713SOL    HW218039   2.796   4.706   1.445
 5714SOL     OW18040   6.994   5.950   1.000
 5714SOL    HW118041   0.021   6.033   0.979
 5714SOL    HW218042   6.974   5.948   1.098
 5715SOL     OW18043   0.161   6.904   2.602
 5715SOL    HW118044   0.168   6.864   2.511
 5715SOL    HW218045   0.066   6.932   2.619
 5716SOL     OW18046   0.981   5.742   5.965
 5716SOL    HW118047   0.990   5.735   5.865
 5716SOL    HW218048   0.889   5.774   5.988
 5717SOL     OW18049   2.046   5.083   1.756
 5717SOL    HW118050   2.035   4.998   1.806
 5717SOL    HW218051   2.020   5.069   1.660
 5718SOL     OW18052   1.528   3.392   0.015
 5718SOL    HW118053   1.444   3.340   0.027
 5718SOL    HW218054   1.539   3.457   0.091
 5719SOL     OW18055   2.585   3.629   0.441
 5719SOL    HW118056   2.511   3.582   0.393
 5719SOL    HW218057   2.551   3.662   0.530
 5720SOL     OW18058   1.808   6.962   4.739
 5720SOL    HW118059   1.836   6.931   4.829
 5720SOL    HW218060   1.740   0.009   4.748
 5721SOL     OW18061   5.728   4.317   0.760
 5721SOL    HW118062   5.643   4.354   0.723
 5721SOL    HW218063   5.718   4.302   0.858
 5722SOL     OW18064   0.008   2.559   5.300
 5722SOL    HW118065   0.014   2.564   5.201
 5722SOL    HW218066   0.069   2.488   5.334
 5723SOL     OW18067   4.416   3.897   0.039
 5723SOL    HW118068   4.382   3.948   0.118
 5723SOL    HW218069   4.338   3.855   7.018
 5724SOL     OW18070   5.866   3.088   4.373
 5724SOL    HW118071   5.850   3.010   4.435
 5724SOL    HW218072   5.794   3.156   4.388
 5725SOL     OW18073   6.826   4.677   4.675
 5725SOL    HW118074   6.798   4.674   4.579
 5725SOL    HW218075   6.771   4.614   4.729
 5726SOL     OW18076   6.365   5.022   4.407
 5726SOL    HW118077   6.382   5.100   4.347
 5726SOL    HW218078   6.290   5.043   4.469
 5727SOL     OW18079   6.607   2.569   4.651
 5727SOL    HW118080   6.541   2.499   4.625
 5727SOL    HW218081   6.627   2.626   4.571
 5728SOL     OW18082   5.301   6.237   5.234
 5728SOL    HW118083   5.283   6.327   5.274
 5728SOL    HW218084   5.230   6.173   5.262
 5729SOL     OW18085   1.975   2.108   6.540
 5729SOL    HW118086   1.899   2.057   6.500
 5729SOL    HW218087   1.972   2.203   6.509
 5730SOL     OW18088   6.140   4.208   6.553
 5730SOL    HW118089   6.119   4.164   6.466
 5730SOL    HW218090   6.059   4.204   6.612
 5731SOL     OW18091   6.874   0.264   2.415
 5731SOL    HW118092   6.804   0.206   2.374
 5731SOL    HW218093   6.960   0.253   2.365
 5732SOL     OW18094   0.607   6.482   3.829
 5732SOL    HW118095   0.541   6.503   3.758
 5732SOL    HW218096   0.625   6.383   3.829
 5733SOL     OW18097   4.206   6.312   5.226
 5733SOL    HW118098   4.305   6.320   5.241
 5733SOL    HW218099   4.177   6.219   5.246
 5734SOL     OW18100   0.818   0.231   5.397
 5734SOL    HW118101   0.751   0.293   5.356
 5734SOL    HW218102   0.846   0.163   5.330
 5735SOL     OW18103   3.336   1.470   0.926
 5735SOL    HW118104   3.345   1.380   0.970
 5735SOL    HW218105   3.252   1.473   0.873
 5736SOL     OW18106   0.019   4.145   6.793
 5736SOL    HW118107   0.031   4.193   6.707
 5736SOL    HW218108   6.949   4.148   6.820
 5737SOL     OW18109   5.592   6.023   0.451
 5737SOL    HW118110   5.552   5.957   0.387
 5737SOL    HW218111   5.689   6.036   0.430
 5738SOL     OW18112   1.691   3.380   6.578
 5738SOL    HW118113   1.733   3.469   6.593
 5738SOL    HW218114   1.623   3.363   6.650
 5739SOL     OW18115   1.577   1.464   6.270
 5739SOL    HW118116   1.521   1.547   6.261
 5739SOL    HW218117   1.633   1.453   6.188
 5740SOL     OW18118   4.352   5.826   0.482
 5740SOL    HW118119   4.384   5.735   0.457
 5740SOL    HW218120   4.430   5.888   0.489
 5741SOL     OW18121   6.919   5.618   4.335
 5741SOL    HW118122   6.950   5.577   4.249
 5741SOL    HW218123   6.819   5.619   4.337
 5742SOL     OW18124   5.012   6.340   2.443
 5742SOL    HW118125   5.064   6.279   2.503
 5742SOL    HW218126   4.941   6.288   2.397
 5743SOL     OW18127   3.156   6.778   4.547
 5743SOL    HW118128   3.255   6.778   4.564
 5743SOL    HW218129   3.122   6.684   4.545
 5744SOL     OW18130   4.617   0.217   0.554
 5744SOL    HW118131   4.566   0.275   0.618
 5744SOL    HW218132   4.681   0.273   0.501
 5745SOL     OW18133   3.132   1.414   4.374
 5745SOL    HW118134   3.205   1.372   4.427
 5745SOL    HW218135   3.171   1.467   4.299
 5746SOL     OW18136   5.081   0.836   0.465
 5746SOL    HW118137   5.055   0.886   0.548
 5746SOL    HW218138   5.043   0.744   0.468
 5747SOL     OW18139   0.111   5.518   2.662
 5747SOL    HW118140   0.050   5.480   2.732
 5747SOL    HW218141   0.117   5.454   2.585
 5748SOL     OW18142   2.057   5.030   1.445
 5748SOL    HW118143   2.072   5.092   1.368
 5748SOL    HW218144   2.012   4.947   1.413
 5749SOL     OW18145   2.386   1.310   4.093
 5749SOL    HW118146   2.297   1.277   4.124
 5749SOL    HW218147   2.419   1.252   4.018
 5750SOL     OW18148   5.790   5.214   4.811
 5750SOL    HW118149   5.814   5.178   4.902
 5750SOL    HW218150   5.769   5.311   4.818
 5751SOL     OW18151   2.271   2.283   4.956
 5751SOL    HW118152   2.190   2.275   5.015
 5751SOL    HW218153   2.339   2.216   4.985
 5752SOL     OW18154   6.393   1.034   6.196
 5752SOL    HW118155   6.401   1.114   6.136
 5752SOL    HW218156   6.375   0.953   6.142
 5753SOL     OW18157   3.308   3.273   6.107
 5753SOL    HW118158   3.266   3.232   6.187
 5753SOL    HW218159   3.239   3.285   6.036
 5754SOL     OW18160   5.902   5.620   1.600
 5754SOL    HW118161   5.827   5.664   1.649
 5754SOL    HW218162   5.987   5.670   1.615
 5755SOL     OW18163   2.985   3.552   6.082
 5755SOL    HW118164   2.982   3.647   6.112
 5755SOL    HW218165   3.075   3.514   6.100
 5756SOL     OW18166   6.372   4.647   3.649
 5756SOL    HW118167   6.449   4.597   3.608
 5756SOL    HW218168   6.374   4.742   3.619
 5757SOL     OW18169   6.308   6.357   1.692
 5757SOL    HW118170   6.371   6.392   1.762
 5757SOL    HW218171   6.360   6.305   1.624
 5758SOL     OW18172   2.714   2.262   4.496
 5758SOL    HW118173   2.680   2.341   4.445
 5758SOL    HW218174   2.748   2.292   4.585
 5759SOL     OW18175   4.888   2.213   6.876
 5759SOL    HW118176   4.913   2.245   6.968
 5759SOL    HW218177   4.968   2.219   6.817
 5760SOL     OW18178   1.590   6.090   2.133
 5760SOL    HW118179   1.628   6.013   2.080
 5760SOL    HW218180   1.502   6.116   2.094
 5761SOL     OW18181   5.798   0.119   5.457
 5761SOL    HW118182   5.701   0.113   5.432
 5761SOL    HW218183   5.812   0.197   5.517
 5762SOL     OW18184   5.419   0.143   0.446
 5762SOL    HW118185   5.467   0.196   0.515
 5762SOL    HW218186   5.366   0.071   0.489
 5763SOL     OW18187   0.752   6.576   0.736
 5763SOL    HW118188   0.753   6.598   0.833
 5763SOL    HW218189   0.665   6.606   0.695
 5764SOL     OW18190   5.993   4.499   5.679
 5764SOL    HW118191   5.979   4.413   5.630
 5764SOL    HW218192   6.066   4.486   5.747
 5765SOL     OW18193   6.264   4.369   6.744
 5765SOL    HW118194   6.231   4.297   6.683
 5765SOL    HW218195   6.314   4.328   6.820
 5766SOL     OW18196   3.186   1.328   2.097
 5766SOL    HW118197   3.264   1.317   2.035
 5766SOL    HW218198   3.210   1.392   2.170
 5767SOL     OW18199   1.266   6.254   0.831
 5767SOL    HW118200   1.289   6.160   0.807
 5767SOL    HW218201   1.238   6.257   0.927
 5768SOL     OW18202   0.088   0.766   3.196
 5768SOL    HW118203   7.017   0.770   3.218
 5768SOL    HW218204   0.100   0.738   3.101
 5769SOL     OW18205   2.886   6.569   3.220
 5769SOL    HW118206   2.928   6.620   3.295
 5769SOL    HW218207   2.930   6.594   3.133
 5770SOL     OW18208   6.675   6.899   1.166
 5770SOL    HW118209   6.736   6.820   1.161
 5770SOL    HW218210   6.725   6.977   1.203
 5771SOL     OW18211   1.210   0.304   1.095
 5771SOL    HW118212   1.260   0.218   1.082
 5771SOL    HW218213   1.117   0.294   1.058
 5772SOL     OW18214   5.805   2.385   0.844
 5772SOL    HW118215   5.811   2.424   0.936
 5772SOL    HW218216   5.865   2.436   0.782
 5773SOL     OW18217   5.521   6.320   4.045
 5773SOL    HW118218   5.589   6.335   4.116
 5773SOL    HW218219   5.467   6.404   4.032
 5774SOL     OW18220   2.149   4.450   2.965
 5774SOL    HW118221   2.096   4.529   2.994
 5774SOL    HW218222   2.118   4.368   3.013
 5775SOL     OW18223   0.581   0.366   0.340
 5775SOL    HW118224   0.608   0.357   0.436
 5775SOL    HW218225   0.640   0.308   0.284
 5776SOL     OW18226   5.799   0.789   6.221
 5776SOL    HW118227   5.862   0.713   6.235
 5776SOL    HW218228   5.705   0.755   6.223
 5777SOL     OW18229   5.827   0.688   3.999
 5777SOL    HW118230   5.804   0.717   4.092
 5777SOL    HW218231   5.831   0.588   3.995
 5778SOL     OW18232   2.317   0.516   2.383
 5778SOL    HW118233   2.284   0.513   2.477
 5778SOL    HW218234   2.256   0.461   2.324
 5779SOL     OW18235   3.710   0.885   1.126
 5779SOL    HW118236   3.645   0.862   1.053
 5779SOL    HW218237   3.758   0.969   1.103
 5780SOL     OW18238   6.438   4.672   1.779
 5780SOL    HW118239   6.446   4.590   1.723
 5780SOL    HW218240   6.368   4.732   1.741
 5781SOL     OW18241   1.832   4.014   5.018
 5781SOL    HW118242   1.756   4.071   5.050
 5781SOL    HW218243   1.796   3.935   4.968
 5782SOL     OW18244   1.753   0.796   1.521
 5782SOL    HW118245   1.806   0.716   1.551
 5782SOL    HW218246   1.690   0.769   1.449
 5783SOL     OW18247   1.737   1.083   0.341
 5783SOL    HW118248   1.706   1.114   0.431
 5783SOL    HW218249   1.749   0.984   0.342
 5784SOL     OW18250   0.747   6.279   0.255
 5784SOL    HW118251   0.795   6.348   0.200
 5784SOL    HW218252   0.780   6.188   0.231
 5785SOL     OW18253   1.354   0.895   0.920
 5785SOL    HW118254   1.275   0.922   0.975
 5785SOL    HW218255   1.327   0.823   0.856
 5786SOL     OW18256   1.467   3.569   1.615
 5786SOL    HW118257   1.531   3.640   1.586
 5786SOL    HW218258   1.397   3.557   1.544
 5787SOL     OW18259   5.975   2.882   4.211
 5787SOL    HW118260   5.899   2.819   4.218
 5787SOL    HW218261   5.952   2.967   4.259
 5788SOL     OW18262   3.323   0.443   1.973
 5788SOL    HW118263   3.271   0.388   2.040
 5788SOL    HW218264   3.364   0.521   2.020
 5789SOL     OW18265   3.580   3.351   0.559
 5789SOL    HW118266   3.556   3.431   0.504
 5789SOL    HW218267   3.532   3.271   0.524
 5790SOL     OW18268   5.794   5.490   4.816
 5790SOL    HW118269   5.765   5.531   4.729
 5790SOL    HW218270   5.846   5.558   4.869
 5791SOL     OW18271   3.214   1.750   2.804
 5791SOL    HW118272   3.254   1.815   2.740
 5791SOL    HW218273   3.228   1.782   2.898
 5792SOL     OW18274   4.897   3.208   2.898
 5792SOL    HW118275   4.904   3.301   2.861
 5792SOL    HW218276   4.815   3.164   2.861
 5793SOL     OW18277   6.195   2.512   4.959
 5793SOL    HW118278   6.290   2.526   4.932
 5793SOL    HW218279   6.193   2.469   5.050
 5794SOL     OW18280   2.840   6.733   5.838
 5794SOL    HW118281   2.741   6.727   5.852
 5794SOL    HW218282   2.878   6.807   5.894
 5795SOL     OW18283   1.064   5.232   1.661
 5795SOL    HW118284   1.060   5.236   1.561
 5795SOL    HW218285   1.158   5.248   1.691
 5796SOL     OW18286   4.383   1.712   6.395
 5796SOL    HW118287   4.464   1.770   6.386
 5796SOL    HW218288   4.358   1.704   6.491
 5797SOL     OW18289   5.295   1.886   7.013
 5797SOL    HW118290   5.300   1.980   0.020
 5797SOL    HW218291   5.209   1.872   6.965
 5798SOL     OW18292   0.831   3.648   5.060
 5798SOL    HW118293   0.797   3.581   5.126
 5798SOL    HW218294   0.777   3.644   4.976
 5799SOL     OW18295   1.428   6.468   3.586
 5799SOL    HW118296   1.485   6.530   3.531
 5799SOL    HW218297   1.332   6.480   3.561
 5800SOL     OW18298   0.303   0.057   1.013
 5800SOL    HW118299   0.251   0.027   1.093
 5800SOL    HW218300   0.294   0.156   1.004
 5801SOL     OW18301   2.194   2.927   2.297
 5801SOL    HW118302   2.244   2.884   2.221
 5801SOL    HW218303   2.237   2.904   2.383
 5802SOL     OW18304   6.557   1.916   3.250
 5802SOL    HW118305   6.500   1.942   3.328
 5802SOL    HW218306   6.623   1.988   3.231
 5803SOL     OW18307   1.800   5.349   4.719
 5803SOL    HW118308   1.840   5.279   4.660
 5803SOL    HW218309   1.871   5.413   4.748
 5804SOL     OW18310   6.058   6.118   3.606
 5804SOL    HW118311   5.972   6.150   3.645
 5804SOL    HW218312   6.132   6.180   3.632
 5805SOL     OW18313   2.137   3.631   1.448
 5805SOL    HW118314   2.201   3.601   1.519
 5805SOL    HW218315   2.146   3.572   1.368
 5806SOL     OW18316   0.428   3.308   3.643
 5806SOL    HW118317   0.474   3.316   3.555
 5806SOL    HW218318   0.458   3.224   3.689
 5807SOL     OW18319   1.367   6.037   0.520
 5807SOL    HW118320   1.372   6.020   0.422
 5807SOL    HW218321   1.377   5.951   0.570
 5808SOL     OW18322   6.238   6.963   4.107
 5808SOL    HW118323   6.174   6.997   4.176
 5808SOL    HW218324   6.257   0.010   4.041
 5809SOL     OW18325   0.188   2.430   6.021
 5809SOL    HW118326   0.282   2.394   6.020
 5809SOL    HW218327   0.190   2.528   6.039
 5810SOL     OW18328   4.310   6.646   4.736
 5810SOL    HW118329   4.326   6.701   4.818
 5810SOL    HW218330   4.219   6.605   4.741
 5811SOL     OW18331   3.056   3.153   5.715
 5811SOL    HW118332   2.979   3.109   5.762
 5811SOL    HW218333   3.024   3.195   5.630
 5812SOL     OW18334   5.935   2.682   0.700
 5812SOL    HW118335   5.919   2.679   0.601
 5812SOL    HW218336   6.032   2.663   0.718
 5813SOL     OW18337   4.372   6.110   1.080
 5813SOL    HW118338   4.351   6.113   0.982
 5813SOL    HW218339   4.410   6.197   1.109
 5814SOL     OW18340   6.126   2.015   2.678
 5814SOL    HW118341   6.224   2.033   2.664
 5814SOL    HW218342   6.076   2.101   2.682
 5815SOL     OW18343   6.570   0.743   4.017
 5815SOL    HW118344   6.516   0.782   4.091
 5815SOL    HW218345   6.658   0.789   4.013
 5816SOL     OW18346   0.409   4.551   2.729
 5816SOL    HW118347   0.334   4.611   2.757
 5816SOL    HW218348   0.384   4.456   2.746
 5817SOL     OW18349   5.540   4.132   4.419
 5817SOL    HW118350   5.629   4.122   4.376
 5817SOL    HW218351   5.501   4.041   4.436
 5818SOL     OW18352   1.493   6.999   4.915
 5818SOL    HW118353   1.547   0.024   4.848
 5818SOL    HW218354   1.415   0.028   4.945
 5819SOL     OW18355   3.936   4.888   6.919
 5819SOL    HW118356   4.027   4.927   6.902
 5819SOL    HW218357   3.881   4.953   6.971
 5820SOL     OW18358   5.463   5.093   2.089
 5820SOL    HW118359   5.475   5.112   2.186
 5820SOL    HW218360   5.434   4.998   2.077
 5821SOL     OW18361   6.683   0.906   1.102
 5821SOL    HW118362   6.589   0.883   1.077
 5821SOL    HW218363   6.682   0.973   1.177
 5822SOL     OW18364   1.266   2.283   2.446
 5822SOL    HW118365   1.201   2.268   2.520
 5822SOL    HW218366   1.251   2.373   2.406
 5823SOL     OW18367   2.221   6.694   3.389
 5823SOL    HW118368   2.288   6.621   3.378
 5823SOL    HW218369   2.165   6.701   3.306
 5824SOL     OW18370   0.793   6.879   2.523
 5824SOL    HW118371   0.750   6.883   2.432
 5824SOL    HW218372   0.819   6.784   2.543
 5825SOL     OW18373   6.289   0.318   4.294
 5825SOL    HW118374   6.337   0.363   4.219
 5825SOL    HW218375   6.212   0.264   4.257
 5826SOL     OW18376   6.986   0.474   5.191
 5826SOL    HW118377   0.001   0.403   5.249
 5826SOL    HW218378   6.910   0.517   5.239
 5827SOL     OW18379   1.496   4.273   5.415
 5827SOL    HW118380   1.432   4.271   5.493
 5827SOL    HW218381   1.573   4.332   5.437
 5828SOL     OW18382   5.130   6.723   4.058
 5828SOL    HW118383   5.194   6.798   4.044
 5828SOL    HW218384   5.161   6.643   4.006
 5829SOL     OW18385   2.289   0.699   3.986
 5829SOL    HW118386   2.295   0.610   3.942
 5829SOL    HW218387   2.277   0.687   4.085
 5830SOL     OW18388   3.354   4.939   5.297
 5830SOL    HW118389   3.305   4.939   5.210
 5830SOL    HW218390   3.451   4.958   5.281
 5831SOL     OW18391   1.240   0.935   5.129
 5831SOL    HW118392   1.181   1.007   5.167
 5831SOL    HW218393   1.246   0.859   5.194
 5832SOL     OW18394   3.544   5.017   1.261
 5832SOL    HW118395   3.517   5.038   1.167
 5832SOL    HW218396   3.643   5.031   1.270
 5833SOL     OW18397   4.155   3.640   5.658
 5833SOL    HW118398   4.145   3.739   5.659
 5833SOL    HW218399   4.091   3.598   5.722
 5834SOL     OW18400   6.669   4.276   6.747
 5834SOL    HW118401   6.642   4.203   6.684
 5834SOL    HW218402   6.724   4.238   6.821
 5835SOL     OW18403   5.701   0.606   2.724
 5835SOL    HW118404   5.726   0.521   2.678
 5835SOL    HW218405   5.744   0.684   2.678
 5836SOL     OW18406   4.636   6.522   1.960
 5836SOL    HW118407   4.607   6.611   1.995
 5836SOL    HW218408   4.589   6.503   1.873
 5837SOL     OW18409   3.656   3.748   0.315
 5837SOL    HW118410   3.621   3.837   0.287
 5837SOL    HW218411   3.640   3.681   0.243
 5838SOL     OW18412   2.819   1.988   1.608
 5838SOL    HW118413   2.824   2.083   1.639
 5838SOL    HW218414   2.778   1.985   1.516
 5839SOL     OW18415   1.359   2.715   2.088
 5839SOL    HW118416   1.399   2.631   2.123
 5839SOL    HW218417   1.260   2.702   2.074
 5840SOL     OW18418   0.761   3.706   2.276
 5840SOL    HW118419   0.671   3.723   2.236
 5840SOL    HW218420   0.772   3.760   2.360
 5841SOL     OW18421   4.516   0.736   0.976
 5841SOL    HW118422   4.612   0.740   0.950
 5841SOL    HW218423   4.489   0.823   1.018
 5842SOL     OW18424   3.184   1.754   0.492
 5842SOL    HW118425   3.275   1.778   0.525
 5842SOL    HW218426   3.116   1.813   0.535
 5843SOL     OW18427   1.849   3.377   1.073
 5843SOL    HW118428   1.895   3.374   1.161
 5843SOL    HW218429   1.847   3.285   1.032
 5844SOL     OW18430   0.794   0.234   5.074
 5844SOL    HW118431   0.848   0.316   5.056
 5844SOL    HW218432   0.754   0.201   4.988
 5845SOL     OW18433   0.503   6.531   1.800
 5845SOL    HW118434   0.418   6.581   1.783
 5845SOL    HW218435   0.576   6.597   1.821
 5846SOL     OW18436   6.497   3.628   5.424
 5846SOL    HW118437   6.476   3.667   5.514
 5846SOL    HW218438   6.595   3.609   5.418
 5847SOL     OW18439   2.596   3.451   0.869
 5847SOL    HW118440   2.562   3.499   0.950
 5847SOL    HW218441   2.548   3.363   0.859
 5848SOL     OW18442   2.332   6.269   3.946
 5848SOL    HW118443   2.286   6.255   4.034
 5848SOL    HW218444   2.278   6.332   3.890
 5849SOL     OW18445   2.222   6.217   5.301
 5849SOL    HW118446   2.169   6.135   5.326
 5849SOL    HW218447   2.316   6.190   5.278
 5850SOL     OW18448   1.551   2.349   1.925
 5850SOL    HW118449   1.525   2.254   1.909
 5850SOL    HW218450   1.503   2.408   1.860
 5851SOL     OW18451   5.800   3.452   4.649
 5851SOL    HW118452   5.712   3.494   4.672
 5851SOL    HW218453   5.874   3.502   4.694
 5852SOL     OW18454   5.137   5.216   3.917
 5852SOL    HW118455   5.087   5.211   3.830
 5852SOL    HW218456   5.101   5.148   3.980
 5853SOL     OW18457   3.499   5.233   5.628
 5853SOL    HW118458   3.555   5.301   5.676
 5853SOL    HW218459   3.550   5.199   5.549
 5854SOL     OW18460   3.012   4.392   6.102
 5854SOL    HW118461   2.982   4.335   6.178
 5854SOL    HW218462   3.006   4.489   6.128
 5855SOL     OW18463   2.348   2.399   3.791
 5855SOL    HW118464   2.369   2.350   3.706
 5855SOL    HW218465   2.293   2.341   3.850
 5856SOL     OW18466   1.411   6.829   3.056
 5856SOL    HW118467   1.452   6.784   2.978
 5856SOL    HW218468   1.323   6.869   3.030
 5857SOL     OW18469   0.794   3.347   5.989
 5857SOL    HW118470   0.737   3.404   5.930
 5857SOL    HW218471   0.879   3.326   5.943
 5858SOL     OW18472   2.188   1.463   3.021
 5858SOL    HW118473   2.105   1.490   3.069
 5858SOL    HW218474   2.185   1.497   2.927
 5859SOL     OW18475   5.863   0.039   2.325
 5859SOL    HW118476   5.946   0.034   2.380
 5859SOL    HW218477   5.865   0.123   2.270
 5860SOL     OW18478   6.857   3.317   3.196
 5860SOL    HW118479   6.921   3.242   3.181
 5860SOL    HW218480   6.827   3.352   3.107
 5861SOL     OW18481   6.188   0.781   4.852
 5861SOL    HW118482   6.189   0.725   4.935
 5861SOL    HW218483   6.158   0.873   4.875
 5862SOL     OW18484   6.902   5.508   2.810
 5862SOL    HW118485   6.898   5.571   2.887
 5862SOL    HW218486   6.856   5.548   2.730
 5863SOL     OW18487   3.285   0.704   4.680
 5863SOL    HW118488   3.255   0.776   4.617
 5863SOL    HW218489   3.355   0.741   4.741
 5864SOL     OW18490   3.699   3.744   3.399
 5864SOL    HW118491   3.604   3.750   3.429
 5864SOL    HW218492   3.751   3.691   3.466
 5865SOL     OW18493   5.901   1.106   5.564
 5865SOL    HW118494   5.962   1.184   5.573
 5865SOL    HW218495   5.916   1.043   5.640
 5866SOL     OW18496   3.875   3.534   1.434
 5866SOL    HW118497   3.963   3.577   1.414
 5866SOL    HW218498   3.878   3.493   1.526
 5867SOL     OW18499   2.861   2.278   1.347
 5867SOL    HW118500   2.825   2.371   1.353
 5867SOL    HW218501   2.953   2.276   1.386
 5868SOL     OW18502   0.561   1.782   5.928
 5868SOL    HW118503   0.649   1.827   5.918
 5868SOL    HW218504   0.558   1.733   6.015
 5869SOL     OW18505   0.712   4.697   4.179
 5869SOL    HW118506   0.730   4.599   4.177
 5869SOL    HW218507   0.629   4.717   4.126
 5870SOL     OW18508   4.125   4.901   5.277
 5870SOL    HW118509   4.202   4.947   5.320
 5870SOL    HW218510   4.152   4.809   5.248
 5871SOL     OW18511   3.100   3.080   3.657
 5871SOL    HW118512   3.115   3.163   3.604
 5871SOL    HW218513   3.121   3.000   3.600
 5872SOL     OW18514   4.187   6.168   2.547
 5872SOL    HW118515   4.185   6.236   2.473
 5872SOL    HW218516   4.101   6.171   2.597
 5873SOL     OW18517   3.402   4.897   2.876
 5873SOL    HW118518   3.332   4.896   2.948
 5873SOL    HW218519   3.400   4.986   2.829
 5874SOL     OW18520   2.183   4.439   5.571
 5874SOL    HW118521   2.117   4.377   5.529
 5874SOL    HW218522   2.161   4.533   5.545
 5875SOL     OW18523   3.375   2.264   6.977
 5875SOL    HW118524   3.300   2.200   6.960
 5875SOL    HW218525   3.436   2.226   0.021
 5876SOL     OW18526   4.004   3.532   1.901
 5876SOL    HW118527   4.083   3.471   1.886
 5876SOL    HW218528   4.036   3.625   1.915
 5877SOL     OW18529   6.124   6.133   0.931
 5877SOL    HW118530   6.140   6.039   0.962
 5877SOL    HW218531   6.212   6.178   0.916
 5878SOL     OW18532   1.280   5.370   2.821
 5878SOL    HW118533   1.347   5.436   2.855
 5878SOL    HW218534   1.248   5.312   2.896
 5879SOL     OW18535   6.417   3.839   6.945
 5879SOL    HW118536   6.322   3.871   6.936
 5879SOL    HW218537   6.422   3.742   6.921
 5880SOL     OW18538   2.606   6.180   1.216
 5880SOL    HW118539   2.566   6.089   1.204
 5880SOL    HW218540   2.705   6.174   1.204
 5881SOL     OW18541   0.294   4.342   3.273
 5881SOL    HW118542   0.310   4.257   3.323
 5881SOL    HW218543   0.317   4.330   3.177
 5882SOL     OW18544   5.048   0.533   0.948
 5882SOL    HW118545   5.046   0.622   0.994
 5882SOL    HW218546   4.987   0.470   0.996
 5883SOL     OW18547   0.405   2.498   6.256
 5883SOL    HW118548   0.306   2.499   6.271
 5883SOL    HW218549   0.449   2.442   6.326
 5884SOL     OW18550   1.421   1.339   3.303
 5884SOL    HW118551   1.336   1.390   3.317
 5884SOL    HW218552   1.498   1.403   3.301
 5885SOL     OW18553   6.357   6.824   1.118
 5885SOL    HW118554   6.450   6.850   1.144
 5885SOL    HW218555   6.300   6.818   1.200
 5886SOL     OW18556   0.677   2.514   5.313
 5886SOL    HW118557   0.581   2.538   5.304
 5886SOL    HW218558   0.692   2.420   5.283
 5887SOL     OW18559   3.577   0.833   4.076
 5887SOL    HW118560   3.598   0.738   4.051
 5887SOL    HW218561   3.487   0.837   4.119
 5888SOL     OW18562   2.294   6.223   2.494
 5888SOL    HW118563   2.362   6.273   2.550
 5888SOL    HW218564   2.258   6.284   2.424
 5889SOL     OW18565   2.178   0.429   1.502
 5889SOL    HW118566   2.182   0.374   1.418
 5889SOL    HW218567   2.235   0.387   1.572
 5890SOL     OW18568   1.187   6.946   5.255
 5890SOL    HW118569   1.167   6.851   5.281
 5890SOL    HW218570   1.201   7.001   5.337
 5891SOL     OW18571   3.833   3.366   6.774
 5891SOL    HW118572   3.744   3.343   6.814
 5891SOL    HW218573   3.843   3.465   6.769
 5892SOL     OW18574   1.102   6.296   1.060
 5892SOL    HW118575   1.118   6.317   1.156
 5892SOL    HW218576   1.008   6.263   1.049
 5893SOL     OW18577   1.443   3.034   3.340
 5893SOL    HW118578   1.467   3.122   3.299
 5893SOL    HW218579   1.491   3.023   3.427
 5894SOL     OW18580   1.372   4.669   3.345
 5894SOL    HW118581   1.277   4.675   3.376
 5894SOL    HW218582   1.380   4.595   3.278
 5895SOL     OW18583   5.426   2.493   4.914
 5895SOL    HW118584   5.511   2.441   4.927
 5895SOL    HW218585   5.398   2.532   5.002
 5896SOL     OW18586   3.726   2.236   6.883
 5896SOL    HW118587   3.715   2.151   6.934
 5896SOL    HW218588   3.657   2.240   6.810
 5897SOL     OW18589   4.368   0.082   1.242
 5897SOL    HW118590   4.338   0.177   1.238
 5897SOL    HW218591   4.467   0.079   1.257
 5898SOL     OW18592   0.883   0.019   1.717
 5898SOL    HW118593   0.955   0.069   1.764
 5898SOL    HW218594   0.913   7.024   1.624
 5899SOL     OW18595   6.111   6.958   5.186
 5899SOL    HW118596   6.141   7.025   5.119
 5899SOL    HW218597   6.076   7.005   5.267
 5900SOL     OW18598   4.438   5.060   2.935
 5900SOL    HW118599   4.525   5.060   2.886
 5900SOL    HW218600   4.451   5.027   3.028
 5901SOL     OW18601   2.098   0.022   6.908
 5901SOL    HW118602   2.067   0.104   6.861
 5901SOL    HW218603   2.196   0.029   6.927
 5902SOL     OW18604   6.979   2.027   1.119
 5902SOL    HW118605   6.956   2.009   1.215
 5902SOL    HW218606   6.930   1.962   1.060
 5903SOL     OW18607   5.584   4.521   0.613
 5903SOL    HW118608   5.501   4.551   0.660
 5903SOL    HW218609   5.662   4.574   0.645
 5904SOL     OW18610   0.563   3.571   2.552
 5904SOL    HW118611   0.549   3.492   2.492
 5904SOL    HW218612   0.537   3.655   2.504
 5905SOL     OW18613   6.530   6.597   2.977
 5905SOL    HW118614   6.597   6.592   2.903
 5905SOL    HW218615   6.549   6.678   3.033
 5906SOL     OW18616   5.650   0.554   3.626
 5906SOL    HW118617   5.644   0.560   3.725
 5906SOL    HW218618   5.707   0.475   3.601
 5907SOL     OW18619   1.124   6.307   1.632
 5907SOL    HW118620   1.146   6.212   1.654
 5907SOL    HW218621   1.024   6.318   1.629
 5908SOL     OW18622   0.593   2.002   5.543
 5908SOL    HW118623   0.517   1.974   5.485
 5908SOL    HW218624   0.559   2.025   5.634
 5909SOL     OW18625   1.029   5.848   0.321
 5909SOL    HW118626   1.063   5.879   0.410
 5909SOL    HW218627   0.992   5.756   0.330
 5910SOL     OW18628   1.103   2.651   3.239
 5910SOL    HW118629   1.153   2.727   3.280
 5910SOL    HW218630   1.007   2.655   3.266
 5911SOL     OW18631   6.959   5.961   6.369
 5911SOL    HW118632   6.956   5.963   6.469
 5911SOL    HW218633   6.932   6.051   6.333
 5912SOL     OW18634   6.082   1.596   5.542
 5912SOL    HW118635   6.175   1.572   5.568
 5912SOL    HW218636   6.084   1.666   5.471
 5913SOL     OW18637   5.366   2.785   0.357
 5913SOL    HW118638   5.398   2.774   0.263
 5913SOL    HW218639   5.404   2.713   0.414
 5914SOL     OW18640   1.044   6.927   6.481
 5914SOL    HW118641   1.110   6.970   6.543
 5914SOL    HW218642   1.008   6.844   6.523
 5915SOL     OW18643   2.894   6.408   6.851
 5915SOL    HW118644   2.871   6.331   6.909
 5915SOL    HW218645   2.954   6.377   6.777
 5916SOL     OW18646   0.249   6.663   1.778
 5916SOL    HW118647   0.175   6.649   1.844
 5916SOL    HW218648   0.254   6.760   1.754
 5917SOL     OW18649   2.998   3.853   6.093
 5917SOL    HW118650   3.069   3.824   6.029
 5917SOL    HW218651   2.929   3.907   6.045
 5918SOL     OW18652   2.422   6.142   6.047
 5918SOL    HW118653   2.477   6.073   6.094
 5918SOL    HW218654   2.425   6.124   5.948
 5919SOL     OW18655   2.995   3.606   3.550
 5919SOL    HW118656   3.050   3.605   3.467
 5919SOL    HW218657   3.019   3.685   3.606
 5920SOL     OW18658   5.438   1.449   6.023
 5920SOL    HW118659   5.375   1.393   5.968
 5920SOL    HW218660   5.391   1.478   6.107
 5921SOL     OW18661   3.971   4.845   6.626
 5921SOL    HW118662   3.932   4.846   6.718
 5921SOL    HW218663   4.071   4.855   6.632
 5922SOL     OW18664   6.069   3.926   3.737
 5922SOL    HW118665   6.012   3.904   3.658
 5922SOL    HW218666   6.012   3.962   3.811
 5923SOL     OW18667   6.605   0.892   1.453
 5923SOL    HW118668   6.510   0.924   1.464
 5923SOL    HW218669   6.604   0.795   1.428
 5924SOL     OW18670   5.837   6.527   3.146
 5924SOL    HW118671   5.767   6.532   3.075
 5924SOL    HW218672   5.798   6.561   3.233
 5925SOL     OW18673   3.951   5.973   1.626
 5925SOL    HW118674   3.977   5.904   1.558
 5925SOL    HW218675   3.952   6.063   1.584
 5926SOL     OW18676   4.242   4.655   3.048
 5926SOL    HW118677   4.154   4.702   3.055
 5926SOL    HW218678   4.255   4.622   2.954
 5927SOL     OW18679   1.170   4.085   2.089
 5927SOL    HW118680   1.118   4.167   2.063
 5927SOL    HW218681   1.200   4.093   2.184
 5928SOL     OW18682   4.186   6.889   1.182
 5928SOL    HW118683   4.253   6.962   1.197
 5928SOL    HW218684   4.234   6.804   1.162
 5929SOL     OW18685   6.436   0.880   5.513
 5929SOL    HW118686   6.351   0.919   5.477
 5929SOL    HW218687   6.426   0.863   5.611
 5930SOL     OW18688   1.104   2.870   1.700
 5930SOL    HW118689   1.054   2.852   1.615
 5930SOL    HW218690   1.066   2.952   1.744
 5931SOL     OW18691   6.342   6.056   2.502
 5931SOL    HW118692   6.347   6.031   2.599
 5931SOL    HW218693   6.270   6.124   2.489
 5932SOL     OW18694   3.262   0.157   6.334
 5932SOL    HW118695   3.335   0.156   6.403
 5932SOL    HW218696   3.175   0.176   6.377
 5933SOL     OW18697   0.178   5.279   4.107
 5933SOL    HW118698   0.140   5.190   4.083
 5933SOL    HW218699   0.152   5.303   4.200
 5934SOL     OW18700   3.573   3.457   5.665
 5934SOL    HW118701   3.617   3.374   5.698
 5934SOL    HW218702   3.619   3.537   5.704
 5935SOL     OW18703   0.500   6.038   5.256
 5935SOL    HW118704   0.515   5.946   5.219
 5935SOL    HW218705   0.574   6.061   5.319
 5936SOL     OW18706   2.983   3.182   2.545
 5936SOL    HW118707   2.904   3.130   2.577
 5936SOL    HW218708   3.067   3.134   2.571
 5937SOL     OW18709   7.022   2.619   1.705
 5937SOL    HW118710   6.945   2.637   1.766
 5937SOL    HW218711   0.024   2.523   1.714
 5938SOL     OW18712   5.741   5.682   4.617
 5938SOL    HW118713   5.700   5.741   4.686
 5938SOL    HW218714   5.837   5.707   4.606
 5939SOL     OW18715   3.276   5.842   4.043
 5939SOL    HW118716   3.317   5.751   4.039
 5939SOL    HW218717   3.289   5.889   3.956
 5940SOL     OW18718   4.151   4.886   3.140
 5940SOL    HW118719   4.119   4.900   3.233
 5940SOL    HW218720   4.248   4.908   3.134
 5941SOL     OW18721   5.831   2.558   2.912
 5941SOL    HW118722   5.786   2.629   2.965
 5941SOL    HW218723   5.917   2.533   2.956
 5942SOL     OW18724   5.898   2.910   6.077
 5942SOL    HW118725   5.819   2.892   6.136
 5942SOL    HW218726   5.952   2.984   6.116
 5943SOL     OW18727   4.293   3.743   0.318
 5943SOL    HW118728   4.275   3.670   0.253
 5943SOL    HW218729   4.223   3.743   0.390
 5944SOL     OW18730   0.373   2.773   0.374
 5944SOL    HW118731   0.464   2.810   0.394
 5944SOL    HW218732   0.345   2.800   0.282
 5945SOL     OW18733   0.309   6.223   5.156
 5945SOL    HW118734   0.240   6.172   5.106
 5945SOL    HW218735   0.375   6.160   5.197
 5946SOL     OW18736   3.413   4.922   6.660
 5946SOL    HW118737   3.505   4.905   6.695
 5946SOL    HW218738   3.364   4.835   6.651
 5947SOL     OW18739   3.038   3.579   4.503
 5947SOL    HW118740   3.030   3.678   4.488
 5947SOL    HW218741   2.993   3.530   4.428
 5948SOL     OW18742   4.746   4.644   2.235
 5948SOL    HW118743   4.774   4.576   2.168
 5948SOL    HW218744   4.652   4.626   2.264
 5949SOL     OW18745   5.852   5.538   1.345
 5949SOL    HW118746   5.860   5.439   1.344
 5949SOL    HW218747   5.872   5.572   1.437
 5950SOL     OW18748   4.877   2.374   5.230
 5950SOL    HW118749   4.902   2.431   5.308
 5950SOL    HW218750   4.919   2.410   5.147
 5951SOL     OW18751   0.982   5.569   5.002
 5951SOL    HW118752   0.950   5.660   5.027
 5951SOL    HW218753   1.021   5.571   4.910
 5952SOL     OW18754   4.263   5.804   3.123
 5952SOL    HW118755   4.272   5.897   3.160
 5952SOL    HW218756   4.339   5.786   3.060
 5953SOL     OW18757   6.579   3.319   4.599
 5953SOL    HW118758   6.527   3.293   4.519
 5953SOL    HW218759   6.644   3.392   4.576
 5954SOL     OW18760   0.711   5.442   5.891
 5954SOL    HW118761   0.718   5.342   5.892
 5954SOL    HW218762   0.617   5.469   5.871
 5955SOL     OW18763   4.233   5.434   1.560
 5955SOL    HW118764   4.260   5.463   1.468
 5955SOL    HW218765   4.213   5.514   1.616
 5956SOL     OW18766   5.454   1.882   4.007
 5956SOL    HW118767   5.439   1.790   3.970
 5956SOL    HW218768   5.382   1.904   4.072
 5957SOL     OW18769   1.649   1.501   3.348
 5957SOL    HW118770   1.707   1.420   3.345
 5957SOL    HW218771   1.707   1.583   3.346
 5958SOL     OW18772   3.966   0.566   3.194
 5958SOL    HW118773   3.931   0.473   3.180
 5958SOL    HW218774   3.978   0.583   3.291
 5959SOL     OW18775   4.402   2.730   5.477
 5959SOL    HW118776   4.376   2.741   5.573
 5959SOL    HW218777   4.420   2.819   5.437
 5960SOL     OW18778   3.014   6.525   4.584
 5960SOL    HW118779   2.936   6.557   4.638
 5960SOL    HW218780   2.981   6.483   4.499
 5961SOL     OW18781   3.524   1.730   2.447
 5961SOL    HW118782   3.588   1.710   2.521
 5961SOL    HW218783   3.575   1.759   2.365
 5962SOL     OW18784   4.860   6.086   6.257
 5962SOL    HW118785   4.855   6.096   6.356
 5962SOL    HW218786   4.780   6.035   6.225
 5963SOL     OW18787   3.644   4.238   7.018
 5963SOL    HW118788   3.546   4.229   0.010
 5963SOL    HW218789   3.688   4.284   0.069
 5964SOL     OW18790   2.566   6.875   3.167
 5964SOL    HW118791   2.550   6.797   3.107
 5964SOL    HW218792   2.492   6.881   3.234
 5965SOL     OW18793   1.999   0.436   6.344
 5965SOL    HW118794   2.072   0.496   6.312
 5965SOL    HW218795   1.918   0.491   6.365
 5966SOL     OW18796   1.469   0.099   5.581
 5966SOL    HW118797   1.426   0.173   5.530
 5966SOL    HW218798   1.563   0.087   5.549
 5967SOL     OW18799   2.469   1.286   5.235
 5967SOL    HW118800   2.439   1.362   5.177
 5967SOL    HW218801   2.446   1.306   5.330
 5968SOL     OW18802   5.618   2.551   0.724
 5968SOL    HW118803   5.663   2.640   0.715
 5968SOL    HW218804   5.679   2.487   0.770
 5969SOL     OW18805   4.965   1.044   6.507
 5969SOL    HW118806   5.061   1.017   6.513
 5969SOL    HW218807   4.916   1.007   6.586
 5970SOL     OW18808   0.363   4.339   0.552
 5970SOL    HW118809   0.371   4.354   0.453
 5970SOL    HW218810   0.430   4.271   0.582
 5971SOL     OW18811   6.117   0.215   1.913
 5971SOL    HW118812   6.203   0.210   1.862
 5971SOL    HW218813   6.117   0.145   1.985
 5972SOL     OW18814   5.298   5.460   6.283
 5972SOL    HW118815   5.352   5.536   6.318
 5972SOL    HW218816   5.265   5.482   6.191
 5973SOL     OW18817   2.119   3.472   2.564
 5973SOL    HW118818   2.122   3.498   2.468
 5973SOL    HW218819   2.150   3.548   2.620
 5974SOL     OW18820   5.090   0.421   0.098
 5974SOL    HW118821   5.087   0.520   0.112
 5974SOL    HW218822   5.165   0.381   0.152
 5975SOL     OW18823   4.893   5.732   1.349
 5975SOL    HW118824   4.842   5.645   1.350
 5975SOL    HW218825   4.851   5.796   1.413
 5976SOL     OW18826   3.333   3.405   5.708
 5976SOL    HW118827   3.432   3.420   5.703
 5976SOL    HW218828   3.309   3.328   5.648
 5977SOL     OW18829   0.657   5.625   0.337
 5977SOL    HW118830   0.672   5.707   0.392
 5977SOL    HW218831   0.741   5.603   0.286
 5978SOL     OW18832   3.760   5.331   0.986
 5978SOL    HW118833   3.732   5.269   0.912
 5978SOL    HW218834   3.740   5.425   0.960
 5979SOL     OW18835   6.071   0.629   2.112
 5979SOL    HW118836   6.043   0.557   2.048
 5979SOL    HW218837   6.005   0.704   2.108
 5980SOL     OW18838   3.419   2.899   2.304
 5980SOL    HW118839   3.424   2.821   2.365
 5980SOL    HW218840   3.463   2.876   2.217
 5981SOL     OW18841   5.019   1.702   0.366
 5981SOL    HW118842   5.053   1.626   0.422
 5981SOL    HW218843   4.975   1.666   0.284
 5982SOL     OW18844   5.706   2.190   2.672
 5982SOL    HW118845   5.744   2.107   2.631
 5982SOL    HW218846   5.697   2.261   2.602
 5983SOL     OW18847   1.219   0.663   3.884
 5983SOL    HW118848   1.290   0.720   3.926
 5983SOL    HW218849   1.129   0.702   3.902
 5984SOL     OW18850   5.810   6.145   3.703
 5984SOL    HW118851   5.724   6.184   3.739
 5984SOL    HW218852   5.814   6.048   3.727
 5985SOL     OW18853   6.229   2.493   3.619
 5985SOL    HW118854   6.299   2.563   3.636
 5985SOL    HW218855   6.139   2.531   3.638
 5986SOL     OW18856   3.937   3.908   5.773
 5986SOL    HW118857   3.953   3.906   5.674
 5986SOL    HW218858   4.014   3.954   5.818
 5987SOL     OW18859   6.174   0.634   4.130
 5987SOL    HW118860   6.248   0.628   4.198
 5987SOL    HW218861   6.130   0.723   4.138
 5988SOL     OW18862   3.512   1.032   6.528
 5988SOL    HW118863   3.422   1.001   6.499
 5988SOL    HW218864   3.582   0.989   6.471
 5989SOL     OW18865   1.726   5.629   6.231
 5989SOL    HW118866   1.786   5.670   6.162
 5989SOL    HW218867   1.726   5.686   6.313
 5990SOL     OW18868   3.698   3.818   1.107
 5990SOL    HW118869   3.788   3.777   1.090
 5990SOL    HW218870   3.686   3.832   1.205
 5991SOL     OW18871   4.366   5.754   0.044
 5991SOL    HW118872   4.282   5.808   0.041
 5991SOL    HW218873   4.343   5.658   0.060
 5992SOL     OW18874   3.099   0.059   2.728
 5992SOL    HW118875   3.093   0.139   2.787
 5992SOL    HW218876   3.117   0.088   2.634
 5993SOL     OW18877   5.686   4.218   6.299
 5993SOL    HW118878   5.736   4.305   6.308
 5993SOL    HW218879   5.712   4.174   6.213
 5994SOL     OW18880   0.010   2.787   0.949
 5994SOL    HW118881   0.004   2.693   0.983
 5994SOL    HW218882   0.040   2.848   1.022
 5995SOL     OW18883   4.425   3.181   1.712
 5995SOL    HW118884   4.506   3.158   1.766
 5995SOL    HW218885   4.355   3.111   1.727
 5996SOL     OW18886   1.708   5.823   1.497
 5996SOL    HW118887   1.740   5.828   1.592
 5996SOL    HW218888   1.748   5.898   1.445
 5997SOL     OW18889   0.359   6.769   3.714
 5997SOL    HW118890   0.305   6.714   3.777
 5997SOL    HW218891   0.397   6.848   3.762
 5998SOL     OW18892   5.658   0.820   1.539
 5998SOL    HW118893   5.756   0.818   1.519
 5998SOL    HW218894   5.612   0.883   1.475
 5999SOL     OW18895   3.338   3.470   0.892
 5999SOL    HW118896   3.427   3.513   0.880
 5999SOL    HW218897   3.308   3.430   0.806
 6000SOL     OW18898   0.083   6.017   6.950
 6000SOL    HW118899   7.022   5.972   6.929
 6000SOL    HW218900   0.068   6.088   7.019
 6001SOL     OW18901   5.561   5.723   6.932
 6001SOL    HW118902   5.597   5.633   6.958
 6001SOL    HW218903   5.637   5.783   6.908
 6002SOL     OW18904   6.798   0.126   5.718
 6002SOL    HW118905   6.759   0.152   5.807
 6002SOL    HW218906   6.724   0.098   5.657
 6003SOL     OW18907   6.368   2.762   4.363
 6003SOL    HW118908   6.304   2.723   4.296
 6003SOL    HW218909   6.348   2.859   4.375
 6004SOL     OW18910   5.883   2.866   3.277
 6004SOL    HW118911   5.973   2.831   3.302
 6004SOL    HW218912   5.818   2.847   3.350
 6005SOL     OW18913   5.572   4.707   5.194
 6005SOL    HW118914   5.539   4.640   5.128
 6005SOL    HW218915   5.497   4.739   5.251
 6006SOL     OW18916   3.528   6.991   5.152
 6006SOL    HW118917   3.497   0.054   5.119
 6006SOL    HW218918   3.535   6.927   5.076
 6007SOL     OW18919   6.971   3.011   6.877
 6007SOL    HW118920   6.997   2.957   6.797
 6007SOL    HW218921   6.939   3.101   6.848
 6008SOL     OW18922   2.101   4.694   5.543
 6008SOL    HW118923   2.121   4.737   5.631
 6008SOL    HW218924   2.002   4.697   5.527
 6009SOL     OW18925   4.654   5.633   3.515
 6009SOL    HW118926   4.670   5.708   3.578
 6009SOL    HW218927   4.580   5.658   3.452
 6010SOL     OW18928   0.542   4.150   3.937
 6010SOL    HW118929   0.544   4.231   3.996
 6010SOL    HW218930   0.475   4.085   3.973
 6011SOL     OW18931   4.589   2.535   2.644
 6011SOL    HW118932   4.647   2.601   2.692
 6011SOL    HW218933   4.589   2.448   2.694
 6012SOL     OW18934   6.026   0.775   0.195
 6012SOL    HW118935   6.078   0.776   0.110
 6012SOL    HW218936   6.043   0.859   0.246
 6013SOL     OW18937   4.742   1.244   2.755
 6013SOL    HW118938   4.792   1.242   2.842
 6013SOL    HW218939   4.698   1.156   2.740
 6014SOL     OW18940   3.269   3.684   4.110
 6014SOL    HW118941   3.176   3.650   4.126
 6014SOL    HW218942   3.297   3.741   4.187
 6015SOL     OW18943   6.211   3.588   4.587
 6015SOL    HW118944   6.241   3.682   4.570
 6015SOL    HW218945   6.179   3.547   4.501
 6016SOL     OW18946   5.132   1.942   5.932
 6016SOL    HW118947   5.221   1.955   5.973
 6016SOL    HW218948   5.091   1.857   5.965
 6017SOL     OW18949   0.422   4.113   5.109
 6017SOL    HW118950   0.500   4.098   5.047
 6017SOL    HW218951   0.337   4.094   5.060
 6018SOL     OW18952   3.174   0.889   4.559
 6018SOL    HW118953   3.237   0.938   4.498
 6018SOL    HW218954   3.094   0.860   4.508
 6019SOL     OW18955   1.115   3.559   5.860
 6019SOL    HW118956   1.210   3.549   5.889
 6019SOL    HW218957   1.081   3.648   5.889
 6020SOL     OW18958   1.013   5.068   0.849
 6020SOL    HW118959   1.065   5.131   0.907
 6020SOL    HW218960   0.922   5.105   0.832
 6021SOL     OW18961   4.834   0.091   2.803
 6021SOL    HW118962   4.789   0.162   2.748
 6021SOL    HW218963   4.874   0.134   2.885
 6022SOL     OW18964   6.558   1.566   3.592
 6022SOL    HW118965   6.646   1.539   3.553
 6022SOL    HW218966   6.548   1.526   3.683
 6023SOL     OW18967   5.412   0.049   1.325
 6023SOL    HW118968   5.416   0.132   1.381
 6023SOL    HW218969   5.425   0.072   1.229
 6024SOL     OW18970   0.564   4.807   0.368
 6024SOL    HW118971   0.635   4.740   0.391
 6024SOL    HW218972   0.579   4.891   0.420
 6025SOL     OW18973   3.210   1.033   3.867
 6025SOL    HW118974   3.261   1.022   3.782
 6025SOL    HW218975   3.129   0.974   3.865
 6026SOL     OW18976   6.415   4.979   4.942
 6026SOL    HW118977   6.464   4.899   4.977
 6026SOL    HW218978   6.426   4.984   4.843
 6027SOL     OW18979   6.277   3.696   6.140
 6027SOL    HW118980   6.367   3.738   6.129
 6027SOL    HW218981   6.213   3.739   6.077
 6028SOL     OW18982   5.315   5.107   1.201
 6028SOL    HW118983   5.357   5.196   1.213
 6028SOL    HW218984   5.228   5.104   1.249
 6029SOL     OW18985   2.110   6.957   3.352
 6029SOL    HW118986   2.144   0.021   3.326
 6029SOL    HW218987   2.081   6.907   3.270
 6030SOL     OW18988   4.900   3.654   4.766
 6030SOL    HW118989   4.841   3.643   4.845
 6030SOL    HW218990   4.971   3.584   4.766
 6031SOL     OW18991   1.774   5.736   3.895
 6031SOL    HW118992   1.747   5.648   3.855
 6031SOL    HW218993   1.780   5.727   3.995
 6032SOL     OW18994   2.721   5.076   3.079
 6032SOL    HW118995   2.805   5.089   3.027
 6032SOL    HW218996   2.664   5.007   3.034
 6033SOL     OW18997   2.326   2.810   2.508
 6033SOL    HW118998   2.370   2.853   2.586
 6033SOL    HW218999   2.360   2.717   2.497
 6034SOL     OW19000   0.772   0.521   6.481
 6034SOL    HW119001   0.863   0.562   6.477
 6034SOL    HW219002   0.705   0.593   6.501
 6035SOL     OW19003   0.963   0.585   2.815
 6035SOL    HW119004   1.026   0.649   2.858
 6035SOL    HW219005   1.010   0.498   2.799
 6036SOL     OW19006   5.927   4.631   1.407
 6036SOL    HW119007   6.006   4.597   1.458
 6036SOL    HW219008   5.886   4.708   1.456
 6037SOL     OW19009   4.035   0.450   0.919
 6037SOL    HW119010   4.111   0.499   0.962
 6037SOL    HW219011   3.950   0.499   0.936
 6038SOL     OW19012   0.531   2.332   6.449
 6038SOL    HW119013   0.502   2.264   6.381
 6038SOL    HW219014   0.492   2.309   6.538
 6039SOL     OW19015   3.847   4.085   4.311
 6039SOL    HW119016   3.853   4.108   4.408
 6039SOL    HW219017   3.922   4.024   4.287
 6040SOL     OW19018   1.579   1.103   7.015
 6040SOL    HW119019   1.679   1.096   7.011
 6040SOL    HW219020   1.549   1.183   6.964
 6041SOL     OW19021   3.141   2.869   5.268
 6041SOL    HW119022   3.180   2.947   5.219
 6041SOL    HW219023   3.208   2.795   5.272
 6042SOL     OW19024   4.040   6.513   3.155
 6042SOL    HW119025   4.006   6.494   3.063
 6042SOL    HW219026   4.082   6.431   3.192
 6043SOL     OW19027   0.884   0.315   4.042
 6043SOL    HW119028   0.826   0.391   4.011
 6043SOL    HW219029   0.946   0.289   3.968
 6044SOL     OW19030   2.279   2.439   2.121
 6044SOL    HW119031   2.266   2.387   2.036
 6044SOL    HW219032   2.190   2.455   2.164
 6045SOL     OW19033   4.876   3.130   3.803
 6045SOL    HW119034   4.968   3.109   3.837
 6045SOL    HW219035   4.815   3.053   3.824
 6046SOL     OW19036   3.267   2.881   1.011
 6046SOL    HW119037   3.181   2.842   1.045
 6046SOL    HW219038   3.304   2.944   1.080
 6047SOL     OW19039   5.338   2.382   1.494
 6047SOL    HW119040   5.293   2.367   1.405
 6047SOL    HW219041   5.437   2.386   1.481
 6048SOL     OW19042   5.275   5.564   5.159
 6048SOL    HW119043   5.247   5.619   5.238
 6048SOL    HW219044   5.244   5.608   5.075
 6049SOL     OW19045   5.595   4.599   5.989
 6049SOL    HW119046   5.588   4.666   6.063
 6049SOL    HW219047   5.650   4.638   5.915
 6050SOL     OW19048   2.960   5.162   0.625
 6050SOL    HW119049   3.043   5.136   0.674
 6050SOL    HW219050   2.936   5.090   0.560
 6051SOL     OW19051   1.669   0.354   2.816
 6051SOL    HW119052   1.650   0.450   2.797
 6051SOL    HW219053   1.686   0.342   2.914
 6052SOL     OW19054   5.243   0.978   1.519
 6052SOL    HW119055   5.168   1.042   1.499
 6052SOL    HW219056   5.214   0.913   1.590
 6053SOL     OW19057   4.170   0.522   6.403
 6053SOL    HW119058   4.104   0.550   6.473
 6053SOL    HW219059   4.161   0.580   6.322
 6054SOL     OW19060   3.569   4.919   0.782
 6054SOL    HW119061   3.589   4.906   0.879
 6054SOL    HW219062   3.521   5.006   0.769
 6055SOL     OW19063   3.490   5.479   6.288
 6055SOL    HW119064   3.512   5.499   6.192
 6055SOL    HW219065   3.481   5.380   6.300
 6056SOL     OW19066   5.784   2.751   4.900
 6056SOL    HW119067   5.758   2.763   4.805
 6056SOL    HW219068   5.702   2.733   4.955
 6057SOL     OW19069   5.868   0.862   2.102
 6057SOL    HW119070   5.927   0.906   2.034
 6057SOL    HW219071   5.826   0.932   2.160
 6058SOL     OW19072   5.409   3.490   0.266
 6058SOL    HW119073   5.496   3.514   0.224
 6058SOL    HW219074   5.377   3.402   0.229
 6059SOL     OW19075   4.999   4.035   5.465
 6059SOL    HW119076   5.047   4.115   5.501
 6059SOL    HW219077   4.996   3.964   5.536
 6060SOL     OW19078   2.967   3.104   0.089
 6060SOL    HW119079   2.984   3.006   0.079
 6060SOL    HW219080   2.922   3.121   0.176
 6061SOL     OW19081   4.601   4.647   0.499
 6061SOL    HW119082   4.607   4.550   0.522
 6061SOL    HW219083   4.639   4.662   0.407
 6062SOL     OW19084   2.294   1.914   6.333
 6062SOL    HW119085   2.393   1.906   6.340
 6062SOL    HW219086   2.270   1.975   6.257
 6063SOL     OW19087   3.348   4.312   5.726
 6063SOL    HW119088   3.383   4.229   5.770
 6063SOL    HW219089   3.395   4.392   5.763
 6064SOL     OW19090   0.805   0.467   1.164
 6064SOL    HW119091   0.772   0.428   1.251
 6064SOL    HW219092   0.812   0.566   1.173
 6065SOL     OW19093   0.589   5.736   1.634
 6065SOL    HW119094   0.506   5.681   1.638
 6065SOL    HW219095   0.577   5.819   1.689
 6066SOL     OW19096   5.292   0.768   4.300
 6066SOL    HW119097   5.226   0.709   4.252
 6066SOL    HW219098   5.305   0.734   4.393
 6067SOL     OW19099   5.013   1.514   5.785
 6067SOL    HW119100   5.010   1.585   5.715
 6067SOL    HW219101   4.926   1.465   5.787
 6068SOL     OW19102   4.996   2.551   4.717
 6068SOL    HW119103   4.964   2.594   4.802
 6068SOL    HW219104   5.096   2.549   4.716
 6069SOL     OW19105   6.912   3.359   6.107
 6069SOL    HW119106   6.908   3.458   6.120
 6069SOL    HW219107   6.828   3.317   6.141
 6070SOL     OW19108   3.488   2.581   1.458
 6070SOL    HW119109   3.478   2.497   1.405
 6070SOL    HW219110   3.583   2.588   1.490
 6071SOL     OW19111   0.385   5.618   4.418
 6071SOL    HW119112   0.289   5.644   4.430
 6071SOL    HW219113   0.408   5.545   4.483
 6072SOL     OW19114   6.762   1.502   1.772
 6072SOL    HW119115   6.834   1.529   1.708
 6072SOL    HW219116   6.739   1.406   1.758
 6073SOL     OW19117   5.188   2.854   0.747
 6073SOL    HW119118   5.160   2.938   0.793
 6073SOL    HW219119   5.143   2.776   0.789
 6074SOL     OW19120   1.946   6.888   2.010
 6074SOL    HW119121   1.859   6.910   2.054
 6074SOL    HW219122   2.004   6.838   2.074
 6075SOL     OW19123   4.532   0.264   5.412
 6075SOL    HW119124   4.534   0.361   5.387
 6075SOL    HW219125   4.495   0.210   5.337
 6076SOL     OW19126   2.514   5.235   3.169
 6076SOL    HW119127   2.455   5.191   3.237
 6076SOL    HW219128   2.573   5.165   3.127
 6077SOL     OW19129   5.433   6.256   0.833
 6077SOL    HW119130   5.433   6.277   0.736
 6077SOL    HW219131   5.528   6.246   0.865
 6078SOL     OW19132   4.485   4.680   0.768
 6078SOL    HW119133   4.388   4.654   0.769
 6078SOL    HW219134   4.511   4.706   0.675
 6079SOL     OW19135   5.131   5.034   6.023
 6079SOL    HW119136   5.082   4.954   5.988
 6079SOL    HW219137   5.066   5.096   6.067
 6080SOL     OW19138   0.322   5.109   1.706
 6080SOL    HW119139   0.278   5.042   1.766
 6080SOL    HW219140   0.378   5.171   1.761
 6081SOL     OW19141   6.629   3.392   5.665
 6081SOL    HW119142   6.640   3.310   5.609
 6081SOL    HW219143   6.658   3.372   5.759
 6082SOL     OW19144   3.303   6.329   2.321
 6082SOL    HW119145   3.220   6.327   2.378
 6082SOL    HW219146   3.284   6.378   2.236
 6083SOL     OW19147   5.604   5.708   0.707
 6083SOL    HW119148   5.604   5.806   0.692
 6083SOL    HW219149   5.542   5.686   0.783
 6084SOL     OW19150   0.973   6.782   2.078
 6084SOL    HW119151   1.037   6.752   2.008
 6084SOL    HW219152   0.934   6.703   2.124
 6085SOL     OW19153   6.238   6.323   6.053
 6085SOL    HW119154   6.257   6.289   5.960
 6085SOL    HW219155   6.165   6.391   6.049
 6086SOL     OW19156   2.977   2.504   5.728
 6086SOL    HW119157   3.029   2.589   5.718
 6086SOL    HW219158   2.900   2.504   5.663
 6087SOL     OW19159   4.179   5.749   1.153
 6087SOL    HW119160   4.250   5.722   1.087
 6087SOL    HW219161   4.103   5.791   1.105
 6088SOL     OW19162   6.086   6.439   5.409
 6088SOL    HW119163   6.120   6.515   5.464
 6088SOL    HW219164   6.055   6.365   5.469
 6089SOL     OW19165   6.465   2.634   2.898
 6089SOL    HW119166   6.406   2.714   2.902
 6089SOL    HW219167   6.505   2.617   2.988
 6090SOL     OW19168   2.918   5.069   4.681
 6090SOL    HW119169   2.821   5.053   4.668
 6090SOL    HW219170   2.960   4.990   4.726
 6091SOL     OW19171   3.141   1.469   0.657
 6091SOL    HW119172   3.120   1.543   0.593
 6091SOL    HW219173   3.105   1.383   0.622
 6092SOL     OW19174   4.107   0.983   2.059
 6092SOL    HW119175   4.059   1.071   2.067
 6092SOL    HW219176   4.113   0.940   2.149
 6093SOL     OW19177   2.547   2.502   1.856
 6093SOL    HW119178   2.449   2.492   1.873
 6093SOL    HW219179   2.598   2.439   1.915
 6094SOL     OW19180   1.272   6.137   3.418
 6094SOL    HW119181   1.231   6.229   3.421
 6094SOL    HW219182   1.219   6.075   3.477
 6095SOL     OW19183   4.619   4.977   6.501
 6095SOL    HW119184   4.619   5.008   6.596
 6095SOL    HW219185   4.531   4.935   6.479
 6096SOL     OW19186   5.362   6.722   2.181
 6096SOL    HW119187   5.337   6.639   2.232
 6096SOL    HW219188   5.329   6.802   2.231
 6097SOL     OW19189   1.937   5.430   1.944
 6097SOL    HW119190   1.994   5.491   1.889
 6097SOL    HW219191   1.855   5.405   1.891
 6098SOL     OW19192   6.346   0.986   5.831
 6098SOL    HW119193   6.350   1.073   5.880
 6098SOL    HW219194   6.419   0.926   5.864
 6099SOL     OW19195   5.184   5.772   5.349
 6099SOL    HW119196   5.137   5.746   5.433
 6099SOL    HW219197   5.119   5.772   5.273
 6100SOL     OW19198   0.268   5.996   2.169
 6100SOL    HW119199   0.231   5.984   2.077
 6100SOL    HW219200   0.359   6.036   2.164
 6101SOL     OW19201   6.543   2.860   2.619
 6101SOL    HW119202   6.555   2.850   2.718
 6101SOL    HW219203   6.608   2.927   2.585
 6102SOL     OW19204   4.094   6.196   2.879
 6102SOL    HW119205   4.045   6.187   2.792
 6102SOL    HW219206   4.101   6.293   2.903
 6103SOL     OW19207   6.744   1.117   1.300
 6103SOL    HW119208   6.753   1.209   1.263
 6103SOL    HW219209   6.691   1.120   1.385
 6104SOL     OW19210   5.980   0.474   5.244
 6104SOL    HW119211   5.959   0.571   5.236
 6104SOL    HW219212   5.920   0.422   5.182
 6105SOL     OW19213   1.793   5.426   5.883
 6105SOL    HW119214   1.805   5.401   5.979
 6105SOL    HW219215   1.707   5.388   5.849
 6106SOL     OW19216   1.153   5.242   0.395
 6106SOL    HW119217   1.120   5.238   0.489
 6106SOL    HW219218   1.236   5.186   0.387
 6107SOL     OW19219   4.646   5.304   3.973
 6107SOL    HW119220   4.718   5.250   4.016
 6107SOL    HW219221   4.670   5.401   3.976
 6108SOL     OW19222   1.961   2.522   2.782
 6108SOL    HW119223   1.952   2.560   2.690
 6108SOL    HW219224   1.873   2.526   2.828
 6109SOL     OW19225   5.622   1.377   5.021
 6109SOL    HW119226   5.539   1.346   5.067
 6109SOL    HW219227   5.685   1.417   5.088
 6110SOL     OW19228   1.985   2.978   0.142
 6110SOL    HW119229   1.930   2.899   0.172
 6110SOL    HW219230   2.081   2.960   0.160
 6111SOL     OW19231   1.189   3.328   1.867
 6111SOL    HW119232   1.269   3.285   1.824
 6111SOL    HW219233   1.204   3.334   1.966
 6112SOL     OW19234   4.453   0.308   2.570
 6112SOL    HW119235   4.467   0.403   2.541
 6112SOL    HW219236   4.355   0.286   2.565
 6113SOL     OW19237   2.383   3.272   6.528
 6113SOL    HW119238   2.378   3.361   6.485
 6113SOL    HW219239   2.435   3.279   6.614
 6114SOL     OW19240   5.165   3.458   2.565
 6114SOL    HW119241   5.079   3.494   2.529
 6114SOL    HW219242   5.167   3.359   2.552
 6115SOL     OW19243   6.618   1.751   5.079
 6115SOL    HW119244   6.717   1.758   5.087
 6115SOL    HW219245   6.592   1.757   4.982
 6116SOL     OW19246   4.022   2.222   5.498
 6116SOL    HW119247   3.932   2.207   5.539
 6116SOL    HW219248   4.093   2.208   5.567
 6117SOL     OW19249   1.696   2.287   3.028
 6117SOL    HW119250   1.723   2.377   3.062
 6117SOL    HW219251   1.680   2.293   2.929
 6118SOL     OW19252   5.525   1.053   1.726
 6118SOL    HW119253   5.456   0.982   1.717
 6118SOL    HW219254   5.487   1.141   1.699
 6119SOL     OW19255   1.037   3.234   0.354
 6119SOL    HW119256   0.968   3.169   0.322
 6119SOL    HW219257   1.068   3.290   0.277
 6120SOL     OW19258   2.253   6.808   5.008
 6120SOL    HW119259   2.197   6.798   5.090
 6120SOL    HW219260   2.313   6.887   5.018
 6121SOL     OW19261   1.064   4.159   5.511
 6121SOL    HW119262   1.055   4.114   5.422
 6121SOL    HW219263   0.993   4.125   5.573
 6122SOL     OW19264   4.747   5.327   6.206
 6122SOL    HW119265   4.753   5.414   6.157
 6122SOL    HW219266   4.812   5.262   6.165
 6123SOL     OW19267   5.288   0.623   5.262
 6123SOL    HW119268   5.237   0.561   5.205
 6123SOL    HW219269   5.375   0.581   5.289
 6124SOL     OW19270   0.264   6.693   5.945
 6124SOL    HW119271   0.266   6.790   5.922
 6124SOL    HW219272   0.241   6.640   5.864
 6125SOL     OW19273   2.661   4.218   6.963
 6125SOL    HW119274   2.754   4.255   6.967
 6125SOL    HW219275   2.665   4.119   6.948
 6126SOL     OW19276   1.007   1.847   5.289
 6126SOL    HW119277   1.060   1.929   5.271
 6126SOL    HW219278   0.945   1.863   5.366
 6127SOL     OW19279   4.348   0.308   1.725
 6127SOL    HW119280   4.395   0.370   1.662
 6127SOL    HW219281   4.293   0.243   1.674
 6128SOL     OW19282   5.319   5.372   0.776
 6128SOL    HW119283   5.344   5.275   0.774
 6128SOL    HW219284   5.307   5.402   0.870
 6129SOL     OW19285   1.241   3.554   3.908
 6129SOL    HW119286   1.340   3.550   3.916
 6129SOL    HW219287   1.214   3.635   3.856
 6130SOL     OW19288   6.042   2.463   3.041
 6130SOL    HW119289   6.031   2.406   3.123
 6130SOL    HW219290   6.132   2.445   3.000
 6131SOL     OW19291   1.089   1.858   2.852
 6131SOL    HW119292   1.169   1.916   2.840
 6131SOL    HW219293   1.116   1.762   2.838
 6132SOL     OW19294   3.714   1.872   6.665
 6132SOL    HW119295   3.623   1.887   6.703
 6132SOL    HW219296   3.746   1.955   6.620
 6133SOL     OW19297   1.608   2.804   3.109
 6133SOL    HW119298   1.643   2.818   3.202
 6133SOL    HW219299   1.598   2.892   3.064
 6134SOL     OW19300   3.865   6.859   6.960
 6134SOL    HW119301   3.882   6.808   0.017
 6134SOL    HW219302   3.836   6.797   6.887
 6135SOL     OW19303   6.735   5.892   0.885
 6135SOL    HW119304   6.831   5.913   0.904
 6135SOL    HW219305   6.678   5.926   0.960
 6136SOL     OW19306   1.483   2.705   1.399
 6136SOL    HW119307   1.402   2.648   1.382
 6136SOL    HW219308   1.565   2.654   1.371
 6137SOL     OW19309   0.743   3.889   2.511
 6137SOL    HW119310   0.787   3.977   2.490
 6137SOL    HW219311   0.661   3.906   2.566
 6138SOL     OW19312   3.840   0.073   2.961
 6138SOL    HW119313   3.830   0.156   3.016
 6138SOL    HW219314   3.752   0.025   2.956
 6139SOL     OW19315   0.245   0.083   5.711
 6139SOL    HW119316   0.233   0.013   5.641
 6139SOL    HW219317   0.323   0.141   5.687
 6140SOL     OW19318   0.546   1.301   3.206
 6140SOL    HW119319   0.530   1.399   3.217
 6140SOL    HW219320   0.633   1.287   3.157
 6141SOL     OW19321   0.796   0.288   5.969
 6141SOL    HW119322   0.850   0.370   5.989
 6141SOL    HW219323   0.841   0.235   5.897
 6142SOL     OW19324   1.001   6.909   5.966
 6142SOL    HW119325   1.009   6.928   6.063
 6142SOL    HW219326   1.093   6.900   5.926
 6143SOL     OW19327   6.986   4.257   0.800
 6143SOL    HW119328   0.045   4.283   0.847
 6143SOL    HW219329   6.979   4.309   0.714
 6144SOL     OW19330   5.163   4.538   3.507
 6144SOL    HW119331   5.070   4.505   3.523
 6144SOL    HW219332   5.189   4.519   3.412
 6145SOL     OW19333   5.684   4.801   4.400
 6145SOL    HW119334   5.632   4.844   4.327
 6145SOL    HW219335   5.633   4.807   4.486
 6146SOL     OW19336   3.502   6.085   3.928
 6146SOL    HW119337   3.526   6.055   4.021
 6146SOL    HW219338   3.496   6.184   3.925
 6147SOL     OW19339   1.996   2.533   4.736
 6147SOL    HW119340   2.081   2.564   4.692
 6147SOL    HW219341   2.015   2.508   4.831
 6148SOL     OW19342   3.856   5.413   6.389
 6148SOL    HW119343   3.862   5.494   6.330
 6148SOL    HW219344   3.885   5.438   6.482
 6149SOL     OW19345   1.814   0.037   1.776
 6149SOL    HW119346   1.894   0.073   1.729
 6149SOL    HW219347   1.822   6.964   1.785
 6150SOL     OW19348   6.135   3.861   6.770
 6150SOL    HW119349   6.187   3.915   6.703
 6150SOL    HW219350   6.072   3.800   6.722
 6151SOL     OW19351   5.253   5.381   4.386
 6151SOL    HW119352   5.264   5.407   4.290
 6151SOL    HW219353   5.298   5.293   4.402
 6152SOL     OW19354   1.041   5.542   4.478
 6152SOL    HW119355   0.986   5.592   4.545
 6152SOL    HW219356   1.102   5.479   4.524
 6153SOL     OW19357   4.923   5.236   1.120
 6153SOL    HW119358   4.893   5.287   1.039
 6153SOL    HW219359   4.975   5.296   1.180
 6154SOL     OW19360   5.595   3.004   3.094
 6154SOL    HW119361   5.667   3.071   3.074
 6154SOL    HW219362   5.512   3.027   3.043
 6155SOL     OW19363   3.071   1.240   2.783
 6155SOL    HW119364   3.040   1.187   2.862
 6155SOL    HW219365   3.078   1.337   2.807
 6156SOL     OW19366   4.347   4.800   1.765
 6156SOL    HW119367   4.258   4.843   1.751
 6156SOL    HW219368   4.334   4.709   1.803
 6157SOL     OW19369   0.863   2.215   3.214
 6157SOL    HW119370   0.788   2.230   3.150
 6157SOL    HW219371   0.950   2.219   3.165
 6158SOL     OW19372   3.184   1.708   0.173
 6158SOL    HW119373   3.282   1.705   0.193
 6158SOL    HW219374   3.139   1.773   0.234
 6159SOL     OW19375   5.416   2.741   0.803
 6159SOL    HW119376   5.497   2.787   0.768
 6159SOL    HW219377   5.334   2.787   0.769
 6160SOL     OW19378   6.908   7.016   6.689
 6160SOL    HW119379   6.850   0.019   6.613
 6160SOL    HW219380   6.877   0.033   6.773
 6161SOL     OW19381   4.788   0.922   0.331
 6161SOL    HW119382   4.855   0.961   0.267
 6161SOL    HW219383   4.835   0.863   0.396
 6162SOL     OW19384   6.233   5.964   3.776
 6162SOL    HW119385   6.191   6.042   3.731
 6162SOL    HW219386   6.294   5.917   3.712
 6163SOL     OW19387   5.426   5.996   2.587
 6163SOL    HW119388   5.498   6.049   2.543
 6163SOL    HW219389   5.461   5.956   2.672
 6164SOL     OW19390   3.636   4.173   4.931
 6164SOL    HW119391   3.677   4.096   4.979
 6164SOL    HW219392   3.553   4.201   4.979
 6165SOL     OW19393   3.584   2.028   5.735
 6165SOL    HW119394   3.496   2.053   5.694
 6165SOL    HW219395   3.618   1.945   5.693
 6166SOL     OW19396   5.794   2.010   0.584
 6166SOL    HW119397   5.819   2.081   0.518
 6166SOL    HW219398   5.755   2.052   0.666
 6167SOL     OW19399   0.369   4.785   3.141
 6167SOL    HW119400   0.277   4.792   3.178
 6167SOL    HW219401   0.429   4.741   3.208
 6168SOL     OW19402   0.823   2.674   3.186
 6168SOL    HW119403   0.809   2.587   3.140
 6168SOL    HW219404   0.769   2.677   3.270
 6169SOL     OW19405   0.994   1.054   6.486
 6169SOL    HW119406   1.071   1.101   6.443
 6169SOL    HW219407   0.963   1.107   6.565
 6170SOL     OW19408   3.083   4.039   5.802
 6170SOL    HW119409   3.181   4.019   5.809
 6170SOL    HW219410   3.069   4.138   5.805
 6171SOL     OW19411   1.542   3.316   1.486
 6171SOL    HW119412   1.570   3.403   1.526
 6171SOL    HW219413   1.519   3.329   1.390
 6172SOL     OW19414   0.429   0.800   2.812
 6172SOL    HW119415   0.500   0.783   2.744
 6172SOL    HW219416   0.466   0.856   2.886
 6173SOL     OW19417   6.875   4.536   2.825
 6173SOL    HW119418   6.901   4.444   2.796
 6173SOL    HW219419   6.890   4.546   2.923
 6174SOL     OW19420   6.112   5.089   2.952
 6174SOL    HW119421   6.101   5.188   2.949
 6174SOL    HW219422   6.095   5.051   2.861
 6175SOL     OW19423   5.431   0.187   3.786
 6175SOL    HW119424   5.423   0.279   3.748
 6175SOL    HW219425   5.464   0.125   3.715
 6176SOL     OW19426   5.993   2.719   7.009
 6176SOL    HW119427   6.058   2.673   0.044
 6176SOL    HW219428   5.974   2.811   0.017
 6177SOL     OW19429   5.635   1.343   1.427
 6177SOL    HW119430   5.591   1.425   1.462
 6177SOL    HW219431   5.592   1.315   1.341
 6178SOL     OW19432   4.552   5.580   1.619
 6178SOL    HW119433   4.501   5.634   1.552
 6178SOL    HW219434   4.515   5.598   1.711
 6179SOL     OW19435   6.829   4.294   4.724
 6179SOL    HW119436   6.903   4.229   4.710
 6179SOL    HW219437   6.866   4.387   4.733
 6180SOL     OW19438   3.145   6.563   6.093
 6180SOL    HW119439   3.230   6.510   6.092
 6180SOL    HW219440   3.146   6.628   6.017
 6181SOL     OW19441   5.185   6.127   0.757
 6181SOL    HW119442   5.266   6.167   0.799
 6181SOL    HW219443   5.106   6.188   0.771
 6182SOL     OW19444   5.160   4.221   5.578
 6182SOL    HW119445   5.237   4.179   5.528
 6182SOL    HW219446   5.188   4.242   5.671
 6183SOL     OW19447   2.911   0.185   3.306
 6183SOL    HW119448   2.869   0.094   3.302
 6183SOL    HW219449   3.011   0.175   3.302
 6184SOL     OW19450   1.774   6.285   6.105
 6184SOL    HW119451   1.857   6.249   6.148
 6184SOL    HW219452   1.800   6.349   6.033
 6185SOL     OW19453   1.555   4.661   6.836
 6185SOL    HW119454   1.466   4.619   6.855
 6185SOL    HW219455   1.563   4.681   6.739
 6186SOL     OW19456   5.930   6.975   4.021
 6186SOL    HW119457   5.922   7.010   4.115
 6186SOL    HW219458   5.922   6.876   4.022
 6187SOL     OW19459   4.690   4.274   4.368
 6187SOL    HW119460   4.659   4.361   4.405
 6187SOL    HW219461   4.663   4.268   4.272
 6188SOL     OW19462   2.241   6.323   1.310
 6188SOL    HW119463   2.178   6.286   1.378
 6188SOL    HW219464   2.283   6.407   1.345
 6189SOL     OW19465   4.469   4.600   3.805
 6189SOL    HW119466   4.425   4.618   3.892
 6189SOL    HW219467   4.508   4.508   3.804
 6190SOL     OW19468   6.108   4.016   6.206
 6190SOL    HW119469   6.039   4.044   6.272
 6190SOL    HW219470   6.074   4.033   6.113
 6191SOL     OW19471   4.865   2.466   0.491
 6191SOL    HW119472   4.777   2.494   0.529
 6191SOL    HW219473   4.867   2.366   0.481
 6192SOL     OW19474   3.411   3.152   0.414
 6192SOL    HW119475   3.337   3.114   0.359
 6192SOL    HW219476   3.480   3.082   0.430
 6193SOL     OW19477   4.485   1.192   3.040
 6193SOL    HW119478   4.509   1.109   2.989
 6193SOL    HW219479   4.497   1.176   3.138
 6194SOL     OW19480   1.823   6.800   0.281
 6194SOL    HW119481   1.863   6.813   0.190
 6194SOL    HW219482   1.896   6.779   0.347
 6195SOL     OW19483   3.745   5.457   5.415
 6195SOL    HW119484   3.765   5.440   5.318
 6195SOL    HW219485   3.689   5.540   5.423
 6196SOL     OW19486   5.599   2.262   1.398
 6196SOL    HW119487   5.695   2.236   1.384
 6196SOL    HW219488   5.542   2.223   1.326
 6197SOL     OW19489   4.548   4.134   0.383
 6197SOL    HW119490   4.486   4.075   0.332
 6197SOL    HW219491   4.534   4.120   0.481
 6198SOL     OW19492   3.155   5.487   2.384
 6198SOL    HW119493   3.162   5.556   2.313
 6198SOL    HW219494   3.066   5.495   2.429
 6199SOL     OW19495   0.579   0.078   1.038
 6199SOL    HW119496   0.589   0.095   1.136
 6199SOL    HW219497   0.482   0.076   1.014
 6200SOL     OW19498   2.054   1.018   5.861
 6200SOL    HW119499   2.094   0.968   5.938
 6200SOL    HW219500   2.103   0.996   5.777
 6201SOL     OW19501   1.892   3.712   5.556
 6201SOL    HW119502   1.835   3.709   5.474
 6201SOL    HW219503   1.862   3.787   5.615
 6202SOL     OW19504   4.048   1.845   1.646
 6202SOL    HW119505   4.056   1.941   1.672
 6202SOL    HW219506   3.972   1.833   1.582
 6203SOL     OW19507   5.309   6.945   3.448
 6203SOL    HW119508   5.315   0.018   3.442
 6203SOL    HW219509   5.215   6.916   3.429
 6204SOL     OW19510   0.529   4.963   5.360
 6204SOL    HW119511   0.504   5.056   5.334
 6204SOL    HW219512   0.562   4.962   5.455
 6205SOL     OW19513   5.500   6.454   0.196
 6205SOL    HW119514   5.433   6.380   0.207
 6205SOL    HW219515   5.558   6.435   0.116
 6206SOL     OW19516   6.336   0.350   2.900
 6206SOL    HW119517   6.272   0.427   2.900
 6206SOL    HW219518   6.291   0.269   2.939
 6207SOL     OW19519   1.449   4.257   4.465
 6207SOL    HW119520   1.463   4.227   4.370
 6207SOL    HW219521   1.534   4.298   4.500
 6208SOL     OW19522   6.043   0.864   6.896
 6208SOL    HW119523   6.094   0.895   6.815
 6208SOL    HW219524   5.957   0.915   6.901
 6209SOL     OW19525   4.925   5.593   6.873
 6209SOL    HW119526   4.828   5.571   6.865
 6209SOL    HW219527   4.974   5.513   6.908
 6210SOL     OW19528   6.217   4.851   3.388
 6210SOL    HW119529   6.220   4.901   3.301
 6210SOL    HW219530   6.122   4.829   3.411
 6211SOL     OW19531   3.488   6.620   4.363
 6211SOL    HW119532   3.436   6.643   4.281
 6211SOL    HW219533   3.501   6.521   4.368
 6212SOL     OW19534   1.875   5.007   2.873
 6212SOL    HW119535   1.855   5.063   2.792
 6212SOL    HW219536   1.974   4.994   2.880
 6213SOL     OW19537   5.162   0.182   6.794
 6213SOL    HW119538   5.077   0.203   6.746
 6213SOL    HW219539   5.221   0.263   6.795
 6214SOL     OW19540   5.698   4.820   3.155
 6214SOL    HW119541   5.653   4.730   3.151
 6214SOL    HW219542   5.792   4.810   3.124
 6215SOL     OW19543   3.995   1.831   6.782
 6215SOL    HW119544   4.012   1.794   6.873
 6215SOL    HW219545   3.911   1.886   6.784
 6216SOL     OW19546   6.855   2.615   2.416
 6216SOL    HW119547   6.916   2.544   2.381
 6216SOL    HW219548   6.760   2.587   2.403
 6217SOL     OW19549   6.928   2.805   2.651
 6217SOL    HW119550   6.945   2.890   2.600
 6217SOL    HW219551   6.929   2.728   2.587
 6218SOL     OW19552   3.366   5.584   5.040
 6218SOL    HW119553   3.278   5.541   5.057
 6218SOL    HW219554   3.400   5.557   4.950
 6219SOL     OW19555   1.148   1.634   4.589
 6219SOL    HW119556   1.084   1.708   4.569
 6219SOL    HW219557   1.169   1.634   4.687
 6220SOL     OW19558   1.057   3.427   5.341
 6220SOL    HW119559   1.138   3.482   5.363
 6220SOL    HW219560   1.085   3.334   5.318
 6221SOL     OW19561   6.171   6.075   6.537
 6221SOL    HW119562   6.157   6.022   6.620
 6221SOL    HW219563   6.083   6.096   6.495
 6222SOL     OW19564   0.704   6.503   1.245
 6222SOL    HW119565   0.621   6.547   1.212
 6222SOL    HW219566   0.680   6.429   1.308
 6223SOL     OW19567   0.009   4.103   4.685
 6223SOL    HW119568   0.102   4.069   4.696
 6223SOL    HW219569   6.976   4.061   4.755
 6224SOL     OW19570   2.083   1.700   6.255
 6224SOL    HW119571   2.037   1.714   6.167
 6224SOL    HW219572   2.142   1.778   6.274
 6225SOL     OW19573   3.326   3.033   1.230
 6225SOL    HW119574   3.305   2.999   1.321
 6225SOL    HW219575   3.391   3.109   1.236
 6226SOL     OW19576   5.439   2.163   4.711
 6226SOL    HW119577   5.428   2.134   4.807
 6226SOL    HW219578   5.533   2.145   4.682
 6227SOL     OW19579   3.880   5.696   6.347
 6227SOL    HW119580   3.873   5.689   6.447
 6227SOL    HW219581   3.934   5.777   6.324
 6228SOL     OW19582   0.200   3.105   2.363
 6228SOL    HW119583   0.259   3.132   2.439
 6228SOL    HW219584   0.188   3.182   2.301
 6229SOL     OW19585   0.737   2.991   2.193
 6229SOL    HW119586   0.832   2.991   2.221
 6229SOL    HW219587   0.722   2.921   2.123
 6230SOL     OW19588   1.187   0.967   4.091
 6230SOL    HW119589   1.158   1.056   4.127
 6230SOL    HW219590   1.189   0.971   3.991
 6231SOL     OW19591   6.967   4.529   1.337
 6231SOL    HW119592   7.022   4.482   1.268
 6231SOL    HW219593   7.024   4.595   1.386
 6232SOL     OW19594   6.185   1.974   1.183
 6232SOL    HW119595   6.252   1.928   1.241
 6232SOL    HW219596   6.144   1.906   1.121
 6233SOL     OW19597   5.586   1.060   7.016
 6233SOL    HW119598   5.555   1.116   6.939
 6233SOL    HW219599   5.549   0.968   7.007
 6234SOL     OW19600   6.764   1.395   5.882
 6234SOL    HW119601   6.767   1.492   5.857
 6234SOL    HW219602   6.734   1.342   5.803
 6235SOL     OW19603   1.177   0.204   2.174
 6235SOL    HW119604   1.111   0.139   2.137
 6235SOL    HW219605   1.207   0.173   2.264
 6236SOL     OW19606   0.805   4.976   0.437
 6236SOL    HW119607   0.898   4.957   0.407
 6236SOL    HW219608   0.794   5.074   0.453
 6237SOL     OW19609   3.192   6.136   6.969
 6237SOL    HW119610   3.105   6.088   6.978
 6237SOL    HW219611   3.254   6.082   6.912
 6238SOL     OW19612   3.919   4.814   3.000
 6238SOL    HW119613   4.002   4.840   3.049
 6238SOL    HW219614   3.940   4.804   2.903
 6239SOL     OW19615   2.899   6.500   1.735
 6239SOL    HW119616   2.862   6.419   1.690
 6239SOL    HW219617   2.831   6.573   1.732
 6240SOL     OW19618   2.931   2.803   6.605
 6240SOL    HW119619   3.022   2.766   6.590
 6240SOL    HW219620   2.907   2.864   6.529
 6241SOL     OW19621   2.557   0.667   2.107
 6241SOL    HW119622   2.478   0.703   2.157
 6241SOL    HW219623   2.530   0.649   2.012
 6242SOL     OW19624   5.171   0.341   3.618
 6242SOL    HW119625   5.114   0.389   3.551
 6242SOL    HW219626   5.260   0.385   3.624
 6243SOL     OW19627   5.520   6.758   3.441
 6243SOL    HW119628   5.440   6.819   3.439
 6243SOL    HW219629   5.500   6.679   3.500
 6244SOL     OW19630   1.679   2.481   2.122
 6244SOL    HW119631   1.621   2.434   2.055
 6244SOL    HW219632   1.647   2.460   2.214
 6245SOL     OW19633   1.752   5.012   1.131
 6245SOL    HW119634   1.749   4.990   1.033
 6245SOL    HW219635   1.832   4.969   1.172
 6246SOL     OW19636   1.942   3.021   6.042
 6246SOL    HW119637   1.985   3.101   6.002
 6246SOL    HW219638   1.860   3.048   6.093
 6247SOL     OW19639   0.787   6.456   3.584
 6247SOL    HW119640   0.833   6.545   3.586
 6247SOL    HW219641   0.704   6.460   3.639
 6248SOL     OW19642   2.847   4.052   0.989
 6248SOL    HW119643   2.896   4.045   1.075
 6248SOL    HW219644   2.760   4.003   0.996
 6249SOL     OW19645   0.626   4.222   0.288
 6249SOL    HW119646   0.712   4.189   0.249
 6249SOL    HW219647   0.602   4.309   0.244
 6250SOL     OW19648   6.718   6.065   0.186
 6250SOL    HW119649   6.664   6.059   0.102
 6250SOL    HW219650   6.762   5.976   0.203
 6251SOL     OW19651   3.377   6.539   6.766
 6251SOL    HW119652   3.416   6.627   6.793
 6251SOL    HW219653   3.320   6.504   6.841
 6252SOL     OW19654   1.690   6.775   5.400
 6252SOL    HW119655   1.755   6.851   5.398
 6252SOL    HW219656   1.671   6.745   5.307
 6253SOL     OW19657   2.107   3.748   2.663
 6253SOL    HW119658   2.167   3.772   2.586
 6253SOL    HW219659   2.036   3.817   2.673
 6254SOL     OW19660   4.817   1.059   0.816
 6254SOL    HW119661   4.733   1.110   0.796
 6254SOL    HW219662   4.882   1.070   0.741
 6255SOL     OW19663   2.386   1.228   1.377
 6255SOL    HW119664   2.474   1.272   1.394
 6255SOL    HW219665   2.321   1.296   1.342
 6256SOL     OW19666   3.284   5.409   2.865
 6256SOL    HW119667   3.254   5.369   2.778
 6256SOL    HW219668   3.382   5.429   2.861
 6257SOL     OW19669   5.171   2.310   1.287
 6257SOL    HW119670   5.160   2.326   1.189
 6257SOL    HW219671   5.166   2.212   1.306
 6258SOL     OW19672   4.629   0.301   3.844
 6258SOL    HW119673   4.555   0.246   3.803
 6258SOL    HW219674   4.681   0.345   3.771
 6259SOL     OW19675   2.915   2.516   0.318
 6259SOL    HW119676   2.902   2.438   0.257
 6259SOL    HW219677   2.835   2.525   0.377
 6260SOL     OW19678   2.540   4.708   0.168
 6260SOL    HW119679   2.531   4.682   0.071
 6260SOL    HW219680   2.628   4.676   0.203
 6261SOL     OW19681   3.602   0.371   6.503
 6261SOL    HW119682   3.609   0.272   6.512
 6261SOL    HW219683   3.509   0.396   6.478
 6262SOL     OW19684   1.494   4.314   1.094
 6262SOL    HW119685   1.592   4.331   1.085
 6262SOL    HW219686   1.463   4.258   1.018
 6263SOL     OW19687   0.203   0.758   5.861
 6263SOL    HW119688   0.215   0.744   5.959
 6263SOL    HW219689   0.291   0.782   5.820
 6264SOL     OW19690   1.759   6.938   0.957
 6264SOL    HW119691   1.847   6.946   0.910
 6264SOL    HW219692   1.728   6.843   0.956
 6265SOL     OW19693   3.558   4.229   0.719
 6265SOL    HW119694   3.552   4.147   0.777
 6265SOL    HW219695   3.467   4.252   0.685
 6266SOL     OW19696   4.387   0.352   4.653
 6266SOL    HW119697   4.292   0.349   4.685
 6266SOL    HW219698   4.424   0.259   4.648
 6267SOL     OW19699   2.974   0.368   6.964
 6267SOL    HW119700   3.029   0.388   0.019
 6267SOL    HW219701   2.877   0.362   6.990
 6268SOL     OW19702   3.408   6.280   3.368
 6268SOL    HW119703   3.371   6.210   3.308
 6268SOL    HW219704   3.468   6.237   3.436
 6269SOL     OW19705   6.737   5.846   2.107
 6269SOL    HW119706   6.826   5.889   2.090
 6269SOL    HW219707   6.691   5.894   2.182
 6270SOL     OW19708   1.613   6.974   5.181
 6270SOL    HW119709   1.647   0.024   5.236
 6270SOL    HW219710   1.555   7.010   5.107
 6271SOL     OW19711   5.811   2.342   5.719
 6271SOL    HW119712   5.785   2.248   5.741
 6271SOL    HW219713   5.773   2.367   5.630
 6272SOL     OW19714   1.226   3.036   5.992
 6272SOL    HW119715   1.304   3.099   5.996
 6272SOL    HW219716   1.237   2.964   6.060
 6273SOL     OW19717   1.769   0.525   2.432
 6273SOL    HW119718   1.768   0.440   2.484
 6273SOL    HW219719   1.675   0.555   2.415
 6274SOL     OW19720   2.248   5.651   5.881
 6274SOL    HW119721   2.293   5.689   5.799
 6274SOL    HW219722   2.263   5.713   5.958
 6275SOL     OW19723   2.032   6.334   5.004
 6275SOL    HW119724   2.093   6.366   5.076
 6275SOL    HW219725   2.005   6.411   4.946
 6276SOL     OW19726   1.798   5.290   3.949
 6276SOL    HW119727   1.726   5.221   3.937
 6276SOL    HW219728   1.860   5.261   4.022
 6277SOL     OW19729   5.165   3.241   1.821
 6277SOL    HW119730   5.247   3.296   1.839
 6277SOL    HW219731   5.158   3.168   1.889
 6278SOL     OW19732   4.958   6.905   4.489
 6278SOL    HW119733   4.868   6.865   4.507
 6278SOL    HW219734   4.947   6.998   4.453
 6279SOL     OW19735   3.645   0.643   6.536
 6279SOL    HW119736   3.625   0.694   6.619
 6279SOL    HW219737   3.620   0.547   6.548
 6280SOL     OW19738   0.813   2.223   5.868
 6280SOL    HW119739   0.790   2.222   5.771
 6280SOL    HW219740   0.746   2.277   5.918
 6281SOL     OW19741   1.425   5.822   4.275
 6281SOL    HW119742   1.396   5.907   4.319
 6281SOL    HW219743   1.499   5.842   4.211
 6282SOL     OW19744   1.014   0.715   4.777
 6282SOL    HW119745   0.934   0.722   4.717
 6282SOL    HW219746   1.078   0.648   4.739
 6283SOL     OW19747   6.372   3.279   5.591
 6283SOL    HW119748   6.454   3.315   5.548
 6283SOL    HW219749   6.309   3.354   5.613
 6284SOL     OW19750   2.371   5.725   5.032
 6284SOL    HW119751   2.414   5.728   5.122
 6284SOL    HW219752   2.272   5.731   5.042
 6285SOL     OW19753   0.824   2.886   3.640
 6285SOL    HW119754   0.804   2.883   3.738
 6285SOL    HW219755   0.886   2.812   3.616
 6286SOL     OW19756   6.513   1.778   3.908
 6286SOL    HW119757   6.576   1.848   3.873
 6286SOL    HW219758   6.564   1.695   3.928
 6287SOL     OW19759   4.194   4.871   2.839
 6287SOL    HW119760   4.236   4.902   2.924
 6287SOL    HW219761   4.263   4.826   2.783
 6288SOL     OW19762   6.037   4.815   2.434
 6288SOL    HW119763   6.022   4.756   2.355
 6288SOL    HW219764   6.132   4.809   2.463
 6289SOL     OW19765   1.357   4.762   2.464
 6289SOL    HW119766   1.428   4.831   2.479
 6289SOL    HW219767   1.390   4.694   2.399
 6290SOL     OW19768   5.951   3.781   4.082
 6290SOL    HW119769   5.921   3.721   4.156
 6290SOL    HW219770   6.044   3.813   4.101
 6291SOL     OW19771   3.881   3.420   4.161
 6291SOL    HW119772   3.967   3.412   4.110
 6291SOL    HW219773   3.811   3.459   4.101
 6292SOL     OW19774   1.434   2.394   3.753
 6292SOL    HW119775   1.450   2.444   3.838
 6292SOL    HW219776   1.522   2.365   3.715
 6293SOL     OW19777   3.965   0.086   0.020
 6293SOL    HW119778   3.959   7.013   0.033
 6293SOL    HW219779   4.032   0.125   0.083
 6294SOL     OW19780   3.400   4.938   3.908
 6294SOL    HW119781   3.452   5.022   3.896
 6294SOL    HW219782   3.438   4.867   3.849
 6295SOL     OW19783   4.968   5.129   5.358
 6295SOL    HW119784   4.967   5.053   5.294
 6295SOL    HW219785   4.904   5.199   5.329
 6296SOL     OW19786   6.948   6.823   4.956
 6296SOL    HW119787   6.919   6.913   4.923
 6296SOL    HW219788   6.892   6.796   5.035
 6297SOL     OW19789   4.952   0.293   5.407
 6297SOL    HW119790   4.949   0.291   5.507
 6297SOL    HW219791   4.948   0.200   5.371
 6298SOL     OW19792   1.604   2.688   5.738
 6298SOL    HW119793   1.599   2.700   5.639
 6298SOL    HW219794   1.649   2.601   5.759
 6299SOL     OW19795   5.114   1.455   0.450
 6299SOL    HW119796   5.161   1.396   0.384
 6299SOL    HW219797   5.179   1.488   0.518
 6300SOL     OW19798   5.242   0.506   5.596
 6300SOL    HW119799   5.239   0.606   5.593
 6300SOL    HW219800   5.334   0.474   5.573
 6301SOL     OW19801   3.232   0.748   1.343
 6301SOL    HW119802   3.214   0.670   1.283
 6301SOL    HW219803   3.319   0.791   1.316
 6302SOL     OW19804   1.484   1.472   3.883
 6302SOL    HW119805   1.474   1.449   3.787
 6302SOL    HW219806   1.531   1.560   3.892
 6303SOL     OW19807   2.250   0.965   4.590
 6303SOL    HW119808   2.154   0.981   4.570
 6303SOL    HW219809   2.275   1.012   4.675
 6304SOL     OW19810   2.196   1.114   0.446
 6304SOL    HW119811   2.164   1.031   0.491
 6304SOL    HW219812   2.273   1.152   0.497
 6305SOL     OW19813   6.191   6.907   0.874
 6305SOL    HW119814   6.271   6.892   0.932
 6305SOL    HW219815   6.111   6.927   0.931
 6306SOL     OW19816   1.510   3.898   4.245
 6306SOL    HW119817   1.571   3.819   4.243
 6306SOL    HW219818   1.538   3.959   4.320
 6307SOL     OW19819   3.984   3.918   5.490
 6307SOL    HW119820   3.950   4.011   5.507
 6307SOL    HW219821   4.074   3.924   5.446
 6308SOL     OW19822   1.652   1.717   4.503
 6308SOL    HW119823   1.662   1.792   4.438
 6308SOL    HW219824   1.722   1.647   4.486
 6309SOL     OW19825   4.886   4.004   4.469
 6309SOL    HW119826   4.849   4.058   4.545
 6309SOL    HW219827   4.918   4.065   4.398
 6310SOL     OW19828   2.160   5.738   3.727
 6310SOL    HW119829   2.116   5.650   3.705
 6310SOL    HW219830   2.096   5.795   3.778
 6311SOL     OW19831   5.650   0.325   5.759
 6311SOL    HW119832   5.654   0.273   5.845
 6311SOL    HW219833   5.712   0.404   5.765
 6312SOL     OW19834   5.926   5.273   5.608
 6312SOL    HW119835   5.888   5.195   5.559
 6312SOL    HW219836   6.008   5.305   5.560
 6313SOL     OW19837   1.742   5.727   3.263
 6313SOL    HW119838   1.703   5.720   3.355
 6313SOL    HW219839   1.672   5.705   3.195
 6314SOL     OW19840   3.963   6.265   1.548
 6314SOL    HW119841   4.046   6.222   1.585
 6314SOL    HW219842   3.908   6.301   1.623
 6315SOL     OW19843   3.684   2.739   5.917
 6315SOL    HW119844   3.646   2.767   6.005
 6315SOL    HW219845   3.610   2.711   5.856
 6316SOL     OW19846   4.802   2.078   6.443
 6316SOL    HW119847   4.758   2.137   6.375
 6316SOL    HW219848   4.792   2.119   6.534
 6317SOL     OW19849   5.019   5.423   3.457
 6317SOL    HW119850   5.080   5.498   3.484
 6317SOL    HW219851   5.072   5.349   3.417
 6318SOL     OW19852   3.036   1.967   4.716
 6318SOL    HW119853   3.038   2.050   4.661
 6318SOL    HW219854   2.977   1.899   4.672
 6319SOL     OW19855   0.409   2.224   3.195
 6319SOL    HW119856   0.464   2.250   3.275
 6319SOL    HW219857   0.453   2.147   3.148
 6320SOL     OW19858   5.845   4.571   5.144
 6320SOL    HW119859   5.934   4.585   5.101
 6320SOL    HW219860   5.820   4.653   5.196
 6321SOL     OW19861   3.219   4.921   1.013
 6321SOL    HW119862   3.262   4.897   1.101
 6321SOL    HW219863   3.240   5.016   0.991
 6322SOL     OW19864   1.719   2.284   6.868
 6322SOL    HW119865   1.808   2.313   6.834
 6322SOL    HW219866   1.731   2.213   6.937
 6323SOL     OW19867   3.658   2.857   1.349
 6323SOL    HW119868   3.666   2.758   1.344
 6323SOL    HW219869   3.583   2.881   1.412
 6324SOL     OW19870   5.253   0.120   6.520
 6324SOL    HW119871   5.194   0.049   6.557
 6324SOL    HW219872   5.277   0.184   6.592
 6325SOL     OW19873   1.959   2.040   2.371
 6325SOL    HW119874   1.947   1.941   2.366
 6325SOL    HW219875   1.897   2.077   2.440
 6326SOL     OW19876   4.562   6.013   2.110
 6326SOL    HW119877   4.597   6.107   2.116
 6326SOL    HW219878   4.573   5.979   2.017
 6327SOL     OW19879   6.995   0.860   5.434
 6327SOL    HW119880   6.931   0.881   5.360
 6327SOL    HW219881   0.045   0.805   5.398
 6328SOL     OW19882   2.274   4.130   0.716
 6328SOL    HW119883   2.264   4.074   0.634
 6328SOL    HW219884   2.331   4.209   0.696
 6329SOL     OW19885   2.463   2.585   2.948
 6329SOL    HW119886   2.462   2.684   2.933
 6329SOL    HW219887   2.442   2.538   2.862
 6330SOL     OW19888   4.524   0.945   1.630
 6330SOL    HW119889   4.587   1.019   1.653
 6330SOL    HW219890   4.438   0.957   1.680
 6331SOL     OW19891   6.112   2.219   0.218
 6331SOL    HW119892   6.171   2.198   0.296
 6331SOL    HW219893   6.017   2.224   0.248
 6332SOL     OW19894   6.801   3.765   2.190
 6332SOL    HW119895   6.720   3.804   2.146
 6332SOL    HW219896   6.857   3.838   2.229
 6333SOL     OW19897   4.158   4.808   4.092
 6333SOL    HW119898   4.185   4.893   4.046
 6333SOL    HW219899   4.061   4.791   4.076
 6334SOL     OW19900   2.510   0.097   2.335
 6334SOL    HW119901   2.531   0.182   2.383
 6334SOL    HW219902   2.413   0.074   2.346
 6335SOL     OW19903   4.547   1.638   0.430
 6335SOL    HW119904   4.640   1.619   0.397
 6335SOL    HW219905   4.498   1.551   0.442
 6336SOL     OW19906   0.203   1.634   6.400
 6336SOL    HW119907   0.142   1.708   6.430
 6336SOL    HW219908   0.188   1.616   6.303
 6337SOL     OW19909   4.738   4.187   6.156
 6337SOL    HW119910   4.705   4.221   6.068
 6337SOL    HW219911   4.664   4.192   6.223
 6338SOL     OW19912   2.956   2.076   2.670
 6338SOL    HW119913   2.961   1.977   2.684
 6338SOL    HW219914   3.047   2.112   2.653
 6339SOL     OW19915   0.787   2.868   3.008
 6339SOL    HW119916   0.799   2.789   3.068
 6339SOL    HW219917   0.728   2.935   3.053
 6340SOL     OW19918   1.627   4.631   2.923
 6340SOL    HW119919   1.564   4.623   2.845
 6340SOL    HW219920   1.718   4.655   2.889
 6341SOL     OW19921   0.735   4.507   3.862
 6341SOL    HW119922   0.652   4.539   3.907
 6341SOL    HW219923   0.712   4.442   3.791
 6342SOL     OW19924   2.785   1.874   1.931
 6342SOL    HW119925   2.802   1.941   1.859
 6342SOL    HW219926   2.725   1.802   1.896
 6343SOL     OW19927   5.102   2.130   6.696
 6343SOL    HW119928   5.139   2.100   6.608
 6343SOL    HW219929   5.140   2.220   6.719
 6344SOL     OW19930   5.935   3.529   5.706
 6344SOL    HW119931   5.858   3.489   5.658
 6344SOL    HW219932   5.945   3.625   5.680
 6345SOL     OW19933   4.589   1.806   2.114
 6345SOL    HW119934   4.545   1.789   2.025
 6345SOL    HW219935   4.661   1.738   2.129
 6346SOL     OW19936   6.945   3.688   3.645
 6346SOL    HW119937   6.941   3.775   3.597
 6346SOL    HW219938   7.010   3.627   3.598
 6347SOL     OW19939   1.999   0.675   1.542
 6347SOL    HW119940   2.007   0.716   1.451
 6347SOL    HW219941   2.065   0.601   1.552
 6348SOL     OW19942   1.379   4.280   5.012
 6348SOL    HW119943   1.349   4.187   4.992
 6348SOL    HW219944   1.396   4.328   4.925
 6349SOL     OW19945   3.379   6.972   1.437
 6349SOL    HW119946   3.366   0.003   1.518
 6349SOL    HW219947   3.296   6.919   1.420
 6350SOL     OW19948   2.578   4.696   3.962
 6350SOL    HW119949   2.527   4.764   4.015
 6350SOL    HW219950   2.673   4.724   3.955
 6351SOL     OW19951   6.451   3.229   2.774
 6351SOL    HW119952   6.448   3.312   2.718
 6351SOL    HW219953   6.536   3.227   2.826
 6352SOL     OW19954   2.257   5.168   4.616
 6352SOL    HW119955   2.308   5.242   4.661
 6352SOL    HW219956   2.212   5.112   4.686
 6353SOL     OW19957   6.527   1.059   6.448
 6353SOL    HW119958   6.627   1.053   6.448
 6353SOL    HW219959   6.494   1.050   6.354
 6354SOL     OW19960   1.522   0.532   2.634
 6354SOL    HW119961   1.474   0.510   2.719
 6354SOL    HW219962   1.456   0.563   2.565
 6355SOL     OW19963   1.386   5.404   6.034
 6355SOL    HW119964   1.351   5.371   5.947
 6355SOL    HW219965   1.331   5.365   6.109
 6356SOL     OW19966   3.931   4.850   2.727
 6356SOL    HW119967   4.030   4.858   2.730
 6356SOL    HW219968   3.892   4.932   2.686
 6357SOL     OW19969   5.223   2.793   1.948
 6357SOL    HW119970   5.265   2.879   1.979
 6357SOL    HW219971   5.294   2.729   1.921
 6358SOL     OW19972   1.255   2.061   6.097
 6358SOL    HW119973   1.220   2.114   6.020
 6358SOL    HW219974   1.348   2.031   6.077
 6359SOL     OW19975   6.554   6.907   5.759
 6359SOL    HW119976   6.583   6.947   5.672
 6359SOL    HW219977   6.632   6.901   5.821
 6360SOL     OW19978   1.810   3.803   4.402
 6360SOL    HW119979   1.819   3.728   4.467
 6360SOL    HW219980   1.889   3.805   4.341
 6361SOL     OW19981   6.242   0.086   0.265
 6361SOL    HW119982   6.202   7.021   0.276
 6361SOL    HW219983   6.268   0.122   0.354
 6362SOL     OW19984   6.343   5.506   6.473
 6362SOL    HW119985   6.299   5.594   6.453
 6362SOL    HW219986   6.371   5.504   6.569
 6363SOL     OW19987   2.016   4.444   3.446
 6363SOL    HW119988   1.926   4.467   3.408
 6363SOL    HW219989   2.061   4.376   3.388
 6364SOL     OW19990   3.334   1.353   5.716
 6364SOL    HW119991   3.316   1.377   5.812
 6364SOL    HW219992   3.347   1.254   5.708
 6365SOL     OW19993   5.415   6.747   4.631
 6365SOL    HW119994   5.318   6.770   4.624
 6365SOL    HW219995   5.461   6.768   4.545
 6366SOL     OW19996   0.729   5.828   6.341
 6366SOL    HW119997   0.718   5.740   6.296
 6366SOL    HW219998   0.764   5.895   6.276
 6367SOL     OW19999   3.618   0.556   4.056
 6367SOL    HW120000   3.657   0.506   4.134
 6367SOL    HW220001   3.684   0.556   3.981
 6368SOL     OW20002   3.668   6.816   3.601
 6368SOL    HW120003   3.645   6.887   3.534
 6368SOL    HW220004   3.707   6.859   3.682
 6369SOL     OW20005   2.576   5.046   4.859
 6369SOL    HW120006   2.542   5.013   4.947
 6369SOL    HW220007   2.669   5.081   4.870
 6370SOL     OW20008   0.983   3.408   2.553
 6370SOL    HW120009   0.970   3.373   2.645
 6370SOL    HW220010   1.016   3.502   2.557
 6371SOL     OW20011   4.905   3.354   3.998
 6371SOL    HW120012   4.851   3.317   3.922
 6371SOL    HW220013   4.967   3.283   4.032
 6372SOL     OW20014   3.528   0.120   1.702
 6372SOL    HW120015   3.559   0.182   1.774
 6372SOL    HW220016   3.567   0.149   1.614
 6373SOL     OW20017   5.595   4.354   3.580
 6373SOL    HW120018   5.506   4.366   3.537
 6373SOL    HW220019   5.667   4.361   3.511
 6374SOL     OW20020   3.612   4.135   4.187
 6374SOL    HW120021   3.710   4.115   4.192
 6374SOL    HW220022   3.574   4.133   4.279
 6375SOL     OW20023   0.296   1.672   4.140
 6375SOL    HW120024   0.326   1.599   4.080
 6375SOL    HW220025   0.231   1.636   4.207
 6376SOL     OW20026   6.311   2.581   5.427
 6376SOL    HW120027   6.352   2.531   5.504
 6376SOL    HW220028   6.257   2.657   5.462
 6377SOL     OW20029   6.404   1.860   5.579
 6377SOL    HW120030   6.500   1.833   5.580
 6377SOL    HW220031   6.388   1.928   5.507
 6378SOL     OW20032   5.213   4.810   3.279
 6378SOL    HW120033   5.159   4.726   3.267
 6378SOL    HW220034   5.299   4.802   3.229
 6379SOL     OW20035   2.283   4.283   4.341
 6379SOL    HW120036   2.260   4.186   4.347
 6379SOL    HW220037   2.290   4.321   4.433
 6380SOL     OW20038   0.208   1.802   5.893
 6380SOL    HW120039   0.257   1.844   5.817
 6380SOL    HW220040   0.263   1.729   5.933
 6381SOL     OW20041   3.789   3.401   2.042
 6381SOL    HW120042   3.691   3.419   2.031
 6381SOL    HW220043   3.841   3.458   1.979
 6382SOL     OW20044   1.372   2.726   0.678
 6382SOL    HW120045   1.363   2.744   0.580
 6382SOL    HW220046   1.321   2.795   0.729
 6383SOL     OW20047   2.132   2.377   2.433
 6383SOL    HW120048   2.193   2.300   2.414
 6383SOL    HW220049   2.154   2.415   2.522
 6384SOL     OW20050   5.676   4.122   1.217
 6384SOL    HW120051   5.714   4.032   1.195
 6384SOL    HW220052   5.585   4.130   1.178
 6385SOL     OW20053   6.736   4.532   4.427
 6385SOL    HW120054   6.663   4.496   4.486
 6385SOL    HW220055   6.806   4.463   4.415
 6386SOL     OW20056   2.600   4.246   6.172
 6386SOL    HW120057   2.695   4.225   6.150
 6386SOL    HW220058   2.549   4.160   6.182
 6387SOL     OW20059   0.598   1.608   6.608
 6387SOL    HW120060   0.509   1.613   6.653
 6387SOL    HW220061   0.670   1.618   6.676
 6388SOL     OW20062   4.029   4.860   1.529
 6388SOL    HW120063   4.122   4.892   1.512
 6388SOL    HW220064   4.006   4.875   1.625
 6389SOL     OW20065   1.008   5.951   2.435
 6389SOL    HW120066   0.946   5.874   2.428
 6389SOL    HW220067   1.028   5.970   2.531
 6390SOL     OW20068   1.498   2.050   4.527
 6390SOL    HW120069   1.433   2.002   4.468
 6390SOL    HW220070   1.479   2.028   4.622
 6391SOL     OW20071   3.159   6.777   5.740
 6391SOL    HW120072   3.186   6.814   5.828
 6391SOL    HW220073   3.149   6.677   5.747
 6392SOL     OW20074   2.256   0.082   3.623
 6392SOL    HW120075   2.294   0.173   3.607
 6392SOL    HW220076   2.318   0.012   3.587
 6393SOL     OW20077   6.104   6.529   1.614
 6393SOL    HW120078   6.165   6.451   1.627
 6393SOL    HW220079   6.158   6.612   1.603
 6394SOL     OW20080   2.298   4.734   0.912
 6394SOL    HW120081   2.220   4.734   0.849
 6394SOL    HW220082   2.280   4.798   0.987
 6395SOL     OW20083   5.980   2.584   1.391
 6395SOL    HW120084   5.887   2.606   1.420
 6395SOL    HW220085   6.044   2.644   1.438
 6396SOL     OW20086   5.392   3.087   6.563
 6396SOL    HW120087   5.326   3.054   6.630
 6396SOL    HW220088   5.461   3.143   6.609
 6397SOL     OW20089   5.822   2.391   6.569
 6397SOL    HW120090   5.742   2.449   6.584
 6397SOL    HW220091   5.849   2.349   6.656
 6398SOL     OW20092   3.310   0.463   0.639
 6398SOL    HW120093   3.268   0.411   0.565
 6398SOL    HW220094   3.397   0.422   0.664
 6399SOL     OW20095   1.565   4.767   6.593
 6399SOL    HW120096   1.515   4.852   6.611
 6399SOL    HW220097   1.663   4.783   6.604
 6400SOL     OW20098   1.876   5.814   2.827
 6400SOL    HW120099   1.967   5.777   2.849
 6400SOL    HW220100   1.837   5.762   2.751
 6401SOL     OW20101   6.621   4.524   3.900
 6401SOL    HW120102   6.639   4.543   3.996
 6401SOL    HW220103   6.707   4.505   3.853
 6402SOL     OW20104   3.247   0.910   3.000
 6402SOL    HW120105   3.278   1.002   2.977
 6402SOL    HW220106   3.259   0.895   3.099
 6403SOL     OW20107   0.567   6.180   6.348
 6403SOL    HW120108   0.505   6.250   6.384
 6403SOL    HW220109   0.530   6.089   6.368
 6404SOL     OW20110   3.680   1.143   2.999
 6404SOL    HW120111   3.713   1.213   2.936
 6404SOL    HW220112   3.650   1.187   3.084
 6405SOL     OW20113   1.581   0.881   3.368
 6405SOL    HW120114   1.655   0.885   3.434
 6405SOL    HW220115   1.579   0.790   3.326
 6406SOL     OW20116   1.782   2.487   3.462
 6406SOL    HW120117   1.799   2.463   3.367
 6406SOL    HW220118   1.843   2.561   3.490
 6407SOL     OW20119   3.176   0.412   3.060
 6407SOL    HW120120   3.111   0.355   3.010
 6407SOL    HW220121   3.134   0.443   3.146
 6408SOL     OW20122   5.933   2.282   6.792
 6408SOL    HW120123   6.001   2.331   6.846
 6408SOL    HW220124   5.978   2.213   6.736
 6409SOL     OW20125   0.336   4.316   3.006
 6409SOL    HW120126   0.313   4.254   2.930
 6409SOL    HW220127   0.283   4.401   2.996
 6410SOL     OW20128   1.951   1.186   0.168
 6410SOL    HW120129   1.996   1.268   0.202
 6410SOL    HW220130   1.863   1.174   0.214
 6411SOL     OW20131   0.185   2.838   3.271
 6411SOL    HW120132   0.237   2.783   3.337
 6411SOL    HW220133   0.216   2.818   3.178
 6412SOL     OW20134   0.023   3.103   5.535
 6412SOL    HW120135   6.992   3.074   5.613
 6412SOL    HW220136   7.020   3.053   5.453
 6413SOL     OW20137   5.128   4.752   2.978
 6413SOL    HW120138   5.222   4.724   2.958
 6413SOL    HW220139   5.124   4.851   2.992
 6414SOL     OW20140   6.033   0.660   1.743
 6414SOL    HW120141   5.998   0.616   1.825
 6414SOL    HW220142   6.131   0.678   1.754
 6415SOL     OW20143   2.417   2.242   2.479
 6415SOL    HW120144   2.459   2.275   2.394
 6415SOL    HW220145   2.487   2.201   2.537
 6416SOL     OW20146   1.297   1.290   5.715
 6416SOL    HW120147   1.310   1.350   5.636
 6416SOL    HW220148   1.210   1.242   5.706
 6417SOL     OW20149   0.097   4.545   2.422
 6417SOL    HW120150   0.033   4.471   2.445
 6417SOL    HW220151   0.085   4.570   2.326
 6418SOL     OW20152   5.777   4.627   2.110
 6418SOL    HW120153   5.749   4.557   2.175
 6418SOL    HW220154   5.696   4.673   2.074
 6419SOL     OW20155   2.150   5.063   2.609
 6419SOL    HW120156   2.076   5.068   2.541
 6419SOL    HW220157   2.143   5.142   2.670
 6420SOL     OW20158   2.640   3.372   5.706
 6420SOL    HW120159   2.702   3.431   5.758
 6420SOL    HW220160   2.633   3.405   5.612
 6421SOL     OW20161   5.333   1.649   1.981
 6421SOL    HW120162   5.394   1.622   1.907
 6421SOL    HW220163   5.252   1.590   1.980
 6422SOL     OW20164   0.361   0.294   4.351
 6422SOL    HW120165   0.296   0.238   4.402
 6422SOL    HW220166   0.388   0.247   4.267
 6423SOL     OW20167   5.007   4.729   2.296
 6423SOL    HW120168   5.080   4.707   2.232
 6423SOL    HW220169   4.920   4.692   2.263
 6424SOL     OW20170   0.028   5.690   5.585
 6424SOL    HW120171   0.084   5.678   5.504
 6424SOL    HW220172   0.078   5.659   5.666
 6425SOL     OW20173   6.683   5.429   3.115
 6425SOL    HW120174   6.585   5.420   3.131
 6425SOL    HW220175   6.731   5.435   3.202
 6426SOL     OW20176   0.437   4.581   3.325
 6426SOL    HW120177   0.515   4.545   3.375
 6426SOL    HW220178   0.365   4.512   3.322
 6427SOL     OW20179   1.935   3.258   6.622
 6427SOL    HW120180   1.855   3.314   6.600
 6427SOL    HW220181   1.947   3.189   6.550
 6428SOL     OW20182   6.375   3.322   0.586
 6428SOL    HW120183   6.328   3.409   0.597
 6428SOL    HW220184   6.417   3.295   0.673
 6429SOL     OW20185   0.564   1.471   5.074
 6429SOL    HW120186   0.557   1.536   4.998
 6429SOL    HW220187   0.491   1.403   5.067
 6430SOL     OW20188   4.939   0.763   2.189
 6430SOL    HW120189   4.938   0.791   2.285
 6430SOL    HW220190   5.024   0.714   2.169
 6431SOL     OW20191   5.483   6.696   3.167
 6431SOL    HW120192   5.482   6.673   3.264
 6431SOL    HW220193   5.509   6.792   3.155
 6432SOL     OW20194   4.195   4.092   6.878
 6432SOL    HW120195   4.135   4.105   6.957
 6432SOL    HW220196   4.142   4.104   6.794
 6433SOL     OW20197   3.741   4.384   0.589
 6433SOL    HW120198   3.690   4.344   0.666
 6433SOL    HW220199   3.758   4.314   0.520
 6434SOL     OW20200   2.082   3.807   0.606
 6434SOL    HW120201   2.135   3.848   0.532
 6434SOL    HW220202   2.034   3.879   0.656
 6435SOL     OW20203   4.100   5.638   6.868
 6435SOL    HW120204   4.148   5.560   6.909
 6435SOL    HW220205   4.113   5.719   6.926
 6436SOL     OW20206   2.134   3.318   4.016
 6436SOL    HW120207   2.045   3.318   4.063
 6436SOL    HW220208   2.153   3.227   3.981
 6437SOL     OW20209   1.854   1.286   0.800
 6437SOL    HW120210   1.944   1.276   0.757
 6437SOL    HW220211   1.845   1.219   0.874
 6438SOL     OW20212   0.699   4.946   6.296
 6438SOL    HW120213   0.660   4.922   6.385
 6438SOL    HW220214   0.780   5.003   6.309
 6439SOL     OW20215   6.797   0.356   1.733
 6439SOL    HW120216   6.846   0.418   1.794
 6439SOL    HW220217   6.701   0.351   1.759
 6440SOL     OW20218   2.165   1.795   1.710
 6440SOL    HW120219   2.208   1.739   1.639
 6440SOL    HW220220   2.137   1.883   1.671
 6441SOL     OW20221   1.006   6.931   2.672
 6441SOL    HW120222   0.948   6.909   2.593
 6441SOL    HW220223   1.070   6.856   2.688
 6442SOL     OW20224   1.970   1.562   3.175
 6442SOL    HW120225   1.946   1.495   3.246
 6442SOL    HW220226   1.904   1.554   3.100
 6443SOL     OW20227   3.849   2.729   0.616
 6443SOL    HW120228   3.761   2.682   0.605
 6443SOL    HW220229   3.859   2.796   0.542
 6444SOL     OW20230   0.793   2.897   3.907
 6444SOL    HW120231   0.821   2.886   4.002
 6444SOL    HW220232   0.696   2.873   3.898
 6445SOL     OW20233   4.908   2.595   5.786
 6445SOL    HW120234   4.981   2.566   5.725
 6445SOL    HW220235   4.878   2.687   5.762
 6446SOL     OW20236   1.270   1.065   6.194
 6446SOL    HW120237   1.242   0.982   6.241
 6446SOL    HW220238   1.221   1.072   6.107
 6447SOL     OW20239   0.243   5.774   2.646
 6447SOL    HW120240   0.207   5.680   2.647
 6447SOL    HW220241   0.185   5.831   2.588
 6448SOL     OW20242   5.414   4.583   2.308
 6448SOL    HW120243   5.338   4.602   2.245
 6448SOL    HW220244   5.377   4.548   2.394
 6449SOL     OW20245   3.699   4.656   0.882
 6449SOL    HW120246   3.690   4.747   0.842
 6449SOL    HW220247   3.610   4.610   0.881
 6450SOL     OW20248   0.152   3.196   1.614
 6450SOL    HW120249   0.110   3.173   1.527
 6450SOL    HW220250   0.219   3.127   1.639
 6451SOL     OW20251   2.651   6.285   4.770
 6451SOL    HW120252   2.687   6.264   4.861
 6451SOL    HW220253   2.556   6.315   4.778
 6452SOL     OW20254   3.401   6.011   5.272
 6452SOL    HW120255   3.311   6.052   5.261
 6452SOL    HW220256   3.468   6.061   5.216
 6453SOL     OW20257   1.552   6.376   0.213
 6453SOL    HW120258   1.510   6.428   0.287
 6453SOL    HW220259   1.629   6.428   0.175
 6454SOL     OW20260   3.140   1.297   3.915
 6454SOL    HW120261   3.167   1.203   3.893
 6454SOL    HW220262   3.121   1.304   4.013
 6455SOL     OW20263   0.865   1.862   3.774
 6455SOL    HW120264   0.948   1.915   3.794
 6455SOL    HW220265   0.808   1.913   3.710
 6456SOL     OW20266   1.996   0.454   3.609
 6456SOL    HW120267   1.910   0.491   3.574
 6456SOL    HW220268   2.001   0.469   3.708
 6457SOL     OW20269   4.960   0.944   1.017
 6457SOL    HW120270   4.929   0.965   1.110
 6457SOL    HW220271   4.897   0.984   0.951
 6458SOL     OW20272   0.960   6.999   3.626
 6458SOL    HW120273   1.048   0.007   3.657
 6458SOL    HW220274   0.942   0.006   3.534
 6459SOL     OW20275   5.826   5.612   0.609
 6459SOL    HW120276   5.812   5.515   0.589
 6459SOL    HW220277   5.739   5.654   0.635
 6460SOL     OW20278   4.526   5.225   5.687
 6460SOL    HW120279   4.548   5.296   5.754
 6460SOL    HW220280   4.433   5.240   5.653
 6461SOL     OW20281   2.813   4.940   5.185
 6461SOL    HW120282   2.885   4.956   5.252
 6461SOL    HW220283   2.853   4.935   5.093
 6462SOL     OW20284   2.406   2.806   5.279
 6462SOL    HW120285   2.431   2.881   5.218
 6462SOL    HW220286   2.454   2.723   5.251
 6463SOL     OW20287   1.743   3.904   6.671
 6463SOL    HW120288   1.705   3.847   6.598
 6463SOL    HW220289   1.755   3.997   6.637
 6464SOL     OW20290   0.835   5.082   5.120
 6464SOL    HW120291   0.895   5.002   5.111
 6464SOL    HW220292   0.747   5.061   5.078
 6465SOL     OW20293   6.040   2.623   3.866
 6465SOL    HW120294   5.957   2.654   3.819
 6465SOL    HW220295   6.026   2.530   3.901
 6466SOL     OW20296   0.873   1.227   6.668
 6466SOL    HW120297   0.810   1.266   6.601
 6466SOL    HW220298   0.936   1.298   6.699
 6467SOL     OW20299   3.195   0.947   0.130
 6467SOL    HW120300   3.143   0.873   0.174
 6467SOL    HW220301   3.190   1.029   0.187
 6468SOL     OW20302   3.821   6.396   1.747
 6468SOL    HW120303   3.744   6.348   1.790
 6468SOL    HW220304   3.813   6.495   1.765
 6469SOL     OW20305   4.854   0.372   5.163
 6469SOL    HW120306   4.887   0.361   5.257
 6469SOL    HW220307   4.847   0.282   5.120
 6470SOL     OW20308   6.003   5.346   6.743
 6470SOL    HW120309   6.001   5.388   6.652
 6470SOL    HW220310   6.093   5.306   6.759
 6471SOL     OW20311   6.862   5.705   5.822
 6471SOL    HW120312   6.918   5.705   5.740
 6471SOL    HW220313   6.781   5.648   5.808
 6472SOL     OW20314   0.485   4.606   0.947
 6472SOL    HW120315   0.581   4.593   0.922
 6472SOL    HW220316   0.427   4.566   0.875
 6473SOL     OW20317   2.131   1.658   4.057
 6473SOL    HW120318   2.140   1.609   4.143
 6473SOL    HW220319   2.128   1.756   4.075
 6474SOL     OW20320   1.898   3.505   5.857
 6474SOL    HW120321   1.916   3.416   5.816
 6474SOL    HW220322   1.850   3.563   5.791
 6475SOL     OW20323   6.933   5.080   4.651
 6475SOL    HW120324   6.925   5.159   4.591
 6475SOL    HW220325   6.917   5.109   4.746
 6476SOL     OW20326   4.244   3.687   1.664
 6476SOL    HW120327   4.232   3.751   1.589
 6476SOL    HW220328   4.205   3.598   1.640
 6477SOL     OW20329   0.161   4.613   1.498
 6477SOL    HW120330   0.208   4.544   1.444
 6477SOL    HW220331   0.210   4.700   1.491
 6478SOL     OW20332   3.539   6.262   2.443
 6478SOL    HW120333   3.443   6.286   2.427
 6478SOL    HW220334   3.544   6.193   2.515
 6479SOL     OW20335   3.952   5.572   3.498
 6479SOL    HW120336   3.868   5.527   3.468
 6479SOL    HW220337   3.955   5.573   3.598
 6480SOL     OW20338   3.369   2.753   5.552
 6480SOL    HW120339   3.364   2.719   5.458
 6480SOL    HW220340   3.374   2.852   5.552
 6481SOL     OW20341   3.095   1.907   1.947
 6481SOL    HW120342   3.024   1.952   2.001
 6481SOL    HW220343   3.114   1.960   1.865
 6482SOL     OW20344   0.241   1.039   6.109
 6482SOL    HW120345   0.331   1.021   6.070
 6482SOL    HW220346   0.185   1.089   6.043
 6483SOL     OW20347   2.351   5.733   1.497
 6483SOL    HW120348   2.289   5.667   1.454
 6483SOL    HW220349   2.298   5.811   1.531
 6484SOL     OW20350   3.848   0.447   2.849
 6484SOL    HW120351   3.767   0.469   2.795
 6484SOL    HW220352   3.820   0.403   2.934
 6485SOL     OW20353   2.098   3.565   3.898
 6485SOL    HW120354   2.139   3.655   3.913
 6485SOL    HW220355   2.133   3.501   3.966
 6486SOL     OW20356   1.193   4.564   4.090
 6486SOL    HW120357   1.270   4.597   4.035
 6486SOL    HW220358   1.108   4.607   4.058
 6487SOL     OW20359   6.777   5.830   4.980
 6487SOL    HW120360   6.686   5.815   5.021
 6487SOL    HW220361   6.767   5.876   4.892
 6488SOL     OW20362   2.674   5.599   4.992
 6488SOL    HW120363   2.619   5.681   4.979
 6488SOL    HW220364   2.769   5.624   5.009
 6489SOL     OW20365   2.688   3.652   6.713
 6489SOL    HW120366   2.629   3.594   6.769
 6489SOL    HW220367   2.761   3.691   6.770
 6490SOL     OW20368   4.202   2.734   6.826
 6490SOL    HW120369   4.126   2.772   6.774
 6490SOL    HW220370   4.194   2.635   6.830
 6491SOL     OW20371   4.280   1.124   6.830
 6491SOL    HW120372   4.308   1.151   6.738
 6491SOL    HW220373   4.291   1.202   6.892
 6492SOL     OW20374   5.775   5.902   6.838
 6492SOL    HW120375   5.820   5.931   6.922
 6492SOL    HW220376   5.767   5.981   6.776
 6493SOL     OW20377   1.757   6.307   5.064
 6493SOL    HW120378   1.735   6.240   4.993
 6493SOL    HW220379   1.854   6.329   5.060
 6494SOL     OW20380   6.944   1.360   3.222
 6494SOL    HW120381   0.006   1.392   3.189
 6494SOL    HW220382   6.952   1.334   3.318
 6495SOL     OW20383   5.261   6.528   4.685
 6495SOL    HW120384   5.169   6.563   4.669
 6495SOL    HW220385   5.328   6.590   4.645
 6496SOL     OW20386   0.277   6.542   2.504
 6496SOL    HW120387   0.229   6.472   2.451
 6496SOL    HW220388   0.212   6.590   2.562
 6497SOL     OW20389   2.523   3.264   6.767
 6497SOL    HW120390   2.593   3.328   6.800
 6497SOL    HW220391   2.534   3.176   6.811
 6498SOL     OW20392   2.221   4.368   4.009
 6498SOL    HW120393   2.297   4.338   3.952
 6498SOL    HW220394   2.256   4.397   4.098
 6499SOL     OW20395   5.879   2.173   4.984
 6499SOL    HW120396   5.854   2.109   5.057
 6499SOL    HW220397   5.960   2.224   5.011
 6500SOL     OW20398   6.999   4.260   3.594
 6500SOL    HW120399   6.932   4.293   3.529
 6500SOL    HW220400   6.986   4.162   3.609
 6501SOL     OW20401   6.813   2.374   0.192
 6501SOL    HW120402   6.888   2.313   0.215
 6501SOL    HW220403   6.746   2.325   0.135
 6502SOL     OW20404   6.433   3.896   3.064
 6502SOL    HW120405   6.447   3.861   2.972
 6502SOL    HW220406   6.519   3.928   3.102
 6503SOL     OW20407   5.478   6.959   3.661
 6503SOL    HW120408   5.416   6.962   3.583
 6503SOL    HW220409   5.455   6.880   3.719
 6504SOL     OW20410   4.989   6.463   6.131
 6504SOL    HW120411   4.962   6.545   6.182
 6504SOL    HW220412   5.034   6.400   6.194
 6505SOL     OW20413   5.470   4.497   1.761
 6505SOL    HW120414   5.525   4.510   1.678
 6505SOL    HW220415   5.485   4.405   1.797
 6506SOL     OW20416   0.124   3.148   0.720
 6506SOL    HW120417   0.134   3.049   0.732
 6506SOL    HW220418   0.178   3.196   0.789
 6507SOL     OW20419   1.667   5.994   6.012
 6507SOL    HW120420   1.637   5.950   6.097
 6507SOL    HW220421   1.766   6.001   6.011
 6508SOL     OW20422   2.325   1.726   3.352
 6508SOL    HW120423   2.387   1.779   3.295
 6508SOL    HW220424   2.359   1.633   3.361
 6509SOL     OW20425   2.370   2.521   4.408
 6509SOL    HW120426   2.312   2.593   4.369
 6509SOL    HW220427   2.322   2.434   4.404
 6510SOL     OW20428   0.129   5.256   6.738
 6510SOL    HW120429   0.213   5.229   6.785
 6510SOL    HW220430   0.098   5.344   6.773
 6511SOL     OW20431   5.283   0.956   4.963
 6511SOL    HW120432   5.287   0.899   4.881
 6511SOL    HW220433   5.209   1.023   4.954
 6512SOL     OW20434   5.073   0.305   2.843
 6512SOL    HW120435   5.046   0.365   2.767
 6512SOL    HW220436   5.135   0.354   2.904
 6513SOL     OW20437   3.160   5.383   3.113
 6513SOL    HW120438   3.194   5.379   3.019
 6513SOL    HW220439   3.220   5.441   3.168
 6514SOL     OW20440   5.976   0.355   3.311
 6514SOL    HW120441   6.010   0.371   3.219
 6514SOL    HW220442   5.907   0.282   3.310
 6515SOL     OW20443   0.499   5.004   4.073
 6515SOL    HW120444   0.493   5.025   3.975
 6515SOL    HW220445   0.586   5.036   4.109
 6516SOL     OW20446   0.294   2.683   0.608
 6516SOL    HW120447   0.310   2.723   0.518
 6516SOL    HW220448   0.360   2.610   0.625
 6517SOL     OW20449   5.923   0.978   0.752
 6517SOL    HW120450   5.886   0.946   0.838
 6517SOL    HW220451   5.849   0.992   0.686
 6518SOL     OW20452   0.417   6.373   6.454
 6518SOL    HW120453   0.392   6.380   6.550
 6518SOL    HW220454   0.354   6.429   6.399
 6519SOL     OW20455   2.539   1.777   3.113
 6519SOL    HW120456   2.450   1.772   3.067
 6519SOL    HW220457   2.574   1.871   3.108
 6520SOL     OW20458   6.613   5.828   2.798
 6520SOL    HW120459   6.691   5.851   2.740
 6520SOL    HW220460   6.646   5.780   2.879
 6521SOL     OW20461   1.180   1.470   4.362
 6521SOL    HW120462   1.166   1.521   4.277
 6521SOL    HW220463   1.146   1.523   4.439
 6522SOL     OW20464   3.309   4.533   6.887
 6522SOL    HW120465   3.267   4.520   6.797
 6522SOL    HW220466   3.249   4.497   6.957
 6523SOL     OW20467   3.223   1.016   6.454
 6523SOL    HW120468   3.198   1.082   6.525
 6523SOL    HW220469   3.212   1.059   6.364
 6524SOL     OW20470   3.291   3.004   3.067
 6524SOL    HW120471   3.321   3.077   3.128
 6524SOL    HW220472   3.341   2.920   3.089
 6525SOL     OW20473   2.209   3.048   2.768
 6525SOL    HW120474   2.176   3.142   2.769
 6525SOL    HW220475   2.148   2.992   2.712
 6526SOL     OW20476   0.836   6.562   5.279
 6526SOL    HW120477   0.821   6.603   5.369
 6526SOL    HW220478   0.792   6.472   5.276
 6527SOL     OW20479   0.642   1.719   4.510
 6527SOL    HW120480   0.608   1.811   4.487
 6527SOL    HW220481   0.715   1.694   4.446
 6528SOL     OW20482   0.290   0.482   3.585
 6528SOL    HW120483   0.267   0.529   3.671
 6528SOL    HW220484   0.252   0.534   3.508
 6529SOL     OW20485   6.397   1.598   3.385
 6529SOL    HW120486   6.479   1.601   3.441
 6529SOL    HW220487   6.390   1.509   3.340
 6530SOL     OW20488   6.540   4.013   1.060
 6530SOL    HW120489   6.533   4.097   1.006
 6530SOL    HW220490   6.636   3.985   1.065
 6531SOL     OW20491   5.183   3.415   4.505
 6531SOL    HW120492   5.223   3.462   4.584
 6531SOL    HW220493   5.217   3.458   4.421
 6532SOL     OW20494   5.703   1.329   1.018
 6532SOL    HW120495   5.790   1.326   1.068
 6532SOL    HW220496   5.629   1.310   1.082
 6533SOL     OW20497   5.282   5.903   1.720
 6533SOL    HW120498   5.266   5.928   1.815
 6533SOL    HW220499   5.205   5.849   1.686
 6534SOL     OW20500   2.840   4.688   1.634
 6534SOL    HW120501   2.810   4.623   1.703
 6534SOL    HW220502   2.940   4.689   1.631
 6535SOL     OW20503   0.193   3.288   4.221
 6535SOL    HW120504   0.153   3.372   4.258
 6535SOL    HW220505   0.223   3.229   4.297
 6536SOL     OW20506   6.530   2.115   5.751
 6536SOL    HW120507   6.499   2.027   5.787
 6536SOL    HW220508   6.597   2.099   5.678
 6537SOL     OW20509   6.215   5.710   6.847
 6537SOL    HW120510   6.122   5.684   6.821
 6537SOL    HW220511   6.232   5.684   6.942
 6538SOL     OW20512   3.851   4.481   6.893
 6538SOL    HW120513   3.812   4.427   6.967
 6538SOL    HW220514   3.784   4.548   6.861
 6539SOL     OW20515   2.998   1.452   6.085
 6539SOL    HW120516   3.065   1.470   6.156
 6539SOL    HW220517   3.010   1.359   6.050
 6540SOL     OW20518   4.686   1.765   5.324
 6540SOL    HW120519   4.586   1.765   5.317
 6540SOL    HW220520   4.712   1.779   5.419
 6541SOL     OW20521   3.913   1.923   5.087
 6541SOL    HW120522   3.958   1.834   5.084
 6541SOL    HW220523   3.863   1.938   5.001
 6542SOL     OW20524   6.822   4.497   3.719
 6542SOL    HW120525   6.900   4.438   3.700
 6542SOL    HW220526   6.852   4.593   3.720
 6543SOL     OW20527   6.276   4.092   0.091
 6543SOL    HW120528   6.179   4.080   0.073
 6543SOL    HW220529   6.324   4.112   0.005
 6544SOL     OW20530   0.483   5.934   3.451
 6544SOL    HW120531   0.465   6.017   3.505
 6544SOL    HW220532   0.397   5.889   3.429
 6545SOL     OW20533   5.520   2.289   6.737
 6545SOL    HW120534   5.475   2.372   6.768
 6545SOL    HW220535   5.478   2.259   6.651
 6546SOL     OW20536   4.583   4.710   6.278
 6546SOL    HW120537   4.522   4.657   6.336
 6546SOL    HW220538   4.659   4.745   6.333
 6547SOL     OW20539   4.318   1.775   5.901
 6547SOL    HW120540   4.398   1.829   5.874
 6547SOL    HW220541   4.347   1.700   5.961
 6548SOL     OW20542   1.085   3.607   6.600
 6548SOL    HW120543   1.009   3.575   6.657
 6548SOL    HW220544   1.135   3.527   6.565
 6549SOL     OW20545   3.506   1.447   0.488
 6549SOL    HW120546   3.602   1.420   0.485
 6549SOL    HW220547   3.456   1.387   0.550
 6550SOL     OW20548   6.908   6.145   3.354
 6550SOL    HW120549   6.950   6.155   3.444
 6550SOL    HW220550   6.925   6.052   3.320
 6551SOL     OW20551   1.885   3.751   2.156
 6551SOL    HW120552   1.967   3.808   2.166
 6551SOL    HW220553   1.878   3.719   2.061
 6552SOL     OW20554   2.230   0.386   4.908
 6552SOL    HW120555   2.199   0.476   4.939
 6552SOL    HW220556   2.325   0.372   4.936
 6553SOL     OW20557   0.320   1.734   1.996
 6553SOL    HW120558   0.356   1.703   1.908
 6553SOL    HW220559   0.222   1.717   2.000
 6554SOL     OW20560   5.625   1.819   5.679
 6554SOL    HW120561   5.637   1.873   5.762
 6554SOL    HW220562   5.584   1.731   5.702
 6555SOL     OW20563   1.382   1.793   1.695
 6555SOL    HW120564   1.368   1.801   1.793
 6555SOL    HW220565   1.387   1.696   1.669
 6556SOL     OW20566   4.433   4.733   5.138
 6556SOL    HW120567   4.408   4.715   5.233
 6556SOL    HW220568   4.396   4.661   5.079
 6557SOL     OW20569   5.422   5.505   1.502
 6557SOL    HW120570   5.369   5.580   1.462
 6557SOL    HW220571   5.461   5.535   1.589
 6558SOL     OW20572   6.075   6.091   1.372
 6558SOL    HW120573   6.149   6.090   1.305
 6558SOL    HW220574   6.082   6.172   1.429
 6559SOL     OW20575   6.563   4.232   0.292
 6559SOL    HW120576   6.495   4.220   0.364
 6559SOL    HW220577   6.530   4.192   0.207
 6560SOL     OW20578   3.741   3.053   1.660
 6560SOL    HW120579   3.737   3.111   1.579
 6560SOL    HW220580   3.678   3.089   1.730
 6561SOL     OW20581   3.437   3.889   2.148
 6561SOL    HW120582   3.445   3.826   2.070
 6561SOL    HW220583   3.348   3.878   2.191
 6562SOL     OW20584   5.899   4.861   6.655
 6562SOL    HW120585   5.860   4.811   6.578
 6562SOL    HW220586   5.964   4.929   6.621
 6563SOL     OW20587   0.418   6.475   7.015
 6563SOL    HW120588   0.477   6.552   0.012
 6563SOL    HW220589   0.437   6.399   0.051
 6564SOL     OW20590   0.535   3.819   2.179
 6564SOL    HW120591   0.455   3.793   2.233
 6564SOL    HW220592   0.506   3.866   2.096
 6565SOL     OW20593   6.411   1.996   4.246
 6565SOL    HW120594   6.312   2.005   4.239
 6565SOL    HW220595   6.453   2.087   4.246
 6566SOL     OW20596   3.722   6.928   0.987
 6566SOL    HW120597   3.637   6.889   1.023
 6566SOL    HW220598   3.733   7.021   1.021
 6567SOL     OW20599   4.183   2.408   1.342
 6567SOL    HW120600   4.232   2.355   1.273
 6567SOL    HW220601   4.245   2.427   1.419
 6568SOL     OW20602   5.159   5.044   2.975
 6568SOL    HW120603   5.222   5.122   2.981
 6568SOL    HW220604   5.148   5.018   2.879
 6569SOL     OW20605   3.353   4.812   1.225
 6569SOL    HW120606   3.311   4.785   1.311
 6569SOL    HW220607   3.424   4.880   1.243
 6570SOL     OW20608   4.682   6.807   1.295
 6570SOL    HW120609   4.591   6.817   1.335
 6570SOL    HW220610   4.745   6.870   1.339
 6571SOL     OW20611   2.472   6.564   2.222
 6571SOL    HW120612   2.561   6.593   2.258
 6571SOL    HW220613   2.465   6.588   2.125
 6572SOL     OW20614   6.529   5.013   5.379
 6572SOL    HW120615   6.486   4.957   5.450
 6572SOL    HW220616   6.628   5.007   5.387
 6573SOL     OW20617   2.956   1.550   2.485
 6573SOL    HW120618   3.030   1.543   2.419
 6573SOL    HW220619   2.979   1.497   2.567
 6574SOL     OW20620   2.723   6.024   2.499
 6574SOL    HW120621   2.801   5.988   2.552
 6574SOL    HW220622   2.725   5.985   2.407
 6575SOL     OW20623   0.926   1.490   1.333
 6575SOL    HW120624   0.829   1.466   1.329
 6575SOL    HW220625   0.955   1.524   1.244
 6576SOL     OW20626   1.306   6.526   6.733
 6576SOL    HW120627   1.255   6.578   6.665
 6576SOL    HW220628   1.251   6.449   6.765
 6577SOL     OW20629   0.268   1.512   3.629
 6577SOL    HW120630   0.288   1.551   3.540
 6577SOL    HW220631   0.182   1.550   3.664
 6578SOL     OW20632   0.236   4.578   3.027
 6578SOL    HW120633   0.302   4.631   3.079
 6578SOL    HW220634   0.176   4.641   2.977
 6579SOL     OW20635   0.120   3.896   4.479
 6579SOL    HW120636   0.076   3.925   4.395
 6579SOL    HW220637   0.125   3.974   4.542
 6580SOL     OW20638   6.457   1.218   1.529
 6580SOL    HW120639   6.399   1.143   1.496
 6580SOL    HW220640   6.422   1.305   1.494
 6581SOL     OW20641   3.638   1.016   6.167
 6581SOL    HW120642   3.624   0.922   6.198
 6581SOL    HW220643   3.689   1.067   6.236
 6582SOL     OW20644   1.488   0.576   1.675
 6582SOL    HW120645   1.411   0.565   1.738
 6582SOL    HW220646   1.564   0.518   1.704
 6583SOL     OW20647   4.072   0.822   5.738
 6583SOL    HW120648   4.129   0.852   5.662
 6583SOL    HW220649   4.020   0.741   5.710
 6584SOL     OW20650   5.201   1.689   0.169
 6584SOL    HW120651   5.236   1.770   0.122
 6584SOL    HW220652   5.127   1.716   0.231
 6585SOL     OW20653   6.261   1.234   0.411
 6585SOL    HW120654   6.197   1.198   0.478
 6585SOL    HW220655   6.214   1.303   0.354
 6586SOL     OW20656   5.916   2.468   6.043
 6586SOL    HW120657   5.820   2.493   6.029
 6586SOL    HW220658   5.972   2.550   6.046
 6587SOL     OW20659   3.052   5.341   3.846
 6587SOL    HW120660   3.063   5.413   3.777
 6587SOL    HW220661   2.993   5.374   3.920
 6588SOL     OW20662   1.954   3.922   1.427
 6588SOL    HW120663   1.925   3.853   1.493
 6588SOL    HW220664   1.980   3.877   1.341
 6589SOL     OW20665   4.453   0.548   6.397
 6589SOL    HW120666   4.497   0.576   6.483
 6589SOL    HW220667   4.356   0.528   6.415
 6590SOL     OW20668   0.780   1.681   6.091
 6590SOL    HW120669   0.780   1.778   6.068
 6590SOL    HW220670   0.765   1.669   6.189
 6591SOL     OW20671   5.657   6.095   2.499
 6591SOL    HW120672   5.641   6.113   2.402
 6591SOL    HW220673   5.669   5.996   2.513
 6592SOL     OW20674   5.467   6.482   4.427
 6592SOL    HW120675   5.388   6.424   4.446
 6592SOL    HW220676   5.551   6.430   4.443
 6593SOL     OW20677   2.471   2.477   3.413
 6593SOL    HW120678   2.401   2.417   3.451
 6593SOL    HW220679   2.555   2.471   3.467
 6594SOL     OW20680   3.716   1.193   0.662
 6594SOL    HW120681   3.667   1.137   0.595
 6594SOL    HW220682   3.761   1.133   0.728
 6595SOL     OW20683   0.421   3.525   0.326
 6595SOL    HW120684   0.401   3.579   0.244
 6595SOL    HW220685   0.345   3.533   0.390
 6596SOL     OW20686   3.982   6.870   4.565
 6596SOL    HW120687   4.033   6.865   4.479
 6596SOL    HW220688   4.013   6.949   4.618
 6597SOL     OW20689   1.569   6.294   2.969
 6597SOL    HW120690   1.529   6.324   3.055
 6597SOL    HW220691   1.663   6.263   2.985
 6598SOL     OW20692   1.284   6.192   4.701
 6598SOL    HW120693   1.271   6.272   4.760
 6598SOL    HW220694   1.204   6.180   4.642
 6599SOL     OW20695   3.723   5.196   5.451
 6599SOL    HW120696   3.746   5.292   5.432
 6599SOL    HW220697   3.679   5.156   5.371
 6600SOL     OW20698   5.102   5.654   5.643
 6600SOL    HW120699   5.086   5.572   5.588
 6600SOL    HW220700   5.182   5.641   5.700
 6601SOL     OW20701   1.040   1.147   0.591
 6601SOL    HW120702   1.138   1.134   0.608
 6601SOL    HW220703   1.021   1.133   0.494
 6602SOL     OW20704   6.210   1.587   2.084
 6602SOL    HW120705   6.255   1.636   2.159
 6602SOL    HW220706   6.221   1.489   2.097
 6603SOL     OW20707   1.004   2.838   4.160
 6603SOL    HW120708   1.067   2.760   4.159
 6603SOL    HW220709   1.040   2.909   4.221
 6604SOL     OW20710   2.581   6.313   1.457
 6604SOL    HW120711   2.564   6.257   1.376
 6604SOL    HW220712   2.523   6.395   1.452
 6605SOL     OW20713   5.058   5.158   0.791
 6605SOL    HW120714   5.055   5.121   0.884
 6605SOL    HW220715   5.024   5.252   0.791
 6606SOL     OW20716   4.760   6.857   1.963
 6606SOL    HW120717   4.743   6.812   2.051
 6606SOL    HW220718   4.786   6.952   1.979
 6607SOL     OW20719   2.241   2.355   1.294
 6607SOL    HW120720   2.309   2.380   1.363
 6607SOL    HW220721   2.150   2.382   1.325
 6608SOL     OW20722   5.355   4.843   2.059
 6608SOL    HW120723   5.327   4.819   2.152
 6608SOL    HW220724   5.281   4.823   1.995
 6609SOL     OW20725   4.620   1.137   6.378
 6609SOL    HW120726   4.634   1.131   6.477
 6609SOL    HW220727   4.590   1.048   6.343
 6610SOL     OW20728   2.252   0.381   6.652
 6610SOL    HW120729   2.200   0.467   6.647
 6610SOL    HW220730   2.297   0.364   6.565
 6611SOL     OW20731   6.690   2.495   3.508
 6611SOL    HW120732   6.630   2.503   3.588
 6611SOL    HW220733   6.685   2.579   3.454
 6612SOL     OW20734   6.906   3.253   6.768
 6612SOL    HW120735   6.820   3.293   6.798
 6612SOL    HW220736   6.980   3.320   6.779
 6613SOL     OW20737   5.800   5.891   3.846
 6613SOL    HW120738   5.776   5.922   3.938
 6613SOL    HW220739   5.883   5.835   3.850
 6614SOL     OW20740   5.118   6.283   6.907
 6614SOL    HW120741   5.126   6.298   7.005
 6614SOL    HW220742   5.203   6.310   6.861
 6615SOL     OW20743   0.973   4.281   4.301
 6615SOL    HW120744   1.050   4.341   4.321
 6615SOL    HW220745   0.989   4.235   4.213
 6616SOL     OW20746   4.436   0.974   6.129
 6616SOL    HW120747   4.504   1.011   6.067
 6616SOL    HW220748   4.480   0.921   6.201
 6617SOL     OW20749   3.259   6.072   3.216
 6617SOL    HW120750   3.224   5.981   3.238
 6617SOL    HW220751   3.190   6.141   3.239
 6618SOL     OW20752   1.116   3.434   3.015
 6618SOL    HW120753   1.188   3.365   3.001
 6618SOL    HW220754   1.123   3.469   3.109
 6619SOL     OW20755   6.521   6.930   4.903
 6619SOL    HW120756   6.522   6.879   4.817
 6619SOL    HW220757   6.496   7.025   4.884
 6620SOL     OW20758   1.986   2.605   5.316
 6620SOL    HW120759   1.964   2.695   5.355
 6620SOL    HW220760   2.018   2.617   5.222
 6621SOL     OW20761   2.579   2.950   0.102
 6621SOL    HW120762   2.580   2.992   0.192
 6621SOL    HW220763   2.564   2.851   0.112
 6622SOL     OW20764   6.083   6.447   2.121
 6622SOL    HW120765   5.987   6.427   2.139
 6622SOL    HW220766   6.135   6.361   2.119
 6623SOL     OW20767   3.253   3.430   1.258
 6623SOL    HW120768   3.186   3.371   1.214
 6623SOL    HW220769   3.243   3.424   1.357
 6624SOL     OW20770   2.168   0.384   4.087
 6624SOL    HW120771   2.125   0.355   4.172
 6624SOL    HW220772   2.173   0.307   4.024
 6625SOL     OW20773   5.432   2.161   6.487
 6625SOL    HW120774   5.456   2.251   6.453
 6625SOL    HW220775   5.515   2.105   6.495
 6626SOL     OW20776   3.677   4.898   3.745
 6626SOL    HW120777   3.701   4.995   3.754
 6626SOL    HW220778   3.750   4.849   3.698
 6627SOL     OW20779   2.331   0.636   5.653
 6627SOL    HW120780   2.329   0.584   5.739
 6627SOL    HW220781   2.379   0.722   5.669
 6628SOL     OW20782   4.974   5.240   3.684
 6628SOL    HW120783   4.907   5.167   3.668
 6628SOL    HW220784   4.988   5.292   3.600
 6629SOL     OW20785   2.565   6.187   0.236
 6629SOL    HW120786   2.633   6.144   0.296
 6629SOL    HW220787   2.578   6.286   0.238
 6630SOL     OW20788   3.541   1.566   1.212
 6630SOL    HW120789   3.545   1.663   1.190
 6630SOL    HW220790   3.620   1.519   1.173
 6631SOL     OW20791   4.395   0.368   2.170
 6631SOL    HW120792   4.371   0.420   2.088
 6631SOL    HW220793   4.322   0.377   2.238
 6632SOL     OW20794   0.135   1.091   1.529
 6632SOL    HW120795   0.074   1.142   1.589
 6632SOL    HW220796   0.082   1.048   1.456
 6633SOL     OW20797   1.592   5.305   5.749
 6633SOL    HW120798   1.556   5.216   5.721
 6633SOL    HW220799   1.588   5.369   5.671
 6634SOL     OW20800   5.618   3.506   6.012
 6634SOL    HW120801   5.632   3.409   5.990
 6634SOL    HW220802   5.703   3.544   6.048
 6635SOL     OW20803   4.297   5.498   3.304
 6635SOL    HW120804   4.250   5.414   3.277
 6635SOL    HW220805   4.295   5.507   3.403
 6636SOL     OW20806   2.874   2.040   5.988
 6636SOL    HW120807   2.924   2.048   6.073
 6636SOL    HW220808   2.806   1.967   5.995
 6637SOL     OW20809   1.651   0.241   6.347
 6637SOL    HW120810   1.623   0.298   6.270
 6637SOL    HW220811   1.571   0.196   6.386
 6638SOL     OW20812   3.983   4.951   4.978
 6638SOL    HW120813   3.968   4.949   5.076
 6638SOL    HW220814   4.072   4.910   4.956
 6639SOL     OW20815   5.662   6.410   7.015
 6639SOL    HW120816   5.685   6.440   6.923
 6639SOL    HW220817   5.743   6.368   0.032
 6640SOL     OW20818   6.800   2.160   5.622
 6640SOL    HW120819   6.781   2.143   5.525
 6640SOL    HW220820   6.837   2.252   5.633
 6641SOL     OW20821   2.185   2.821   6.471
 6641SOL    HW120822   2.246   2.886   6.518
 6641SOL    HW220823   2.240   2.753   6.423
 6642SOL     OW20824   2.754   5.344   0.750
 6642SOL    HW120825   2.808   5.387   0.822
 6642SOL    HW220826   2.815   5.302   0.683
 6643SOL     OW20827   6.572   4.520   6.671
 6643SOL    HW120828   6.629   4.449   6.711
 6643SOL    HW220829   6.497   4.543   6.733
 6644SOL     OW20830   2.670   4.826   2.007
 6644SOL    HW120831   2.743   4.880   2.049
 6644SOL    HW220832   2.695   4.730   2.007
 6645SOL     OW20833   6.994   5.033   0.384
 6645SOL    HW120834   6.968   4.948   0.430
 6645SOL    HW220835   6.989   5.109   0.448
 6646SOL     OW20836   3.966   5.980   4.557
 6646SOL    HW120837   3.915   5.966   4.472
 6646SOL    HW220838   3.964   6.077   4.581
 6647SOL     OW20839   3.659   1.454   2.115
 6647SOL    HW120840   3.572   1.493   2.147
 6647SOL    HW220841   3.735   1.511   2.148
 6648SOL     OW20842   3.151   5.726   2.180
 6648SOL    HW120843   3.188   5.818   2.169
 6648SOL    HW220844   3.067   5.717   2.126
 6649SOL     OW20845   4.963   1.624   6.729
 6649SOL    HW120846   4.983   1.688   6.655
 6649SOL    HW220847   4.870   1.589   6.719
 6650SOL     OW20848   4.320   1.385   5.320
 6650SOL    HW120849   4.348   1.421   5.409
 6650SOL    HW220850   4.227   1.416   5.300
 6651SOL     OW20851   1.567   1.901   6.742
 6651SOL    HW120852   1.545   1.995   6.718
 6651SOL    HW220853   1.666   1.891   6.750
 6652SOL     OW20854   6.428   4.804   0.478
 6652SOL    HW120855   6.438   4.895   0.438
 6652SOL    HW220856   6.341   4.799   0.528
 6653SOL     OW20857   3.725   3.167   3.106
 6653SOL    HW120858   3.644   3.110   3.119
 6653SOL    HW220859   3.716   3.217   3.020
 6654SOL     OW20860   2.143   3.218   1.083
 6654SOL    HW120861   2.189   3.307   1.079
 6654SOL    HW220862   2.155   3.179   1.174
 6655SOL     OW20863   3.187   6.811   1.600
 6655SOL    HW120864   3.263   6.753   1.627
 6655SOL    HW220865   3.195   6.900   1.645
 6656SOL     OW20866   5.982   1.530   2.781
 6656SOL    HW120867   5.973   1.629   2.784
 6656SOL    HW220868   5.927   1.490   2.854
 6657SOL     OW20869   4.852   6.166   6.511
 6657SOL    HW120870   4.798   6.250   6.502
 6657SOL    HW220871   4.866   6.146   6.609
 6658SOL     OW20872   5.995   1.738   4.977
 6658SOL    HW120873   6.067   1.680   5.016
 6658SOL    HW220874   5.971   1.706   4.886
 6659SOL     OW20875   2.559   2.403   0.359
 6659SOL    HW120876   2.631   2.439   0.300
 6659SOL    HW220877   2.599   2.343   0.428
 6660SOL     OW20878   0.141   6.208   1.029
 6660SOL    HW120879   0.238   6.231   1.030
 6660SOL    HW220880   0.088   6.292   1.015
 6661SOL     OW20881   0.648   5.326   3.986
 6661SOL    HW120882   0.594   5.314   4.069
 6661SOL    HW220883   0.586   5.334   3.907
 6662SOL     OW20884   1.905   0.234   6.500
 6662SOL    HW120885   1.811   0.214   6.472
 6662SOL    HW220886   1.950   0.289   6.430
 6663SOL     OW20887   0.003   5.423   3.114
 6663SOL    HW120888   7.012   5.365   3.035
 6663SOL    HW220889   0.094   5.463   3.108
 6664SOL     OW20890   1.650   6.656   1.337
 6664SOL    HW120891   1.649   6.652   1.237
 6664SOL    HW220892   1.728   6.605   1.372
 6665SOL     OW20893   2.249   0.483   2.668
 6665SOL    HW120894   2.150   0.482   2.681
 6665SOL    HW220895   2.290   0.551   2.729
 6666SOL     OW20896   5.934   1.652   5.977
 6666SOL    HW120897   5.997   1.592   6.025
 6666SOL    HW220898   5.906   1.610   5.891
 6667SOL     OW20899   6.905   5.332   5.313
 6667SOL    HW120900   6.869   5.360   5.402
 6667SOL    HW220901   6.889   5.404   5.246
 6668SOL     OW20902   6.817   6.023   1.653
 6668SOL    HW120903   6.727   6.004   1.614
 6668SOL    HW220904   6.872   6.073   1.585
 6669SOL     OW20905   2.243   2.765   4.338
 6669SOL    HW120906   2.178   2.802   4.271
 6669SOL    HW220907   2.272   2.837   4.400
 6670SOL     OW20908   3.565   3.487   6.455
 6670SOL    HW120909   3.536   3.531   6.540
 6670SOL    HW220910   3.626   3.411   6.475
 6671SOL     OW20911   5.444   5.705   1.245
 6671SOL    HW120912   5.542   5.687   1.255
 6671SOL    HW220913   5.409   5.748   1.328
 6672SOL     OW20914   0.996   1.930   4.981
 6672SOL    HW120915   1.054   1.867   5.033
 6672SOL    HW220916   0.900   1.904   4.993
 6673SOL     OW20917   4.558   6.239   3.293
 6673SOL    HW120918   4.553   6.310   3.364
 6673SOL    HW220919   4.531   6.277   3.205
 6674SOL     OW20920   0.708   5.417   6.700
 6674SOL    HW120921   0.788   5.384   6.750
 6674SOL    HW220922   0.720   5.396   6.602
 6675SOL     OW20923   4.583   4.025   1.667
 6675SOL    HW120924   4.626   4.082   1.597
 6675SOL    HW220925   4.522   4.081   1.723
 6676SOL     OW20926   0.262   3.865   5.598
 6676SOL    HW120927   0.219   3.803   5.532
 6676SOL    HW220928   0.356   3.884   5.569
 6677SOL     OW20929   0.263   2.881   0.137
 6677SOL    HW120930   0.185   2.883   0.076
 6677SOL    HW220931   0.347   2.894   0.085
 6678SOL     OW20932   1.642   2.534   0.180
 6678SOL    HW120933   1.578   2.521   0.256
 6678SOL    HW220934   1.730   2.493   0.203
 6679SOL     OW20935   2.547   1.839   4.239
 6679SOL    HW120936   2.526   1.763   4.300
 6679SOL    HW220937   2.527   1.926   4.286
 6680SOL     OW20938   4.313   6.551   6.261
 6680SOL    HW120939   4.310   6.623   6.192
 6680SOL    HW220940   4.234   6.560   6.322
 6681SOL     OW20941   5.215   4.740   7.007
 6681SOL    HW120942   5.280   4.664   7.008
 6681SOL    HW220943   5.157   4.734   0.061
 6682SOL     OW20944   0.862   4.131   2.466
 6682SOL    HW120945   0.922   4.207   2.488
 6682SOL    HW220946   0.819   4.147   2.377
 6683SOL     OW20947   5.153   2.724   5.995
 6683SOL    HW120948   5.056   2.736   6.014
 6683SOL    HW220949   5.203   2.711   6.081
 6684SOL     OW20950   2.183   6.858   1.012
 6684SOL    HW120951   2.137   6.821   1.092
 6684SOL    HW220952   2.116   6.896   0.949
 6685SOL     OW20953   5.443   2.605   5.471
 6685SOL    HW120954   5.466   2.665   5.547
 6685SOL    HW220955   5.473   2.511   5.492
 6686SOL     OW20956   5.157   5.655   3.547
 6686SOL    HW120957   5.205   5.603   3.618
 6686SOL    HW220958   5.067   5.680   3.580
 6687SOL     OW20959   0.597   1.834   1.652
 6687SOL    HW120960   0.696   1.837   1.645
 6687SOL    HW220961   0.567   1.888   1.731
 6688SOL     OW20962   0.222   4.287   1.860
 6688SOL    HW120963   0.161   4.213   1.889
 6688SOL    HW220964   0.273   4.321   1.939
 6689SOL     OW20965   4.138   2.805   0.568
 6689SOL    HW120966   4.185   2.854   0.642
 6689SOL    HW220967   4.047   2.778   0.599
 6690SOL     OW20968   2.572   0.971   1.899
 6690SOL    HW120969   2.623   0.965   1.985
 6690SOL    HW220970   2.583   0.886   1.848
 6691SOL     OW20971   3.235   5.503   1.650
 6691SOL    HW120972   3.264   5.433   1.584
 6691SOL    HW220973   3.258   5.594   1.615
 6692SOL     OW20974   2.747   4.702   5.319
 6692SOL    HW120975   2.749   4.793   5.278
 6692SOL    HW220976   2.803   4.640   5.264
 6693SOL     OW20977   4.935   3.580   6.319
 6693SOL    HW120978   4.983   3.654   6.367
 6693SOL    HW220979   4.989   3.553   6.239
 6694SOL     OW20980   4.871   6.184   6.973
 6694SOL    HW120981   4.969   6.197   6.957
 6694SOL    HW220982   4.819   6.226   6.899
 6695SOL     OW20983   1.498   1.884   5.795
 6695SOL    HW120984   1.518   1.949   5.869
 6695SOL    HW220985   1.572   1.886   5.728
 6696SOL     OW20986   1.681   2.348   0.396
 6696SOL    HW120987   1.626   2.336   0.479
 6696SOL    HW220988   1.637   2.302   0.319
 6697SOL     OW20989   4.348   2.430   3.295
 6697SOL    HW120990   4.312   2.364   3.229
 6697SOL    HW220991   4.357   2.519   3.252
 6698SOL     OW20992   3.477   2.473   0.286
 6698SOL    HW120993   3.474   2.565   0.325
 6698SOL    HW220994   3.397   2.460   0.227
 6699SOL     OW20995   3.679   4.694   6.842
 6699SOL    HW120996   3.727   4.775   6.807
 6699SOL    HW220997   3.613   4.722   6.911
 6700SOL     OW20998   0.178   5.780   0.911
 6700SOL    HW120999   0.100   5.840   0.899
 6700SOL    HW221000   0.256   5.833   0.945
 6701SOL     OW21001   6.141   2.864   1.417
 6701SOL    HW121002   6.137   2.941   1.481
 6701SOL    HW221003   6.233   2.825   1.417
 6702SOL     OW21004   2.716   2.554   0.015
 6702SOL    HW121005   2.757   2.623   6.982
 6702SOL    HW221006   2.634   2.592   0.059
 6703SOL     OW21007   6.501   1.988   0.036
 6703SOL    HW121008   6.416   2.006   7.012
 6703SOL    HW221009   6.480   1.941   0.121
 6704SOL     OW21010   4.313   2.388   2.722
 6704SOL    HW121011   4.254   2.323   2.673
 6704SOL    HW221012   4.352   2.452   2.656
 6705SOL     OW21013   0.181   2.061   1.858
 6705SOL    HW121014   0.270   2.085   1.897
 6705SOL    HW221015   0.117   2.040   1.932
 6706SOL     OW21016   1.002   4.275   0.635
 6706SOL    HW121017   1.061   4.195   0.639
 6706SOL    HW221018   0.957   4.279   0.545
 6707SOL     OW21019   6.849   5.524   4.723
 6707SOL    HW121020   6.772   5.588   4.724
 6707SOL    HW221021   6.831   5.451   4.657
 6708SOL     OW21022   1.785   5.677   2.626
 6708SOL    HW121023   1.831   5.611   2.567
 6708SOL    HW221024   1.689   5.650   2.638
 6709SOL     OW21025   3.164   5.911   1.347
 6709SOL    HW121026   3.214   5.875   1.426
 6709SOL    HW221027   3.134   5.835   1.289
 6710SOL     OW21028   2.088   2.167   5.908
 6710SOL    HW121029   2.162   2.230   5.882
 6710SOL    HW221030   2.081   2.095   5.839
 6711SOL     OW21031   6.123   4.632   6.741
 6711SOL    HW121032   6.154   4.538   6.752
 6711SOL    HW221033   6.083   4.665   6.827
 6712SOL     OW21034   4.594   5.405   0.484
 6712SOL    HW121035   4.683   5.444   0.463
 6712SOL    HW221036   4.523   5.453   0.432
 6713SOL     OW21037   2.193   1.724   1.350
 6713SOL    HW121038   2.257   1.745   1.423
 6713SOL    HW221039   2.169   1.808   1.301
 6714SOL     OW21040   5.300   0.766   5.606
 6714SOL    HW121041   5.355   0.825   5.664
 6714SOL    HW221042   5.284   0.811   5.518
 6715SOL     OW21043   0.179   0.717   0.180
 6715SOL    HW121044   0.257   0.718   0.243
 6715SOL    HW221045   0.095   0.705   0.232
 6716SOL     OW21046   1.075   6.588   1.887
 6716SOL    HW121047   1.130   6.618   1.809
 6716SOL    HW221048   1.094   6.492   1.906
 6717SOL     OW21049   4.796   2.733   0.754
 6717SOL    HW121050   4.888   2.693   0.747
 6717SOL    HW221051   4.733   2.664   0.792
 6718SOL     OW21052   4.061   6.159   6.353
 6718SOL    HW121053   4.149   6.186   6.313
 6718SOL    HW221054   4.032   6.227   6.419
 6719SOL     OW21055   0.390   0.265   6.282
 6719SOL    HW121056   0.365   0.169   6.298
 6719SOL    HW221057   0.486   0.269   6.253
 6720SOL     OW21058   2.343   6.276   1.862
 6720SOL    HW121059   2.427   6.249   1.814
 6720SOL    HW221060   2.359   6.274   1.960
 6721SOL     OW21061   6.074   6.718   4.634
 6721SOL    HW121062   6.099   6.698   4.729
 6721SOL    HW221063   6.120   6.802   4.604
 6722SOL     OW21064   5.086   3.153   0.871
 6722SOL    HW121065   5.173   3.189   0.902
 6722SOL    HW221066   5.024   3.144   0.949
 6723SOL     OW21067   2.397   6.949   3.390
 6723SOL    HW121068   2.299   6.930   3.398
 6723SOL    HW221069   2.443   6.927   3.476
 6724SOL     OW21070   1.277   4.292   5.603
 6724SOL    HW121071   1.289   4.278   5.702
 6724SOL    HW221072   1.220   4.219   5.566
 6725SOL     OW21073   0.984   4.251   2.026
 6725SOL    HW121074   0.922   4.304   2.083
 6725SOL    HW221075   1.014   4.307   1.948
 6726SOL     OW21076   1.665   1.959   4.279
 6726SOL    HW121077   1.602   2.031   4.309
 6726SOL    HW221078   1.625   1.910   4.201
 6727SOL     OW21079   5.614   3.990   5.773
 6727SOL    HW121080   5.662   3.947   5.696
 6727SOL    HW221081   5.522   3.951   5.781
 6728SOL     OW21082   4.350   1.243   4.859
 6728SOL    HW121083   4.305   1.154   4.853
 6728SOL    HW221084   4.394   1.264   4.771
 6729SOL     OW21085   6.523   1.586   2.617
 6729SOL    HW121086   6.455   1.646   2.574
 6729SOL    HW221087   6.496   1.568   2.712
 6730SOL     OW21088   2.242   6.724   6.707
 6730SOL    HW121089   2.165   6.660   6.712
 6730SOL    HW221090   2.271   6.734   6.611
 6731SOL     OW21091   2.522   4.497   1.096
 6731SOL    HW121092   2.599   4.541   1.049
 6731SOL    HW221093   2.450   4.476   1.029
 6732SOL     OW21094   2.870   5.858   6.554
 6732SOL    HW121095   2.942   5.836   6.619
 6732SOL    HW221096   2.910   5.901   6.473
 6733SOL     OW21097   4.524   5.321   6.365
 6733SOL    HW121098   4.608   5.314   6.311
 6733SOL    HW221099   4.498   5.230   6.397
 6734SOL     OW21100   1.028   3.300   5.807
 6734SOL    HW121101   1.084   3.382   5.797
 6734SOL    HW221102   0.950   3.305   5.744
 6735SOL     OW21103   0.445   5.624   5.325
 6735SOL    HW121104   0.541   5.596   5.321
 6735SOL    HW221105   0.389   5.564   5.269
 6736SOL     OW21106   1.911   3.599   0.622
 6736SOL    HW121107   1.966   3.680   0.603
 6736SOL    HW221108   1.872   3.565   0.536
 6737SOL     OW21109   2.337   1.758   1.018
 6737SOL    HW121110   2.327   1.857   1.016
 6737SOL    HW221111   2.383   1.727   0.935
 6738SOL     OW21112   1.712   2.758   2.053
 6738SOL    HW121113   1.804   2.745   2.015
 6738SOL    HW221114   1.677   2.670   2.086
 6739SOL     OW21115   3.174   5.725   5.768
 6739SOL    HW121116   3.177   5.660   5.692
 6739SOL    HW221117   3.267   5.749   5.796
 6740SOL     OW21118   1.946   1.319   4.333
 6740SOL    HW121119   1.954   1.305   4.432
 6740SOL    HW221120   1.857   1.361   4.313
 6741SOL     OW21121   4.480   1.647   6.109
 6741SOL    HW121122   4.568   1.637   6.063
 6741SOL    HW221123   4.495   1.673   6.204
 6742SOL     OW21124   0.320   5.596   4.106
 6742SOL    HW121125   0.359   5.679   4.066
 6742SOL    HW221126   0.373   5.569   4.186
 6743SOL     OW21127   4.247   4.091   6.382
 6743SOL    HW121128   4.318   4.027   6.352
 6743SOL    HW221129   4.164   4.075   6.328
 6744SOL     OW21130   3.821   5.542   6.089
 6744SOL    HW121131   3.825   5.627   6.141
 6744SOL    HW221132   3.904   5.489   6.103
 6745SOL     OW21133   0.709   5.252   2.768
 6745SOL    HW121134   0.712   5.345   2.733
 6745SOL    HW221135   0.719   5.254   2.868
 6746SOL     OW21136   0.265   0.839   2.211
 6746SOL    HW121137   0.268   0.892   2.296
 6746SOL    HW221138   0.319   0.886   2.140
 6747SOL     OW21139   5.708   6.291   4.227
 6747SOL    HW121140   5.777   6.267   4.159
 6747SOL    HW221141   5.753   6.331   4.307
 6748SOL     OW21142   1.043   1.011   2.462
 6748SOL    HW121143   1.059   0.920   2.424
 6748SOL    HW221144   0.986   1.004   2.543
 6749SOL     OW21145   3.090   6.848   6.924
 6749SOL    HW121146   3.173   6.869   6.976
 6749SOL    HW221147   3.049   6.933   6.891
 6750SOL     OW21148   3.730   1.744   4.807
 6750SOL    HW121149   3.786   1.762   4.726
 6750SOL    HW221150   3.635   1.771   4.788
 6751SOL     OW21151   3.137   2.137   3.665
 6751SOL    HW121152   3.224   2.131   3.617
 6751SOL    HW221153   3.071   2.186   3.607
 6752SOL     OW21154   6.440   2.454   1.645
 6752SOL    HW121155   6.352   2.412   1.622
 6752SOL    HW221156   6.425   2.526   1.714
 6753SOL     OW21157   4.423   1.651   6.827
 6753SOL    HW121158   4.364   1.689   6.756
 6753SOL    HW221159   4.387   1.563   6.857
 6754SOL     OW21160   6.471   2.198   6.171
 6754SOL    HW121161   6.379   2.160   6.157
 6754SOL    HW221162   6.472   2.249   6.257
 6755SOL     OW21163   4.984   1.535   4.062
 6755SOL    HW121164   5.080   1.558   4.043
 6755SOL    HW221165   4.955   1.580   4.146
 6756SOL     OW21166   4.809   4.142   3.983
 6756SOL    HW121167   4.761   4.212   4.035
 6756SOL    HW221168   4.818   4.059   4.038
 6757SOL     OW21169   4.878   5.813   0.357
 6757SOL    HW121170   4.969   5.786   0.326
 6757SOL    HW221171   4.862   5.910   0.335
 6758SOL     OW21172   4.922   3.547   1.884
 6758SOL    HW121173   4.865   3.560   1.803
 6758SOL    HW221174   4.895   3.462   1.930
 6759SOL     OW21175   1.365   3.844   3.982
 6759SOL    HW121176   1.410   3.855   4.070
 6759SOL    HW221177   1.410   3.770   3.931
 6760SOL     OW21178   0.186   4.954   4.888
 6760SOL    HW121179   0.132   4.869   4.891
 6760SOL    HW221180   0.256   4.947   4.818
 6761SOL     OW21181   5.701   2.885   5.892
 6761SOL    HW121182   5.768   2.941   5.938
 6761SOL    HW221183   5.622   2.941   5.866
 6762SOL     OW21184   6.457   5.349   3.309
 6762SOL    HW121185   6.393   5.293   3.363
 6762SOL    HW221186   6.529   5.383   3.369
 6763SOL     OW21187   6.327   5.803   4.056
 6763SOL    HW121188   6.344   5.881   4.115
 6763SOL    HW221189   6.241   5.816   4.007
 6764SOL     OW21190   3.239   3.771   5.925
 6764SOL    HW121191   3.263   3.699   5.989
 6764SOL    HW221192   3.233   3.733   5.832
 6765SOL     OW21193   6.364   4.927   3.599
 6765SOL    HW121194   6.373   5.023   3.576
 6765SOL    HW221195   6.279   4.891   3.562
 6766SOL     OW21196   2.266   0.301   6.171
 6766SOL    HW121197   2.321   0.339   6.097
 6766SOL    HW221198   2.184   0.357   6.184
 6767SOL     OW21199   0.337   2.150   0.448
 6767SOL    HW121200   0.276   2.156   0.527
 6767SOL    HW221201   0.300   2.207   0.374
 6768SOL     OW21202   0.599   0.721   3.710
 6768SOL    HW121203   0.617   0.623   3.714
 6768SOL    HW221204   0.561   0.744   3.620
 6769SOL     OW21205   2.999   1.854   5.228
 6769SOL    HW121206   2.902   1.876   5.227
 6769SOL    HW221207   3.051   1.935   5.254
 6770SOL     OW21208   0.270   2.901   4.085
 6770SOL    HW121209   0.238   2.995   4.072
 6770SOL    HW221210   0.246   2.846   4.006
 6771SOL     OW21211   3.636   2.090   3.280
 6771SOL    HW121212   3.539   2.099   3.256
 6771SOL    HW221213   3.691   2.090   3.197
 6772SOL     OW21214   5.344   1.673   2.687
 6772SOL    HW121215   5.313   1.742   2.752
 6772SOL    HW221216   5.298   1.686   2.600
 6773SOL     OW21217   6.885   6.615   1.537
 6773SOL    HW121218   6.919   6.582   1.449
 6773SOL    HW221219   6.787   6.596   1.544
 6774SOL     OW21220   1.791   1.660   5.093
 6774SOL    HW121221   1.845   1.742   5.112
 6774SOL    HW221222   1.755   1.665   5.000
 6775SOL     OW21223   0.817   1.760   4.042
 6775SOL    HW121224   0.735   1.806   4.076
 6775SOL    HW221225   0.837   1.790   3.949
 6776SOL     OW21226   3.861   4.129   1.103
 6776SOL    HW121227   3.790   4.176   1.051
 6776SOL    HW221228   3.893   4.049   1.052
 6777SOL     OW21229   4.711   5.530   1.370
 6777SOL    HW121230   4.647   5.478   1.314
 6777SOL    HW221231   4.663   5.568   1.449
 6778SOL     OW21232   5.475   3.149   2.570
 6778SOL    HW121233   5.508   3.206   2.646
 6778SOL    HW221234   5.553   3.103   2.527
 6779SOL     OW21235   5.832   4.207   5.755
 6779SOL    HW121236   5.825   4.257   5.842
 6779SOL    HW221237   5.750   4.151   5.743
 6780SOL     OW21238   2.268   2.432   3.083
 6780SOL    HW121239   2.197   2.497   3.055
 6780SOL    HW221240   2.356   2.460   3.045
 6781SOL     OW21241   6.413   1.294   4.200
 6781SOL    HW121242   6.330   1.345   4.221
 6781SOL    HW221243   6.406   1.202   4.239
 6782SOL     OW21244   6.845   1.606   3.087
 6782SOL    HW121245   6.848   1.517   3.133
 6782SOL    HW221246   6.751   1.638   3.082
 6783SOL     OW21247   1.250   4.958   5.470
 6783SOL    HW121248   1.225   4.879   5.526
 6783SOL    HW221249   1.176   5.025   5.471
 6784SOL     OW21250   2.266   3.342   1.505
 6784SOL    HW121251   2.197   3.270   1.504
 6784SOL    HW221252   2.329   3.327   1.580
 6785SOL     OW21253   5.397   4.731   4.872
 6785SOL    HW121254   5.463   4.800   4.900
 6785SOL    HW221255   5.371   4.675   4.951
 6786SOL     OW21256   6.337   2.555   0.996
 6786SOL    HW121257   6.427   2.597   0.995
 6786SOL    HW221258   6.342   2.465   0.952
 6787SOL     OW21259   3.752   2.398   0.367
 6787SOL    HW121260   3.788   2.463   0.434
 6787SOL    HW221261   3.654   2.412   0.356
 6788SOL     OW21262   0.629   3.781   3.464
 6788SOL    HW121263   0.612   3.756   3.559
 6788SOL    HW221264   0.551   3.755   3.407
 6789SOL     OW21265   6.992   3.750   4.169
 6789SOL    HW121266   7.008   3.848   4.175
 6789SOL    HW221267   6.940   3.729   4.086
 6790SOL     OW21268   1.056   4.779   6.138
 6790SOL    HW121269   1.125   4.757   6.207
 6790SOL    HW221270   1.092   4.753   6.048
 6791SOL     OW21271   4.411   1.669   4.031
 6791SOL    HW121272   4.477   1.600   4.058
 6791SOL    HW221273   4.440   1.759   4.065
 6792SOL     OW21274   4.633   6.983   5.384
 6792SOL    HW121275   4.544   6.971   5.428
 6792SOL    HW221276   4.702   6.931   5.435
 6793SOL     OW21277   2.236   2.951   0.232
 6793SOL    HW121278   2.246   2.860   0.192
 6793SOL    HW221279   2.327   2.991   0.247
 6794SOL     OW21280   4.495   1.318   5.881
 6794SOL    HW121281   4.572   1.365   5.838
 6794SOL    HW221282   4.452   1.257   5.814
 6795SOL     OW21283   1.119   1.041   1.060
 6795SOL    HW121284   1.143   1.114   0.996
 6795SOL    HW221285   1.133   1.072   1.154
 6796SOL     OW21286   5.818   1.768   2.076
 6796SOL    HW121287   5.854   1.843   2.021
 6796SOL    HW221288   5.747   1.720   2.024
 6797SOL     OW21289   0.622   2.409   1.597
 6797SOL    HW121290   0.649   2.342   1.528
 6797SOL    HW221291   0.524   2.405   1.612
 6798SOL     OW21292   5.754   0.628   2.165
 6798SOL    HW121293   5.686   0.603   2.097
 6798SOL    HW221294   5.797   0.714   2.139
 6799SOL     OW21295   5.170   6.916   2.909
 6799SOL    HW121296   5.190   6.831   2.861
 6799SOL    HW221297   5.074   6.915   2.939
 6800SOL     OW21298   0.988   1.026   1.585
 6800SOL    HW121299   1.072   0.976   1.564
 6800SOL    HW221300   0.910   0.977   1.547
 6801SOL     OW21301   1.024   6.415   5.062
 6801SOL    HW121302   0.942   6.430   5.116
 6801SOL    HW221303   1.059   6.502   5.028
 6802SOL     OW21304   3.286   5.773   1.654
 6802SOL    HW121305   3.376   5.731   1.645
 6802SOL    HW221306   3.292   5.848   1.720
 6803SOL     OW21307   5.270   5.028   7.019
 6803SOL    HW121308   5.229   4.937   7.025
 6803SOL    HW221309   5.288   5.063   0.085
 6804SOL     OW21310   2.414   4.482   2.960
 6804SOL    HW121311   2.434   4.456   2.865
 6804SOL    HW221312   2.315   4.489   2.973
 6805SOL     OW21313   0.799   4.790   5.886
 6805SOL    HW121314   0.755   4.734   5.956
 6805SOL    HW221315   0.746   4.785   5.801
 6806SOL     OW21316   6.510   0.425   3.448
 6806SOL    HW121317   6.530   0.523   3.453
 6806SOL    HW221318   6.412   0.411   3.438
 6807SOL     OW21319   3.418   3.741   2.507
 6807SOL    HW121320   3.440   3.702   2.596
 6807SOL    HW221321   3.478   3.819   2.489
 6808SOL     OW21322   4.230   1.829   5.161
 6808SOL    HW121323   4.188   1.903   5.213
 6808SOL    HW221324   4.320   1.809   5.199
 6809SOL     OW21325   6.040   4.701   2.140
 6809SOL    HW121326   5.943   4.719   2.124
 6809SOL    HW221327   6.052   4.608   2.173
 6810SOL     OW21328   2.668   1.168   3.291
 6810SOL    HW121329   2.676   1.198   3.196
 6810SOL    HW221330   2.634   1.074   3.294
 6811SOL     OW21331   6.284   1.700   2.558
 6811SOL    HW121332   6.195   1.715   2.516
 6811SOL    HW221333   6.273   1.691   2.657
 6812SOL     OW21334   2.901   3.882   5.169
 6812SOL    HW121335   2.937   3.969   5.202
 6812SOL    HW221336   2.815   3.861   5.216
 6813SOL     OW21337   5.144   3.443   1.436
 6813SOL    HW121338   5.163   3.358   1.387
 6813SOL    HW221339   5.086   3.423   1.515
 6814SOL     OW21340   4.165   1.383   6.316
 6814SOL    HW121341   4.246   1.380   6.257
 6814SOL    HW221342   4.085   1.351   6.265
 6815SOL     OW21343   2.064   5.114   6.554
 6815SOL    HW121344   1.969   5.091   6.528
 6815SOL    HW221345   2.115   5.029   6.569
 6816SOL     OW21346   0.602   1.961   4.388
 6816SOL    HW121347   0.643   2.051   4.373
 6816SOL    HW221348   0.506   1.972   4.412
 6817SOL     OW21349   3.205   2.157   2.401
 6817SOL    HW121350   3.215   2.152   2.500
 6817SOL    HW221351   3.116   2.196   2.378
 6818SOL     OW21352   2.051   6.247   6.211
 6818SOL    HW121353   2.121   6.210   6.150
 6818SOL    HW221354   2.073   6.342   6.233
 6819SOL     OW21355   4.698   4.692   3.303
 6819SOL    HW121356   4.605   4.671   3.273
 6819SOL    HW221357   4.763   4.663   3.232
 6820SOL     OW21358   2.103   6.284   1.558
 6820SOL    HW121359   2.012   6.261   1.524
 6820SOL    HW221360   2.094   6.334   1.644
 6821SOL     OW21361   4.411   2.941   5.336
 6821SOL    HW121362   4.499   2.979   5.308
 6821SOL    HW221363   4.339   3.007   5.316
 6822SOL     OW21364   0.163   2.534   6.404
 6822SOL    HW121365   0.227   2.587   6.460
 6822SOL    HW221366   0.086   2.592   6.377
 6823SOL     OW21367   5.591   3.353   6.966
 6823SOL    HW121368   5.500   3.372   6.929
 6823SOL    HW221369   5.648   3.434   6.956
 6824SOL     OW21370   1.384   1.690   6.698
 6824SOL    HW121371   1.423   1.599   6.685
 6824SOL    HW221372   1.450   1.760   6.669
 6825SOL     OW21373   0.185   5.852   1.570
 6825SOL    HW121374   0.187   5.795   1.488
 6825SOL    HW221375   0.104   5.829   1.624
 6826SOL     OW21376   1.094   3.701   3.289
 6826SOL    HW121377   1.012   3.698   3.346
 6826SOL    HW221378   1.133   3.609   3.281
 6827SOL     OW21379   4.458   5.580   4.703
 6827SOL    HW121380   4.447   5.557   4.606
 6827SOL    HW221381   4.397   5.523   4.757
 6828SOL     OW21382   3.777   1.653   3.072
 6828SOL    HW121383   3.809   1.733   3.122
 6828SOL    HW221384   3.752   1.580   3.136
 6829SOL     OW21385   5.451   6.459   4.901
 6829SOL    HW121386   5.374   6.496   4.849
 6829SOL    HW221387   5.453   6.359   4.890
 6830SOL     OW21388   5.706   0.739   3.174
 6830SOL    HW121389   5.714   0.819   3.114
 6830SOL    HW221390   5.739   0.658   3.127
 6831SOL     OW21391   1.455   1.077   5.838
 6831SOL    HW121392   1.396   1.151   5.806
 6831SOL    HW221393   1.500   1.105   5.923
 6832SOL     OW21394   2.934   2.166   0.403
 6832SOL    HW121395   2.887   2.231   0.463
 6832SOL    HW221396   3.020   2.206   0.371
 6833SOL     OW21397   2.859   5.204   5.890
 6833SOL    HW121398   2.802   5.276   5.930
 6833SOL    HW221399   2.816   5.171   5.805
 6834SOL     OW21400   5.032   6.970   0.789
 6834SOL    HW121401   5.056   6.901   0.857
 6834SOL    HW221402   5.016   6.926   0.700
 6835SOL     OW21403   3.357   1.993   4.490
 6835SOL    HW121404   3.420   2.036   4.554
 6835SOL    HW221405   3.277   2.052   4.476
 6836SOL     OW21406   1.823   4.973   6.525
 6836SOL    HW121407   1.837   4.875   6.514
 6836SOL    HW221408   1.769   5.008   6.449
 6837SOL     OW21409   0.924   0.566   1.980
 6837SOL    HW121410   0.883   0.610   2.059
 6837SOL    HW221411   0.990   0.629   1.937
 6838SOL     OW21412   2.778   4.398   5.337
 6838SOL    HW121413   2.836   4.443   5.269
 6838SOL    HW221414   2.716   4.465   5.378
 6839SOL     OW21415   5.290   2.596   3.911
 6839SOL    HW121416   5.298   2.568   4.007
 6839SOL    HW221417   5.250   2.687   3.907
 6840SOL     OW21418   2.624   6.665   4.786
 6840SOL    HW121419   2.641   6.663   4.688
 6840SOL    HW221420   2.712   6.668   4.834
 6841SOL     OW21421   3.851   5.606   2.251
 6841SOL    HW121422   3.754   5.623   2.272
 6841SOL    HW221423   3.870   5.633   2.157
 6842SOL     OW21424   0.486   3.453   7.005
 6842SOL    HW121425   0.438   3.376   6.964
 6842SOL    HW221426   0.526   3.425   0.066
 6843SOL     OW21427   3.918   2.352   1.712
 6843SOL    HW121428   3.976   2.395   1.781
 6843SOL    HW221429   3.833   2.322   1.754
 6844SOL     OW21430   4.835   5.215   4.158
 6844SOL    HW121431   4.887   5.257   4.232
 6844SOL    HW221432   4.888   5.141   4.117
 6845SOL     OW21433   4.620   5.103   2.566
 6845SOL    HW121434   4.590   5.044   2.491
 6845SOL    HW221435   4.609   5.199   2.539
 6846SOL     OW21436   3.540   3.129   2.352
 6846SOL    HW121437   3.517   3.033   2.339
 6846SOL    HW221438   3.466   3.186   2.315
 6847SOL     OW21439   4.964   3.935   1.570
 6847SOL    HW121440   4.961   3.836   1.554
 6847SOL    HW221441   4.894   3.960   1.636
 6848SOL     OW21442   0.649   5.187   4.613
 6848SOL    HW121443   0.728   5.210   4.557
 6848SOL    HW221444   0.657   5.093   4.645
 6849SOL     OW21445   3.755   5.819   4.075
 6849SOL    HW121446   3.720   5.732   4.041
 6849SOL    HW221447   3.682   5.866   4.125
 6850SOL     OW21448   5.651   2.352   3.645
 6850SOL    HW121449   5.634   2.292   3.566
 6850SOL    HW221450   5.652   2.447   3.615
 6851SOL     OW21451   1.606   5.193   6.068
 6851SOL    HW121452   1.654   5.266   6.119
 6851SOL    HW221453   1.547   5.235   5.999
 6852SOL     OW21454   0.912   4.200   1.390
 6852SOL    HW121455   0.895   4.111   1.434
 6852SOL    HW221456   0.826   4.238   1.357
 6853SOL     OW21457   0.887   5.598   5.722
 6853SOL    HW121458   0.830   5.534   5.775
 6853SOL    HW221459   0.981   5.564   5.719
 6854SOL     OW21460   6.460   1.639   5.860
 6854SOL    HW121461   6.492   1.693   5.938
 6854SOL    HW221462   6.419   1.554   5.893
 6855SOL     OW21463   4.227   0.048   2.679
 6855SOL    HW121464   4.181   0.135   2.664
 6855SOL    HW221465   4.160   6.999   2.678
 6856SOL     OW21466   6.546   3.811   4.595
 6856SOL    HW121467   6.559   3.746   4.520
 6856SOL    HW221468   6.563   3.765   4.682
 6857SOL     OW21469   3.095   2.014   6.184
 6857SOL    HW121470   3.073   1.952   6.109
 6857SOL    HW221471   3.180   1.986   6.227
 6858SOL     OW21472   4.152   3.687   4.710
 6858SOL    HW121473   4.176   3.607   4.656
 6858SOL    HW221474   4.127   3.762   4.649
 6859SOL     OW21475   2.445   6.817   1.026
 6859SOL    HW121476   2.471   6.748   0.958
 6859SOL    HW221477   2.346   6.829   1.025
 6860SOL     OW21478   5.511   4.896   1.529
 6860SOL    HW121479   5.512   4.993   1.553
 6860SOL    HW221480   5.428   4.853   1.564
 6861SOL     OW21481   5.488   5.830   0.297
 6861SOL    HW121482   5.448   5.800   0.210
 6861SOL    HW221483   5.501   5.751   0.357
 6862SOL     OW21484   2.929   5.264   5.151
 6862SOL    HW121485   2.856   5.324   5.185
 6862SOL    HW221486   2.961   5.204   5.225
 6863SOL     OW21487   6.189   1.442   4.275
 6863SOL    HW121488   6.127   1.439   4.353
 6863SOL    HW221489   6.226   1.534   4.265
 6864SOL     OW21490   2.698   5.726   3.330
 6864SOL    HW121491   2.626   5.777   3.377
 6864SOL    HW221492   2.785   5.775   3.339
 6865SOL     OW21493   6.398   3.942   4.825
 6865SOL    HW121494   6.427   3.853   4.788
 6865SOL    HW221495   6.479   4.000   4.838
 6866SOL     OW21496   0.064   3.781   1.994
 6866SOL    HW121497   7.015   3.754   2.054
 6866SOL    HW221498   0.122   3.848   2.041
 6867SOL     OW21499   1.455   4.852   1.873
 6867SOL    HW121500   1.537   4.800   1.851
 6867SOL    HW221501   1.464   4.892   1.964
 6868SOL     OW21502   1.936   6.236   4.530
 6868SOL    HW121503   1.850   6.280   4.506
 6868SOL    HW221504   1.995   6.302   4.577
 6869SOL     OW21505   5.435   2.624   5.169
 6869SOL    HW121506   5.528   2.605   5.139
 6869SOL    HW221507   5.436   2.658   5.263
 6870SOL     OW21508   5.692   3.529   3.335
 6870SOL    HW121509   5.756   3.452   3.342
 6870SOL    HW221510   5.741   3.610   3.302
 6871SOL     OW21511   6.110   4.267   1.529
 6871SOL    HW121512   6.146   4.223   1.447
 6871SOL    HW221513   6.066   4.198   1.587
 6872SOL     OW21514   1.740   3.636   1.156
 6872SOL    HW121515   1.746   3.550   1.106
 6872SOL    HW221516   1.761   3.620   1.253
 6873SOL     OW21517   5.968   2.898   5.707
 6873SOL    HW121518   5.931   2.978   5.659
 6873SOL    HW221519   6.042   2.928   5.768
 6874SOL     OW21520   6.871   3.116   3.891
 6874SOL    HW121521   6.879   3.216   3.897
 6874SOL    HW221522   6.929   3.083   3.817
 6875SOL     OW21523   1.140   1.599   2.804
 6875SOL    HW121524   1.087   1.552   2.734
 6875SOL    HW221525   1.223   1.547   2.824
 6876SOL     OW21526   3.440   5.736   6.895
 6876SOL    HW121527   3.495   5.662   6.855
 6876SOL    HW221528   3.437   5.725   6.994
 6877SOL     OW21529   2.416   3.998   6.838
 6877SOL    HW121530   2.510   3.972   6.859
 6877SOL    HW221531   2.415   4.090   6.799
 6878SOL     OW21532   2.321   1.565   5.625
 6878SOL    HW121533   2.262   1.588   5.702
 6878SOL    HW221534   2.382   1.641   5.605
 6879SOL     OW21535   0.229   1.928   6.843
 6879SOL    HW121536   0.160   1.855   6.849
 6879SOL    HW221537   0.319   1.891   6.865
 6880SOL     OW21538   2.203   4.247   5.224
 6880SOL    HW121539   2.205   4.157   5.182
 6880SOL    HW221540   2.274   4.304   5.183
 6881SOL     OW21541   0.173   4.331   0.936
 6881SOL    HW121542   0.244   4.303   1.001
 6881SOL    HW221543   0.210   4.403   0.876
 6882SOL     OW21544   2.002   1.063   4.692
 6882SOL    HW121545   2.036   1.051   4.786
 6882SOL    HW221546   1.946   0.984   4.667
 6883SOL     OW21547   3.937   6.720   1.089
 6883SOL    HW121548   4.004   6.784   1.127
 6883SOL    HW221549   3.857   6.771   1.056
 6884SOL     OW21550   2.323   4.346   4.619
 6884SOL    HW121551   2.280   4.422   4.667
 6884SOL    HW221552   2.422   4.355   4.625
 6885SOL     OW21553   2.830   5.915   3.071
 6885SOL    HW121554   2.748   5.971   3.056
 6885SOL    HW221555   2.858   5.922   3.166
 6886SOL     OW21556   4.918   1.277   2.506
 6886SOL    HW121557   4.914   1.376   2.492
 6886SOL    HW221558   5.003   1.241   2.466
 6887SOL     OW21559   5.904   0.162   5.203
 6887SOL    HW121560   5.873   0.141   5.296
 6887SOL    HW221561   5.827   0.156   5.140
 6888SOL     OW21562   6.207   0.617   5.075
 6888SOL    HW121563   6.240   0.548   5.011
 6888SOL    HW221564   6.137   0.577   5.134
 6889SOL     OW21565   0.877   2.650   5.876
 6889SOL    HW121566   0.894   2.697   5.790
 6889SOL    HW221567   0.816   2.704   5.933
 6890SOL     OW21568   2.566   0.463   0.904
 6890SOL    HW121569   2.664   0.454   0.919
 6890SOL    HW221570   2.526   0.372   0.892
 6891SOL     OW21571   2.147   3.687   4.975
 6891SOL    HW121572   2.155   3.716   5.070
 6891SOL    HW221573   2.068   3.732   4.933
 6892SOL     OW21574   4.040   0.126   4.364
 6892SOL    HW121575   4.002   0.164   4.448
 6892SOL    HW221576   4.130   0.167   4.346
 6893SOL     OW21577   5.212   5.748   3.123
 6893SOL    HW121578   5.194   5.756   3.025
 6893SOL    HW221579   5.179   5.830   3.170
 6894SOL     OW21580   6.326   5.608   0.452
 6894SOL    HW121581   6.235   5.621   0.413
 6894SOL    HW221582   6.394   5.609   0.378
 6895SOL     OW21583   2.831   4.008   0.169
 6895SOL    HW121584   2.775   3.953   0.231
 6895SOL    HW221585   2.869   4.086   0.220
 6896SOL     OW21586   3.331   0.622   3.662
 6896SOL    HW121587   3.357   0.598   3.756
 6896SOL    HW221588   3.276   0.706   3.664
 6897SOL     OW21589   3.160   3.324   0.329
 6897SOL    HW121590   3.156   3.315   0.230
 6897SOL    HW221591   3.239   3.273   0.364
 6898SOL     OW21592   4.113   0.550   1.669
 6898SOL    HW121593   4.042   0.523   1.735
 6898SOL    HW221594   4.203   0.527   1.705
 6899SOL     OW21595   5.568   0.133   6.436
 6899SOL    HW121596   5.616   0.058   6.391
 6899SOL    HW221597   5.477   0.103   6.464
 6900SOL     OW21598   5.556   0.826   5.874
 6900SOL    HW121599   5.488   0.816   5.947
 6900SOL    HW221600   5.524   0.896   5.809
 6901SOL     OW21601   0.657   0.282   6.205
 6901SOL    HW121602   0.735   0.279   6.267
 6901SOL    HW221603   0.686   0.315   6.115
 6902SOL     OW21604   0.845   0.234   0.091
 6902SOL    HW121605   0.789   0.169   0.142
 6902SOL    HW221606   0.939   0.231   0.125
 6903SOL     OW21607   3.605   3.551   0.134
 6903SOL    HW121608   3.703   3.533   0.140
 6903SOL    HW221609   3.555   3.464   0.137
 6904SOL     OW21610   6.648   0.961   3.759
 6904SOL    HW121611   6.705   0.895   3.808
 6904SOL    HW221612   6.560   0.919   3.737
 6905SOL     OW21613   6.508   6.518   0.685
 6905SOL    HW121614   6.470   6.585   0.622
 6905SOL    HW221615   6.501   6.552   0.779
 6906SOL     OW21616   3.943   1.157   4.105
 6906SOL    HW121617   4.037   1.128   4.121
 6906SOL    HW221618   3.910   1.117   4.019
 6907SOL     OW21619   3.819   1.102   1.017
 6907SOL    HW121620   3.736   1.154   0.996
 6907SOL    HW221621   3.850   1.055   0.935
 6908SOL     OW21622   1.229   0.402   5.732
 6908SOL    HW121623   1.130   0.412   5.724
 6908SOL    HW221624   1.271   0.411   5.642
 6909SOL     OW21625   4.252   5.299   1.070
 6909SOL    HW121626   4.317   5.234   1.109
 6909SOL    HW221627   4.279   5.321   0.976
 6910SOL     OW21628   6.305   1.314   2.536
 6910SOL    HW121629   6.384   1.368   2.507
 6910SOL    HW221630   6.291   1.326   2.635
 6911SOL     OW21631   4.120   0.389   4.102
 6911SOL    HW121632   4.055   0.325   4.061
 6911SOL    HW221633   4.070   0.465   4.144
 6912SOL     OW21634   4.525   4.890   1.577
 6912SOL    HW121635   4.483   4.881   1.667
 6912SOL    HW221636   4.456   4.874   1.507
 6913SOL     OW21637   4.932   4.479   4.572
 6913SOL    HW121638   5.008   4.545   4.573
 6913SOL    HW221639   4.864   4.508   4.504
 6914SOL     OW21640   5.951   5.380   0.161
 6914SOL    HW121641   5.882   5.429   0.107
 6914SOL    HW221642   6.010   5.327   0.100
 6915SOL     OW21643   0.538   4.734   2.558
 6915SOL    HW121644   0.479   4.677   2.614
 6915SOL    HW221645   0.631   4.732   2.594
 6916SOL     OW21646   6.589   4.108   6.557
 6916SOL    HW121647   6.520   4.036   6.565
 6916SOL    HW221648   6.639   4.096   6.471
 6917SOL     OW21649   4.765   5.750   6.011
 6917SOL    HW121650   4.704   5.793   5.945
 6917SOL    HW221651   4.771   5.807   6.093
 6918SOL     OW21652   0.419   3.584   4.253
 6918SOL    HW121653   0.356   3.548   4.321
 6918SOL    HW221654   0.452   3.674   4.281
 6919SOL     OW21655   1.789   6.094   2.323
 6919SOL    HW121656   1.735   6.098   2.238
 6919SOL    HW221657   1.727   6.096   2.401
 6920SOL     OW21658   4.986   5.313   5.045
 6920SOL    HW121659   5.085   5.324   5.042
 6920SOL    HW221660   4.949   5.367   5.120
 6921SOL     OW21661   6.353   5.878   3.282
 6921SOL    HW121662   6.280   5.928   3.329
 6921SOL    HW221663   6.320   5.787   3.256
 6922SOL     OW21664   1.836   6.214   0.082
 6922SOL    HW121665   1.759   6.240   0.023
 6922SOL    HW221666   1.867   6.123   0.057
 6923SOL     OW21667   4.430   6.624   3.863
 6923SOL    HW121668   4.426   6.652   3.959
 6923SOL    HW221669   4.465   6.531   3.856
 6924SOL     OW21670   0.754   4.603   0.349
 6924SOL    HW121671   0.738   4.567   0.441
 6924SOL    HW221672   0.706   4.547   0.282
 6925SOL     OW21673   3.784   6.245   3.762
 6925SOL    HW121674   3.726   6.214   3.687
 6925SOL    HW221675   3.778   6.181   3.838
 6926SOL     OW21676   3.983   3.953   3.627
 6926SOL    HW121677   3.948   3.977   3.536
 6926SOL    HW221678   4.009   4.036   3.675
 6927SOL     OW21679   5.040   4.167   6.272
 6927SOL    HW121680   4.962   4.144   6.214
 6927SOL    HW221681   5.019   4.146   6.367
 6928SOL     OW21682   4.382   0.126   6.400
 6928SOL    HW121683   4.324   0.190   6.351
 6928SOL    HW221684   4.476   0.160   6.403
 6929SOL     OW21685   4.632   6.659   6.400
 6929SOL    HW121686   4.567   6.625   6.332
 6929SOL    HW221687   4.592   6.737   6.448
 6930SOL     OW21688   0.276   6.575   2.107
 6930SOL    HW121689   0.368   6.538   2.118
 6930SOL    HW221690   0.280   6.662   2.058
 6931SOL     OW21691   0.381   0.345   1.579
 6931SOL    HW121692   0.472   0.304   1.592
 6931SOL    HW221693   0.319   0.277   1.542
 6932SOL     OW21694   3.263   0.858   6.709
 6932SOL    HW121695   3.193   0.877   6.641
 6932SOL    HW221696   3.279   0.759   6.714
 6933SOL     OW21697   3.620   5.706   5.007
 6933SOL    HW121698   3.687   5.632   5.001
 6933SOL    HW221699   3.532   5.669   5.039
 6934SOL     OW21700   5.271   3.080   7.003
 6934SOL    HW121701   5.208   3.119   6.936
 6934SOL    HW221702   5.225   3.005   0.025
 6935SOL     OW21703   4.358   6.000   3.275
 6935SOL    HW121704   4.303   5.974   3.355
 6935SOL    HW221705   4.405   6.086   3.294
 6936SOL     OW21706   0.004   1.898   2.064
 6936SOL    HW121707   6.931   1.911   2.057
 6936SOL    HW221708   0.029   1.891   2.161
 6937SOL     OW21709   4.725   6.392   6.500
 6937SOL    HW121710   4.697   6.358   6.410
 6937SOL    HW221711   4.712   6.491   6.503
 6938SOL     OW21712   5.054   4.011   5.769
 6938SOL    HW121713   5.063   3.973   5.861
 6938SOL    HW221714   5.015   3.943   5.708
 6939SOL     OW21715   0.340   4.654   2.367
 6939SOL    HW121716   0.391   4.676   2.451
 6939SOL    HW221717   0.254   4.609   2.391
 6940SOL     OW21718   4.630   0.587   0.261
 6940SOL    HW121719   4.652   0.665   0.203
 6940SOL    HW221720   4.552   0.538   0.223
 6941SOL     OW21721   3.529   3.465   1.973
 6941SOL    HW121722   3.444   3.516   1.983
 6941SOL    HW221723   3.541   3.437   1.878
 6942SOL     OW21724   0.104   2.478   0.588
 6942SOL    HW121725   0.179   2.537   0.617
 6942SOL    HW221726   0.120   2.385   0.621
 6943SOL     OW21727   5.261   6.723   6.270
 6943SOL    HW121728   5.335   6.733   6.337
 6943SOL    HW221729   5.261   6.630   6.234
 6944SOL     OW21730   1.524   5.924   5.230
 6944SOL    HW121731   1.491   5.984   5.157
 6944SOL    HW221732   1.528   5.975   5.316
 6945SOL     OW21733   6.230   3.575   6.631
 6945SOL    HW121734   6.138   3.611   6.617
 6945SOL    HW221735   6.279   3.572   6.544
 6946SOL     OW21736   5.854   5.020   2.394
 6946SOL    HW121737   5.898   4.935   2.424
 6946SOL    HW221738   5.766   5.030   2.442
 6947SOL     OW21739   4.069   7.020   3.528
 6947SOL    HW121740   4.131   6.962   3.476
 6947SOL    HW221741   4.022   6.966   3.598
 6948SOL     OW21742   4.957   0.569   0.471
 6948SOL    HW121743   5.033   0.509   0.494
 6948SOL    HW221744   4.871   0.524   0.495
 6949SOL     OW21745   4.797   6.515   3.147
 6949SOL    HW121746   4.860   6.577   3.193
 6949SOL    HW221747   4.836   6.423   3.145
 6950SOL     OW21748   2.254   0.414   2.996
 6950SOL    HW121749   2.289   0.490   2.942
 6950SOL    HW221750   2.269   0.433   3.093
 6951SOL     OW21751   6.701   6.416   6.101
 6951SOL    HW121752   6.800   6.408   6.100
 6951SOL    HW221753   6.673   6.499   6.053
 6952SOL     OW21754   6.952   4.987   3.396
 6952SOL    HW121755   6.981   5.083   3.402
 6952SOL    HW221756   7.015   4.930   3.450
 6953SOL     OW21757   5.008   0.962   5.830
 6953SOL    HW121758   5.006   0.864   5.848
 6953SOL    HW221759   5.103   0.992   5.819
 6954SOL     OW21760   0.626   3.176   4.001
 6954SOL    HW121761   0.696   3.139   4.063
 6954SOL    HW221762   0.580   3.252   4.046
 6955SOL     OW21763   6.589   0.005   1.803
 6955SOL    HW121764   6.576   0.103   1.818
 6955SOL    HW221765   6.641   6.992   1.880
 6956SOL     OW21766   4.432   5.461   2.259
 6956SOL    HW121767   4.494   5.441   2.183
 6956SOL    HW221768   4.341   5.479   2.224
 6957SOL     OW21769   6.781   4.922   1.443
 6957SOL    HW121770   6.794   4.955   1.350
 6957SOL    HW221771   6.685   4.894   1.456
 6958SOL     OW21772   2.213   2.400   5.823
 6958SOL    HW121773   2.234   2.440   5.912
 6958SOL    HW221774   2.298   2.378   5.775
 6959SOL     OW21775   3.267   1.303   4.876
 6959SOL    HW121776   3.243   1.399   4.862
 6959SOL    HW221777   3.356   1.297   4.921
 6960SOL     OW21778   0.242   4.952   0.271
 6960SOL    HW121779   0.237   4.944   0.171
 6960SOL    HW221780   0.149   4.963   0.308
 6961SOL     OW21781   0.573   2.280   3.410
 6961SOL    HW121782   0.551   2.304   3.505
 6961SOL    HW221783   0.664   2.315   3.388
 6962SOL     OW21784   5.710   5.035   2.893
 6962SOL    HW121785   5.744   4.952   2.851
 6962SOL    HW221786   5.661   5.013   2.978
 6963SOL     OW21787   0.027   5.420   1.238
 6963SOL    HW121788   0.109   5.378   1.276
 6963SOL    HW221789   7.017   5.487   1.303
 6964SOL     OW21790   4.643   4.900   5.391
 6964SOL    HW121791   4.655   4.984   5.443
 6964SOL    HW221792   4.576   4.914   5.319
 6965SOL     OW21793   6.296   3.447   6.019
 6965SOL    HW121794   6.340   3.462   5.931
 6965SOL    HW221795   6.287   3.534   6.068
 6966SOL     OW21796   5.390   2.791   2.999
 6966SOL    HW121797   5.367   2.775   2.903
 6966SOL    HW221798   5.367   2.886   3.022
 6967SOL     OW21799   1.664   1.772   5.322
 6967SOL    HW121800   1.743   1.819   5.360
 6967SOL    HW221801   1.687   1.734   5.232
 6968SOL     OW21802   4.013   6.212   1.082
 6968SOL    HW121803   4.064   6.266   1.148
 6968SOL    HW221804   4.019   6.256   0.992
 6969SOL     OW21805   3.918   1.645   1.815
 6969SOL    HW121806   3.934   1.678   1.721
 6969SOL    HW221807   3.895   1.548   1.813
 6970SOL     OW21808   3.966   3.961   0.900
 6970SOL    HW121809   4.033   3.908   0.849
 6970SOL    HW221810   3.879   3.960   0.851
 6971SOL     OW21811   6.582   2.652   2.030
 6971SOL    HW121812   6.650   2.580   2.038
 6971SOL    HW221813   6.624   2.733   1.989
 6972SOL     OW21814   5.343   4.362   4.364
 6972SOL    HW121815   5.291   4.390   4.283
 6972SOL    HW221816   5.405   4.287   4.340
 6973SOL     OW21817   1.678   4.804   4.959
 6973SOL    HW121818   1.609   4.745   4.916
 6973SOL    HW221819   1.765   4.755   4.963
 6974SOL     OW21820   3.727   3.326   3.563
 6974SOL    HW121821   3.734   3.328   3.463
 6974SOL    HW221822   3.716   3.232   3.594
 6975SOL     OW21823   3.410   6.874   5.368
 6975SOL    HW121824   3.311   6.886   5.368
 6975SOL    HW221825   3.448   6.905   5.281
 6976SOL     OW21826   3.676   4.945   6.690
 6976SOL    HW121827   3.745   4.978   6.626
 6976SOL    HW221828   3.637   5.022   6.741
 6977SOL     OW21829   5.202   1.903   1.872
 6977SOL    HW121830   5.281   1.849   1.904
 6977SOL    HW221831   5.234   1.985   1.825
 6978SOL     OW21832   6.536   0.603   1.924
 6978SOL    HW121833   6.538   0.524   1.985
 6978SOL    HW221834   6.630   0.633   1.905
 6979SOL     OW21835   1.285   5.709   2.270
 6979SOL    HW121836   1.352   5.639   2.294
 6979SOL    HW221837   1.308   5.794   2.316
 6980SOL     OW21838   2.040   0.603   3.266
 6980SOL    HW121839   2.044   0.691   3.313
 6980SOL    HW221840   1.986   0.538   3.319
 6981SOL     OW21841   2.434   4.198   6.635
 6981SOL    HW121842   2.388   4.272   6.685
 6981SOL    HW221843   2.374   4.164   6.563
 6982SOL     OW21844   1.408   0.795   4.038
 6982SOL    HW121845   1.358   0.867   4.086
 6982SOL    HW221846   1.464   0.744   4.104
 6983SOL     OW21847   0.452   0.945   4.133
 6983SOL    HW121848   0.418   0.887   4.059
 6983SOL    HW221849   0.510   0.892   4.195
 6984SOL     OW21850   2.365   1.490   5.051
 6984SOL    HW121851   2.315   1.541   5.121
 6984SOL    HW221852   2.408   1.554   4.987
 6985SOL     OW21853   3.950   5.438   2.418
 6985SOL    HW121854   3.932   5.517   2.359
 6985SOL    HW221855   3.879   5.368   2.402
 6986SOL     OW21856   2.153   6.394   5.882
 6986SOL    HW121857   2.142   6.333   5.803
 6986SOL    HW221858   2.098   6.476   5.868
 6987SOL     OW21859   7.000   1.929   6.000
 6987SOL    HW121860   7.024   2.026   6.011
 6987SOL    HW221861   0.053   1.878   5.968
 6988SOL     OW21862   6.086   1.274   5.074
 6988SOL    HW121863   6.032   1.294   5.156
 6988SOL    HW221864   6.181   1.300   5.088
 6989SOL     OW21865   1.033   1.755   3.109
 6989SOL    HW121866   1.102   1.797   3.167
 6989SOL    HW221867   1.046   1.786   3.015
 6990SOL     OW21868   4.851   1.899   0.241
 6990SOL    HW121869   4.911   1.938   0.171
 6990SOL    HW221870   4.902   1.890   0.327
 6991SOL     OW21871   2.570   4.768   5.061
 6991SOL    HW121872   2.552   4.800   5.154
 6991SOL    HW221873   2.656   4.719   5.058
 6992SOL     OW21874   6.082   6.109   4.667
 6992SOL    HW121875   5.999   6.140   4.715
 6992SOL    HW221876   6.162   6.127   4.725
 6993SOL     OW21877   6.100   6.442   3.170
 6993SOL    HW121878   6.128   6.435   3.266
 6993SOL    HW221879   6.005   6.470   3.166
 6994SOL     OW21880   0.741   3.464   5.288
 6994SOL    HW121881   0.725   3.395   5.218
 6994SOL    HW221882   0.710   3.430   5.376
 6995SOL     OW21883   6.123   5.151   4.702
 6995SOL    HW121884   6.062   5.122   4.776
 6995SOL    HW221885   6.201   5.089   4.697
 6996SOL     OW21886   2.850   0.770   4.998
 6996SOL    HW121887   2.814   0.816   4.917
 6996SOL    HW221888   2.774   0.725   5.046
 6997SOL     OW21889   4.750   6.432   5.591
 6997SOL    HW121890   4.758   6.370   5.513
 6997SOL    HW221891   4.778   6.383   5.674
 6998SOL     OW21892   1.836   3.283   1.655
 6998SOL    HW121893   1.755   3.320   1.701
 6998SOL    HW221894   1.918   3.326   1.693
 6999SOL     OW21895   2.559   1.694   6.793
 6999SOL    HW121896   2.491   1.764   6.768
 6999SOL    HW221897   2.651   1.733   6.784
 7000SOL     OW21898   0.392   6.188   2.842
 7000SOL    HW121899   0.321   6.237   2.894
 7000SOL    HW221900   0.442   6.253   2.785
 7001SOL     OW21901   2.706   2.360   5.812
 7001SOL    HW121902   2.710   2.414   5.727
 7001SOL    HW221903   2.795   2.318   5.828
 7002SOL     OW21904   2.453   4.436   3.584
 7002SOL    HW121905   2.375   4.499   3.581
 7002SOL    HW221906   2.449   4.374   3.506
 7003SOL     OW21907   2.969   0.036   6.865
 7003SOL    HW121908   2.895   0.017   6.929
 7003SOL    HW221909   2.937   0.097   6.793
 7004SOL     OW21910   1.973   4.573   1.720
 7004SOL    HW121911   2.069   4.552   1.737
 7004SOL    HW221912   1.963   4.608   1.627
 7005SOL     OW21913   0.183   6.189   5.589
 7005SOL    HW121914   0.098   6.240   5.576
 7005SOL    HW221915   0.180   6.104   5.535
 7006SOL     OW21916   5.175   4.429   5.148
 7006SOL    HW121917   5.199   4.334   5.127
 7006SOL    HW221918   5.198   4.449   5.243
 7007SOL     OW21919   5.032   6.593   3.262
 7007SOL    HW121920   5.066   6.686   3.254
 7007SOL    HW221921   5.049   6.544   3.177
 7008SOL     OW21922   2.392   4.897   4.089
 7008SOL    HW121923   2.309   4.851   4.056
 7008SOL    HW221924   2.423   4.853   4.173
 7009SOL     OW21925   6.441   4.941   2.263
 7009SOL    HW121926   6.456   4.941   2.362
 7009SOL    HW221927   6.525   4.917   2.216
 7010SOL     OW21928   4.185   4.799   5.809
 7010SOL    HW121929   4.117   4.858   5.766
 7010SOL    HW221930   4.165   4.792   5.907
 7011SOL     OW21931   1.387   6.845   5.525
 7011SOL    HW121932   1.420   6.936   5.548
 7011SOL    HW221933   1.465   6.786   5.504
 7012SOL     OW21934   1.604   0.820   1.815
 7012SOL    HW121935   1.689   0.767   1.823
 7012SOL    HW221936   1.548   0.782   1.742
 7013SOL     OW21937   0.775   6.658   1.009
 7013SOL    HW121938   0.850   6.723   1.025
 7013SOL    HW221939   0.772   6.592   1.084
 7014SOL     OW21940   4.584   4.059   1.089
 7014SOL    HW121941   4.590   4.136   1.152
 7014SOL    HW221942   4.511   3.997   1.119
 7015SOL     OW21943   5.498   3.581   1.779
 7015SOL    HW121944   5.590   3.576   1.817
 7015SOL    HW221945   5.456   3.490   1.781
 7016SOL     OW21946   4.267   4.672   2.358
 7016SOL    HW121947   4.320   4.756   2.367
 7016SOL    HW221948   4.170   4.692   2.373
 7017SOL     OW21949   2.428   1.213   2.185
 7017SOL    HW121950   2.371   1.163   2.120
 7017SOL    HW221951   2.380   1.221   2.272
 7018SOL     OW21952   0.001   4.240   4.980
 7018SOL    HW121953   7.003   4.289   4.897
 7018SOL    HW221954   0.018   4.305   5.054
 7019SOL     OW21955   2.907   4.825   6.567
 7019SOL    HW121956   2.996   4.852   6.532
 7019SOL    HW221957   2.839   4.831   6.494
 7020SOL     OW21958   5.302   6.758   0.505
 7020SOL    HW121959   5.252   6.758   0.418
 7020SOL    HW221960   5.380   6.695   0.498
 7021SOL     OW21961   2.792   0.853   5.353
 7021SOL    HW121962   2.840   0.909   5.285
 7021SOL    HW221963   2.725   0.795   5.306
 7022SOL     OW21964   5.018   4.288   0.392
 7022SOL    HW121965   4.927   4.255   0.368
 7022SOL    HW221966   5.073   4.212   0.426
 7023SOL     OW21967   6.662   2.440   3.050
 7023SOL    HW121968   6.716   2.411   3.130
 7023SOL    HW221969   6.711   2.418   2.966
 7024SOL     OW21970   1.734   5.839   6.464
 7024SOL    HW121971   1.829   5.847   6.493
 7024SOL    HW221972   1.684   5.921   6.490
 7025SOL     OW21973   3.516   1.567   6.660
 7025SOL    HW121974   3.612   1.579   6.636
 7025SOL    HW221975   3.469   1.656   6.653
 7026SOL     OW21976   2.643   1.666   1.811
 7026SOL    HW121977   2.580   1.588   1.808
 7026SOL    HW221978   2.734   1.637   1.782
 7027SOL     OW21979   3.481   5.876   3.070
 7027SOL    HW121980   3.517   5.861   3.162
 7027SOL    HW221981   3.466   5.974   3.056
 7028SOL     OW21982   5.751   6.444   4.468
 7028SOL    HW121983   5.830   6.389   4.494
 7028SOL    HW221984   5.730   6.509   4.541
 7029SOL     OW21985   3.789   6.683   6.756
 7029SOL    HW121986   3.748   6.741   6.686
 7029SOL    HW221987   3.769   6.587   6.736
 7030SOL     OW21988   0.581   3.486   5.862
 7030SOL    HW121989   0.518   3.409   5.854
 7030SOL    HW221990   0.553   3.559   5.800
 7031SOL     OW21991   2.412   5.624   3.670
 7031SOL    HW121992   2.413   5.530   3.704
 7031SOL    HW221993   2.327   5.668   3.698
 7032SOL     OW21994   4.485   6.779   3.647
 7032SOL    HW121995   4.518   6.870   3.674
 7032SOL    HW221996   4.471   6.723   3.729
 7033SOL     OW21997   6.714   1.304   4.156
 7033SOL    HW121998   6.738   1.334   4.248
 7033SOL    HW221999   6.619   1.273   4.155
 7034SOL     OW22000   5.373   0.770   2.971
 7034SOL    HW122001   5.435   0.794   2.896
 7034SOL    HW222002   5.317   0.850   2.994
 7035SOL     OW22003   1.197   6.751   2.742
 7035SOL    HW122004   1.117   6.690   2.748
 7035SOL    HW222005   1.257   6.719   2.668
 7036SOL     OW22006   6.607   5.896   1.492
 7036SOL    HW122007   6.650   5.807   1.481
 7036SOL    HW222008   6.507   5.886   1.488
 7037SOL     OW22009   0.238   6.687   6.563
 7037SOL    HW122010   0.316   6.634   6.596
 7037SOL    HW222011   0.263   6.733   6.477
 7038SOL     OW22012   1.874   3.548   4.521
 7038SOL    HW122013   1.906   3.512   4.609
 7038SOL    HW222014   1.879   3.476   4.452
 7039SOL     OW22015   3.079   6.627   0.051
 7039SOL    HW122016   3.066   6.709   7.022
 7039SOL    HW222017   3.140   6.647   0.127
 7040SOL     OW22018   4.853   2.525   6.043
 7040SOL    HW122019   4.784   2.456   6.024
 7040SOL    HW222020   4.897   2.553   5.958
 7041SOL     OW22021   1.259   1.853   3.238
 7041SOL    HW122022   1.334   1.790   3.223
 7041SOL    HW222023   1.293   1.947   3.238
 7042SOL     OW22024   5.430   5.213   6.317
 7042SOL    HW122025   5.384   5.300   6.297
 7042SOL    HW222026   5.489   5.189   6.241
 7043SOL     OW22027   2.305   2.812   2.862
 7043SOL    HW122028   2.288   2.904   2.828
 7043SOL    HW222029   2.221   2.775   2.902
 7044SOL     OW22030   4.940   4.567   2.976
 7044SOL    HW122031   5.002   4.645   2.969
 7044SOL    HW222032   4.984   4.494   3.029
 7045SOL     OW22033   4.613   6.531   1.279
 7045SOL    HW122034   4.648   6.622   1.256
 7045SOL    HW222035   4.689   6.471   1.303
 7046SOL     OW22036   3.633   1.825   3.907
 7046SOL    HW122037   3.544   1.806   3.947
 7046SOL    HW222038   3.634   1.918   3.869
 7047SOL     OW22039   1.129   2.308   3.107
 7047SOL    HW122040   1.134   2.326   3.205
 7047SOL    HW222041   1.219   2.322   3.065
 7048SOL     OW22042   1.222   5.899   1.427
 7048SOL    HW122043   1.165   5.848   1.362
 7048SOL    HW222044   1.316   5.867   1.422
 7049SOL     OW22045   2.716   0.778   0.891
 7049SOL    HW122046   2.691   0.682   0.874
 7049SOL    HW222047   2.792   0.782   0.956
 7050SOL     OW22048   3.246   4.097   3.593
 7050SOL    HW122049   3.223   4.194   3.585
 7050SOL    HW222050   3.335   4.087   3.637
 7051SOL     OW22051   0.289   0.328   1.007
 7051SOL    HW122052   0.281   0.345   1.105
 7051SOL    HW222053   0.299   0.416   0.959
 7052SOL     OW22054   6.539   2.296   4.481
 7052SOL    HW122055   6.505   2.215   4.529
 7052SOL    HW222056   6.462   2.348   4.444
 7053SOL     OW22057   0.129   3.106   6.462
 7053SOL    HW122058   0.130   3.129   6.365
 7053SOL    HW222059   0.036   3.080   6.489
 7054SOL     OW22060   1.251   6.332   1.288
 7054SOL    HW122061   1.336   6.282   1.273
 7054SOL    HW222062   1.236   6.344   1.386
 7055SOL     OW22063   4.304   6.554   5.694
 7055SOL    HW122064   4.232   6.498   5.651
 7055SOL    HW222065   4.389   6.541   5.644
 7056SOL     OW22066   5.698   4.946   3.465
 7056SOL    HW122067   5.631   5.013   3.434
 7056SOL    HW222068   5.733   4.972   3.555
 7057SOL     OW22069   0.653   4.037   4.605
 7057SOL    HW122070   0.676   3.947   4.568
 7057SOL    HW222071   0.721   4.104   4.575
 7058SOL     OW22072   0.179   5.664   5.352
 7058SOL    HW122073   0.150   5.655   5.257
 7058SOL    HW222074   0.277   5.680   5.357
 7059SOL     OW22075   0.073   0.442   2.218
 7059SOL    HW122076   7.004   0.472   2.218
 7059SOL    HW222077   0.122   0.485   2.142
 7060SOL     OW22078   3.701   0.201   1.478
 7060SOL    HW122079   3.738   0.134   1.413
 7060SOL    HW222080   3.735   0.292   1.455
 7061SOL     OW22081   7.004   1.904   3.624
 7061SOL    HW122082   6.937   1.930   3.554
 7061SOL    HW222083   0.012   1.986   3.669
 7062SOL     OW22084   5.742   1.354   5.591
 7062SOL    HW122085   5.783   1.442   5.615
 7062SOL    HW222086   5.808   1.281   5.605
 7063SOL     OW22087   1.440   6.632   0.733
 7063SOL    HW122088   1.442   6.709   0.670
 7063SOL    HW222089   1.388   6.557   0.692
 7064SOL     OW22090   4.366   2.463   1.554
 7064SOL    HW122091   4.363   2.399   1.631
 7064SOL    HW222092   4.354   2.556   1.587
 7065SOL     OW22093   5.097   3.981   1.148
 7065SOL    HW122094   5.141   3.892   1.132
 7065SOL    HW222095   5.001   3.975   1.122
 7066SOL     OW22096   3.766   0.524   0.628
 7066SOL    HW122097   3.847   0.576   0.601
 7066SOL    HW222098   3.710   0.507   0.547
 7067SOL     OW22099   1.564   2.738   5.478
 7067SOL    HW122100   1.472   2.777   5.486
 7067SOL    HW222101   1.598   2.751   5.385
 7068SOL     OW22102   0.593   3.644   3.108
 7068SOL    HW122103   0.535   3.564   3.122
 7068SOL    HW222104   0.687   3.614   3.093
 7069SOL     OW22105   6.648   3.208   4.841
 7069SOL    HW122106   6.626   3.255   4.756
 7069SOL    HW222107   6.632   3.270   4.918
 7070SOL     OW22108   6.591   5.493   4.932
 7070SOL    HW122109   6.680   5.450   4.947
 7070SOL    HW222110   6.524   5.423   4.906
 7071SOL     OW22111   0.204   6.969   5.216
 7071SOL    HW122112   0.162   0.013   5.158
 7071SOL    HW222113   0.302   6.962   5.194
 7072SOL     OW22114   6.566   0.399   6.144
 7072SOL    HW122115   6.520   0.403   6.056
 7072SOL    HW222116   6.663   0.378   6.130
 7073SOL     OW22117   6.355   0.769   4.641
 7073SOL    HW122118   6.281   0.759   4.708
 7073SOL    HW222119   6.408   0.851   4.662
 7074SOL     OW22120   3.705   2.854   2.281
 7074SOL    HW122121   3.694   2.840   2.183
 7074SOL    HW222122   3.802   2.850   2.304
 7075SOL     OW22123   1.184   6.457   4.485
 7075SOL    HW122124   1.112   6.447   4.417
 7075SOL    HW222125   1.145   6.453   4.576
 7076SOL     OW22126   4.081   2.300   0.745
 7076SOL    HW122127   4.031   2.364   0.687
 7076SOL    HW222128   4.179   2.309   0.728
 7077SOL     OW22129   2.331   5.493   5.606
 7077SOL    HW122130   2.311   5.463   5.513
 7077SOL    HW222131   2.245   5.505   5.656
 7078SOL     OW22132   6.447   0.178   2.113
 7078SOL    HW122133   6.444   0.274   2.142
 7078SOL    HW222134   6.370   0.129   2.155
 7079SOL     OW22135   6.614   6.562   5.871
 7079SOL    HW122136   6.611   6.630   5.945
 7079SOL    HW222137   6.595   6.607   5.784
 7080SOL     OW22138   4.419   2.102   3.876
 7080SOL    HW122139   4.348   2.103   3.805
 7080SOL    HW222140   4.507   2.128   3.836
 7081SOL     OW22141   3.704   0.904   5.474
 7081SOL    HW122142   3.683   0.933   5.568
 7081SOL    HW222143   3.649   0.825   5.450
 7082SOL     OW22144   5.738   6.369   0.683
 7082SOL    HW122145   5.706   6.433   0.753
 7082SOL    HW222146   5.661   6.338   0.627
 7083SOL     OW22147   3.456   1.252   6.358
 7083SOL    HW122148   3.484   1.180   6.420
 7083SOL    HW222149   3.405   1.212   6.281
 7084SOL     OW22150   6.722   0.123   5.331
 7084SOL    HW122151   6.727   0.097   5.235
 7084SOL    HW222152   6.808   0.099   5.376
 7085SOL     OW22153   1.745   1.044   3.190
 7085SOL    HW122154   1.842   1.065   3.181
 7085SOL    HW222155   1.721   1.035   3.286
 7086SOL     OW22156   5.295   1.492   6.262
 7086SOL    HW122157   5.377   1.494   6.319
 7086SOL    HW222158   5.234   1.419   6.293
 7087SOL     OW22159   0.148   3.638   3.766
 7087SOL    HW122160   0.176   3.677   3.854
 7087SOL    HW222161   0.069   3.688   3.730
 7088SOL     OW22162   4.902   2.981   4.087
 7088SOL    HW122163   4.857   3.035   4.159
 7088SOL    HW222164   5.000   2.974   4.107
 7089SOL     OW22165   3.214   2.571   6.185
 7089SOL    HW122166   3.132   2.603   6.232
 7089SOL    HW222167   3.190   2.501   6.118
 7090SOL     OW22168   2.488   1.234   5.835
 7090SOL    HW122169   2.394   1.268   5.834
 7090SOL    HW222170   2.535   1.263   5.751
 7091SOL     OW22171   6.784   1.831   6.411
 7091SOL    HW122172   6.872   1.876   6.430
 7091SOL    HW222173   6.757   1.777   6.491
 7092SOL     OW22174   4.160   2.861   0.046
 7092SOL    HW122175   4.201   2.824   0.130
 7092SOL    HW222176   4.197   2.811   6.993
 7093SOL     OW22177   2.913   3.504   3.941
 7093SOL    HW122178   2.942   3.413   3.912
 7093SOL    HW222179   2.937   3.571   3.871
 7094SOL     OW22180   0.309   6.722   5.589
 7094SOL    HW122181   0.210   6.710   5.590
 7094SOL    HW222182   0.352   6.645   5.637
 7095SOL     OW22183   2.877   2.718   6.877
 7095SOL    HW122184   2.847   2.743   6.784
 7095SOL    HW222185   2.967   2.675   6.872
 7096SOL     OW22186   6.027   1.335   4.040
 7096SOL    HW122187   6.036   1.410   3.976
 7096SOL    HW222188   6.073   1.358   4.126
 7097SOL     OW22189   6.731   0.670   1.730
 7097SOL    HW122190   6.811   0.617   1.701
 7097SOL    HW222191   6.684   0.706   1.649
 7098SOL     OW22192   1.170   6.187   5.003
 7098SOL    HW122193   1.120   6.124   5.063
 7098SOL    HW222194   1.120   6.273   4.996
 7099SOL     OW22195   1.979   0.892   4.308
 7099SOL    HW122196   1.886   0.921   4.331
 7099SOL    HW222197   1.982   0.862   4.213
 7100SOL     OW22198   5.106   3.539   0.922
 7100SOL    HW122199   5.082   3.510   0.830
 7100SOL    HW222200   5.025   3.533   0.981
 7101SOL     OW22201   2.222   0.457   4.512
 7101SOL    HW122202   2.317   0.439   4.533
 7101SOL    HW222203   2.164   0.426   4.587
 7102SOL     OW22204   4.275   0.550   0.992
 7102SOL    HW122205   4.310   0.485   1.060
 7102SOL    HW222206   4.339   0.627   0.985
 7103SOL     OW22207   4.092   5.851   0.037
 7103SOL    HW122208   4.044   5.907   6.996
 7103SOL    HW222209   4.032   5.830   0.114
 7104SOL     OW22210   0.989   3.405   4.633
 7104SOL    HW122211   1.032   3.360   4.711
 7104SOL    HW222212   0.891   3.412   4.649
 7105SOL     OW22213   3.705   3.016   5.299
 7105SOL    HW122214   3.653   3.067   5.230
 7105SOL    HW222215   3.671   3.039   5.390
 7106SOL     OW22216   3.538   2.958   3.663
 7106SOL    HW122217   3.510   3.050   3.691
 7106SOL    HW222218   3.638   2.952   3.663
 7107SOL     OW22219   2.827   0.895   0.675
 7107SOL    HW122220   2.785   0.857   0.757
 7107SOL    HW222221   2.843   0.823   0.608
 7108SOL     OW22222   4.427   6.389   1.103
 7108SOL    HW122223   4.486   6.441   1.165
 7108SOL    HW222224   4.446   6.417   1.009
 7109SOL     OW22225   3.554   6.904   6.294
 7109SOL    HW122226   3.534   6.996   6.329
 7109SOL    HW222227   3.583   6.846   6.370
 7110SOL     OW22228   5.410   5.093   3.893
 7110SOL    HW122229   5.318   5.131   3.888
 7110SOL    HW222230   5.477   5.167   3.904
 7111SOL     OW22231   1.547   3.107   4.505
 7111SOL    HW122232   1.518   3.188   4.556
 7111SOL    HW222233   1.591   3.042   4.567
 7112SOL     OW22234   1.896   5.523   4.260
 7112SOL    HW122235   1.884   5.587   4.336
 7112SOL    HW222236   1.970   5.554   4.201
 7113SOL     OW22237   3.068   3.868   4.547
 7113SOL    HW122238   3.158   3.827   4.559
 7113SOL    HW222239   3.015   3.856   4.631
 7114SOL     OW22240   4.160   6.796   1.567
 7114SOL    HW122241   4.242   6.853   1.573
 7114SOL    HW222242   4.154   6.738   1.648
 7115SOL     OW22243   5.097   2.353   1.734
 7115SOL    HW122244   5.174   2.395   1.686
 7115SOL    HW222245   5.064   2.274   1.683
 7116SOL     OW22246   5.514   3.273   3.378
 7116SOL    HW122247   5.478   3.307   3.291
 7116SOL    HW222248   5.614   3.282   3.379
 7117SOL     OW22249   0.128   0.200   4.493
 7117SOL    HW122250   0.121   0.140   4.573
 7117SOL    HW222251   0.047   0.189   4.435
 7118SOL     OW22252   4.281   2.957   0.739
 7118SOL    HW122253   4.334   2.916   0.813
 7118SOL    HW222254   4.242   3.044   0.770
 7119SOL     OW22255   4.750   1.468   3.587
 7119SOL    HW122256   4.750   1.444   3.685
 7119SOL    HW222257   4.690   1.546   3.572
 7120SOL     OW22258   3.825   1.359   2.847
 7120SOL    HW122259   3.878   1.329   2.927
 7120SOL    HW222260   3.793   1.453   2.862
 7121SOL     OW22261   2.134   0.184   2.837
 7121SOL    HW122262   2.227   0.196   2.802
 7121SOL    HW222263   2.118   0.248   2.913
 7122SOL     OW22264   6.270   1.259   6.753
 7122SOL    HW122265   6.214   1.278   6.672
 7122SOL    HW222266   6.212   1.258   6.834
 7123SOL     OW22267   3.139   5.169   1.304
 7123SOL    HW122268   3.069   5.238   1.287
 7123SOL    HW222269   3.097   5.078   1.303
 7124SOL     OW22270   1.197   3.759   0.365
 7124SOL    HW122271   1.239   3.729   0.279
 7124SOL    HW222272   1.196   3.683   0.430
 7125SOL     OW22273   7.005   6.503   1.322
 7125SOL    HW122274   6.991   6.467   1.229
 7125SOL    HW222275   0.075   6.529   1.332
 7126SOL     OW22276   2.413   4.477   0.288
 7126SOL    HW122277   2.425   4.574   0.263
 7126SOL    HW222278   2.467   4.457   0.370
 7127SOL     OW22279   2.603   5.536   4.403
 7127SOL    HW122280   2.647   5.477   4.471
 7127SOL    HW222281   2.620   5.498   4.311
 7128SOL     OW22282   2.959   4.945   0.475
 7128SOL    HW122283   3.017   4.876   0.518
 7128SOL    HW222284   2.956   4.928   0.376
 7129SOL     OW22285   3.539   0.696   0.934
 7129SOL    HW122286   3.461   0.697   0.872
 7129SOL    HW222287   3.613   0.641   0.895
 7130SOL     OW22288   3.192   4.893   4.771
 7130SOL    HW122289   3.236   4.944   4.697
 7130SOL    HW222290   3.151   4.810   4.734
 7131SOL     OW22291   2.351   2.212   0.343
 7131SOL    HW122292   2.398   2.299   0.325
 7131SOL    HW222293   2.419   2.139   0.350
 7132SOL     OW22294   3.312   3.976   1.499
 7132SOL    HW122295   3.278   3.882   1.489
 7132SOL    HW222296   3.235   4.037   1.518
 7133SOL     OW22297   5.520   4.742   3.428
 7133SOL    HW122298   5.438   4.784   3.467
 7133SOL    HW222299   5.600   4.798   3.451
 7134SOL     OW22300   5.976   5.573   3.059
 7134SOL    HW122301   6.016   5.660   3.085
 7134SOL    HW222302   5.881   5.568   3.091
 7135SOL     OW22303   1.877   1.648   3.497
 7135SOL    HW122304   1.967   1.608   3.512
 7135SOL    HW222305   1.874   1.740   3.536
 7136SOL     OW22306   2.377   2.079   0.796
 7136SOL    HW122307   2.421   2.024   0.867
 7136SOL    HW222308   2.404   2.175   0.806
 7137SOL     OW22309   5.175   0.865   5.335
 7137SOL    HW122310   5.186   0.770   5.308
 7137SOL    HW222311   5.078   0.886   5.348
 7138SOL     OW22312   3.076   2.595   0.800
 7138SOL    HW122313   3.167   2.622   0.831
 7138SOL    HW222314   3.046   2.513   0.849
 7139SOL     OW22315   4.900   3.086   2.176
 7139SOL    HW122316   4.829   3.054   2.113
 7139SOL    HW222317   4.930   3.011   2.234
 7140SOL     OW22318   6.192   3.343   4.918
 7140SOL    HW122319   6.176   3.439   4.938
 7140SOL    HW222320   6.257   3.335   4.842
 7141SOL     OW22321   3.277   6.704   1.029
 7141SOL    HW122322   3.204   6.767   1.057
 7141SOL    HW222323   3.255   6.611   1.058
 7142SOL     OW22324   4.187   6.705   2.829
 7142SOL    HW122325   4.120   6.777   2.846
 7142SOL    HW222326   4.279   6.741   2.843
 7143SOL     OW22327   1.084   2.330   6.573
 7143SOL    HW122328   0.985   2.342   6.576
 7143SOL    HW222329   1.126   2.406   6.522
 7144SOL     OW22330   1.059   1.477   3.060
 7144SOL    HW122331   1.124   1.449   2.989
 7144SOL    HW222332   1.039   1.574   3.051
 7145SOL     OW22333   4.172   6.222   6.028
 7145SOL    HW122334   4.204   6.211   6.123
 7145SOL    HW222335   4.179   6.318   6.002
 7146SOL     OW22336   2.223   0.423   0.037
 7146SOL    HW122337   2.259   0.515   0.022
 7146SOL    HW222338   2.270   0.358   7.004
 7147SOL     OW22339   6.354   6.685   3.541
 7147SOL    HW122340   6.279   6.741   3.576
 7147SOL    HW222341   6.407   6.649   3.618
 7148SOL     OW22342   0.134   6.020   1.930
 7148SOL    HW122343   0.074   5.961   1.877
 7148SOL    HW222344   0.163   6.098   1.874
 7149SOL     OW22345   6.998   6.570   3.444
 7149SOL    HW122346   6.901   6.544   3.442
 7149SOL    HW222347   7.008   6.658   3.490
 7150SOL     OW22348   4.640   2.704   1.491
 7150SOL    HW122349   4.693   2.764   1.551
 7150SOL    HW222350   4.547   2.695   1.527
 7151SOL     OW22351   0.790   5.945   0.930
 7151SOL    HW122352   0.827   5.987   0.847
 7151SOL    HW222353   0.802   5.846   0.925
 7152SOL     OW22354   0.555   2.602   5.658
 7152SOL    HW122355   0.545   2.506   5.684
 7152SOL    HW222356   0.465   2.645   5.652
 7153SOL     OW22357   3.618   6.048   4.189
 7153SOL    HW122358   3.593   6.141   4.214
 7153SOL    HW222359   3.560   5.983   4.237
 7154SOL     OW22360   3.941   6.013   5.015
 7154SOL    HW122361   3.884   5.966   5.082
 7154SOL    HW222362   3.943   5.960   4.930
 7155SOL     OW22363   1.747   6.457   1.565
 7155SOL    HW122364   1.789   6.410   1.488
 7155SOL    HW222365   1.647   6.455   1.555
 7156SOL     OW22366   0.899   4.888   4.770
 7156SOL    HW122367   0.906   4.986   4.754
 7156SOL    HW222368   0.991   4.849   4.777
 7157SOL     OW22369   5.927   4.822   1.153
 7157SOL    HW122370   6.011   4.869   1.179
 7157SOL    HW222371   5.866   4.886   1.106
 7158SOL     OW22372   0.142   0.019   3.308
 7158SOL    HW122373   0.134   0.003   3.209
 7158SOL    HW222374   0.095   6.972   3.357
 7159SOL     OW22375   0.300   4.325   2.381
 7159SOL    HW122376   0.221   4.381   2.406
 7159SOL    HW222377   0.328   4.345   2.287
 7160SOL     OW22378   6.584   0.751   3.145
 7160SOL    HW122379   6.490   0.770   3.116
 7160SOL    HW222380   6.599   0.652   3.147
 7161SOL     OW22381   3.345   4.131   4.699
 7161SOL    HW122382   3.290   4.207   4.734
 7161SOL    HW222383   3.426   4.119   4.758
 7162SOL     OW22384   3.192   6.137   5.375
 7162SOL    HW122385   3.145   6.102   5.456
 7162SOL    HW222386   3.152   6.225   5.348
 7163SOL     OW22387   3.245   6.826   3.799
 7163SOL    HW122388   3.170   6.777   3.754
 7163SOL    HW222389   3.333   6.794   3.761
 7164SOL     OW22390   2.002   2.220   2.810
 7164SOL    HW122391   2.091   2.252   2.777
 7164SOL    HW222392   1.929   2.263   2.757
 7165SOL     OW22393   6.090   0.830   1.107
 7165SOL    HW122394   6.029   0.902   1.072
 7165SOL    HW222395   6.039   0.769   1.168
 7166SOL     OW22396   5.259   3.880   0.680
 7166SOL    HW122397   5.328   3.820   0.638
 7166SOL    HW222398   5.265   3.873   0.779
 7167SOL     OW22399   4.942   3.972   5.205
 7167SOL    HW122400   4.949   3.982   5.304
 7167SOL    HW222401   5.005   4.036   5.160
 7168SOL     OW22402   1.251   2.558   3.657
 7168SOL    HW122403   1.314   2.485   3.685
 7168SOL    HW222404   1.202   2.592   3.737
 7169SOL     OW22405   1.062   2.937   4.845
 7169SOL    HW122406   1.040   2.947   4.942
 7169SOL    HW222407   1.131   3.005   4.818
 7170SOL     OW22408   4.101   5.302   3.622
 7170SOL    HW122409   4.197   5.319   3.600
 7170SOL    HW222410   4.061   5.384   3.661
 7171SOL     OW22411   5.661   4.085   6.066
 7171SOL    HW122412   5.649   4.029   5.983
 7171SOL    HW222413   5.588   4.153   6.070
 7172SOL     OW22414   1.247   0.128   5.923
 7172SOL    HW122415   1.255   0.036   5.887
 7172SOL    HW222416   1.259   0.194   5.849
 7173SOL     OW22417   0.529   4.490   5.353
 7173SOL    HW122418   0.497   4.585   5.364
 7173SOL    HW222419   0.525   4.464   5.257
 7174SOL     OW22420   0.996   5.407   6.755
 7174SOL    HW122421   0.990   5.506   6.745
 7174SOL    HW222422   1.026   5.367   6.669
 7175SOL     OW22423   5.790   3.289   0.695
 7175SOL    HW122424   5.875   3.319   0.651
 7175SOL    HW222425   5.812   3.251   0.785
 7176SOL     OW22426   0.381   5.212   2.911
 7176SOL    HW122427   0.378   5.170   2.820
 7176SOL    HW222428   0.424   5.301   2.905
 7177SOL     OW22429   2.411   6.442   3.640
 7177SOL    HW122430   2.448   6.512   3.578
 7177SOL    HW222431   2.484   6.377   3.663
 7178SOL     OW22432   2.488   2.609   5.542
 7178SOL    HW122433   2.462   2.705   5.544
 7178SOL    HW222434   2.407   2.552   5.556
 7179SOL     OW22435   1.772   3.284   5.057
 7179SOL    HW122436   1.775   3.307   5.154
 7179SOL    HW222437   1.693   3.226   5.039
 7180SOL     OW22438   1.109   5.590   6.152
 7180SOL    HW122439   1.058   5.654   6.095
 7180SOL    HW222440   1.077   5.497   6.136
 7181SOL     OW22441   2.972   6.679   0.857
 7181SOL    HW122442   2.905   6.614   0.821
 7181SOL    HW222443   3.023   6.636   0.931
 7182SOL     OW22444   1.078   2.945   5.381
 7182SOL    HW122445   1.035   2.907   5.299
 7182SOL    HW222446   1.008   2.976   5.445
 7183SOL     OW22447   1.901   4.896   1.889
 7183SOL    HW122448   1.818   4.841   1.884
 7183SOL    HW222449   1.977   4.847   1.847
 7184SOL     OW22450   0.490   6.965   3.847
 7184SOL    HW122451   0.466   0.033   3.824
 7184SOL    HW222452   0.583   6.945   3.817
 7185SOL     OW22453   4.861   2.135   5.866
 7185SOL    HW122454   4.905   2.157   5.953
 7185SOL    HW222455   4.928   2.140   5.793
 7186SOL     OW22456   0.030   0.255   5.730
 7186SOL    HW122457   0.102   0.187   5.741
 7186SOL    HW222458   6.969   0.216   5.760
 7187SOL     OW22459   1.689   4.672   1.189
 7187SOL    HW122460   1.670   4.720   1.103
 7187SOL    HW222461   1.634   4.712   1.262
 7188SOL     OW22462   5.263   7.022   0.576
 7188SOL    HW122463   5.166   0.006   0.597
 7188SOL    HW222464   5.285   6.925   0.564
 7189SOL     OW22465   6.359   1.103   0.023
 7189SOL    HW122466   6.285   1.155   7.006
 7189SOL    HW222467   6.331   1.007   0.031
 7190SOL     OW22468   5.418   3.557   3.270
 7190SOL    HW122469   5.363   3.477   3.244
 7190SOL    HW222470   5.513   3.528   3.285
 7191SOL     OW22471   0.761   4.433   2.460
 7191SOL    HW122472   0.738   4.339   2.487
 7191SOL    HW222473   0.684   4.473   2.410
 7192SOL     OW22474   2.155   5.931   4.435
 7192SOL    HW122475   2.120   5.953   4.527
 7192SOL    HW222476   2.217   6.003   4.405
 7193SOL     OW22477   3.365   2.027   3.280
 7193SOL    HW122478   3.330   2.074   3.198
 7193SOL    HW222479   3.289   2.004   3.341
 7194SOL     OW22480   2.374   2.429   1.082
 7194SOL    HW122481   2.335   2.394   1.167
 7194SOL    HW222482   2.451   2.490   1.104
 7195SOL     OW22483   0.356   5.114   6.804
 7195SOL    HW122484   0.392   5.118   6.711
 7195SOL    HW222485   0.428   5.087   6.867
 7196SOL     OW22486   2.935   3.515   2.496
 7196SOL    HW122487   2.944   3.421   2.463
 7196SOL    HW222488   2.926   3.577   2.418
 7197SOL     OW22489   6.748   2.573   5.878
 7197SOL    HW122490   6.804   2.540   5.802
 7197SOL    HW222491   6.697   2.497   5.918
 7198SOL     OW22492   0.889   0.481   5.028
 7198SOL    HW122493   0.831   0.559   5.050
 7198SOL    HW222494   0.966   0.511   4.972
 7199SOL     OW22495   1.752   0.518   2.105
 7199SOL    HW122496   1.654   0.527   2.123
 7199SOL    HW222497   1.802   0.529   2.191
 7200SOL     OW22498   2.640   0.984   0.028
 7200SOL    HW122499   2.584   1.029   6.984
 7200SOL    HW222500   2.719   0.941   7.010
 7201SOL     OW22501   1.493   5.058   3.484
 7201SOL    HW122502   1.522   5.140   3.534
 7201SOL    HW222503   1.512   5.071   3.386
 7202SOL     OW22504   3.639   0.141   6.274
 7202SOL    HW122505   3.734   0.114   6.262
 7202SOL    HW222506   3.602   0.176   6.188
 7203SOL     OW22507   5.794   1.250   0.747
 7203SOL    HW122508   5.777   1.270   0.843
 7203SOL    HW222509   5.806   1.336   0.696
 7204SOL     OW22510   5.756   6.699   4.667
 7204SOL    HW122511   5.829   6.637   4.692
 7204SOL    HW222512   5.700   6.720   4.747
 7205SOL     OW22513   1.762   6.374   3.366
 7205SOL    HW122514   1.742   6.383   3.268
 7205SOL    HW222515   1.748   6.279   3.394
 7206SOL     OW22516   1.007   0.633   1.563
 7206SOL    HW122517   1.024   0.686   1.646
 7206SOL    HW222518   0.959   0.689   1.496
 7207SOL     OW22519   3.642   6.878   1.459
 7207SOL    HW122520   3.637   6.793   1.407
 7207SOL    HW222521   3.558   6.931   1.444
 7208SOL     OW22522   4.382   6.453   4.487
 7208SOL    HW122523   4.312   6.492   4.428
 7208SOL    HW222524   4.472   6.481   4.456
 7209SOL     OW22525   3.088   3.332   3.527
 7209SOL    HW122526   3.068   3.290   3.439
 7209SOL    HW222527   3.044   3.422   3.532
 7210SOL     OW22528   5.302   0.185   3.424
 7210SOL    HW122529   5.249   0.242   3.487
 7210SOL    HW222530   5.389   0.231   3.403
 7211SOL     OW22531   1.395   5.803   3.753
 7211SOL    HW122532   1.297   5.785   3.743
 7211SOL    HW222533   1.431   5.838   3.667
 7212SOL     OW22534   0.845   5.759   3.683
 7212SOL    HW122535   0.859   5.721   3.592
 7212SOL    HW222536   0.932   5.792   3.720
 7213SOL     OW22537   5.926   7.005   5.732
 7213SOL    HW122538   5.863   6.935   5.697
 7213SOL    HW222539   5.882   0.029   5.807
 7214SOL     OW22540   2.377   5.155   3.956
 7214SOL    HW122541   2.394   5.059   3.980
 7214SOL    HW222542   2.301   5.160   3.891
 7215SOL     OW22543   0.650   3.493   4.450
 7215SOL    HW122544   0.690   3.584   4.446
 7215SOL    HW222545   0.556   3.497   4.415
 7216SOL     OW22546   2.529   6.006   6.663
 7216SOL    HW122547   2.484   5.933   6.611
 7216SOL    HW222548   2.462   6.077   6.684
 7217SOL     OW22549   1.706   4.798   1.526
 7217SOL    HW122550   1.751   4.887   1.521
 7217SOL    HW222551   1.633   4.794   1.459
 7218SOL     OW22552   4.452   3.063   5.638
 7218SOL    HW122553   4.356   3.067   5.611
 7218SOL    HW222554   4.458   3.050   5.737
 7219SOL     OW22555   4.885   5.437   3.019
 7219SOL    HW122556   4.895   5.341   2.996
 7219SOL    HW222557   4.842   5.446   3.109
 7220SOL     OW22558   6.842   5.711   3.526
 7220SOL    HW122559   6.797   5.784   3.579
 7220SOL    HW222560   6.803   5.708   3.434
 7221SOL     OW22561   5.259   5.260   4.956
 7221SOL    HW122562   5.260   5.195   4.880
 7221SOL    HW222563   5.259   5.353   4.920
 7222SOL     OW22564   6.417   6.491   0.353
 7222SOL    HW122565   6.390   6.442   0.435
 7222SOL    HW222566   6.377   6.583   0.354
 7223SOL     OW22567   3.167   1.683   1.615
 7223SOL    HW122568   3.152   1.680   1.516
 7223SOL    HW222569   3.082   1.711   1.661
 7224SOL     OW22570   5.895   2.058   4.497
 7224SOL    HW122571   5.873   2.104   4.411
 7224SOL    HW222572   5.874   1.961   4.490
 7225SOL     OW22573   1.492   5.511   6.745
 7225SOL    HW122574   1.570   5.549   6.695
 7225SOL    HW222575   1.479   5.416   6.717
 7226SOL     OW22576   0.433   0.656   0.656
 7226SOL    HW122577   0.437   0.562   0.621
 7226SOL    HW222578   0.397   0.717   0.585
 7227SOL     OW22579   0.823   1.969   0.460
 7227SOL    HW122580   0.740   2.007   0.502
 7227SOL    HW222581   0.807   1.952   0.363
 7228SOL     OW22582   6.837   0.861   1.906
 7228SOL    HW122583   6.803   0.799   1.835
 7228SOL    HW222584   6.920   0.906   1.873
 7229SOL     OW22585   0.621   0.551   4.098
 7229SOL    HW122586   0.620   0.551   4.197
 7229SOL    HW222587   0.715   0.546   4.065
 7230SOL     OW22588   4.343   5.198   4.654
 7230SOL    HW122589   4.429   5.229   4.614
 7230SOL    HW222590   4.361   5.140   4.733
 7231SOL     OW22591   4.436   0.381   0.160
 7231SOL    HW122592   4.382   0.404   0.079
 7231SOL    HW222593   4.482   0.294   0.146
 7232SOL     OW22594   3.776   4.997   3.341
 7232SOL    HW122595   3.792   5.039   3.251
 7232SOL    HW222596   3.683   4.962   3.346
 7233SOL     OW22597   0.794   2.825   4.638
 7233SOL    HW122598   0.839   2.826   4.728
 7233SOL    HW222599   0.818   2.909   4.589
 7234SOL     OW22600   6.315   2.642   2.068
 7234SOL    HW122601   6.262   2.703   2.009
 7234SOL    HW222602   6.412   2.651   2.045
 7235SOL     OW22603   6.453   3.736   3.568
 7235SOL    HW122604   6.532   3.674   3.561
 7235SOL    HW222605   6.385   3.711   3.499
 7236SOL     OW22606   3.271   1.806   3.070
 7236SOL    HW122607   3.310   1.718   3.097
 7236SOL    HW222608   3.173   1.807   3.091
 7237SOL     OW22609   6.699   6.612   4.945
 7237SOL    HW122610   6.652   6.695   4.916
 7237SOL    HW222611   6.789   6.607   4.900
 7238SOL     OW22612   2.396   1.901   1.445
 7238SOL    HW122613   2.417   1.892   1.542
 7238SOL    HW222614   2.388   1.998   1.422
 7239SOL     OW22615   2.121   1.810   3.188
 7239SOL    HW122616   2.058   1.734   3.170
 7239SOL    HW222617   2.191   1.779   3.253
 7240SOL     OW22618   3.101   3.834   0.210
 7240SOL    HW122619   3.058   3.760   0.160
 7240SOL    HW222620   3.096   3.815   0.308
 7241SOL     OW22621   3.300   0.466   6.134
 7241SOL    HW122622   3.307   0.561   6.164
 7241SOL    HW222623   3.310   0.462   6.034
 7242SOL     OW22624   5.896   4.543   0.209
 7242SOL    HW122625   5.913   4.453   0.249
 7242SOL    HW222626   5.867   4.607   0.280
 7243SOL     OW22627   1.206   4.485   6.626
 7243SOL    HW122628   1.117   4.496   6.583
 7243SOL    HW222629   1.269   4.439   6.563
 7244SOL     OW22630   4.412   0.813   1.241
 7244SOL    HW122631   4.329   0.847   1.198
 7244SOL    HW222632   4.478   0.888   1.252
 7245SOL     OW22633   0.201   2.723   4.846
 7245SOL    HW122634   0.130   2.781   4.886
 7245SOL    HW222635   0.269   2.701   4.915
 7246SOL     OW22636   6.794   6.937   4.633
 7246SOL    HW122637   6.804   0.010   4.640
 7246SOL    HW222638   6.703   6.916   4.596
 7247SOL     OW22639   2.538   6.783   2.637
 7247SOL    HW122640   2.479   6.774   2.556
 7247SOL    HW222641   2.500   6.852   2.698
 7248SOL     OW22642   3.424   1.101   3.676
 7248SOL    HW122643   3.428   1.200   3.689
 7248SOL    HW222644   3.475   1.056   3.749
 7249SOL     OW22645   5.672   4.355   1.074
 7249SOL    HW122646   5.676   4.272   1.128
 7249SOL    HW222647   5.720   4.429   1.122
 7250SOL     OW22648   2.105   4.815   6.395
 7250SOL    HW122649   2.152   4.831   6.482
 7250SOL    HW222650   2.010   4.789   6.414
 7251SOL     OW22651   6.587   0.077   5.565
 7251SOL    HW122652   6.647   0.063   5.486
 7251SOL    HW222653   6.524   0.153   5.545
 7252SOL     OW22654   3.501   3.621   4.586
 7252SOL    HW122655   3.406   3.597   4.602
 7252SOL    HW222656   3.510   3.721   4.576
 7253SOL     OW22657   1.741   6.175   0.360
 7253SOL    HW122658   1.675   6.237   0.403
 7253SOL    HW222659   1.756   6.203   0.265
 7254SOL     OW22660   3.466   5.518   4.775
 7254SOL    HW122661   3.411   5.436   4.756
 7254SOL    HW222662   3.563   5.494   4.774
 7255SOL     OW22663   3.288   3.086   2.121
 7255SOL    HW122664   3.295   3.037   2.208
 7255SOL    HW222665   3.312   3.182   2.135
 7256SOL     OW22666   4.726   4.857   4.451
 7256SOL    HW122667   4.675   4.918   4.391
 7256SOL    HW222668   4.818   4.892   4.465
 7257SOL     OW22669   6.445   2.862   3.203
 7257SOL    HW122670   6.477   2.771   3.231
 7257SOL    HW222671   6.420   2.861   3.107
 7258SOL     OW22672   4.498   0.539   4.250
 7258SOL    HW122673   4.526   0.634   4.262
 7258SOL    HW222674   4.409   0.525   4.294
 7259SOL     OW22675   3.011   4.351   0.107
 7259SOL    HW122676   2.949   4.328   0.183
 7259SOL    HW222677   3.027   4.269   0.052
 7260SOL     OW22678   3.848   1.895   3.204
 7260SOL    HW122679   3.928   1.901   3.264
 7260SOL    HW222680   3.831   1.984   3.161
 7261SOL     OW22681   2.415   3.303   1.713
 7261SOL    HW122682   2.513   3.300   1.695
 7261SOL    HW222683   2.388   3.395   1.739
 7262SOL     OW22684   5.974   2.706   4.518
 7262SOL    HW122685   5.913   2.784   4.502
 7262SOL    HW222686   5.922   2.632   4.560
 7263SOL     OW22687   1.275   5.379   1.783
 7263SOL    HW122688   1.368   5.388   1.818
 7263SOL    HW222689   1.263   5.442   1.706
 7264SOL     OW22690   0.042   1.299   6.975
 7264SOL    HW122691   0.006   1.212   6.942
 7264SOL    HW222692   0.102   1.283   0.027
 7265SOL     OW22693   5.514   5.545   5.953
 7265SOL    HW122694   5.506   5.599   6.037
 7265SOL    HW222695   5.546   5.453   5.975
 7266SOL     OW22696   4.685   0.807   1.438
 7266SOL    HW122697   4.654   0.829   1.530
 7266SOL    HW222698   4.673   0.887   1.379
 7267SOL     OW22699   6.788   4.349   5.202
 7267SOL    HW122700   6.753   4.411   5.272
 7267SOL    HW222701   6.887   4.361   5.194
 7268SOL     OW22702   4.134   5.930   2.369
 7268SOL    HW122703   4.232   5.926   2.349
 7268SOL    HW222704   4.114   6.010   2.426
 7269SOL     OW22705   0.851   5.377   1.747
 7269SOL    HW122706   0.852   5.386   1.846
 7269SOL    HW222707   0.935   5.332   1.717
 7270SOL     OW22708   2.634   2.024   3.129
 7270SOL    HW122709   2.588   2.080   3.199
 7270SOL    HW222710   2.687   2.083   3.069
 7271SOL     OW22711   0.269   4.319   2.688
 7271SOL    HW122712   0.269   4.311   2.588
 7271SOL    HW222713   0.195   4.380   2.717
 7272SOL     OW22714   5.288   2.929   2.682
 7272SOL    HW122715   5.240   2.873   2.614
 7272SOL    HW222716   5.319   3.014   2.639
 7273SOL     OW22717   5.701   4.085   1.828
 7273SOL    HW122718   5.682   3.989   1.812
 7273SOL    HW222719   5.615   4.136   1.833
 7274SOL     OW22720   0.149   4.898   5.690
 7274SOL    HW122721   0.195   4.920   5.776
 7274SOL    HW222722   0.052   4.880   5.708
 7275SOL     OW22723   6.594   0.601   0.285
 7275SOL    HW122724   6.622   0.554   0.201
 7275SOL    HW222725   6.517   0.662   0.265
 7276SOL     OW22726   2.522   1.877   3.594
 7276SOL    HW122727   2.561   1.840   3.510
 7276SOL    HW222728   2.567   1.836   3.673
 7277SOL     OW22729   4.825   1.211   6.209
 7277SOL    HW122730   4.745   1.200   6.267
 7277SOL    HW222731   4.871   1.297   6.232
 7278SOL     OW22732   4.001   1.621   3.394
 7278SOL    HW122733   4.056   1.703   3.410
 7278SOL    HW222734   3.948   1.600   3.477
 7279SOL     OW22735   4.288   4.405   1.031
 7279SOL    HW122736   4.278   4.450   0.943
 7279SOL    HW222737   4.199   4.376   1.065
 7280SOL     OW22738   5.188   2.372   5.287
 7280SOL    HW122739   5.152   2.282   5.262
 7280SOL    HW222740   5.287   2.366   5.298
 7281SOL     OW22741   3.837   6.819   0.764
 7281SOL    HW122742   3.813   6.850   0.856
 7281SOL    HW222743   3.802   6.727   0.750
 7282SOL     OW22744   6.725   5.482   2.019
 7282SOL    HW122745   6.741   5.389   1.987
 7282SOL    HW222746   6.808   5.537   2.004
 7283SOL     OW22747   3.034   6.029   2.310
 7283SOL    HW122748   3.056   6.036   2.213
 7283SOL    HW222749   2.951   5.975   2.322
 7284SOL     OW22750   6.750   2.772   3.794
 7284SOL    HW122751   6.750   2.845   3.726
 7284SOL    HW222752   6.791   2.806   3.879
 7285SOL     OW22753   4.752   2.835   1.706
 7285SOL    HW122754   4.735   2.916   1.762
 7285SOL    HW222755   4.845   2.802   1.722
 7286SOL     OW22756   0.817   0.992   0.642
 7286SOL    HW122757   0.905   1.038   0.630
 7286SOL    HW222758   0.749   1.035   0.583
 7287SOL     OW22759   0.519   2.821   3.849
 7287SOL    HW122760   0.465   2.796   3.768
 7287SOL    HW222761   0.529   2.742   3.909
 7288SOL     OW22762   2.760   2.241   2.596
 7288SOL    HW122763   2.787   2.292   2.514
 7288SOL    HW222764   2.836   2.183   2.626
 7289SOL     OW22765   5.822   2.625   2.115
 7289SOL    HW122766   5.835   2.661   2.023
 7289SOL    HW222767   5.911   2.605   2.156
 7290SOL     OW22768   4.387   1.190   5.655
 7290SOL    HW122769   4.289   1.203   5.643
 7290SOL    HW222770   4.422   1.130   5.583
 7291SOL     OW22771   3.330   6.908   0.033
 7291SOL    HW122772   3.341   6.847   0.112
 7291SOL    HW222773   3.416   6.911   7.007
 7292SOL     OW22774   1.477   0.124   3.351
 7292SOL    HW122775   1.396   0.177   3.374
 7292SOL    HW222776   1.498   0.061   3.425
 7293SOL     OW22777   1.491   0.694   5.219
 7293SOL    HW122778   1.407   0.690   5.164
 7293SOL    HW222779   1.567   0.721   5.160
 7294SOL     OW22780   3.106   4.621   1.747
 7294SOL    HW122781   3.029   4.584   1.798
 7294SOL    HW222782   3.177   4.550   1.740
 7295SOL     OW22783   6.435   4.975   1.890
 7295SOL    HW122784   6.353   4.943   1.937
 7295SOL    HW222785   6.411   5.052   1.830
 7296SOL     OW22786   3.622   4.935   3.012
 7296SOL    HW122787   3.700   4.874   3.001
 7296SOL    HW222788   3.540   4.892   2.974
 7297SOL     OW22789   3.394   6.642   1.729
 7297SOL    HW122790   3.444   6.670   1.811
 7297SOL    HW222791   3.447   6.574   1.679
 7298SOL     OW22792   4.428   5.697   6.559
 7298SOL    HW122793   4.499   5.633   6.532
 7298SOL    HW222794   4.435   5.715   6.657
 7299SOL     OW22795   1.219   2.685   0.172
 7299SOL    HW122796   1.157   2.617   0.211
 7299SOL    HW222797   1.294   2.702   0.235
 7300SOL     OW22798   1.093   5.390   2.017
 7300SOL    HW122799   1.157   5.403   2.092
 7300SOL    HW222800   1.139   5.412   1.930
 7301SOL     OW22801   6.125   6.933   5.881
 7301SOL    HW122802   6.051   6.951   5.816
 7301SOL    HW222803   6.087   6.897   5.966
 7302SOL     OW22804   5.025   3.014   6.156
 7302SOL    HW122805   5.020   3.102   6.108
 7302SOL    HW222806   4.976   2.945   6.104
 7303SOL     OW22807   2.769   1.239   0.874
 7303SOL    HW122808   2.742   1.213   0.782
 7303SOL    HW222809   2.689   1.270   0.925
 7304SOL     OW22810   2.563   5.128   1.465
 7304SOL    HW122811   2.554   5.206   1.404
 7304SOL    HW222812   2.475   5.080   1.471
 7305SOL     OW22813   5.842   2.187   0.381
 7305SOL    HW122814   5.763   2.143   0.337
 7305SOL    HW222815   5.815   2.278   0.413
 7306SOL     OW22816   3.489   2.112   0.725
 7306SOL    HW122817   3.572   2.155   0.762
 7306SOL    HW222818   3.506   2.080   0.633
 7307SOL     OW22819   3.236   6.575   2.176
 7307SOL    HW122820   3.187   6.647   2.226
 7307SOL    HW222821   3.313   6.615   2.127
 7308SOL     OW22822   5.559   1.053   2.034
 7308SOL    HW122823   5.592   1.008   1.951
 7308SOL    HW222824   5.491   0.995   2.078
 7309SOL     OW22825   2.337   5.839   2.810
 7309SOL    HW122826   2.425   5.877   2.779
 7309SOL    HW222827   2.346   5.740   2.820
 7310SOL     OW22828   1.634   3.371   0.436
 7310SOL    HW122829   1.663   3.277   0.453
 7310SOL    HW222830   1.715   3.430   0.429
 7311SOL     OW22831   0.247   0.223   0.716
 7311SOL    HW122832   0.273   0.265   0.803
 7311SOL    HW222833   0.150   0.201   0.716
 7312SOL     OW22834   6.863   1.893   5.744
 7312SOL    HW122835   6.843   1.984   5.708
 7312SOL    HW222836   6.948   1.895   5.796
 7313SOL     OW22837   2.370   0.959   1.370
 7313SOL    HW122838   2.353   1.056   1.351
 7313SOL    HW222839   2.326   0.934   1.456
 7314SOL     OW22840   6.816   4.143   6.952
 7314SOL    HW122841   6.863   4.175   0.009
 7314SOL    HW222842   6.763   4.061   6.973
 7315SOL     OW22843   6.772   5.112   2.668
 7315SOL    HW122844   6.747   5.162   2.751
 7315SOL    HW222845   6.742   5.017   2.676
 7316SOL     OW22846   2.421   2.101   6.000
 7316SOL    HW122847   2.328   2.096   6.038
 7316SOL    HW222848   2.474   2.022   6.030
 7317SOL     OW22849   3.402   1.575   1.833
 7317SOL    HW122850   3.488   1.526   1.824
 7317SOL    HW222851   3.335   1.537   1.768
 7318SOL     OW22852   3.425   0.057   2.239
 7318SOL    HW122853   3.506   0.012   2.201
 7318SOL    HW222854   3.347   0.042   2.178
 7319SOL     OW22855   6.959   4.265   0.187
 7319SOL    HW122856   0.021   4.249   0.231
 7319SOL    HW222857   6.928   4.358   0.208
 7320SOL     OW22858   6.797   3.912   1.020
 7320SOL    HW122859   6.836   3.947   0.934
 7320SOL    HW222860   6.778   3.814   1.010
 7321SOL     OW22861   1.918   6.010   5.893
 7321SOL    HW122862   2.006   6.028   5.936
 7321SOL    HW222863   1.869   6.096   5.877
 7322SOL     OW22864   0.951   1.209   2.979
 7322SOL    HW122865   0.930   1.294   3.027
 7322SOL    HW222866   1.039   1.218   2.932
 7323SOL     OW22867   1.909   1.772   1.102
 7323SOL    HW122868   1.865   1.718   1.174
 7323SOL    HW222869   1.982   1.718   1.060
 7324SOL     OW22870   5.685   4.674   2.821
 7324SOL    HW122871   5.638   4.603   2.874
 7324SOL    HW222872   5.763   4.635   2.774
 7325SOL     OW22873   3.913   0.643   5.531
 7325SOL    HW122874   3.858   0.726   5.519
 7325SOL    HW222875   3.910   0.589   5.447
 7326SOL     OW22876   3.005   0.762   6.349
 7326SOL    HW122877   2.968   0.670   6.360
 7326SOL    HW222878   3.012   0.805   6.439
 7327SOL     OW22879   5.869   3.720   3.223
 7327SOL    HW122880   5.938   3.659   3.262
 7327SOL    HW222881   5.897   3.815   3.235
 7328SOL     OW22882   3.868   5.433   5.661
 7328SOL    HW122883   3.809   5.487   5.722
 7328SOL    HW222884   3.827   5.432   5.569
 7329SOL     OW22885   2.102   3.246   0.440
 7329SOL    HW122886   2.015   3.238   0.392
 7329SOL    HW222887   2.086   3.287   0.530
 7330SOL     OW22888   3.011   3.096   1.357
 7330SOL    HW122889   3.006   3.180   1.304
 7330SOL    HW222890   2.922   3.075   1.396
 7331SOL     OW22891   5.005   0.384   2.206
 7331SOL    HW122892   4.928   0.402   2.268
 7331SOL    HW222893   4.976   0.400   2.112
 7332SOL     OW22894   3.838   3.659   6.798
 7332SOL    HW122895   3.863   3.670   6.894
 7332SOL    HW222896   3.859   3.743   6.748
 7333SOL     OW22897   6.960   2.986   1.755
 7333SOL    HW122898   6.976   3.035   1.670
 7333SOL    HW222899   6.998   3.038   1.831
 7334SOL     OW22900   2.865   6.958   5.241
 7334SOL    HW122901   2.840   7.015   5.319
 7334SOL    HW222902   2.821   6.868   5.249
 7335SOL     OW22903   7.004   3.621   2.837
 7335SOL    HW122904   6.963   3.545   2.887
 7335SOL    HW222905   0.028   3.680   2.901
 7336SOL     OW22906   1.497   6.225   1.195
 7336SOL    HW122907   1.510   6.270   1.108
 7336SOL    HW222908   1.503   6.126   1.183
 7337SOL     OW22909   3.249   2.816   2.004
 7337SOL    HW122910   3.195   2.740   2.040
 7337SOL    HW222911   3.221   2.901   2.048
 7338SOL     OW22912   5.401   2.855   1.064
 7338SOL    HW122913   5.333   2.795   1.107
 7338SOL    HW222914   5.444   2.806   0.988
 7339SOL     OW22915   6.900   6.384   5.069
 7339SOL    HW122916   6.983   6.417   5.026
 7339SOL    HW222917   6.825   6.448   5.051
 7340SOL     OW22918   3.156   1.033   6.896
 7340SOL    HW122919   3.199   0.973   6.830
 7340SOL    HW222920   3.199   1.022   6.986
 7341SOL     OW22921   0.075   4.617   3.972
 7341SOL    HW122922   0.125   4.546   3.923
 7341SOL    HW222923   0.027   4.577   4.050
 7342SOL     OW22924   6.860   0.760   0.121
 7342SOL    HW122925   6.895   0.851   0.142
 7342SOL    HW222926   6.882   0.697   0.196
 7343SOL     OW22927   5.913   4.157   2.233
 7343SOL    HW122928   5.871   4.083   2.286
 7343SOL    HW222929   5.844   4.196   2.171
 7344SOL     OW22930   1.804   6.602   6.705
 7344SOL    HW122931   1.756   6.689   6.702
 7344SOL    HW222932   1.739   6.527   6.699
 7345SOL     OW22933   4.241   5.135   5.577
 7345SOL    HW122934   4.149   5.172   5.565
 7345SOL    HW222935   4.257   5.116   5.673
 7346SOL     OW22936   3.892   4.455   0.897
 7346SOL    HW122937   3.851   4.545   0.888
 7346SOL    HW222938   3.820   4.387   0.912
 7347SOL     OW22939   6.184   2.193   2.163
 7347SOL    HW122940   6.216   2.100   2.184
 7347SOL    HW222941   6.263   2.252   2.147
 7348SOL     OW22942   1.453   3.025   3.906
 7348SOL    HW122943   1.386   2.958   3.873
 7348SOL    HW222944   1.408   3.090   3.966
 7349SOL     OW22945   3.338   2.097   1.636
 7349SOL    HW122946   3.387   2.120   1.552
 7349SOL    HW222947   3.355   2.002   1.660
 7350SOL     OW22948   0.870   2.211   3.502
 7350SOL    HW122949   0.967   2.234   3.501
 7350SOL    HW222950   0.841   2.186   3.409
 7351SOL     OW22951   4.124   4.573   6.311
 7351SOL    HW122952   4.025   4.566   6.322
 7351SOL    HW222953   4.151   4.532   6.224
 7352SOL     OW22954   1.311   1.549   2.541
 7352SOL    HW122955   1.363   1.632   2.522
 7352SOL    HW222956   1.252   1.528   2.463
 7353SOL     OW22957   6.297   1.763   4.786
 7353SOL    HW122958   6.314   1.781   4.690
 7353SOL    HW222959   6.379   1.727   4.829
 7354SOL     OW22960   6.629   0.646   6.485
 7354SOL    HW122961   6.631   0.641   6.584
 7354SOL    HW222962   6.534   0.643   6.453
 7355SOL     OW22963   0.823   6.316   1.598
 7355SOL    HW122964   0.742   6.293   1.652
 7355SOL    HW222965   0.852   6.236   1.546
 7356SOL     OW22966   5.941   2.670   6.385
 7356SOL    HW122967   5.872   2.663   6.313
 7356SOL    HW222968   5.896   2.676   6.474
 7357SOL     OW22969   4.603   0.694   0.523
 7357SOL    HW122970   4.581   0.784   0.487
 7357SOL    HW222971   4.631   0.634   0.449
 7358SOL     OW22972   3.597   2.123   3.717
 7358SOL    HW122973   3.692   2.112   3.747
 7358SOL    HW222974   3.555   2.198   3.768
 7359SOL     OW22975   3.610   3.111   1.933
 7359SOL    HW122976   3.627   3.176   2.007
 7359SOL    HW222977   3.578   3.024   1.971
 7360SOL     OW22978   1.767   3.061   5.343
 7360SOL    HW122979   1.850   3.105   5.308
 7360SOL    HW222980   1.723   3.121   5.409
 7361SOL     OW22981   5.295   6.622   0.743
 7361SOL    HW122982   5.392   6.604   0.759
 7361SOL    HW222983   5.283   6.666   0.654
 7362SOL     OW22984   1.026   0.094   4.952
 7362SOL    HW122985   0.984   0.071   5.040
 7362SOL    HW222986   0.959   0.080   4.879
 7363SOL     OW22987   5.982   2.350   0.602
 7363SOL    HW122988   6.028   2.438   0.590
 7363SOL    HW222989   5.900   2.348   0.544
 7364SOL     OW22990   4.165   6.567   0.892
 7364SOL    HW122991   4.136   6.662   0.886
 7364SOL    HW222992   4.087   6.507   0.875
 7365SOL     OW22993   2.842   6.976   2.616
 7365SOL    HW122994   2.939   6.997   2.623
 7365SOL    HW222995   2.794   7.007   2.698
 7366SOL     OW22996   0.846   5.047   6.895
 7366SOL    HW122997   0.887   4.984   6.961
 7366SOL    HW222998   0.786   5.111   6.944
 7367SOL     OW22999   4.766   3.917   1.340
 7367SOL    HW123000   4.765   3.936   1.242
 7367SOL    HW223001   4.717   3.989   1.389
 7368SOL     OW23002   3.374   3.828   4.377
 7368SOL    HW123003   3.374   3.850   4.475
 7368SOL    HW223004   3.408   3.907   4.325
 7369SOL     OW23005   4.685   3.674   1.021
 7369SOL    HW123006   4.638   3.600   0.975
 7369SOL    HW223007   4.753   3.636   1.085
 7370SOL     OW23008   2.023   0.205   6.727
 7370SOL    HW123009   1.972   0.205   6.641
 7370SOL    HW223010   2.096   0.273   6.722
 7371SOL     OW23011   2.829   5.075   3.841
 7371SOL    HW123012   2.909   5.130   3.820
 7371SOL    HW223013   2.779   5.054   3.757
 7372SOL     OW23014   3.747   6.942   5.298
 7372SOL    HW123015   3.770   6.856   5.253
 7372SOL    HW223016   3.677   6.990   5.245
 7373SOL     OW23017   4.151   0.891   3.520
 7373SOL    HW123018   4.120   0.892   3.425
 7373SOL    HW223019   4.090   0.948   3.575
 7374SOL     OW23020   1.649   2.710   5.214
 7374SOL    HW123021   1.673   2.615   5.194
 7374SOL    HW223022   1.688   2.770   5.144
 7375SOL     OW23023   1.476   1.588   4.295
 7375SOL    HW123024   1.409   1.575   4.221
 7375SOL    HW223025   1.436   1.646   4.366
 7376SOL     OW23026   3.278   2.897   7.001
 7376SOL    HW123027   3.205   2.844   0.018
 7376SOL    HW223028   3.306   2.852   6.916
 7377SOL     OW23029   4.936   4.726   1.731
 7377SOL    HW123030   4.938   4.671   1.648
 7377SOL    HW223031   4.891   4.813   1.713
 7378SOL     OW23032   6.838   2.318   4.569
 7378SOL    HW123033   6.756   2.358   4.530
 7378SOL    HW223034   6.861   2.234   4.519
 7379SOL     OW23035   4.414   1.172   2.486
 7379SOL    HW123036   4.395   1.097   2.549
 7379SOL    HW223037   4.392   1.144   2.392
 7380SOL     OW23038   6.488   3.630   5.758
 7380SOL    HW123039   6.519   3.551   5.704
 7380SOL    HW223040   6.562   3.696   5.767
 7381SOL     OW23041   4.682   2.694   2.448
 7381SOL    HW123042   4.696   2.785   2.486
 7381SOL    HW223043   4.636   2.636   2.516
 7382SOL     OW23044   0.338   4.771   5.230
 7382SOL    HW123045   0.397   4.844   5.265
 7382SOL    HW223046   0.349   4.765   5.130
 7383SOL     OW23047   0.440   6.411   2.704
 7383SOL    HW123048   0.441   6.476   2.780
 7383SOL    HW223049   0.405   6.456   2.622
 7384SOL     OW23050   5.582   0.787   2.305
 7384SOL    HW123051   5.610   0.881   2.286
 7384SOL    HW223052   5.642   0.724   2.256
 7385SOL     OW23053   4.397   5.963   2.339
 7385SOL    HW123054   4.464   5.962   2.266
 7385SOL    HW223055   4.403   6.050   2.389
 7386SOL     OW23056   0.712   2.240   5.632
 7386SOL    HW123057   0.704   2.158   5.575
 7386SOL    HW223058   0.622   2.278   5.649
 7387SOL     OW23059   4.159   5.905   4.275
 7387SOL    HW123060   4.070   5.873   4.307
 7387SOL    HW223061   4.192   5.979   4.334
 7388SOL     OW23062   6.671   5.253   4.003
 7388SOL    HW123063   6.685   5.160   4.037
 7388SOL    HW223064   6.735   5.271   3.928
 7389SOL     OW23065   1.469   4.317   0.043
 7389SOL    HW123066   1.456   4.408   0.083
 7389SOL    HW223067   1.386   4.290   7.021
 7390SOL     OW23068   0.741   1.998   6.210
 7390SOL    HW123069   0.755   1.979   6.113
 7390SOL    HW223070   0.829   2.023   6.252
 7391SOL     OW23071   5.377   4.521   6.172
 7391SOL    HW123072   5.368   4.590   6.100
 7391SOL    HW223073   5.290   4.474   6.184
 7392SOL     OW23074   1.664   6.130   5.668
 7392SOL    HW123075   1.640   6.106   5.574
 7392SOL    HW223076   1.586   6.110   5.728
 7393SOL     OW23077   6.073   5.325   1.901
 7393SOL    HW123078   6.125   5.404   1.933
 7393SOL    HW223079   6.015   5.353   1.824
 7394SOL     OW23080   3.776   3.184   6.116
 7394SOL    HW123081   3.847   3.177   6.186
 7394SOL    HW223082   3.689   3.153   6.153
 7395SOL     OW23083   0.612   0.750   6.466
 7395SOL    HW123084   0.673   0.777   6.392
 7395SOL    HW223085   0.520   0.783   6.446
 7396SOL     OW23086   1.929   0.990   6.375
 7396SOL    HW123087   1.911   1.030   6.285
 7396SOL    HW223088   1.949   1.062   6.441
 7397SOL     OW23089   6.243   4.583   4.858
 7397SOL    HW123090   6.246   4.623   4.767
 7397SOL    HW223091   6.289   4.494   4.857
 7398SOL     OW23092   3.598   5.181   3.944
 7398SOL    HW123093   3.651   5.169   3.860
 7398SOL    HW223094   3.625   5.111   4.011
 7399SOL     OW23095   0.345   4.153   5.874
 7399SOL    HW123096   0.304   4.132   5.786
 7399SOL    HW223097   0.393   4.241   5.868
 7400SOL     OW23098   3.191   4.141   6.589
 7400SOL    HW123099   3.198   4.122   6.687
 7400SOL    HW223100   3.103   4.109   6.555
 7401SOL     OW23101   0.265   1.121   3.349
 7401SOL    HW123102   0.243   1.074   3.263
 7401SOL    HW223103   0.196   1.098   3.418
 7402SOL     OW23104   1.878   7.002   3.737
 7402SOL    HW123105   1.848   0.034   3.813
 7402SOL    HW223106   1.811   6.930   3.721
 7403SOL     OW23107   1.898   2.883   3.840
 7403SOL    HW123108   1.977   2.844   3.793
 7403SOL    HW223109   1.874   2.970   3.797
 7404SOL     OW23110   2.260   0.389   1.232
 7404SOL    HW123111   2.266   0.465   1.167
 7404SOL    HW223112   2.350   0.345   1.240
 7405SOL     OW23113   1.874   5.009   4.859
 7405SOL    HW123114   1.837   4.981   4.770
 7405SOL    HW223115   1.833   4.953   4.931
 7406SOL     OW23116   1.471   3.907   2.190
 7406SOL    HW123117   1.452   3.816   2.152
 7406SOL    HW223118   1.567   3.930   2.177
 7407SOL     OW23119   6.901   6.101   4.651
 7407SOL    HW123120   6.848   6.177   4.615
 7407SOL    HW223121   6.887   6.093   4.750
 7408SOL     OW23122   1.611   4.263   6.009
 7408SOL    HW123123   1.561   4.183   6.041
 7408SOL    HW223124   1.709   4.243   6.007
 7409SOL     OW23125   0.776   1.294   4.944
 7409SOL    HW123126   0.832   1.371   4.917
 7409SOL    HW223127   0.684   1.304   4.904
 7410SOL     OW23128   0.427   4.697   1.228
 7410SOL    HW123129   0.479   4.631   1.282
 7410SOL    HW223130   0.435   4.674   1.131
 7411SOL     OW23131   2.679   6.962   4.275
 7411SOL    HW123132   2.721   6.972   4.185
 7411SOL    HW223133   2.580   6.974   4.267
 7412SOL     OW23134   2.814   0.727   1.228
 7412SOL    HW123135   2.865   0.754   1.309
 7412SOL    HW223136   2.836   0.632   1.204
 7413SOL     OW23137   0.076   3.517   3.505
 7413SOL    HW123138   0.142   3.459   3.552
 7413SOL    HW223139   0.122   3.599   3.470
 7414SOL     OW23140   6.632   7.018   2.555
 7414SOL    HW123141   6.639   0.080   2.508
 7414SOL    HW223142   6.602   0.008   2.649
 7415SOL     OW23143   1.069   3.144   3.118
 7415SOL    HW123144   1.132   3.221   3.107
 7415SOL    HW223145   1.054   3.101   3.029
 7416SOL     OW23146   3.375   1.268   4.505
 7416SOL    HW123147   3.390   1.346   4.565
 7416SOL    HW223148   3.458   1.253   4.450
 7417SOL     OW23149   1.462   6.408   5.957
 7417SOL    HW123150   1.478   6.313   5.931
 7417SOL    HW223151   1.493   6.468   5.883
 7418SOL     OW23152   3.017   4.524   1.251
 7418SOL    HW123153   3.098   4.539   1.309
 7418SOL    HW223154   3.030   4.442   1.196
 7419SOL     OW23155   5.489   1.748   4.453
 7419SOL    HW123156   5.431   1.817   4.496
 7419SOL    HW223157   5.499   1.670   4.515
 7420SOL     OW23158   6.731   0.089   2.213
 7420SOL    HW123159   6.753   0.009   2.157
 7420SOL    HW223160   6.651   0.135   2.174
 7421SOL     OW23161   3.393   3.659   1.222
 7421SOL    HW123162   3.402   3.699   1.314
 7421SOL    HW223163   3.332   3.581   1.227
 7422SOL     OW23164   6.778   3.425   1.383
 7422SOL    HW123165   6.785   3.345   1.323
 7422SOL    HW223166   6.712   3.407   1.455
 7423SOL     OW23167   1.379   4.765   6.062
 7423SOL    HW123168   1.470   4.788   6.029
 7423SOL    HW223169   1.316   4.758   5.985
 7424SOL     OW23170   5.893   1.391   4.374
 7424SOL    HW123171   5.850   1.408   4.463
 7424SOL    HW223172   5.829   1.414   4.301
 7425SOL     OW23173   4.232   4.880   6.703
 7425SOL    HW123174   4.284   4.855   6.621
 7425SOL    HW223175   4.249   4.814   6.776
 7426SOL     OW23176   0.518   2.290   6.984
 7426SOL    HW123177   0.454   2.245   0.019
 7426SOL    HW223178   0.574   2.355   0.010
 7427SOL     OW23179   3.142   5.605   4.435
 7427SOL    HW123180   3.059   5.660   4.432
 7427SOL    HW223181   3.139   5.535   4.364
 7428SOL     OW23182   3.929   2.199   5.165
 7428SOL    HW123183   3.927   2.100   5.153
 7428SOL    HW223184   3.841   2.229   5.202
 7429SOL     OW23185   6.587   0.274   2.813
 7429SOL    HW123186   6.573   0.184   2.772
 7429SOL    HW223187   6.504   0.302   2.861
 7430SOL     OW23188   6.997   4.707   5.501
 7430SOL    HW123189   6.961   4.617   5.525
 7430SOL    HW223190   0.064   4.698   5.467
 7431SOL     OW23191   0.511   3.435   1.266
 7431SOL    HW123192   0.478   3.370   1.334
 7431SOL    HW223193   0.440   3.503   1.248
 7432SOL     OW23194   0.904   6.220   4.008
 7432SOL    HW123195   0.878   6.172   4.091
 7432SOL    HW223196   0.827   6.222   3.945
 7433SOL     OW23197   6.253   5.172   1.127
 7433SOL    HW123198   6.349   5.145   1.114
 7433SOL    HW223199   6.242   5.269   1.105
 7434SOL     OW23200   2.879   1.598   6.835
 7434SOL    HW123201   2.964   1.648   6.849
 7434SOL    HW223202   2.850   1.557   6.921
 7435SOL     OW23203   3.432   6.512   5.634
 7435SOL    HW123204   3.507   6.564   5.594
 7435SOL    HW223205   3.425   6.423   5.589
 7436SOL     OW23206   6.211   2.953   6.676
 7436SOL    HW123207   6.215   2.858   6.708
 7436SOL    HW223208   6.236   3.014   6.751
 7437SOL     OW23209   6.574   5.005   6.707
 7437SOL    HW123210   6.622   5.079   6.754
 7437SOL    HW223211   6.627   4.977   6.626
 7438SOL     OW23212   0.703   4.122   1.923
 7438SOL    HW123213   0.776   4.070   1.879
 7438SOL    HW223214   0.735   4.216   1.939
 7439SOL     OW23215   2.775   6.937   3.695
 7439SOL    HW123216   2.816   0.002   3.688
 7439SOL    HW223217   2.815   6.888   3.772
 7440SOL     OW23218   0.877   3.160   4.918
 7440SOL    HW123219   0.943   3.235   4.928
 7440SOL    HW223220   0.854   3.148   4.822
 7441SOL     OW23221   5.581   6.866   4.004
 7441SOL    HW123222   5.660   6.911   4.044
 7441SOL    HW223223   5.612   6.797   3.938
 7442SOL     OW23224   1.318   0.850   6.696
 7442SOL    HW123225   1.376   0.877   6.772
 7442SOL    HW223226   1.259   0.774   6.724
 7443SOL     OW23227   6.758   1.861   0.725
 7443SOL    HW123228   6.766   1.824   0.632
 7443SOL    HW223229   6.741   1.960   0.719
 7444SOL     OW23230   6.892   3.120   6.524
 7444SOL    HW123231   6.904   3.171   6.609
 7444SOL    HW223232   6.812   3.154   6.475
 7445SOL     OW23233   4.983   1.163   1.456
 7445SOL    HW123234   4.909   1.163   1.524
 7445SOL    HW223235   5.001   1.258   1.428
 7446SOL     OW23236   6.439   4.277   6.933
 7446SOL    HW123237   6.522   4.273   6.877
 7446SOL    HW223238   6.452   4.340   7.009
 7447SOL     OW23239   2.395   4.606   6.504
 7447SOL    HW123240   2.382   4.702   6.477
 7447SOL    HW223241   2.475   4.569   6.458
 7448SOL     OW23242   5.651   6.836   5.889
 7448SOL    HW123243   5.696   6.923   5.910
 7448SOL    HW223244   5.660   6.816   5.792
 7449SOL     OW23245   4.846   2.026   2.283
 7449SOL    HW123246   4.777   2.055   2.216
 7449SOL    HW223247   4.935   2.065   2.257
 7450SOL     OW23248   4.908   2.661   3.517
 7450SOL    HW123249   4.836   2.708   3.569
 7450SOL    HW223250   4.938   2.580   3.567
 7451SOL     OW23251   1.515   0.089   3.768
 7451SOL    HW123252   1.520   0.186   3.789
 7451SOL    HW223253   1.553   0.037   3.845
 7452SOL     OW23254   1.678   0.315   4.524
 7452SOL    HW123255   1.747   0.375   4.565
 7452SOL    HW223256   1.691   0.311   4.425
 7453SOL     OW23257   5.747   5.963   4.906
 7453SOL    HW123258   5.734   5.954   5.005
 7453SOL    HW223259   5.678   5.909   4.858
 7454SOL     OW23260   0.993   3.185   1.360
 7454SOL    HW123261   0.968   3.282   1.361
 7454SOL    HW223262   0.910   3.130   1.373
 7455SOL     OW23263   5.512   1.607   1.398
 7455SOL    HW123264   5.556   1.632   1.312
 7455SOL    HW223265   5.440   1.673   1.419
 7456SOL     OW23266   1.585   2.322   4.557
 7456SOL    HW123267   1.582   2.222   4.550
 7456SOL    HW223268   1.662   2.350   4.613
 7457SOL     OW23269   5.524   0.526   5.371
 7457SOL    HW123270   5.503   0.471   5.452
 7457SOL    HW223271   5.605   0.581   5.389
 7458SOL     OW23272   2.521   6.849   6.698
 7458SOL    HW123273   2.555   6.868   6.606
 7458SOL    HW223274   2.470   6.763   6.698
 7459SOL     OW23275   4.609   0.272   6.457
 7459SOL    HW123276   4.598   0.332   6.536
 7459SOL    HW223277   4.688   0.302   6.402
 7460SOL     OW23278   2.104   5.458   0.604
 7460SOL    HW123279   2.019   5.489   0.562
 7460SOL    HW223280   2.179   5.466   0.538
 7461SOL     OW23281   5.320   1.333   5.550
 7461SOL    HW123282   5.241   1.273   5.536
 7461SOL    HW223283   5.392   1.284   5.599
 7462SOL     OW23284   2.012   2.470   1.374
 7462SOL    HW123285   1.965   2.476   1.286
 7462SOL    HW223286   1.972   2.535   1.438
 7463SOL     OW23287   3.510   2.933   1.561
 7463SOL    HW123288   3.441   2.882   1.612
 7463SOL    HW223289   3.600   2.915   1.599
 7464SOL     OW23290   4.043   5.837   6.650
 7464SOL    HW123291   4.048   5.798   6.558
 7464SOL    HW223292   4.045   5.764   6.717
 7465SOL     OW23293   1.643   0.300   1.146
 7465SOL    HW123294   1.620   0.290   1.050
 7465SOL    HW223295   1.723   0.359   1.156
 7466SOL     OW23296   1.008   0.448   5.982
 7466SOL    HW123297   1.042   0.379   6.046
 7466SOL    HW223298   1.063   0.530   5.989
 7467SOL     OW23299   6.468   2.014   1.482
 7467SOL    HW123300   6.519   2.039   1.564
 7467SOL    HW223301   6.457   2.095   1.424
 7468SOL     OW23302   4.820   2.099   2.560
 7468SOL    HW123303   4.907   2.063   2.594
 7468SOL    HW223304   4.821   2.097   2.460
 7469SOL     OW23305   1.089   6.966   6.769
 7469SOL    HW123306   0.991   6.979   6.786
 7469SOL    HW223307   1.110   6.868   6.765
 7470SOL     OW23308   0.667   3.212   2.702
 7470SOL    HW123309   0.645   3.302   2.739
 7470SOL    HW223310   0.664   3.215   2.603
 7471SOL     OW23311   6.303   6.588   4.796
 7471SOL    HW123312   6.313   6.492   4.768
 7471SOL    HW223313   6.258   6.591   4.886
 7472SOL     OW23314   4.729   6.788   4.403
 7472SOL    HW123315   4.738   6.750   4.311
 7472SOL    HW223316   4.676   6.873   4.399
 7473SOL     OW23317   6.806   4.307   3.393
 7473SOL    HW123318   6.778   4.339   3.302
 7473SOL    HW223319   6.726   4.281   3.446
 7474SOL     OW23320   2.990   1.020   4.161
 7474SOL    HW123321   2.918   1.013   4.092
 7474SOL    HW223322   2.962   0.971   4.244
 7475SOL     OW23323   4.833   0.533   2.431
 7475SOL    HW123324   4.844   0.633   2.436
 7475SOL    HW223325   4.748   0.512   2.382
 7476SOL     OW23326   4.370   6.086   4.915
 7476SOL    HW123327   4.373   5.991   4.884
 7476SOL    HW223328   4.316   6.140   4.851
 7477SOL     OW23329   4.541   0.604   3.967
 7477SOL    HW123330   4.552   0.587   4.065
 7477SOL    HW223331   4.626   0.641   3.930
 7478SOL     OW23332   4.026   4.069   6.218
 7478SOL    HW123333   3.973   4.006   6.276
 7478SOL    HW223334   3.965   4.142   6.185
 7479SOL     OW23335   3.888   1.859   1.096
 7479SOL    HW123336   3.982   1.824   1.107
 7479SOL    HW223337   3.881   1.908   1.009
 7480SOL     OW23338   6.306   5.856   1.476
 7480SOL    HW123339   6.258   5.908   1.546
 7480SOL    HW223340   6.240   5.811   1.416
 7481SOL     OW23341   5.445   5.362   1.240
 7481SOL    HW123342   5.400   5.410   1.165
 7481SOL    HW223343   5.458   5.424   1.317
 7482SOL     OW23344   3.942   1.362   1.868
 7482SOL    HW123345   3.939   1.312   1.955
 7482SOL    HW223346   3.907   1.305   1.795
 7483SOL     OW23347   4.059   1.955   4.694
 7483SOL    HW123348   4.026   2.046   4.670
 7483SOL    HW223349   4.104   1.958   4.784
 7484SOL     OW23350   0.194   0.356   1.905
 7484SOL    HW123351   0.231   0.444   1.935
 7484SOL    HW223352   0.253   0.282   1.935
 7485SOL     OW23353   3.228   6.293   4.960
 7485SOL    HW123354   3.144   6.239   4.967
 7485SOL    HW223355   3.231   6.338   4.871
 7486SOL     OW23356   2.176   6.850   5.284
 7486SOL    HW123357   2.242   6.800   5.340
 7486SOL    HW223358   2.087   6.850   5.328
 7487SOL     OW23359   1.848   6.886   2.438
 7487SOL    HW123360   1.904   6.957   2.395
 7487SOL    HW223361   1.905   6.806   2.457
 7488SOL     OW23362   2.202   0.124   5.290
 7488SOL    HW123363   2.139   0.152   5.217
 7488SOL    HW223364   2.239   0.033   5.268
 7489SOL     OW23365   4.510   2.192   5.224
 7489SOL    HW123366   4.598   2.145   5.221
 7489SOL    HW223367   4.525   2.291   5.229
 7490SOL     OW23368   0.510   0.559   1.104
 7490SOL    HW123369   0.609   0.567   1.121
 7490SOL    HW223370   0.471   0.492   1.168
 7491SOL     OW23371   0.742   5.083   6.618
 7491SOL    HW123372   0.656   5.133   6.624
 7491SOL    HW223373   0.787   5.083   6.707
 7492SOL     OW23374   2.314   1.876   5.143
 7492SOL    HW123375   2.238   1.900   5.083
 7492SOL    HW223376   2.394   1.855   5.088
 7493SOL     OW23377   6.368   4.570   5.959
 7493SOL    HW123378   6.462   4.593   5.982
 7493SOL    HW223379   6.362   4.550   5.861
 7494SOL     OW23380   5.679   1.054   2.304
 7494SOL    HW123381   5.709   1.129   2.246
 7494SOL    HW223382   5.669   1.086   2.399
 7495SOL     OW23383   2.121   1.167   0.739
 7495SOL    HW123384   2.148   1.264   0.740
 7495SOL    HW223385   2.204   1.110   0.741
 7496SOL     OW23386   1.401   4.436   5.987
 7496SOL    HW123387   1.348   4.365   5.941
 7496SOL    HW223388   1.485   4.395   6.025
 7497SOL     OW23389   2.944   5.265   1.618
 7497SOL    HW123390   2.926   5.274   1.520
 7497SOL    HW223391   2.862   5.233   1.664
 7498SOL     OW23392   2.619   1.407   4.223
 7498SOL    HW123393   2.529   1.379   4.190
 7498SOL    HW223394   2.656   1.478   4.164
 7499SOL     OW23395   6.245   0.023   3.511
 7499SOL    HW123396   6.223   6.995   3.430
 7499SOL    HW223397   6.340   0.055   3.504
 7500SOL     OW23398   3.941   6.174   2.671
 7500SOL    HW123399   3.893   6.109   2.610
 7500SOL    HW223400   3.888   6.259   2.676
 7501SOL     OW23401   6.376   4.203   4.126
 7501SOL    HW123402   6.290   4.156   4.148
 7501SOL    HW223403   6.373   4.296   4.163
 7502SOL     OW23404   1.509   1.244   5.348
 7502SOL    HW123405   1.428   1.186   5.355
 7502SOL    HW223406   1.481   1.338   5.330
 7503SOL     OW23407   2.979   0.881   6.584
 7503SOL    HW123408   2.965   0.956   6.649
 7503SOL    HW223409   2.938   0.798   6.620
 7504SOL     OW23410   4.135   6.748   3.707
 7504SOL    HW123411   4.094   6.661   3.682
 7504SOL    HW223412   4.234   6.739   3.711
 7505SOL     OW23413   3.346   0.870   5.371
 7505SOL    HW123414   3.302   0.868   5.461
 7505SOL    HW223415   3.429   0.815   5.373
 7506SOL     OW23416   3.767   0.849   2.605
 7506SOL    HW123417   3.753   0.852   2.704
 7506SOL    HW223418   3.768   0.942   2.568
 7507SOL     OW23419   0.165   6.248   0.274
 7507SOL    HW123420   0.088   6.208   0.224
 7507SOL    HW223421   0.198   6.329   0.226
 7508SOL     OW23422   5.900   6.577   2.578
 7508SOL    HW123423   5.841   6.648   2.615
 7508SOL    HW223424   5.853   6.489   2.580
 7509SOL     OW23425   4.648   4.910   0.495
 7509SOL    HW123426   4.639   4.812   0.512
 7509SOL    HW223427   4.644   4.928   0.397
 7510SOL     OW23428   3.186   3.930   4.874
 7510SOL    HW123429   3.092   3.908   4.850
 7510SOL    HW223430   3.188   4.002   4.943
 7511SOL     OW23431   1.181   0.439   2.041
 7511SOL    HW123432   1.183   0.356   2.097
 7511SOL    HW223433   1.086   0.471   2.033
 7512SOL     OW23434   2.822   4.265   1.291
 7512SOL    HW123435   2.856   4.359   1.294
 7512SOL    HW223436   2.898   4.202   1.274
 7513SOL     OW23437   1.556   2.887   0.303
 7513SOL    HW123438   1.643   2.839   0.309
 7513SOL    HW223439   1.556   2.948   0.224
 7514SOL     OW23440   2.677   6.261   2.149
 7514SOL    HW123441   2.635   6.180   2.108
 7514SOL    HW223442   2.740   6.303   2.084
 7515SOL     OW23443   0.720   0.241   2.784
 7515SOL    HW123444   0.752   0.195   2.701
 7515SOL    HW223445   0.789   0.229   2.857
 7516SOL     OW23446   6.672   6.029   4.295
 7516SOL    HW123447   6.680   6.128   4.299
 7516SOL    HW223448   6.760   5.987   4.319
 7517SOL     OW23449   6.742   3.628   1.046
 7517SOL    HW123450   6.811   3.615   1.118
 7517SOL    HW223451   6.651   3.618   1.085
 7518SOL     OW23452   3.570   5.631   3.435
 7518SOL    HW123453   3.651   5.574   3.422
 7518SOL    HW223454   3.581   5.717   3.384
 7519SOL     OW23455   0.635   6.213   4.208
 7519SOL    HW123456   0.561   6.147   4.220
 7519SOL    HW223457   0.723   6.166   4.208
 7520SOL     OW23458   2.167   0.341   2.267
 7520SOL    HW123459   2.129   0.286   2.341
 7520SOL    HW223460   2.102   0.345   2.192
 7521SOL     OW23461   4.363   4.656   5.409
 7521SOL    HW123462   4.272   4.669   5.450
 7521SOL    HW223463   4.433   4.691   5.472
 7522SOL     OW23464   2.678   1.012   6.387
 7522SOL    HW123465   2.725   1.029   6.473
 7522SOL    HW223466   2.586   1.052   6.391
 7523SOL     OW23467   6.208   1.062   5.473
 7523SOL    HW123468   6.210   1.160   5.491
 7523SOL    HW223469   6.124   1.023   5.510
 7524SOL     OW23470   0.579   2.746   6.248
 7524SOL    HW123471   0.531   2.660   6.231
 7524SOL    HW223472   0.619   2.780   6.163
 7525SOL     OW23473   2.246   0.024   6.198
 7525SOL    HW123474   2.270   6.997   6.117
 7525SOL    HW223475   2.274   0.119   6.186
 7526SOL     OW23476   3.813   3.063   3.656
 7526SOL    HW123477   3.889   3.006   3.624
 7526SOL    HW223478   3.817   3.070   3.756
 7527SOL     OW23479   4.551   4.720   2.550
 7527SOL    HW123480   4.562   4.621   2.554
 7527SOL    HW223481   4.626   4.760   2.498
 7528SOL     OW23482   4.522   2.273   0.307
 7528SOL    HW123483   4.568   2.271   0.219
 7528SOL    HW223484   4.485   2.183   0.327
 7529SOL     OW23485   5.637   1.392   4.185
 7529SOL    HW123486   5.664   1.407   4.090
 7529SOL    HW223487   5.557   1.447   4.206
 7530SOL     OW23488   0.066   3.268   2.176
 7530SOL    HW123489   6.996   3.252   2.196
 7530SOL    HW223490   0.074   3.328   2.096
 7531SOL     OW23491   4.626   2.251   4.543
 7531SOL    HW123492   4.614   2.320   4.471
 7531SOL    HW223493   4.682   2.176   4.508
 7532SOL     OW23494   5.265   5.601   1.791
 7532SOL    HW123495   5.261   5.687   1.841
 7532SOL    HW223496   5.228   5.527   1.848
 7533SOL     OW23497   1.962   0.849   2.749
 7533SOL    HW123498   2.012   0.823   2.667
 7533SOL    HW223499   2.009   0.812   2.830
 7534SOL     OW23500   3.911   6.276   4.900
 7534SOL    HW123501   3.840   6.266   4.830
 7534SOL    HW223502   3.921   6.190   4.951
 7535SOL     OW23503   2.693   1.315   5.602
 7535SOL    HW123504   2.746   1.269   5.531
 7535SOL    HW223505   2.746   1.393   5.638
 7536SOL     OW23506   5.312   4.781   5.255
 7536SOL    HW123507   5.235   4.822   5.205
 7536SOL    HW223508   5.341   4.843   5.328
 7537SOL     OW23509   2.020   4.319   5.416
 7537SOL    HW123510   1.930   4.350   5.385
 7537SOL    HW223511   2.080   4.305   5.337
 7538SOL     OW23512   3.497   3.466   2.938
 7538SOL    HW123513   3.463   3.518   3.017
 7538SOL    HW223514   3.503   3.526   2.858
 7539SOL     OW23515   2.489   2.161   5.075
 7539SOL    HW123516   2.589   2.163   5.069
 7539SOL    HW223517   2.462   2.107   5.155
 7540SOL     OW23518   3.271   0.760   6.228
 7540SOL    HW123519   3.197   0.776   6.294
 7540SOL    HW223520   3.239   0.783   6.136
 7541SOL     OW23521   0.014   4.013   5.367
 7541SOL    HW123522   6.989   4.023   5.452
 7541SOL    HW223523   6.984   4.043   5.291
 7542SOL     OW23524   0.707   6.717   6.233
 7542SOL    HW123525   0.804   6.732   6.247
 7542SOL    HW223526   0.664   6.801   6.200
 7543SOL     OW23527   4.121   1.984   0.455
 7543SOL    HW123528   4.055   2.016   0.523
 7543SOL    HW223529   4.109   1.886   0.441
 7544SOL     OW23530   0.077   1.922   3.107
 7544SOL    HW123531   0.115   1.968   3.188
 7544SOL    HW223532   0.152   1.880   3.055
 7545SOL     OW23533   4.781   6.652   2.934
 7545SOL    HW123534   4.799   6.578   2.999
 7545SOL    HW223535   4.705   6.625   2.874
 7546SOL     OW23536   4.432   0.514   0.633
 7546SOL    HW123537   4.489   0.588   0.599
 7546SOL    HW223538   4.403   0.456   0.557
 7547SOL     OW23539   4.073   6.366   0.347
 7547SOL    HW123540   4.015   6.341   0.425
 7547SOL    HW223541   4.089   6.286   0.291
 7548SOL     OW23542   2.447   1.761   0.225
 7548SOL    HW123543   2.526   1.716   0.183
 7548SOL    HW223544   2.393   1.693   0.275
 7549SOL     OW23545   5.611   2.090   2.051
 7549SOL    HW123546   5.577   2.033   2.125
 7549SOL    HW223547   5.703   2.123   2.073
 7550SOL     OW23548   2.536   5.618   2.771
 7550SOL    HW123549   2.590   5.670   2.705
 7550SOL    HW223550   2.559   5.521   2.765
 7551SOL     OW23551   4.480   3.802   6.745
 7551SOL    HW123552   4.523   3.876   6.798
 7551SOL    HW223553   4.547   3.729   6.730
 7552SOL     OW23554   2.229   5.333   3.563
 7552SOL    HW123555   2.258   5.262   3.499
 7552SOL    HW223556   2.244   5.302   3.657
 7553SOL     OW23557   3.611   5.178   5.972
 7553SOL    HW123558   3.622   5.079   5.982
 7553SOL    HW223559   3.575   5.217   6.057
 7554SOL     OW23560   5.022   1.402   0.749
 7554SOL    HW123561   5.076   1.480   0.716
 7554SOL    HW223562   5.049   1.379   0.842
 7555SOL     OW23563   1.407   5.515   4.861
 7555SOL    HW123564   1.478   5.512   4.931
 7555SOL    HW223565   1.354   5.430   4.863
 7556SOL     OW23566   0.257   2.329   5.314
 7556SOL    HW123567   0.321   2.252   5.315
 7556SOL    HW223568   0.199   2.325   5.395
 7557SOL     OW23569   5.068   3.868   6.013
 7557SOL    HW123570   5.164   3.840   6.017
 7557SOL    HW223571   5.010   3.792   6.042
 7558SOL     OW23572   2.412   2.678   4.119
 7558SOL    HW123573   2.414   2.695   4.218
 7558SOL    HW223574   2.318   2.677   4.087
 7559SOL     OW23575   6.400   5.588   1.282
 7559SOL    HW123576   6.475   5.522   1.277
 7559SOL    HW223577   6.418   5.654   1.354
 7560SOL     OW23578   5.128   6.802   6.852
 7560SOL    HW123579   5.067   6.881   6.860
 7560SOL    HW223580   5.194   6.818   6.779
 7561SOL     OW23581   0.826   3.383   0.162
 7561SOL    HW123582   0.837   3.367   0.064
 7561SOL    HW223583   0.855   3.302   0.212
 7562SOL     OW23584   5.093   6.124   4.494
 7562SOL    HW123585   5.076   6.060   4.420
 7562SOL    HW223586   5.067   6.217   4.465
 7563SOL     OW23587   2.901   0.116   1.031
 7563SOL    HW123588   2.817   0.164   1.005
 7563SOL    HW223589   2.935   0.063   0.954
 7564SOL     OW23590   5.053   0.997   3.275
 7564SOL    HW123591   4.969   1.040   3.307
 7564SOL    HW223592   5.057   0.903   3.308
 7565SOL     OW23593   4.968   4.545   6.691
 7565SOL    HW123594   5.040   4.519   6.627
 7565SOL    HW223595   4.908   4.613   6.648
 7566SOL     OW23596   1.117   4.766   3.757
 7566SOL    HW123597   1.040   4.813   3.713
 7566SOL    HW223598   1.088   4.731   3.846
 7567SOL     OW23599   1.322   3.166   5.454
 7567SOL    HW123600   1.359   3.083   5.413
 7567SOL    HW223601   1.281   3.145   5.543
 7568SOL     OW23602   6.152   5.509   4.402
 7568SOL    HW123603   6.108   5.595   4.375
 7568SOL    HW223604   6.118   5.481   4.492
 7569SOL     OW23605   4.621   5.994   6.191
 7569SOL    HW123606   4.571   5.960   6.112
 7569SOL    HW223607   4.574   5.967   6.275
 7570SOL     OW23608   5.731   4.786   5.416
 7570SOL    HW123609   5.692   4.760   5.328
 7570SOL    HW223610   5.660   4.782   5.486
 7571SOL     OW23611   5.211   4.574   1.784
 7571SOL    HW123612   5.212   4.651   1.721
 7571SOL    HW223613   5.304   4.538   1.793
 7572SOL     OW23614   5.019   0.368   3.839
 7572SOL    HW123615   4.993   0.279   3.878
 7572SOL    HW223616   5.059   0.354   3.748
 7573SOL     OW23617   5.687   5.621   4.212
 7573SOL    HW123618   5.716   5.700   4.267
 7573SOL    HW223619   5.701   5.641   4.115
 7574SOL     OW23620   5.816   1.434   4.655
 7574SOL    HW123621   5.853   1.357   4.706
 7574SOL    HW223622   5.717   1.441   4.672
 7575SOL     OW23623   4.257   0.767   5.977
 7575SOL    HW123624   4.223   0.777   5.884
 7575SOL    HW223625   4.315   0.845   6.000
 7576SOL     OW23626   6.014   5.677   0.177
 7576SOL    HW123627   6.078   5.698   0.103
 7576SOL    HW223628   5.997   5.578   0.179
 7577SOL     OW23629   6.503   0.197   4.929
 7577SOL    HW123630   6.476   0.270   4.866
 7577SOL    HW223631   6.530   0.237   5.017
 7578SOL     OW23632   1.793   6.244   3.763
 7578SOL    HW123633   1.783   6.145   3.755
 7578SOL    HW223634   1.841   6.266   3.848
 7579SOL     OW23635   4.201   2.158   2.160
 7579SOL    HW123636   4.271   2.214   2.115
 7579SOL    HW223637   4.119   2.154   2.104
 7580SOL     OW23638   1.506   3.562   3.987
 7580SOL    HW123639   1.571   3.580   4.061
 7580SOL    HW223640   1.554   3.520   3.910
 7581SOL     OW23641   4.380   1.378   0.404
 7581SOL    HW123642   4.348   1.369   0.498
 7581SOL    HW223643   4.405   1.288   0.369
 7582SOL     OW23644   3.764   1.750   0.290
 7582SOL    HW123645   3.834   1.798   0.237
 7582SOL    HW223646   3.744   1.662   0.246
 7583SOL     OW23647   6.145   3.501   1.830
 7583SOL    HW123648   6.071   3.568   1.834
 7583SOL    HW223649   6.193   3.499   1.917
 7584SOL     OW23650   2.566   0.149   1.574
 7584SOL    HW123651   2.559   0.078   1.645
 7584SOL    HW223652   2.487   0.210   1.580
 7585SOL     OW23653   1.473   3.088   5.952
 7585SOL    HW123654   1.471   3.183   5.921
 7585SOL    HW223655   1.473   3.027   5.873
 7586SOL     OW23656   2.974   1.041   3.002
 7586SOL    HW123657   3.035   0.965   2.980
 7586SOL    HW223658   2.951   1.039   3.099
 7587SOL     OW23659   2.767   1.538   6.588
 7587SOL    HW123660   2.819   1.469   6.537
 7587SOL    HW223661   2.803   1.543   6.682
 7588SOL     OW23662   0.404   3.853   1.697
 7588SOL    HW123663   0.336   3.899   1.639
 7588SOL    HW223664   0.496   3.871   1.661
 7589SOL     OW23665   6.289   6.270   0.520
 7589SOL    HW123666   6.351   6.201   0.484
 7589SOL    HW223667   6.196   6.232   0.525
 7590SOL     OW23668   3.231   1.734   6.096
 7590SOL    HW123669   3.147   1.743   6.149
 7590SOL    HW223670   3.277   1.823   6.091
 7591SOL     OW23671   0.437   5.354   0.787
 7591SOL    HW123672   0.514   5.339   0.849
 7591SOL    HW223673   0.441   5.447   0.751
 7592SOL     OW23674   0.013   4.322   6.582
 7592SOL    HW123675   6.947   4.350   6.554
 7592SOL    HW223676   0.078   4.394   6.558
 7593SOL     OW23677   5.812   2.806   6.604
 7593SOL    HW123678   5.824   2.900   6.637
 7593SOL    HW223679   5.802   2.745   6.683
 7594SOL     OW23680   0.452   4.568   1.597
 7594SOL    HW123681   0.431   4.664   1.576
 7594SOL    HW223682   0.387   4.509   1.549
 7595SOL     OW23683   0.595   2.984   6.447
 7595SOL    HW123684   0.516   2.953   6.394
 7595SOL    HW223685   0.679   2.968   6.395
 7596SOL     OW23686   4.879   5.403   2.320
 7596SOL    HW123687   4.973   5.406   2.354
 7596SOL    HW223688   4.815   5.404   2.398
 7597SOL     OW23689   2.860   5.954   1.692
 7597SOL    HW123690   2.899   5.979   1.604
 7597SOL    HW223691   2.906   5.873   1.727
 7598SOL     OW23692   5.930   1.008   2.871
 7598SOL    HW123693   5.904   1.056   2.787
 7598SOL    HW223694   5.853   1.011   2.936
 7599SOL     OW23695   5.255   1.107   3.671
 7599SOL    HW123696   5.185   1.039   3.651
 7599SOL    HW223697   5.212   1.195   3.692
 7600SOL     OW23698   1.885   0.733   2.331
 7600SOL    HW123699   1.861   0.649   2.380
 7600SOL    HW223700   1.826   0.807   2.363
 7601SOL     OW23701   1.983   5.577   3.170
 7601SOL    HW123702   1.904   5.633   3.191
 7601SOL    HW223703   2.036   5.619   3.096
 7602SOL     OW23704   1.414   3.763   5.298
 7602SOL    HW123705   1.465   3.762   5.212
 7602SOL    HW223706   1.363   3.848   5.306
 7603SOL     OW23707   1.464   6.064   6.494
 7603SOL    HW123708   1.401   6.072   6.571
 7603SOL    HW223709   1.416   6.023   6.416
 7604SOL     OW23710   2.641   5.387   4.150
 7604SOL    HW123711   2.627   5.301   4.100
 7604SOL    HW223712   2.566   5.450   4.130
 7605SOL     OW23713   1.679   6.384   0.555
 7605SOL    HW123714   1.624   6.449   0.502
 7605SOL    HW223715   1.749   6.433   0.606
 7606SOL     OW23716   0.157   2.209   2.300
 7606SOL    HW123717   0.243   2.200   2.249
 7606SOL    HW223718   0.100   2.278   2.256
 7607SOL     OW23719   4.242   6.682   0.157
 7607SOL    HW123720   4.179   6.614   0.120
 7607SOL    HW223721   4.243   6.762   0.097
 7608SOL     OW23722   3.360   4.081   3.054
 7608SOL    HW123723   3.315   4.054   3.139
 7608SOL    HW223724   3.291   4.106   2.986
 7609SOL     OW23725   6.374   3.420   3.030
 7609SOL    HW123726   6.397   3.420   2.933
 7609SOL    HW223727   6.430   3.352   3.077
 7610SOL     OW23728   5.865   1.070   7.004
 7610SOL    HW123729   5.896   1.041   0.069
 7610SOL    HW223730   5.772   1.036   6.988
 7611SOL     OW23731   0.736   1.665   0.014
 7611SOL    HW123732   0.722   1.724   6.961
 7611SOL    HW223733   0.693   1.576   7.024
 7612SOL     OW23734   4.019   2.114   4.200
 7612SOL    HW123735   4.070   2.163   4.271
 7612SOL    HW223736   4.043   2.017   4.203
 7613SOL     OW23737   4.838   2.033   1.880
 7613SOL    HW123738   4.782   1.996   1.954
 7613SOL    HW223739   4.894   2.108   1.914
 7614SOL     OW23740   4.475   2.949   1.347
 7614SOL    HW123741   4.475   2.858   1.389
 7614SOL    HW223742   4.508   3.016   1.414
 7615SOL     OW23743   5.088   4.526   6.193
 7615SOL    HW123744   5.106   4.617   6.231
 7615SOL    HW223745   5.107   4.527   6.095
 7616SOL     OW23746   0.542   4.353   4.095
 7616SOL    HW123747   0.636   4.378   4.120
 7616SOL    HW223748   0.513   4.406   4.016
 7617SOL     OW23749   2.885   5.740   2.668
 7617SOL    HW123750   2.917   5.661   2.720
 7617SOL    HW223751   2.786   5.733   2.654
 7618SOL     OW23752   1.108   1.680   6.669
 7618SOL    HW123753   1.194   1.694   6.718
 7618SOL    HW223754   1.070   1.769   6.643
 7619SOL     OW23755   5.732   3.182   5.083
 7619SOL    HW123756   5.706   3.248   5.012
 7619SOL    HW223757   5.723   3.089   5.047
 7620SOL     OW23758   3.626   5.760   0.118
 7620SOL    HW123759   3.668   5.757   0.208
 7620SOL    HW223760   3.660   5.840   0.068
 7621SOL     OW23761   0.759   1.244   0.486
 7621SOL    HW123762   0.691   1.267   0.417
 7621SOL    HW223763   0.753   1.309   0.562
 7622SOL     OW23764   5.266   3.717   1.716
 7622SOL    HW123765   5.352   3.671   1.735
 7622SOL    HW223766   5.248   3.716   1.617
 7623SOL     OW23767   4.371   4.841   6.470
 7623SOL    HW123768   4.298   4.873   6.410
 7623SOL    HW223769   4.365   4.742   6.482
 7624SOL     OW23770   0.426   2.878   4.306
 7624SOL    HW123771   0.514   2.832   4.293
 7624SOL    HW223772   0.374   2.876   4.220
 7625SOL     OW23773   4.822   0.381   0.751
 7625SOL    HW123774   4.741   0.403   0.804
 7625SOL    HW223775   4.842   0.283   0.758
 7626SOL     OW23776   6.848   6.729   5.465
 7626SOL    HW123777   6.790   6.682   5.532
 7626SOL    HW223778   6.944   6.702   5.479
 7627SOL     OW23779   6.261   3.139   6.876
 7627SOL    HW123780   6.200   3.207   6.836
 7627SOL    HW223781   6.343   3.184   6.910
 7628SOL     OW23782   3.199   0.533   1.142
 7628SOL    HW123783   3.169   0.441   1.118
 7628SOL    HW223784   3.299   0.538   1.137
 7629SOL     OW23785   6.525   7.010   2.802
 7629SOL    HW123786   6.429   6.984   2.798
 7629SOL    HW223787   6.567   6.971   2.883
 7630SOL     OW23788   6.153   6.129   2.176
 7630SOL    HW123789   6.175   6.041   2.219
 7630SOL    HW223790   6.074   6.169   2.221
 7631SOL     OW23791   0.888   1.680   5.580
 7631SOL    HW123792   0.899   1.777   5.560
 7631SOL    HW223793   0.890   1.667   5.680
 7632SOL     OW23794   3.771   2.048   1.429
 7632SOL    HW123795   3.814   1.958   1.427
 7632SOL    HW223796   3.767   2.081   1.524
 7633SOL     OW23797   4.847   2.681   0.280
 7633SOL    HW123798   4.878   2.763   0.327
 7633SOL    HW223799   4.847   2.604   0.343
 7634SOL     OW23800   1.344   1.057   2.112
 7634SOL    HW123801   1.429   1.107   2.095
 7634SOL    HW223802   1.282   1.068   2.034
 7635SOL     OW23803   2.421   4.893   5.688
 7635SOL    HW123804   2.456   4.804   5.658
 7635SOL    HW223805   2.326   4.884   5.716
 7636SOL     OW23806   0.826   1.385   3.171
 7636SOL    HW123807   0.916   1.422   3.148
 7636SOL    HW223808   0.814   1.387   3.270
 7637SOL     OW23809   1.601   6.547   2.259
 7637SOL    HW123810   1.504   6.526   2.271
 7637SOL    HW223811   1.626   6.538   2.163
 7638SOL     OW23812   4.989   5.833   2.386
 7638SOL    HW123813   4.911   5.771   2.396
 7638SOL    HW223814   4.999   5.888   2.469
 7639SOL     OW23815   1.248   2.063   0.365
 7639SOL    HW123816   1.302   2.117   0.428
 7639SOL    HW223817   1.308   2.005   0.310
 7640SOL     OW23818   2.744   2.328   0.154
 7640SOL    HW123819   2.734   2.415   0.104
 7640SOL    HW223820   2.668   2.267   0.129
 7641SOL     OW23821   0.587   4.224   1.388
 7641SOL    HW123822   0.631   4.209   1.477
 7641SOL    HW223823   0.541   4.140   1.359
 7642SOL     OW23824   2.760   1.635   3.004
 7642SOL    HW123825   2.717   1.552   2.969
 7642SOL    HW223826   2.707   1.671   3.081
 7643SOL     OW23827   4.458   1.924   4.085
 7643SOL    HW123828   4.507   1.990   4.141
 7643SOL    HW223829   4.422   1.969   4.004
 7644SOL     OW23830   6.298   1.921   2.904
 7644SOL    HW123831   6.373   1.976   2.941
 7644SOL    HW223832   6.241   1.978   2.844
 7645SOL     OW23833   4.544   4.793   6.016
 7645SOL    HW123834   4.461   4.739   6.003
 7645SOL    HW223835   4.572   4.788   6.112
 7646SOL     OW23836   1.542   2.916   2.561
 7646SOL    HW123837   1.534   2.885   2.466
 7646SOL    HW223838   1.639   2.922   2.585
 7647SOL     OW23839   1.580   2.961   1.118
 7647SOL    HW123840   1.598   2.873   1.075
 7647SOL    HW223841   1.650   2.979   1.187
 7648SOL     OW23842   3.957   2.079   3.886
 7648SOL    HW123843   3.873   2.105   3.934
 7648SOL    HW223844   4.012   2.020   3.945
 7649SOL     OW23845   1.726   0.698   2.776
 7649SOL    HW123846   1.732   0.634   2.699
 7649SOL    HW223847   1.812   0.749   2.783
 7650SOL     OW23848   5.598   3.358   1.121
 7650SOL    HW123849   5.640   3.390   1.206
 7650SOL    HW223850   5.512   3.311   1.142
 7651SOL     OW23851   2.776   0.053   5.487
 7651SOL    HW123852   2.821   0.128   5.535
 7651SOL    HW223853   2.819   6.992   5.512
 7652SOL     OW23854   6.907   3.753   4.427
 7652SOL    HW123855   6.987   3.751   4.487
 7652SOL    HW223856   6.938   3.760   4.332
 7653SOL     OW23857   2.522   2.003   0.329
 7653SOL    HW123858   2.606   1.966   0.367
 7653SOL    HW223859   2.475   1.933   0.275
 7654SOL     OW23860   4.723   2.811   3.111
 7654SOL    HW123861   4.789   2.738   3.127
 7654SOL    HW223862   4.693   2.849   3.199
 7655SOL     OW23863   3.766   0.557   3.816
 7655SOL    HW123864   3.839   0.624   3.828
 7655SOL    HW223865   3.695   0.595   3.757
 7656SOL     OW23866   1.283   5.672   5.591
 7656SOL    HW123867   1.348   5.610   5.635
 7656SOL    HW223868   1.200   5.622   5.566
 7657SOL     OW23869   2.682   2.371   2.821
 7657SOL    HW123870   2.727   2.322   2.897
 7657SOL    HW223871   2.695   2.319   2.736
 7658SOL     OW23872   4.492   6.689   5.948
 7658SOL    HW123873   4.399   6.725   5.954
 7658SOL    HW223874   4.557   6.760   5.974
 7659SOL     OW23875   5.655   6.086   6.534
 7659SOL    HW123876   5.578   6.084   6.598
 7659SOL    HW223877   5.677   6.181   6.511
 7660SOL     OW23878   6.392   5.367   4.411
 7660SOL    HW123879   6.482   5.370   4.368
 7660SOL    HW223880   6.329   5.427   4.362
 7661SOL     OW23881   6.062   1.810   4.396
 7661SOL    HW123882   5.982   1.759   4.427
 7661SOL    HW223883   6.117   1.753   4.335
 7662SOL     OW23884   1.161   2.088   2.081
 7662SOL    HW123885   1.104   2.107   2.001
 7662SOL    HW223886   1.147   2.158   2.151
 7663SOL     OW23887   6.309   6.747   6.026
 7663SOL    HW123888   6.339   6.770   6.119
 7663SOL    HW223889   6.254   6.821   5.989
 7664SOL     OW23890   3.537   0.423   2.356
 7664SOL    HW123891   3.612   0.395   2.295
 7664SOL    HW223892   3.568   0.498   2.415
 7665SOL     OW23893   4.101   0.592   3.737
 7665SOL    HW123894   4.163   0.526   3.779
 7665SOL    HW223895   4.043   0.632   3.809
 7666SOL     OW23896   6.863   0.106   1.224
 7666SOL    HW123897   6.818   0.126   1.312
 7666SOL    HW223898   6.944   0.163   1.215
 7667SOL     OW23899   4.851   5.981   1.483
 7667SOL    HW123900   4.811   6.032   1.559
 7667SOL    HW223901   4.822   6.022   1.397
 7668SOL     OW23902   2.775   4.566   0.932
 7668SOL    HW123903   2.721   4.610   0.861
 7668SOL    HW223904   2.865   4.610   0.937
 7669SOL     OW23905   5.452   1.807   5.142
 7669SOL    HW123906   5.366   1.755   5.138
 7669SOL    HW223907   5.506   1.789   5.060
 7670SOL     OW23908   1.558   5.885   6.250
 7670SOL    HW123909   1.510   5.798   6.259
 7670SOL    HW223910   1.641   5.884   6.305
 7671SOL     OW23911   4.579   1.358   5.226
 7671SOL    HW123912   4.596   1.447   5.184
 7671SOL    HW223913   4.482   1.350   5.249
 7672SOL     OW23914   5.545   6.236   3.802
 7672SOL    HW123915   5.533   6.276   3.893
 7672SOL    HW223916   5.469   6.175   3.783
 7673SOL     OW23917   2.390   5.310   0.008
 7673SOL    HW123918   2.445   5.235   0.044
 7673SOL    HW223919   2.396   5.311   6.934
 7674SOL     OW23920   6.590   2.225   4.193
 7674SOL    HW123921   6.501   2.269   4.175
 7674SOL    HW223922   6.614   2.236   4.289
 7675SOL     OW23923   5.005   0.742   2.691
 7675SOL    HW123924   5.082   0.800   2.718
 7675SOL    HW223925   4.949   0.722   2.771
 7676SOL     OW23926   1.180   1.733   0.404
 7676SOL    HW123927   1.179   1.671   0.483
 7676SOL    HW223928   1.165   1.827   0.435
 7677SOL     OW23929   1.139   3.785   1.547
 7677SOL    HW123930   1.045   3.784   1.513
 7677SOL    HW223931   1.185   3.701   1.520
 7678SOL     OW23932   1.892   1.272   5.931
 7678SOL    HW123933   1.849   1.305   5.847
 7678SOL    HW223934   1.953   1.196   5.910
 7679SOL     OW23935   1.337   6.601   5.067
 7679SOL    HW123936   1.426   6.647   5.060
 7679SOL    HW223937   1.265   6.669   5.079
 7680SOL     OW23938   1.789   2.761   0.189
 7680SOL    HW123939   1.844   2.731   0.267
 7680SOL    HW223940   1.725   2.689   0.164
 7681SOL     OW23941   2.673   6.939   0.477
 7681SOL    HW123942   2.691   6.865   0.412
 7681SOL    HW223943   2.574   6.956   0.481
 7682SOL     OW23944   2.492   0.233   2.080
 7682SOL    HW123945   2.403   0.250   2.037
 7682SOL    HW223946   2.481   0.171   2.157
 7683SOL     OW23947   6.936   2.055   4.392
 7683SOL    HW123948   6.954   1.961   4.363
 7683SOL    HW223949   7.010   2.114   4.359
 7684SOL     OW23950   5.580   2.130   0.285
 7684SOL    HW123951   5.574   2.216   0.235
 7684SOL    HW223952   5.522   2.135   0.367
 7685SOL     OW23953   3.441   3.312   0.141
 7685SOL    HW123954   3.469   3.260   0.222
 7685SOL    HW223955   3.342   3.304   0.128
 7686SOL     OW23956   4.748   0.379   3.557
 7686SOL    HW123957   4.662   0.409   3.516
 7686SOL    HW223958   4.766   0.284   3.532
 7687SOL     OW23959   6.158   5.796   5.399
 7687SOL    HW123960   6.063   5.767   5.408
 7687SOL    HW223961   6.161   5.888   5.358
 7688SOL     OW23962   0.423   0.597   6.651
 7688SOL    HW123963   0.328   0.590   6.621
 7688SOL    HW223964   0.483   0.594   6.571
 7689SOL     OW23965   5.391   6.084   3.419
 7689SOL    HW123966   5.381   6.042   3.509
 7689SOL    HW223967   5.484   6.068   3.386
 7690SOL     OW23968   6.067   5.233   1.474
 7690SOL    HW123969   6.028   5.277   1.393
 7690SOL    HW223970   6.160   5.202   1.454
 7691SOL     OW23971   4.731   2.789   4.415
 7691SOL    HW123972   4.707   2.753   4.324
 7691SOL    HW223973   4.787   2.871   4.404
 7692SOL     OW23974   0.662   0.122   1.340
 7692SOL    HW123975   0.630   0.058   1.410
 7692SOL    HW223976   0.750   0.091   1.305
 7693SOL     OW23977   4.454   6.875   0.640
 7693SOL    HW123978   4.408   6.906   0.723
 7693SOL    HW223979   4.415   6.787   0.612
 7694SOL     OW23980   0.373   4.191   4.255
 7694SOL    HW123981   0.446   4.244   4.212
 7694SOL    HW223982   0.399   4.166   4.348
 7695SOL     OW23983   4.131   6.825   0.555
 7695SOL    HW123984   4.177   6.819   0.644
 7695SOL    HW223985   4.078   6.742   0.539
 7696SOL     OW23986   6.841   1.942   4.602
 7696SOL    HW123987   6.874   2.005   4.532
 7696SOL    HW223988   6.918   1.908   4.656
 7697SOL     OW23989   2.758   0.644   2.545
 7697SOL    HW123990   2.677   0.684   2.589
 7697SOL    HW223991   2.761   0.673   2.449
 7698SOL     OW23992   0.298   2.928   4.654
 7698SOL    HW123993   0.281   2.832   4.676
 7698SOL    HW223994   0.390   2.937   4.616
 7699SOL     OW23995   3.425   5.801   6.612
 7699SOL    HW123996   3.488   5.744   6.560
 7699SOL    HW223997   3.454   5.804   6.708
 7700SOL     OW23998   5.454   6.803   5.252
 7700SOL    HW123999   5.452   6.707   5.223
 7700SOL    HW224000   5.409   6.859   5.183
 7701SOL     OW24001   6.039   1.510   6.879
 7701SOL    HW124002   5.971   1.548   6.941
 7701SOL    HW224003   6.123   1.564   6.886
 7702SOL     OW24004   3.403   6.414   5.310
 7702SOL    HW124005   3.306   6.427   5.287
 7702SOL    HW224006   3.460   6.458   5.240
 7703SOL     OW24007   6.777   1.298   4.782
 7703SOL    HW124008   6.689   1.249   4.782
 7703SOL    HW224009   6.794   1.336   4.691
 7704SOL     OW24010   4.581   4.700   5.573
 7704SOL    HW124011   4.624   4.757   5.502
 7704SOL    HW224012   4.589   4.745   5.661
 7705SOL     OW24013   3.638   4.769   5.964
 7705SOL    HW124014   3.545   4.797   5.987
 7705SOL    HW224015   3.697   4.777   6.044
 7706SOL     OW24016   5.055   1.672   6.006
 7706SOL    HW124017   5.034   1.632   5.918
 7706SOL    HW224018   5.051   1.602   6.077
 7707SOL     OW24019   0.819   5.878   6.622
 7707SOL    HW124020   0.777   5.968   6.635
 7707SOL    HW224021   0.810   5.851   6.526
 7708SOL     OW24022   5.090   6.071   5.186
 7708SOL    HW124023   5.176   6.031   5.157
 7708SOL    HW224024   5.020   6.057   5.116
 7709SOL     OW24025   4.944   3.824   1.950
 7709SOL    HW124026   4.922   3.732   1.918
 7709SOL    HW224027   5.011   3.866   1.890
 7710SOL     OW24028   2.751   1.014   1.159
 7710SOL    HW124029   2.751   0.914   1.153
 7710SOL    HW224030   2.661   1.049   1.132
 7711SOL     OW24031   6.566   6.229   4.855
 7711SOL    HW124032   6.535   6.134   4.864
 7711SOL    HW224033   6.506   6.278   4.792
 7712SOL     OW24034   6.666   4.276   1.393
 7712SOL    HW124035   6.663   4.368   1.355
 7712SOL    HW224036   6.753   4.233   1.369
 7713SOL     OW24037   1.658   4.713   0.430
 7713SOL    HW124038   1.645   4.744   0.335
 7713SOL    HW224039   1.674   4.614   0.430
 7714SOL     OW24040   6.558   5.721   5.116
 7714SOL    HW124041   6.552   5.688   5.211
 7714SOL    HW224042   6.557   5.642   5.054
 7715SOL     OW24043   4.850   1.230   1.145
 7715SOL    HW124044   4.817   1.274   1.228
 7715SOL    HW224045   4.820   1.282   1.065
 7716SOL     OW24046   5.590   3.443   3.819
 7716SOL    HW124047   5.578   3.383   3.739
 7716SOL    HW224048   5.667   3.505   3.802
 7717SOL     OW24049   2.805   1.104   4.815
 7717SOL    HW124050   2.843   1.108   4.723
 7717SOL    HW224051   2.864   1.157   4.877
 7718SOL     OW24052   1.444   2.727   2.742
 7718SOL    HW124053   1.398   2.746   2.829
 7718SOL    HW224054   1.486   2.811   2.708
 7719SOL     OW24055   6.713   3.256   3.600
 7719SOL    HW124056   6.737   3.341   3.552
 7719SOL    HW224057   6.670   3.279   3.688
 7720SOL     OW24058   0.212   6.756   0.572
 7720SOL    HW124059   0.157   6.711   0.642
 7720SOL    HW224060   0.245   6.844   0.606
 7721SOL     OW24061   1.585   4.357   3.362
 7721SOL    HW124062   1.582   4.300   3.279
 7721SOL    HW224063   1.497   4.351   3.409
 7722SOL     OW24064   0.290   5.074   2.702
 7722SOL    HW124065   0.330   4.985   2.723
 7722SOL    HW224066   0.192   5.064   2.685
 7723SOL     OW24067   6.432   4.207   0.529
 7723SOL    HW124068   6.345   4.254   0.542
 7723SOL    HW224069   6.460   4.165   0.616
 7724SOL     OW24070   2.459   4.379   2.368
 7724SOL    HW124071   2.504   4.425   2.291
 7724SOL    HW224072   2.528   4.343   2.431
 7725SOL     OW24073   5.332   2.621   3.213
 7725SOL    HW124074   5.267   2.686   3.252
 7725SOL    HW224075   5.363   2.655   3.124
 7726SOL     OW24076   0.269   5.274   3.849
 7726SOL    HW124077   0.360   5.308   3.824
 7726SOL    HW224078   0.256   5.285   3.947
 7727SOL     OW24079   5.976   1.951   3.418
 7727SOL    HW124080   6.037   1.951   3.339
 7727SOL    HW224081   6.027   1.976   3.500
 7728SOL     OW24082   0.924   3.722   3.977
 7728SOL    HW124083   1.010   3.748   4.020
 7728SOL    HW224084   0.876   3.804   3.945
 7729SOL     OW24085   5.882   2.719   1.860
 7729SOL    HW124086   5.817   2.670   1.801
 7729SOL    HW224087   5.862   2.817   1.857
 7730SOL     OW24088   5.748   5.488   2.126
 7730SOL    HW124089   5.835   5.443   2.146
 7730SOL    HW224090   5.723   5.472   2.030
 7731SOL     OW24091   5.883   0.990   1.038
 7731SOL    HW124092   5.785   0.995   1.056
 7731SOL    HW224093   5.929   1.068   1.081
 7732SOL     OW24094   4.618   6.078   0.750
 7732SOL    HW124095   4.707   6.071   0.705
 7732SOL    HW224096   4.626   6.133   0.833
 7733SOL     OW24097   4.217   6.139   1.950
 7733SOL    HW124098   4.309   6.157   1.917
 7733SOL    HW224099   4.208   6.173   2.043
 7734SOL     OW24100   1.427   4.142   3.923
 7734SOL    HW124101   1.491   4.066   3.922
 7734SOL    HW224102   1.440   4.198   3.841
 7735SOL     OW24103   3.847   5.143   6.568
 7735SOL    HW124104   3.945   5.160   6.561
 7735SOL    HW224105   3.802   5.166   6.482
 7736SOL     OW24106   5.318   4.310   6.905
 7736SOL    HW124107   5.309   4.252   6.987
 7736SOL    HW224108   5.244   4.377   6.904
 7737SOL     OW24109   4.454   1.032   1.009
 7737SOL    HW124110   4.458   1.086   0.925
 7737SOL    HW224111   4.370   1.054   1.059
 7738SOL     OW24112   2.149   5.716   6.839
 7738SOL    HW124113   2.224   5.748   6.897
 7738SOL    HW224114   2.073   5.781   6.845
 7739SOL     OW24115   0.182   1.451   1.591
 7739SOL    HW124116   0.098   1.419   1.546
 7739SOL    HW224117   0.159   1.523   1.656
 7740SOL     OW24118   0.710   0.611   2.941
 7740SOL    HW124119   0.692   0.596   2.843
 7740SOL    HW224120   0.806   0.591   2.961
 7741SOL     OW24121   1.421   6.128   4.382
 7741SOL    HW124122   1.458   6.188   4.453
 7741SOL    HW224123   1.470   6.144   4.296
 7742SOL     OW24124   6.446   2.011   3.525
 7742SOL    HW124125   6.405   2.077   3.588
 7742SOL    HW224126   6.545   2.013   3.533
 7743SOL     OW24127   4.342   2.536   6.501
 7743SOL    HW124128   4.272   2.511   6.567
 7743SOL    HW224129   4.398   2.456   6.479
 7744SOL     OW24130   0.497   5.973   4.242
 7744SOL    HW124131   0.504   5.984   4.341
 7744SOL    HW224132   0.532   5.884   4.215
 7745SOL     OW24133   3.335   2.098   5.613
 7745SOL    HW124134   3.351   2.190   5.649
 7745SOL    HW224135   3.245   2.067   5.642
 7746SOL     OW24136   2.833   0.148   6.490
 7746SOL    HW124137   2.787   0.174   6.405
 7746SOL    HW224138   2.828   0.049   6.502
 7747SOL     OW24139   4.288   5.969   1.299
 7747SOL    HW124140   4.234   5.888   1.277
 7747SOL    HW224141   4.296   6.027   1.218
 7748SOL     OW24142   2.994   3.780   5.772
 7748SOL    HW124143   3.004   3.876   5.797
 7748SOL    HW224144   3.082   3.744   5.742
 7749SOL     OW24145   4.521   3.649   5.954
 7749SOL    HW124146   4.575   3.568   5.931
 7749SOL    HW224147   4.424   3.627   5.949
 7750SOL     OW24148   0.438   6.061   1.608
 7750SOL    HW124149   0.347   6.049   1.569
 7750SOL    HW224150   0.433   6.062   1.708
 7751SOL     OW24151   1.279   1.367   2.244
 7751SOL    HW124152   1.351   1.379   2.175
 7751SOL    HW224153   1.213   1.442   2.236
 7752SOL     OW24154   5.117   0.491   5.087
 7752SOL    HW124155   5.124   0.562   5.018
 7752SOL    HW224156   5.028   0.496   5.132
 7753SOL     OW24157   1.822   1.463   4.686
 7753SOL    HW124158   1.909   1.429   4.652
 7753SOL    HW224159   1.774   1.390   4.734
 7754SOL     OW24160   3.684   5.996   1.471
 7754SOL    HW124161   3.726   5.929   1.409
 7754SOL    HW224162   3.731   6.083   1.462
 7755SOL     OW24163   1.077   3.341   6.103
 7755SOL    HW124164   1.078   3.315   6.007
 7755SOL    HW224165   1.051   3.262   6.159
 7756SOL     OW24166   2.707   6.982   1.785
 7756SOL    HW124167   2.710   0.054   1.799
 7756SOL    HW224168   2.616   6.947   1.804
 7757SOL     OW24169   6.535   4.481   1.008
 7757SOL    HW124170   6.510   4.438   1.094
 7757SOL    HW224171   6.608   4.428   0.964
 7758SOL     OW24172   1.544   6.863   6.405
 7758SOL    HW124173   1.623   6.900   6.357
 7758SOL    HW224174   1.469   6.848   6.340
 7759SOL     OW24175   3.342   2.233   6.012
 7759SOL    HW124176   3.250   2.269   6.025
 7759SOL    HW224177   3.338   2.133   6.010
 7760SOL     OW24178   5.234   2.382   2.397
 7760SOL    HW124179   5.166   2.316   2.365
 7760SOL    HW224180   5.215   2.472   2.357
 7761SOL     OW24181   5.456   5.829   5.119
 7761SOL    HW124182   5.469   5.743   5.070
 7761SOL    HW224183   5.493   5.820   5.212
 7762SOL     OW24184   1.341   0.481   4.047
 7762SOL    HW124185   1.285   0.538   3.987
 7762SOL    HW224186   1.410   0.433   3.993
 7763SOL     OW24187   2.215   0.383   5.391
 7763SOL    HW124188   2.213   0.290   5.355
 7763SOL    HW224189   2.138   0.396   5.454
 7764SOL     OW24190   3.270   4.162   5.529
 7764SOL    HW124191   3.170   4.155   5.520
 7764SOL    HW224192   3.292   4.216   5.611
 7765SOL     OW24193   6.228   3.890   4.126
 7765SOL    HW124194   6.266   3.798   4.137
 7765SOL    HW224195   6.250   3.924   4.034
 7766SOL     OW24196   0.594   4.183   0.570
 7766SOL    HW124197   0.605   4.215   0.475
 7766SOL    HW224198   0.658   4.232   0.629
 7767SOL     OW24199   3.802   6.747   2.623
 7767SOL    HW124200   3.832   6.751   2.528
 7767SOL    HW224201   3.797   6.651   2.652
 7768SOL     OW24202   4.872   4.401   3.232
 7768SOL    HW124203   4.830   4.324   3.185
 7768SOL    HW224204   4.801   4.466   3.261
 7769SOL     OW24205   3.759   1.970   5.311
 7769SOL    HW124206   3.719   2.057   5.281
 7769SOL    HW224207   3.841   1.950   5.258
 7770SOL     OW24208   0.310   3.602   4.840
 7770SOL    HW124209   0.355   3.618   4.927
 7770SOL    HW224210   0.352   3.659   4.769
 7771SOL     OW24211   2.977   1.709   6.210
 7771SOL    HW124212   2.932   1.630   6.168
 7771SOL    HW224213   2.948   1.717   6.305
 7772SOL     OW24214   4.816   0.681   0.770
 7772SOL    HW124215   4.839   0.688   0.867
 7772SOL    HW224216   4.795   0.586   0.748
 7773SOL     OW24217   2.723   5.851   6.832
 7773SOL    HW124218   2.669   5.909   6.771
 7773SOL    HW224219   2.673   5.767   6.852
 7774SOL     OW24220   4.603   2.332   3.933
 7774SOL    HW124221   4.631   2.373   3.847
 7774SOL    HW224222   4.669   2.263   3.961
 7775SOL     OW24223   4.093   0.392   6.874
 7775SOL    HW124224   4.030   0.345   6.936
 7775SOL    HW224225   4.099   0.340   6.788
 7776SOL     OW24226   0.298   6.774   6.279
 7776SOL    HW124227   0.231   6.818   6.220
 7776SOL    HW224228   0.386   6.771   6.232
 7777SOL     OW24229   6.042   5.424   4.640
 7777SOL    HW124230   6.059   5.325   4.639
 7777SOL    HW224231   6.022   5.453   4.734
 7778SOL     OW24232   5.950   4.005   2.911
 7778SOL    HW124233   5.850   3.995   2.915
 7778SOL    HW224234   5.979   4.007   2.815
 7779SOL     OW24235   3.488   6.982   2.721
 7779SOL    HW124236   3.467   7.019   2.631
 7779SOL    HW224237   3.403   6.978   2.775
 7780SOL     OW24238   0.200   6.232   6.235
 7780SOL    HW124239   0.251   6.177   6.170
 7780SOL    HW224240   0.219   6.329   6.220
 7781SOL     OW24241   1.802   3.942   0.378
 7781SOL    HW124242   1.887   3.929   0.326
 7781SOL    HW224243   1.728   3.967   0.315
 7782SOL     OW24244   6.254   4.965   3.130
 7782SOL    HW124245   6.189   4.998   3.061
 7782SOL    HW224246   6.333   5.027   3.133
 7783SOL     OW24247   0.309   6.986   5.958
 7783SOL    HW124248   0.328   7.018   5.865
 7783SOL    HW224249   0.236   0.016   5.998
 7784SOL     OW24250   2.778   2.526   1.689
 7784SOL    HW124251   2.854   2.503   1.750
 7784SOL    HW224252   2.692   2.516   1.738
 7785SOL     OW24253   1.436   6.363   3.182
 7785SOL    HW124254   1.349   6.411   3.195
 7785SOL    HW224255   1.436   6.280   3.239
 7786SOL     OW24256   4.427   0.937   6.604
 7786SOL    HW124257   4.352   0.880   6.637
 7786SOL    HW224258   4.393   1.029   6.586
 7787SOL     OW24259   2.544   3.587   1.101
 7787SOL    HW124260   2.527   3.684   1.118
 7787SOL    HW224261   2.556   3.540   1.188
 7788SOL     OW24262   1.484   6.141   1.733
 7788SOL    HW124263   1.484   6.053   1.779
 7788SOL    HW224264   1.578   6.176   1.728
 7789SOL     OW24265   3.448   6.720   6.092
 7789SOL    HW124266   3.492   6.771   6.165
 7789SOL    HW224267   3.371   6.771   6.056
 7790SOL     OW24268   6.493   4.925   2.526
 7790SOL    HW124269   6.437   5.004   2.550
 7790SOL    HW224270   6.553   4.902   2.603
 7791SOL     OW24271   2.108   5.619   1.796
 7791SOL    HW124272   2.162   5.552   1.745
 7791SOL    HW224273   2.161   5.650   1.875
 7792SOL     OW24274   0.337   1.252   3.042
 7792SOL    HW124275   0.314   1.158   3.066
 7792SOL    HW224276   0.413   1.284   3.099
 7793SOL     OW24277   4.472   1.960   6.623
 7793SOL    HW124278   4.522   2.002   6.699
 7793SOL    HW224279   4.537   1.921   6.558
 7794SOL     OW24280   0.490   5.424   2.480
 7794SOL    HW124281   0.543   5.357   2.428
 7794SOL    HW224282   0.418   5.377   2.531
 7795SOL     OW24283   3.027   5.240   5.423
 7795SOL    HW124284   3.125   5.261   5.418
 7795SOL    HW224285   2.984   5.300   5.491
 7796SOL     OW24286   3.532   3.518   5.383
 7796SOL    HW124287   3.580   3.455   5.322
 7796SOL    HW224288   3.535   3.483   5.477
 7797SOL     OW24289   1.340   5.288   2.189
 7797SOL    HW124290   1.387   5.248   2.111
 7797SOL    HW224291   1.297   5.216   2.243
 7798SOL     OW24292   0.795   1.516   1.782
 7798SOL    HW124293   0.716   1.463   1.813
 7798SOL    HW224294   0.846   1.463   1.714
 7799SOL     OW24295   2.598   5.934   2.738
 7799SOL    HW124296   2.656   5.955   2.817
 7799SOL    HW224297   2.646   5.960   2.654
 7800SOL     OW24298   1.100   5.801   1.183
 7800SOL    HW124299   1.063   5.719   1.226
 7800SOL    HW224300   1.035   5.876   1.194
 7801SOL     OW24301   1.866   2.361   2.525
 7801SOL    HW124302   1.960   2.356   2.489
 7801SOL    HW224303   1.833   2.269   2.544
 7802SOL     OW24304   6.973   4.483   6.285
 7802SOL    HW124305   0.037   4.453   6.254
 7802SOL    HW224306   6.958   4.452   6.379
 7803SOL     OW24307   5.631   2.583   6.505
 7803SOL    HW124308   5.561   2.642   6.544
 7803SOL    HW224309   5.698   2.638   6.455
 7804SOL     OW24310   2.753   1.939   3.819
 7804SOL    HW124311   2.759   1.925   3.918
 7804SOL    HW224312   2.678   2.003   3.799
 7805SOL     OW24313   4.952   2.938   1.883
 7805SOL    HW124314   4.887   2.978   1.947
 7805SOL    HW224315   5.045   2.964   1.910
 7806SOL     OW24316   6.636   2.760   5.507
 7806SOL    HW124317   6.593   2.715   5.585
 7806SOL    HW224318   6.698   2.695   5.462
 7807SOL     OW24319   1.682   4.767   6.221
 7807SOL    HW124320   1.626   4.810   6.150
 7807SOL    HW224321   1.774   4.806   6.219
 7808SOL     OW24322   4.476   4.430   2.563
 7808SOL    HW124323   4.526   4.350   2.529
 7808SOL    HW224324   4.434   4.478   2.486
 7809SOL     OW24325   4.991   4.835   4.283
 7809SOL    HW124326   4.893   4.831   4.262
 7809SOL    HW224327   5.005   4.878   4.372
 7810SOL     OW24328   4.151   6.387   4.906
 7810SOL    HW124329   4.059   6.350   4.894
 7810SOL    HW224330   4.209   6.356   4.830
 7811SOL     OW24331   0.974   5.826   2.844
 7811SOL    HW124332   0.977   5.726   2.841
 7811SOL    HW224333   1.064   5.860   2.874
 7812SOL     OW24334   2.259   3.216   5.325
 7812SOL    HW124335   2.288   3.303   5.363
 7812SOL    HW224336   2.334   3.174   5.274
 7813SOL     OW24337   4.791   2.687   1.262
 7813SOL    HW124338   4.730   2.698   1.341
 7813SOL    HW224339   4.856   2.613   1.281
 7814SOL     OW24340   6.543   3.245   2.243
 7814SOL    HW124341   6.508   3.302   2.169
 7814SOL    HW224342   6.480   3.168   2.258
 7815SOL     OW24343   6.245   2.213   4.785
 7815SOL    HW124344   6.157   2.169   4.771
 7815SOL    HW224345   6.237   2.311   4.765
 7816SOL     OW24346   0.229   1.767   5.592
 7816SOL    HW124347   0.283   1.688   5.621
 7816SOL    HW224348   0.132   1.749   5.609
 7817SOL     OW24349   3.903   4.239   5.826
 7817SOL    HW124350   3.840   4.181   5.775
 7817SOL    HW224351   3.977   4.184   5.863
 7818SOL     OW24352   4.351   1.109   2.236
 7818SOL    HW124353   4.326   1.024   2.190
 7818SOL    HW224354   4.276   1.175   2.227
 7819SOL     OW24355   0.612   3.696   3.995
 7819SOL    HW124356   0.656   3.746   4.069
 7819SOL    HW224357   0.594   3.602   4.023
 7820SOL     OW24358   1.895   0.747   5.397
 7820SOL    HW124359   1.808   0.763   5.444
 7820SOL    HW224360   1.960   0.706   5.460
 7821SOL     OW24361   6.001   6.016   0.006
 7821SOL    HW124362   5.954   6.100   0.034
 7821SOL    HW224363   6.058   5.984   0.082
 7822SOL     OW24364   1.250   1.382   5.401
 7822SOL    HW124365   1.255   1.282   5.393
 7822SOL    HW224366   1.154   1.410   5.404
 7823SOL     OW24367   1.525   4.139   6.551
 7823SOL    HW124368   1.512   4.062   6.613
 7823SOL    HW224369   1.620   4.170   6.556
 7824SOL     OW24370   5.510   1.144   4.099
 7824SOL    HW124371   5.426   1.170   4.051
 7824SOL    HW224372   5.553   1.225   4.138
 7825SOL     OW24373   2.396   3.240   1.273
 7825SOL    HW124374   2.360   3.284   1.355
 7825SOL    HW224375   2.349   3.153   1.259
 7826SOL     OW24376   5.767   1.226   0.304
 7826SOL    HW124377   5.790   1.280   0.223
 7826SOL    HW224378   5.713   1.281   0.368
 7827SOL     OW24379   4.000   4.610   1.438
 7827SOL    HW124380   4.003   4.700   1.482
 7827SOL    HW224381   3.976   4.620   1.342
 7828SOL     OW24382   0.850   5.935   1.194
 7828SOL    HW124383   0.820   5.983   1.112
 7828SOL    HW224384   0.770   5.903   1.245
 7829SOL     OW24385   2.544   3.565   1.388
 7829SOL    HW124386   2.473   3.552   1.458
 7829SOL    HW224387   2.623   3.508   1.410
 7830SOL     OW24388   5.510   3.562   6.430
 7830SOL    HW124389   5.452   3.607   6.363
 7830SOL    HW224390   5.474   3.577   6.522
 7831SOL     OW24391   1.558   4.007   0.226
 7831SOL    HW124392   1.516   4.084   0.179
 7831SOL    HW224393   1.504   3.984   0.308
 7832SOL     OW24394   3.312   1.809   5.110
 7832SOL    HW124395   3.273   1.859   5.033
 7832SOL    HW224396   3.311   1.867   5.191
 7833SOL     OW24397   0.754   0.264   0.641
 7833SOL    HW124398   0.704   0.323   0.704
 7833SOL    HW224399   0.819   0.208   0.693
 7834SOL     OW24400   0.405   1.022   2.541
 7834SOL    HW124401   0.437   1.049   2.450
 7834SOL    HW224402   0.437   0.930   2.561
 7835SOL     OW24403   2.362   2.770   4.877
 7835SOL    HW124404   2.371   2.685   4.930
 7835SOL    HW224405   2.394   2.847   4.932
 7836SOL     OW24406   3.116   6.945   6.470
 7836SOL    HW124407   3.176   7.024   6.460
 7836SOL    HW224408   3.162   6.863   6.435
 7837SOL     OW24409   6.181   6.711   2.181
 7837SOL    HW124410   6.147   6.630   2.133
 7837SOL    HW224411   6.137   6.718   2.270
 7838SOL     OW24412   5.227   6.483   5.340
 7838SOL    HW124413   5.241   6.570   5.387
 7838SOL    HW224414   5.132   6.477   5.308
 7839SOL     OW24415   6.293   3.853   4.470
 7839SOL    HW124416   6.360   3.841   4.543
 7839SOL    HW224417   6.337   3.892   4.389
 7840SOL     OW24418   5.005   2.379   4.282
 7840SOL    HW124419   4.964   2.422   4.363
 7840SOL    HW224420   5.002   2.442   4.205
 7841SOL     OW24421   5.462   2.715   6.663
 7841SOL    HW124422   5.466   2.783   6.737
 7841SOL    HW224423   5.373   2.720   6.618
 7842SOL     OW24424   1.180   1.484   3.328
 7842SOL    HW124425   1.186   1.573   3.374
 7842SOL    HW224426   1.130   1.495   3.242
 7843SOL     OW24427   5.521   3.768   1.004
 7843SOL    HW124428   5.592   3.830   0.971
 7843SOL    HW224429   5.539   3.743   1.098
 7844SOL     OW24430   4.495   1.068   3.726
 7844SOL    HW124431   4.481   0.982   3.774
 7844SOL    HW224432   4.542   1.133   3.785
 7845SOL     OW24433   0.987   0.818   3.939
 7845SOL    HW124434   0.967   0.889   3.871
 7845SOL    HW224435   0.952   0.846   4.028
 7846SOL     OW24436   2.490   1.101   1.052
 7846SOL    HW124437   2.417   1.086   1.117
 7846SOL    HW224438   2.506   1.200   1.042
 7847SOL     OW24439   0.287   1.011   0.766
 7847SOL    HW124440   0.218   0.952   0.808
 7847SOL    HW224441   0.370   1.011   0.822
 7848SOL     OW24442   3.671   4.300   0.947
 7848SOL    HW124443   3.648   4.269   0.855
 7848SOL    HW224444   3.591   4.342   0.989
 7849SOL     OW24445   4.901   3.560   3.516
 7849SOL    HW124446   4.843   3.600   3.586
 7849SOL    HW224447   4.878   3.463   3.506
 7850SOL     OW24448   7.018   0.729   3.617
 7850SOL    HW124449   0.045   0.683   3.688
 7850SOL    HW224450   6.986   0.662   3.550
 7851SOL     OW24451   5.936   6.411   0.167
 7851SOL    HW124452   5.872   6.336   0.184
 7851SOL    HW224453   6.027   6.384   0.197
 7852SOL     OW24454   2.607   6.441   6.895
 7852SOL    HW124455   2.612   6.533   6.933
 7852SOL    HW224456   2.695   6.416   6.855
 7853SOL     OW24457   3.087   1.200   0.287
 7853SOL    HW124458   3.009   1.156   0.242
 7853SOL    HW224459   3.105   1.289   0.244
 7854SOL     OW24460   3.802   3.812   1.529
 7854SOL    HW124461   3.849   3.725   1.517
 7854SOL    HW224462   3.844   3.881   1.470
 7855SOL     OW24463   4.062   5.886   6.322
 7855SOL    HW124464   4.046   5.874   6.224
 7855SOL    HW224465   4.059   5.983   6.345
 7856SOL     OW24466   6.403   4.363   4.884
 7856SOL    HW124467   6.340   4.355   4.962
 7856SOL    HW224468   6.496   4.341   4.914
 7857SOL     OW24469   6.479   2.433   5.598
 7857SOL    HW124470   6.477   2.509   5.663
 7857SOL    HW224471   6.486   2.347   5.649
 7858SOL     OW24472   5.562   4.545   3.268
 7858SOL    HW124473   5.651   4.504   3.285
 7858SOL    HW224474   5.546   4.620   3.332
 7859SOL     OW24475   0.791   4.122   6.556
 7859SOL    HW124476   0.791   4.079   6.466
 7859SOL    HW224477   0.818   4.056   6.626
 7860SOL     OW24478   3.798   6.384   2.676
 7860SOL    HW124479   3.736   6.399   2.753
 7860SOL    HW224480   3.765   6.433   2.595
 7861SOL     OW24481   4.166   5.283   1.789
 7861SOL    HW124482   4.136   5.367   1.835
 7861SOL    HW224483   4.208   5.306   1.701
 7862SOL     OW24484   2.903   4.327   1.655
 7862SOL    HW124485   2.899   4.371   1.745
 7862SOL    HW224486   2.813   4.333   1.611
 7863SOL     OW24487   6.675   6.182   3.226
 7863SOL    HW124488   6.760   6.194   3.276
 7863SOL    HW224489   6.693   6.137   3.138
 7864SOL     OW24490   0.153   6.474   5.296
 7864SOL    HW124491   0.140   6.383   5.257
 7864SOL    HW224492   0.168   6.540   5.222
 7865SOL     OW24493   4.184   6.204   3.796
 7865SOL    HW124494   4.128   6.287   3.792
 7865SOL    HW224495   4.170   6.159   3.885
 7866SOL     OW24496   2.698   1.568   2.278
 7866SOL    HW124497   2.701   1.600   2.373
 7866SOL    HW224498   2.784   1.591   2.233
 7867SOL     OW24499   5.764   5.836   2.445
 7867SOL    HW124500   5.845   5.835   2.504
 7867SOL    HW224501   5.715   5.749   2.454
 7868SOL     OW24502   5.246   6.409   1.942
 7868SOL    HW124503   5.204   6.369   2.024
 7868SOL    HW224504   5.272   6.336   1.879
 7869SOL     OW24505   6.497   3.621   1.159
 7869SOL    HW124506   6.525   3.532   1.196
 7869SOL    HW224507   6.445   3.671   1.227
 7870SOL     OW24508   6.134   5.195   3.745
 7870SOL    HW124509   6.069   5.269   3.763
 7870SOL    HW224510   6.184   5.214   3.660
 7871SOL     OW24511   5.593   3.232   3.636
 7871SOL    HW124512   5.562   3.219   3.542
 7871SOL    HW224513   5.531   3.184   3.698
 7872SOL     OW24514   1.089   4.026   2.732
 7872SOL    HW124515   1.099   4.029   2.633
 7872SOL    HW224516   1.099   3.932   2.764
 7873SOL     OW24517   6.778   0.950   5.596
 7873SOL    HW124518   6.736   0.914   5.679
 7873SOL    HW224519   6.851   0.890   5.566
 7874SOL     OW24520   6.507   1.436   6.745
 7874SOL    HW124521   6.443   1.361   6.725
 7874SOL    HW224522   6.592   1.398   6.781
 7875SOL     OW24523   5.118   4.481   6.912
 7875SOL    HW124524   5.078   4.512   6.825
 7875SOL    HW224525   5.126   4.558   6.975
 7876SOL     OW24526   6.761   0.731   4.585
 7876SOL    HW124527   6.687   0.793   4.612
 7876SOL    HW224528   6.759   0.650   4.643
 7877SOL     OW24529   0.211   2.188   3.030
 7877SOL    HW124530   0.127   2.187   3.084
 7877SOL    HW224531   0.290   2.196   3.091
 7878SOL     OW24532   4.872   4.410   2.744
 7878SOL    HW124533   4.901   4.475   2.813
 7878SOL    HW224534   4.830   4.459   2.667
 7879SOL     OW24535   4.716   5.731   3.158
 7879SOL    HW124536   4.642   5.747   3.222
 7879SOL    HW224537   4.804   5.750   3.202
 7880SOL     OW24538   0.665   6.344   0.507
 7880SOL    HW124539   0.737   6.385   0.563
 7880SOL    HW224540   0.699   6.329   0.414
 7881SOL     OW24541   6.932   4.334   4.425
 7881SOL    HW124542   7.011   4.323   4.486
 7881SOL    HW224543   6.883   4.247   4.417
 7882SOL     OW24544   1.291   2.981   2.404
 7882SOL    HW124545   1.374   2.946   2.360
 7882SOL    HW224546   1.303   2.981   2.503
 7883SOL     OW24547   2.189   0.891   1.587
 7883SOL    HW124548   2.168   0.968   1.647
 7883SOL    HW224549   2.115   0.823   1.593
 7884SOL     OW24550   1.421   4.330   3.703
 7884SOL    HW124551   1.340   4.297   3.655
 7884SOL    HW224552   1.397   4.408   3.760
 7885SOL     OW24553   6.028   5.374   2.851
 7885SOL    HW124554   6.121   5.394   2.819
 7885SOL    HW224555   6.004   5.437   2.925
 7886SOL     OW24556   5.111   3.682   1.292
 7886SOL    HW124557   5.073   3.628   1.367
 7886SOL    HW224558   5.132   3.622   1.215
 7887SOL     OW24559   3.351   3.004   5.450
 7887SOL    HW124560   3.275   3.026   5.389
 7887SOL    HW224561   3.403   3.088   5.469
 7888SOL     OW24562   6.794   1.700   4.131
 7888SOL    HW124563   6.865   1.643   4.171
 7888SOL    HW224564   6.749   1.651   4.057
 7889SOL     OW24565   6.815   5.440   0.334
 7889SOL    HW124566   6.824   5.348   0.295
 7889SOL    HW224567   6.906   5.481   0.343
 7890SOL     OW24568   1.643   2.844   4.120
 7890SOL    HW124569   1.628   2.809   4.028
 7890SOL    HW224570   1.655   2.943   4.117
 7891SOL     OW24571   0.808   3.068   4.174
 7891SOL    HW124572   0.882   3.001   4.180
 7891SOL    HW224573   0.827   3.145   4.235
 7892SOL     OW24574   1.906   2.053   4.264
 7892SOL    HW124575   1.815   2.017   4.281
 7892SOL    HW224576   1.912   2.146   4.300
 7893SOL     OW24577   6.386   6.400   1.962
 7893SOL    HW124578   6.436   6.355   2.036
 7893SOL    HW224579   6.292   6.367   1.959
 7894SOL     OW24580   2.403   1.936   6.754
 7894SOL    HW124581   2.354   1.936   6.841
 7894SOL    HW224582   2.349   1.984   6.685
 7895SOL     OW24583   3.837   5.898   4.321
 7895SOL    HW124584   3.755   5.870   4.372
 7895SOL    HW224585   3.829   5.867   4.226
 7896SOL     OW24586   4.392   3.356   1.220
 7896SOL    HW124587   4.371   3.454   1.224
 7896SOL    HW224588   4.368   3.313   1.306
 7897SOL     OW24589   3.496   4.163   6.672
 7897SOL    HW124590   3.519   4.258   6.694
 7897SOL    HW224591   3.407   4.161   6.626
 7898SOL     OW24592   4.912   0.342   4.157
 7898SOL    HW124593   4.816   0.318   4.142
 7898SOL    HW224594   4.967   0.258   4.161
 7899SOL     OW24595   5.541   5.571   1.778
 7899SOL    HW124596   5.448   5.583   1.813
 7899SOL    HW224597   5.597   5.649   1.803
 7900SOL     OW24598   0.268   3.910   0.565
 7900SOL    HW124599   0.352   3.920   0.512
 7900SOL    HW224600   0.290   3.903   0.662
 7901SOL     OW24601   5.215   1.098   5.897
 7901SOL    HW124602   5.197   1.193   5.871
 7901SOL    HW224603   5.197   1.087   5.995
 7902SOL     OW24604   0.513   6.239   3.469
 7902SOL    HW124605   0.485   6.221   3.563
 7902SOL    HW224606   0.444   6.297   3.424
 7903SOL     OW24607   3.849   1.731   4.072
 7903SOL    HW124608   3.901   1.689   3.997
 7903SOL    HW224609   3.762   1.766   4.036
 7904SOL     OW24610   6.024   0.744   2.761
 7904SOL    HW124611   5.957   0.749   2.688
 7904SOL    HW224612   6.023   0.829   2.814
 7905SOL     OW24613   5.324   0.874   0.366
 7905SOL    HW124614   5.235   0.850   0.405
 7905SOL    HW224615   5.329   0.839   0.272
 7906SOL     OW24616   1.319   5.011   1.312
 7906SOL    HW124617   1.344   4.934   1.370
 7906SOL    HW224618   1.288   4.978   1.224
 7907SOL     OW24619   5.652   0.513   3.000
 7907SOL    HW124620   5.630   0.574   2.925
 7907SOL    HW224621   5.691   0.428   2.964
 7908SOL     OW24622   0.762   2.075   6.519
 7908SOL    HW124623   0.786   2.171   6.502
 7908SOL    HW224624   0.681   2.071   6.578
 7909SOL     OW24625   5.116   4.323   3.026
 7909SOL    HW124626   5.196   4.291   3.076
 7909SOL    HW224627   5.092   4.257   2.955
 7910SOL     OW24628   1.614   3.189   0.928
 7910SOL    HW124629   1.599   3.112   0.990
 7910SOL    HW224630   1.538   3.253   0.935
 7911SOL     OW24631   0.961   3.952   1.154
 7911SOL    HW124632   0.956   4.007   1.238
 7911SOL    HW224633   1.055   3.921   1.141
 7912SOL     OW24634   5.475   5.567   0.421
 7912SOL    HW124635   5.543   5.509   0.377
 7912SOL    HW224636   5.483   5.558   0.520
 7913SOL     OW24637   2.093   4.204   0.962
 7913SOL    HW124638   2.046   4.291   0.978
 7913SOL    HW224639   2.159   4.214   0.888
 7914SOL     OW24640   6.872   5.413   6.432
 7914SOL    HW124641   6.874   5.404   6.532
 7914SOL    HW224642   6.896   5.507   6.406
 7915SOL     OW24643   4.120   0.999   2.726
 7915SOL    HW124644   4.082   1.044   2.646
 7915SOL    HW224645   4.047   0.957   2.779
 7916SOL     OW24646   0.374   0.531   4.691
 7916SOL    HW124647   0.279   0.518   4.662
 7916SOL    HW224648   0.427   0.449   4.670
 7917SOL     OW24649   3.983   2.623   6.068
 7917SOL    HW124650   4.044   2.597   6.143
 7917SOL    HW224651   3.895   2.653   6.106
 7918SOL     OW24652   1.284   1.201   4.998
 7918SOL    HW124653   1.381   1.177   5.005
 7918SOL    HW224654   1.228   1.119   5.008
 7919SOL     OW24655   1.013   5.150   2.919
 7919SOL    HW124656   1.070   5.205   2.980
 7919SOL    HW224657   0.935   5.114   2.971
 7920SOL     OW24658   4.856   0.823   1.827
 7920SOL    HW124659   4.853   0.922   1.837
 7920SOL    HW224660   4.950   0.793   1.811
 7921SOL     OW24661   5.378   1.805   1.605
 7921SOL    HW124662   5.342   1.877   1.664
 7921SOL    HW224663   5.456   1.842   1.554
 7922SOL     OW24664   0.703   6.450   6.500
 7922SOL    HW124665   0.680   6.499   6.584
 7922SOL    HW224666   0.622   6.402   6.466
 7923SOL     OW24667   2.881   2.159   6.292
 7923SOL    HW124668   2.882   2.087   6.362
 7923SOL    HW224669   2.975   2.182   6.268
 7924SOL     OW24670   5.623   6.819   1.206
 7924SOL    HW124671   5.609   6.877   1.287
 7924SOL    HW224672   5.534   6.789   1.172
 7925SOL     OW24673   2.583   6.609   0.904
 7925SOL    HW124674   2.630   6.587   0.989
 7925SOL    HW224675   2.524   6.533   0.878
 7926SOL     OW24676   5.593   1.138   6.601
 7926SOL    HW124677   5.658   1.176   6.534
 7926SOL    HW224678   5.526   1.082   6.554
 7927SOL     OW24679   5.230   6.935   2.310
 7927SOL    HW124680   5.236   0.007   2.326
 7927SOL    HW224681   5.214   6.888   2.397
 7928SOL     OW24682   6.860   1.097   3.164
 7928SOL    HW124683   6.946   1.055   3.134
 7928SOL    HW224684   6.878   1.193   3.189
 7929SOL     OW24685   4.360   4.287   6.793
 7929SOL    HW124686   4.304   4.223   6.846
 7929SOL    HW224687   4.450   4.295   6.835
 7930SOL     OW24688   3.427   5.499   5.880
 7930SOL    HW124689   3.409   5.594   5.855
 7930SOL    HW224690   3.525   5.481   5.873
 7931SOL     OW24691   3.205   2.998   0.298
 7931SOL    HW124692   3.189   3.010   0.395
 7931SOL    HW224693   3.175   2.906   0.271
 7932SOL     OW24694   6.811   5.256   0.711
 7932SOL    HW124695   6.783   5.351   0.697
 7932SOL    HW224696   6.896   5.239   0.660
 7933SOL     OW24697   6.552   0.810   5.881
 7933SOL    HW124698   6.535   0.712   5.890
 7933SOL    HW224699   6.623   0.837   5.946
 7934SOL     OW24700   1.510   5.010   0.748
 7934SOL    HW124701   1.489   5.105   0.769
 7934SOL    HW224702   1.555   5.004   0.659
 7935SOL     OW24703   5.282   4.452   2.512
 7935SOL    HW124704   5.195   4.402   2.503
 7935SOL    HW224705   5.357   4.386   2.520
 7936SOL     OW24706   2.765   6.173   3.775
 7936SOL    HW124707   2.707   6.221   3.840
 7936SOL    HW224708   2.743   6.202   3.682
 7937SOL     OW24709   1.301   5.923   4.584
 7937SOL    HW124710   1.355   6.001   4.552
 7937SOL    HW224711   1.362   5.851   4.617
 7938SOL     OW24712   5.312   0.088   5.566
 7938SOL    HW124713   5.331   0.096   5.468
 7938SOL    HW224714   5.343   7.025   5.598
 7939SOL     OW24715   0.553   1.768   5.202
 7939SOL    HW124716   0.481   1.779   5.270
 7939SOL    HW224717   0.558   1.672   5.174
 7940SOL     OW24718   3.695   1.836   2.257
 7940SOL    HW124719   3.747   1.918   2.280
 7940SOL    HW224720   3.630   1.857   2.184
 7941SOL     OW24721   4.518   6.509   3.172
 7941SOL    HW124722   4.617   6.518   3.159
 7941SOL    HW224723   4.492   6.555   3.257
 7942SOL     OW24724   0.805   2.916   2.473
 7942SOL    HW124725   0.739   2.907   2.398
 7942SOL    HW224726   0.876   2.980   2.447
 7943SOL     OW24727   1.330   4.660   5.636
 7943SOL    HW124728   1.409   4.603   5.659
 7943SOL    HW224729   1.262   4.605   5.587
 7944SOL     OW24730   0.899   2.381   1.984
 7944SOL    HW124731   0.978   2.418   1.934
 7944SOL    HW224732   0.815   2.401   1.933
 7945SOL     OW24733   6.302   5.111   2.646
 7945SOL    HW124734   6.214   5.071   2.672
 7945SOL    HW224735   6.304   5.207   2.674
 7946SOL     OW24736   3.944   0.201   5.551
 7946SOL    HW124737   3.848   0.186   5.571
 7946SOL    HW224738   3.954   0.229   5.455
 7947SOL     OW24739   2.020   2.215   5.025
 7947SOL    HW124740   1.967   2.280   5.080
 7947SOL    HW224741   2.013   2.238   4.928
 7948SOL     OW24742   1.358   4.884   1.562
 7948SOL    HW124743   1.388   4.971   1.601
 7948SOL    HW224744   1.342   4.818   1.636
 7949SOL     OW24745   4.349   4.594   5.949
 7949SOL    HW124746   4.304   4.644   5.875
 7949SOL    HW224747   4.286   4.527   5.987
 7950SOL     OW24748   5.833   6.245   5.378
 7950SOL    HW124749   5.862   6.338   5.401
 7950SOL    HW224750   5.907   6.197   5.331
 7951SOL     OW24751   2.308   4.804   2.957
 7951SOL    HW124752   2.302   4.775   2.862
 7951SOL    HW224753   2.246   4.881   2.972
 7952SOL     OW24754   6.426   3.584   6.834
 7952SOL    HW124755   6.512   3.538   6.814
 7952SOL    HW224756   6.365   3.576   6.755
 7953SOL     OW24757   4.196   1.620   0.881
 7953SOL    HW124758   4.239   1.543   0.928
 7953SOL    HW224759   4.257   1.654   0.809
 7954SOL     OW24760   4.178   3.775   6.216
 7954SOL    HW124761   4.260   3.804   6.267
 7954SOL    HW224762   4.107   3.845   6.224
 7955SOL     OW24763   2.160   1.487   6.106
 7955SOL    HW124764   2.113   1.554   6.165
 7955SOL    HW224765   2.159   1.519   6.012
 7956SOL     OW24766   5.796   1.871   1.675
 7956SOL    HW124767   5.840   1.927   1.745
 7956SOL    HW224768   5.779   1.780   1.713
 7957SOL     OW24769   3.671   0.336   5.913
 7957SOL    HW124770   3.611   0.385   5.977
 7957SOL    HW224771   3.712   0.402   5.850
 7958SOL     OW24772   5.885   4.538   6.630
 7958SOL    HW124773   5.845   4.510   6.718
 7958SOL    HW224774   5.960   4.601   6.646
 7959SOL     OW24775   5.067   0.716   6.387
 7959SOL    HW124776   5.030   0.779   6.318
 7959SOL    HW224777   4.997   0.696   6.455
 7960SOL     OW24778   0.399   1.331   6.347
 7960SOL    HW124779   0.338   1.293   6.278
 7960SOL    HW224780   0.347   1.394   6.406
 7961SOL     OW24781   6.696   0.052   0.773
 7961SOL    HW124782   6.667   0.015   0.685
 7961SOL    HW224783   6.727   0.146   0.761
 7962SOL     OW24784   0.008   1.503   6.172
 7962SOL    HW124785   0.056   1.458   6.096
 7962SOL    HW224786   6.998   1.591   6.141
 7963SOL     OW24787   6.292   4.606   4.023
 7963SOL    HW124788   6.322   4.548   4.099
 7963SOL    HW224789   6.360   4.678   4.008
 7964SOL     OW24790   7.010   2.803   1.418
 7964SOL    HW124791   6.960   2.721   1.446
 7964SOL    HW224792   0.077   2.799   1.455
 7965SOL     OW24793   4.935   2.885   6.918
 7965SOL    HW124794   4.912   2.960   6.980
 7965SOL    HW224795   4.862   2.874   6.851
 7966SOL     OW24796   4.257   3.637   5.955
 7966SOL    HW124797   4.210   3.707   6.008
 7966SOL    HW224798   4.199   3.606   5.880
 7967SOL     OW24799   1.772   5.279   2.261
 7967SOL    HW124800   1.835   5.347   2.223
 7967SOL    HW224801   1.712   5.245   2.190
 7968SOL     OW24802   6.294   2.207   5.074
 7968SOL    HW124803   6.267   2.112   5.090
 7968SOL    HW224804   6.272   2.233   4.980
 7969SOL     OW24805   4.891   6.108   0.256
 7969SOL    HW124806   4.924   6.161   0.334
 7969SOL    HW224807   4.937   6.139   0.173
 7970SOL     OW24808   6.011   2.754   2.787
 7970SOL    HW124809   6.067   2.735   2.707
 7970SOL    HW224810   5.964   2.670   2.815
 7971SOL     OW24811   2.898   1.566   1.778
 7971SOL    HW124812   2.970   1.604   1.835
 7971SOL    HW224813   2.908   1.466   1.774
 7972SOL     OW24814   3.248   3.241   1.699
 7972SOL    HW124815   3.345   3.257   1.719
 7972SOL    HW224816   3.240   3.190   1.614
 7973SOL     OW24817   5.271   3.995   3.993
 7973SOL    HW124818   5.356   3.967   4.039
 7973SOL    HW224819   5.286   4.001   3.895
 7974SOL     OW24820   6.312   1.213   4.691
 7974SOL    HW124821   6.295   1.311   4.696
 7974SOL    HW224822   6.226   1.165   4.668
 7975SOL     OW24823   4.341   0.393   0.407
 7975SOL    HW124824   4.344   0.298   0.440
 7975SOL    HW224825   4.389   0.399   0.320
 7976SOL     OW24826   0.995   0.155   5.778
 7976SOL    HW124827   1.009   0.065   5.738
 7976SOL    HW224828   1.069   0.174   5.844
 7977SOL     OW24829   6.106   6.192   2.515
 7977SOL    HW124830   6.101   6.236   2.605
 7977SOL    HW224831   6.025   6.217   2.462
 7978SOL     OW24832   0.508   3.585   6.748
 7978SOL    HW124833   0.598   3.573   6.705
 7978SOL    HW224834   0.500   3.523   6.827
 7979SOL     OW24835   1.994   4.441   5.842
 7979SOL    HW124836   2.058   4.387   5.898
 7979SOL    HW224837   2.022   4.537   5.844
 7980SOL     OW24838   3.270   5.289   6.007
 7980SOL    HW124839   3.319   5.375   5.993
 7980SOL    HW224840   3.246   5.250   5.918
 7981SOL     OW24841   0.953   4.790   2.270
 7981SOL    HW124842   0.970   4.803   2.367
 7981SOL    HW224843   1.040   4.793   2.220
 7982SOL     OW24844   1.605   1.512   5.817
 7982SOL    HW124845   1.603   1.570   5.736
 7982SOL    HW224846   1.518   1.463   5.825
 7983SOL     OW24847   5.499   1.286   1.166
 7983SOL    HW124848   5.424   1.274   1.230
 7983SOL    HW224849   5.469   1.344   1.090
 7984SOL     OW24850   0.806   1.454   0.757
 7984SOL    HW124851   0.784   1.516   0.681
 7984SOL    HW224852   0.722   1.413   0.791
 7985SOL     OW24853   2.545   2.078   4.760
 7985SOL    HW124854   2.565   2.053   4.665
 7985SOL    HW224855   2.607   2.152   4.788
 7986SOL     OW24856   3.830   1.624   5.429
 7986SOL    HW124857   3.751   1.567   5.408
 7986SOL    HW224858   3.838   1.697   5.360
 7987SOL     OW24859   2.417   3.861   0.893
 7987SOL    HW124860   2.350   3.921   0.850
 7987SOL    HW224861   2.468   3.913   0.963
 7988SOL     OW24862   0.518   0.760   1.586
 7988SOL    HW124863   0.563   0.699   1.652
 7988SOL    HW224864   0.455   0.707   1.530
 7989SOL     OW24865   1.737   4.283   6.969
 7989SOL    HW124866   1.778   4.260   0.031
 7989SOL    HW224867   1.655   4.338   6.983
 7990SOL     OW24868   2.883   5.757   4.359
 7990SOL    HW124869   2.790   5.754   4.323
 7990SOL    HW224870   2.884   5.814   4.442
 7991SOL     OW24871   5.356   1.925   4.605
 7991SOL    HW124872   5.358   2.023   4.622
 7991SOL    HW224873   5.355   1.876   4.692
 7992SOL     OW24874   2.459   0.397   0.487
 7992SOL    HW124875   2.478   0.474   0.427
 7992SOL    HW224876   2.380   0.346   0.453
 7993SOL     OW24877   0.210   6.849   2.058
 7993SOL    HW124878   0.112   6.841   2.040
 7993SOL    HW224879   0.246   6.931   2.012
 7994SOL     OW24880   4.931   0.592   2.919
 7994SOL    HW124881   5.031   0.602   2.917
 7994SOL    HW224882   4.899   0.599   3.013
 7995SOL     OW24883   5.574   4.212   2.849
 7995SOL    HW124884   5.599   4.303   2.884
 7995SOL    HW224885   5.498   4.222   2.784
 7996SOL     OW24886   4.301   0.219   4.254
 7996SOL    HW124887   4.294   0.299   4.313
 7996SOL    HW224888   4.264   0.241   4.163
 7997SOL     OW24889   0.005   1.813   6.989
 7997SOL    HW124890   6.976   1.896   6.994
 7997SOL    HW224891   0.010   1.770   0.053
 7998SOL     OW24892   2.750   6.730   0.288
 7998SOL    HW124893   2.682   6.773   0.229
 7998SOL    HW224894   2.778   6.643   0.248
 7999SOL     OW24895   1.280   1.747   5.913
 7999SOL    HW124896   1.299   1.649   5.918
 7999SOL    HW224897   1.363   1.797   5.889
 8000SOL     OW24898   6.018   0.200   6.475
 8000SOL    HW124899   6.041   0.296   6.484
 8000SOL    HW224900   6.046   0.167   6.384
 8001SOL     OW24901   4.412   6.442   1.453
 8001SOL    HW124902   4.333   6.503   1.450
 8001SOL    HW224903   4.488   6.483   1.402
 8002SOL     OW24904   0.437   1.618   5.654
 8002SOL    HW124905   0.478   1.656   5.737
 8002SOL    HW224906   0.510   1.590   5.591
 8003SOL     OW24907   1.714   6.559   2.001
 8003SOL    HW124908   1.634   6.565   1.942
 8003SOL    HW224909   1.794   6.592   1.951
 8004SOL     OW24910   2.312   2.684   3.334
 8004SOL    HW124911   2.338   2.602   3.386
 8004SOL    HW224912   2.307   2.661   3.237
 8005SOL     OW24913   2.806   0.349   3.844
 8005SOL    HW124914   2.900   0.315   3.833
 8005SOL    HW224915   2.747   0.305   3.777
 8006SOL     OW24916   3.375   5.659   5.553
 8006SOL    HW124917   3.313   5.582   5.538
 8006SOL    HW224918   3.444   5.661   5.481
 8007SOL     OW24919   5.524   2.369   6.343
 8007SOL    HW124920   5.612   2.322   6.336
 8007SOL    HW224921   5.533   2.445   6.407
 8008SOL     OW24922   3.245   6.119   0.229
 8008SOL    HW124923   3.255   6.114   0.130
 8008SOL    HW224924   3.150   6.145   0.251
 8009SOL     OW24925   4.644   0.964   1.213
 8009SOL    HW124926   4.629   0.977   1.115
 8009SOL    HW224927   4.638   1.052   1.259
 8010SOL     OW24928   2.973   2.493   5.359
 8010SOL    HW124929   3.055   2.470   5.306
 8010SOL    HW224930   2.978   2.590   5.386
 8011SOL     OW24931   3.836   1.905   1.885
 8011SOL    HW124932   3.747   1.906   1.930
 8011SOL    HW224933   3.863   1.811   1.865
 8012SOL     OW24934   0.516   2.664   6.493
 8012SOL    HW124935   0.580   2.649   6.569
 8012SOL    HW224936   0.568   2.683   6.410
 8013SOL     OW24937   0.557   2.895   3.526
 8013SOL    HW124938   0.510   2.970   3.573
 8013SOL    HW224939   0.649   2.925   3.499
 8014SOL     OW24940   1.751   0.375   3.972
 8014SOL    HW124941   1.773   0.306   4.041
 8014SOL    HW224942   1.711   0.455   4.017
 8015SOL     OW24943   1.986   6.992   5.993
 8015SOL    HW124944   2.032   6.978   5.906
 8015SOL    HW224945   2.019   6.926   6.060
 8016SOL     OW24946   3.894   1.375   5.120
 8016SOL    HW124947   3.838   1.456   5.100
 8016SOL    HW224948   3.971   1.371   5.057
 8017SOL     OW24949   6.823   6.963   0.130
 8017SOL    HW124950   6.794   7.011   0.048
 8017SOL    HW224951   6.743   6.928   0.179
 8018SOL     OW24952   3.817   2.763   6.963
 8018SOL    HW124953   3.856   2.721   0.019
 8018SOL    HW224954   3.739   2.820   6.990
 8019SOL     OW24955   2.491   3.787   0.653
 8019SOL    HW124956   2.484   3.817   0.748
 8019SOL    HW224957   2.416   3.724   0.633
 8020SOL     OW24958   5.916   0.558   6.331
 8020SOL    HW124959   5.860   0.594   6.405
 8020SOL    HW224960   6.007   0.534   6.367
 8021SOL     OW24961   2.278   2.726   1.214
 8021SOL    HW124962   2.292   2.644   1.270
 8021SOL    HW224963   2.322   2.713   1.125
 8022SOL     OW24964   5.975   0.450   1.924
 8022SOL    HW124965   5.877   0.438   1.905
 8022SOL    HW224966   6.023   0.365   1.905
 8023SOL     OW24967   5.790   5.273   2.798
 8023SOL    HW124968   5.880   5.301   2.833
 8023SOL    HW224969   5.767   5.183   2.836
 8024SOL     OW24970   1.324   6.046   6.207
 8024SOL    HW124971   1.406   5.989   6.205
 8024SOL    HW224972   1.256   6.010   6.142
 8025SOL     OW24973   1.547   5.134   1.244
 8025SOL    HW124974   1.480   5.066   1.274
 8025SOL    HW224975   1.633   5.088   1.223
 8026SOL     OW24976   6.921   4.619   0.663
 8026SOL    HW124977   7.000   4.661   0.707
 8026SOL    HW224978   6.946   4.530   0.625
 8027SOL     OW24979   3.487   6.579   5.123
 8027SOL    HW124980   3.422   6.649   5.153
 8027SOL    HW224981   3.455   6.539   5.037
 8028SOL     OW24982   2.655   6.004   4.088
 8028SOL    HW124983   2.640   5.946   4.008
 8028SOL    HW224984   2.616   5.960   4.169
 8029SOL     OW24985   4.942   2.305   1.987
 8029SOL    HW124986   5.007   2.356   1.930
 8029SOL    HW224987   4.849   2.329   1.960
 8030SOL     OW24988   6.098   5.413   0.621
 8030SOL    HW124989   6.097   5.504   0.580
 8030SOL    HW224990   6.165   5.411   0.696
 8031SOL     OW24991   6.214   6.918   3.250
 8031SOL    HW124992   6.241   6.837   3.198
 8031SOL    HW224993   6.242   7.001   3.201
 8032SOL     OW24994   4.882   3.683   1.468
 8032SOL    HW124995   4.841   3.667   1.557
 8032SOL    HW224996   4.840   3.764   1.426
 8033SOL     OW24997   4.540   3.417   6.934
 8033SOL    HW124998   4.617   3.403   6.997
 8033SOL    HW224999   4.455   3.398   6.982
 8034SOL     OW25000   5.450   0.328   5.576
 8034SOL    HW125001   5.521   0.323   5.645
 8034SOL    HW225002   5.412   0.237   5.560
 8035SOL     OW25003   4.687   0.879   2.173
 8035SOL    HW125004   4.767   0.824   2.149
 8035SOL    HW225005   4.643   0.840   2.254
 8036SOL     OW25006   6.866   2.849   3.530
 8036SOL    HW125007   6.861   2.938   3.485
 8036SOL    HW225008   6.846   2.777   3.463
 8037SOL     OW25009   1.288   3.285   0.008
 8037SOL    HW125010   1.231   3.314   0.085
 8037SOL    HW225011   1.269   3.189   7.013
 8038SOL     OW25012   5.612   6.219   2.245
 8038SOL    HW125013   5.603   6.240   2.148
 8038SOL    HW225014   5.552   6.279   2.298
 8039SOL     OW25015   0.375   2.605   5.042
 8039SOL    HW125016   0.353   2.571   5.133
 8039SOL    HW225017   0.455   2.555   5.007
 8040SOL     OW25018   2.045   5.980   6.930
 8040SOL    HW125019   2.065   5.978   0.002
 8040SOL    HW225020   2.099   6.053   6.887
 8041SOL     OW25021   3.342   1.146   2.883
 8041SOL    HW125022   3.417   1.209   2.868
 8041SOL    HW225023   3.256   1.189   2.855
 8042SOL     OW25024   4.246   4.285   5.409
 8042SOL    HW125025   4.226   4.235   5.493
 8042SOL    HW225026   4.183   4.257   5.337
 8043SOL     OW25027   4.071   5.205   0.824
 8043SOL    HW125028   4.057   5.182   0.920
 8043SOL    HW225029   4.027   5.135   0.767
 8044SOL     OW25030   3.190   3.228   0.996
 8044SOL    HW125031   3.232   3.158   1.053
 8044SOL    HW225032   3.254   3.303   0.981
 8045SOL     OW25033   6.901   1.855   2.851
 8045SOL    HW125034   6.971   1.796   2.810
 8045SOL    HW225035   6.936   1.892   2.938
 8046SOL     OW25036   0.462   5.169   2.231
 8046SOL    HW125037   0.535   5.234   2.251
 8046SOL    HW225038   0.482   5.082   2.276
 8047SOL     OW25039   3.648   7.008   6.887
 8047SOL    HW125040   3.734   6.958   6.902
 8047SOL    HW225041   3.647   0.064   6.943
 8048SOL     OW25042   3.622   3.105   6.776
 8048SOL    HW125043   3.589   3.058   6.694
 8048SOL    HW225044   3.601   3.202   6.769
 8049SOL     OW25045   1.272   6.342   0.106
 8049SOL    HW125046   1.272   6.441   0.095
 8049SOL    HW225047   1.364   6.311   0.130
 8050SOL     OW25048   1.996   3.794   4.749
 8050SOL    HW125049   2.060   3.870   4.760
 8050SOL    HW225050   2.016   3.746   4.664
 8051SOL     OW25051   4.799   5.667   4.230
 8051SOL    HW125052   4.707   5.698   4.254
 8051SOL    HW225053   4.838   5.729   4.162
 8052SOL     OW25054   2.499   2.075   1.906
 8052SOL    HW125055   2.509   2.024   1.992
 8052SOL    HW225056   2.518   2.014   1.829
 8053SOL     OW25057   2.958   2.777   5.474
 8053SOL    HW125058   3.010   2.816   5.398
 8053SOL    HW225059   2.906   2.850   5.520
 8054SOL     OW25060   5.784   3.828   4.983
 8054SOL    HW125061   5.881   3.802   4.979
 8054SOL    HW225062   5.764   3.890   4.906
 8055SOL     OW25063   0.422   1.329   5.346
 8055SOL    HW125064   0.405   1.307   5.442
 8055SOL    HW225065   0.520   1.319   5.327
 8056SOL     OW25066   3.321   6.488   3.543
 8056SOL    HW125067   3.399   6.443   3.499
 8056SOL    HW225068   3.264   6.531   3.473
 8057SOL     OW25069   2.844   2.028   2.154
 8057SOL    HW125070   2.894   2.108   2.119
 8057SOL    HW225071   2.792   1.986   2.080
 8058SOL     OW25072   3.034   6.726   2.892
 8058SOL    HW125073   3.094   6.660   2.939
 8058SOL    HW225074   2.970   6.676   2.834
 8059SOL     OW25075   3.089   0.919   5.507
 8059SOL    HW125076   2.997   0.882   5.494
 8059SOL    HW225077   3.087   1.018   5.494
 8060SOL     OW25078   0.114   1.386   5.953
 8060SOL    HW125079   0.085   1.425   5.865
 8060SOL    HW225080   0.106   1.286   5.949
 8061SOL     OW25081   0.177   1.039   3.069
 8061SOL    HW125082   0.119   1.087   3.004
 8061SOL    HW225083   0.201   0.949   3.032
 8062SOL     OW25084   4.102   5.338   4.667
 8062SOL    HW125085   4.196   5.317   4.694
 8062SOL    HW225086   4.040   5.269   4.705
 8063SOL     OW25087   3.104   1.498   2.843
 8063SOL    HW125088   3.140   1.591   2.832
 8063SOL    HW225089   3.059   1.490   2.932
 8064SOL     OW25090   6.482   3.225   0.003
 8064SOL    HW125091   6.464   3.216   0.101
 8064SOL    HW225092   6.546   3.300   7.013
 8065SOL     OW25093   3.711   6.841   4.661
 8065SOL    HW125094   3.799   6.840   4.614
 8065SOL    HW225095   3.723   6.803   4.753
 8066SOL     OW25096   6.542   0.530   4.319
 8066SOL    HW125097   6.483   0.525   4.239
 8066SOL    HW225098   6.491   0.571   4.395
 8067SOL     OW25099   4.921   2.396   3.718
 8067SOL    HW125100   4.900   2.301   3.694
 8067SOL    HW225101   5.020   2.408   3.721
 8068SOL     OW25102   0.636   4.910   0.951
 8068SOL    HW125103   0.542   4.945   0.951
 8068SOL    HW225104   0.648   4.846   1.027
 8069SOL     OW25105   2.502   5.083   2.019
 8069SOL    HW125106   2.464   5.104   1.929
 8069SOL    HW225107   2.584   5.027   2.008
 8070SOL     OW25108   3.923   3.525   0.640
 8070SOL    HW125109   3.904   3.438   0.595
 8070SOL    HW225110   3.836   3.572   0.660
 8071SOL     OW25111   4.012   6.661   4.713
 8071SOL    HW125112   3.923   6.652   4.758
 8071SOL    HW225113   4.008   6.738   4.649
 8072SOL     OW25114   2.910   2.708   0.587
 8072SOL    HW125115   2.933   2.803   0.610
 8072SOL    HW225116   2.959   2.647   0.649
 8073SOL     OW25117   3.009   6.589   5.156
 8073SOL    HW125118   3.013   6.624   5.062
 8073SOL    HW225119   3.025   6.665   5.220
 8074SOL     OW25120   2.512   1.373   0.997
 8074SOL    HW125121   2.499   1.418   0.908
 8074SOL    HW225122   2.456   1.420   1.066
 8075SOL     OW25123   0.353   6.825   0.911
 8075SOL    HW125124   0.405   6.817   0.826
 8075SOL    HW225125   0.343   6.921   0.935
 8076SOL     OW25126   0.337   0.455   5.765
 8076SOL    HW125127   0.361   0.417   5.854
 8076SOL    HW225128   0.246   0.496   5.769
 8077SOL     OW25129   3.862   6.043   2.446
 8077SOL    HW125130   3.869   6.126   2.390
 8077SOL    HW225131   3.905   5.967   2.397
 8078SOL     OW25132   0.939   1.722   0.881
 8078SOL    HW125133   0.857   1.749   0.930
 8078SOL    HW225134   0.918   1.713   0.783
 8079SOL     OW25135   6.434   1.359   3.869
 8079SOL    HW125136   6.462   1.285   3.808
 8079SOL    HW225137   6.388   1.321   3.949
 8080SOL     OW25138   1.449   2.900   1.887
 8080SOL    HW125139   1.423   2.885   1.792
 8080SOL    HW225140   1.434   2.816   1.939
 8081SOL     OW25141   6.222   5.002   5.706
 8081SOL    HW125142   6.292   4.982   5.775
 8081SOL    HW225143   6.241   4.949   5.623
 8082SOL     OW25144   3.650   0.683   2.133
 8082SOL    HW125145   3.551   0.673   2.139
 8082SOL    HW225146   3.672   0.773   2.096
 8083SOL     OW25147   5.371   3.006   4.499
 8083SOL    HW125148   5.419   3.086   4.536
 8083SOL    HW225149   5.438   2.934   4.479
 8084SOL     OW25150   3.018   0.896   6.095
 8084SOL    HW125151   2.972   0.850   6.019
 8084SOL    HW225152   3.011   0.839   6.177
 8085SOL     OW25153   6.754   6.380   2.865
 8085SOL    HW125154   6.662   6.341   2.868
 8085SOL    HW225155   6.752   6.466   2.814
 8086SOL     OW25156   0.060   1.186   0.857
 8086SOL    HW125157   7.015   1.145   0.914
 8086SOL    HW225158   0.133   1.120   0.842
 8087SOL     OW25159   1.955   0.270   6.093
 8087SOL    HW125160   1.990   0.177   6.079
 8087SOL    HW225161   1.963   0.295   6.189
 8088SOL     OW25162   5.752   0.242   0.074
 8088SOL    HW125163   5.846   0.275   0.070
 8088SOL    HW225164   5.743   0.173   0.146
 8089SOL     OW25165   5.775   2.976   6.392
 8089SOL    HW125166   5.763   2.884   6.354
 8089SOL    HW225167   5.751   2.975   6.489
 8090SOL     OW25168   4.382   1.400   6.151
 8090SOL    HW125169   4.405   1.493   6.124
 8090SOL    HW225170   4.395   1.338   6.073
 8091SOL     OW25171   1.482   4.553   5.011
 8091SOL    HW125172   1.459   4.563   4.914
 8091SOL    HW225173   1.522   4.462   5.026
 8092SOL     OW25174   5.071   2.104   5.654
 8092SOL    HW125175   5.136   2.130   5.583
 8092SOL    HW225176   5.114   2.038   5.716
 8093SOL     OW25177   3.029   5.314   3.346
 8093SOL    HW125178   3.077   5.338   3.262
 8093SOL    HW225179   2.934   5.343   3.340
 8094SOL     OW25180   0.877   3.037   5.599
 8094SOL    HW125181   0.896   3.038   5.697
 8094SOL    HW225182   0.852   3.130   5.569
 8095SOL     OW25183   0.639   4.911   4.694
 8095SOL    HW125184   0.723   4.879   4.739
 8095SOL    HW225185   0.647   4.899   4.596
 8096SOL     OW25186   1.953   0.492   2.771
 8096SOL    HW125187   1.976   0.535   2.858
 8096SOL    HW225188   1.902   0.408   2.789
 8097SOL     OW25189   4.291   0.436   4.418
 8097SOL    HW125190   4.346   0.418   4.500
 8097SOL    HW225191   4.218   0.501   4.441
 8098SOL     OW25192   2.183   6.438   3.779
 8098SOL    HW125193   2.098   6.477   3.743
 8098SOL    HW225194   2.249   6.427   3.705
 8099SOL     OW25195   4.629   6.285   4.595
 8099SOL    HW125196   4.592   6.331   4.676
 8099SOL    HW225197   4.561   6.221   4.559
 8100SOL     OW25198   6.645   1.666   6.739
 8100SOL    HW125199   6.736   1.674   6.780
 8100SOL    HW225200   6.621   1.569   6.729
 8101SOL     OW25201   1.422   5.326   0.519
 8101SOL    HW125202   1.522   5.337   0.527
 8101SOL    HW225203   1.402   5.233   0.489
 8102SOL     OW25204   0.374   3.858   3.626
 8102SOL    HW125205   0.438   3.794   3.669
 8102SOL    HW225206   0.300   3.806   3.582
 8103SOL     OW25207   3.705   0.087   2.131
 8103SOL    HW125208   3.681   0.184   2.120
 8103SOL    HW225209   3.776   0.063   2.065
 8104SOL     OW25210   1.764   0.183   5.263
 8104SOL    HW125211   1.790   0.260   5.320
 8104SOL    HW225212   1.823   0.105   5.282
 8105SOL     OW25213   0.074   2.520   2.342
 8105SOL    HW125214   0.125   2.565   2.415
 8105SOL    HW225215   0.081   2.574   2.258
 8106SOL     OW25216   2.677   6.319   3.254
 8106SOL    HW125217   2.642   6.290   3.165
 8106SOL    HW225218   2.732   6.402   3.243
 8107SOL     OW25219   1.130   5.822   4.176
 8107SOL    HW125220   1.184   5.741   4.199
 8107SOL    HW225221   1.040   5.794   4.143
 8108SOL     OW25222   6.638   2.212   0.075
 8108SOL    HW125223   6.623   2.277   0.000
 8108SOL    HW225224   6.596   2.125   0.052
 8109SOL     OW25225   0.249   3.666   6.837
 8109SOL    HW125226   0.340   3.642   6.804
 8109SOL    HW225227   0.182   3.649   6.764
 8110SOL     OW25228   4.027   4.772   1.853
 8110SOL    HW125229   4.029   4.773   1.953
 8110SOL    HW225230   4.027   4.677   1.821
 8111SOL     OW25231   4.817   1.144   4.403
 8111SOL    HW125232   4.877   1.176   4.476
 8111SOL    HW225233   4.869   1.090   4.338
 8112SOL     OW25234   2.282   2.581   4.693
 8112SOL    HW125235   2.291   2.677   4.722
 8112SOL    HW225236   2.346   2.564   4.618
 8113SOL     OW25237   6.968   3.675   0.840
 8113SOL    HW125238   6.903   3.685   0.916
 8113SOL    HW225239   6.920   3.679   0.753
 8114SOL     OW25240   1.493   3.656   2.057
 8114SOL    HW125241   1.403   3.643   2.014
 8114SOL    HW225242   1.498   3.599   2.139
 8115SOL     OW25243   3.048   6.198   5.696
 8115SOL    HW125244   3.053   6.100   5.676
 8115SOL    HW225245   3.124   6.224   5.756
 8116SOL     OW25246   4.356   4.934   0.086
 8116SOL    HW125247   4.354   4.838   0.112
 8116SOL    HW225248   4.360   4.991   0.168
 8117SOL     OW25249   2.416   0.315   3.511
 8117SOL    HW125250   2.396   0.277   3.421
 8117SOL    HW225251   2.351   0.390   3.530
 8118SOL     OW25252   5.421   4.109   6.295
 8118SOL    HW125253   5.513   4.148   6.295
 8118SOL    HW225254   5.357   4.174   6.254
 8119SOL     OW25255   5.267   6.480   6.127
 8119SOL    HW125256   5.169   6.484   6.107
 8119SOL    HW225257   5.289   6.390   6.166
 8120SOL     OW25258   3.139   4.748   0.523
 8120SOL    HW125259   3.176   4.811   0.591
 8120SOL    HW225260   3.211   4.721   0.460
 8121SOL     OW25261   0.700   4.836   1.245
 8121SOL    HW125262   0.637   4.903   1.286
 8121SOL    HW225263   0.679   4.745   1.279
 8122SOL     OW25264   0.639   4.329   3.093
 8122SOL    HW125265   0.698   4.326   3.013
 8122SOL    HW225266   0.550   4.367   3.068
 8123SOL     OW25267   6.890   2.054   0.047
 8123SOL    HW125268   6.827   1.980   0.069
 8123SOL    HW225269   6.918   2.101   0.131
 8124SOL     OW25270   5.300   6.316   3.304
 8124SOL    HW125271   5.207   6.295   3.274
 8124SOL    HW225272   5.343   6.234   3.340
 8125SOL     OW25273   1.103   1.268   2.456
 8125SOL    HW125274   1.100   1.168   2.453
 8125SOL    HW225275   1.159   1.302   2.380
 8126SOL     OW25276   5.133   4.511   3.247
 8126SOL    HW125277   5.196   4.483   3.175
 8126SOL    HW225278   5.053   4.451   3.246
 8127SOL     OW25279   2.893   3.211   6.459
 8127SOL    HW125280   2.802   3.199   6.500
 8127SOL    HW225281   2.904   3.146   6.385
 8128SOL     OW25282   3.163   2.136   2.130
 8128SOL    HW125283   3.174   2.134   2.229
 8128SOL    HW225284   3.081   2.188   2.106
 8129SOL     OW25285   3.787   1.620   6.635
 8129SOL    HW125286   3.849   1.582   6.704
 8129SOL    HW225287   3.783   1.719   6.645
 8130SOL     OW25288   0.681   6.095   6.718
 8130SOL    HW125289   0.628   6.171   6.681
 8130SOL    HW225290   0.631   6.009   6.704
 8131SOL     OW25291   2.923   1.532   2.109
 8131SOL    HW125292   2.890   1.441   2.086
 8131SOL    HW225293   2.990   1.562   2.041
 8132SOL     OW25294   5.833   6.179   4.770
 8132SOL    HW125295   5.808   6.110   4.837
 8132SOL    HW225296   5.750   6.216   4.728
 8133SOL     OW25297   3.733   5.242   2.387
 8133SOL    HW125298   3.668   5.293   2.443
 8133SOL    HW225299   3.688   5.162   2.348
 8134SOL     OW25300   6.840   1.753   6.143
 8134SOL    HW125301   6.843   1.794   6.234
 8134SOL    HW225302   6.878   1.816   6.077
 8135SOL     OW25303   1.839   1.220   1.506
 8135SOL    HW125304   1.801   1.307   1.538
 8135SOL    HW225305   1.910   1.237   1.438
 8136SOL     OW25306   5.278   5.138   1.893
 8136SOL    HW125307   5.343   5.118   1.967
 8136SOL    HW225308   5.202   5.074   1.898
 8137SOL     OW25309   3.045   1.573   5.283
 8137SOL    HW125310   2.969   1.519   5.321
 8137SOL    HW225311   3.017   1.668   5.273
 8138SOL     OW25312   5.498   0.957   1.351
 8138SOL    HW125313   5.504   1.019   1.273
 8138SOL    HW225314   5.423   0.986   1.411
 8139SOL     OW25315   0.052   1.108   2.226
 8139SOL    HW125316   0.029   1.032   2.286
 8139SOL    HW225317   0.103   1.177   2.277
 8140SOL     OW25318   5.436   0.856   5.151
 8140SOL    HW125319   5.392   0.775   5.188
 8140SOL    HW225320   5.379   0.896   5.079
 8141SOL     OW25321   4.891   5.289   5.842
 8141SOL    HW125322   4.937   5.377   5.844
 8141SOL    HW225323   4.932   5.232   5.770
 8142SOL     OW25324   6.536   5.096   0.408
 8142SOL    HW125325   6.544   5.047   0.495
 8142SOL    HW225326   6.485   5.181   0.422
 8143SOL     OW25327   6.165   4.784   0.543
 8143SOL    HW125328   6.163   4.730   0.627
 8143SOL    HW225329   6.173   4.881   0.565
 8144SOL     OW25330   5.588   6.717   0.174
 8144SOL    HW125331   5.531   6.790   0.135
 8144SOL    HW225332   5.537   6.631   0.174
 8145SOL     OW25333   5.735   5.791   1.939
 8145SOL    HW125334   5.747   5.883   1.903
 8145SOL    HW225335   5.711   5.796   2.036
 8146SOL     OW25336   3.498   1.298   5.077
 8146SOL    HW125337   3.477   1.265   5.169
 8146SOL    HW225338   3.530   1.392   5.082
 8147SOL     OW25339   5.804   2.551   3.265
 8147SOL    HW125340   5.749   2.556   3.182
 8147SOL    HW225341   5.747   2.573   3.344
 8148SOL     OW25342   5.323   3.587   2.162
 8148SOL    HW125343   5.356   3.659   2.101
 8148SOL    HW225344   5.226   3.572   2.146
 8149SOL     OW25345   2.540   5.502   2.284
 8149SOL    HW125346   2.614   5.466   2.340
 8149SOL    HW225347   2.464   5.436   2.281
 8150SOL     OW25348   0.060   5.219   0.620
 8150SOL    HW125349   0.083   5.269   0.703
 8150SOL    HW225350   0.084   5.275   0.540
 8151SOL     OW25351   0.347   2.656   2.785
 8151SOL    HW125352   0.332   2.568   2.832
 8151SOL    HW225353   0.441   2.686   2.801
 8152SOL     OW25354   0.528   2.228   2.531
 8152SOL    HW125355   0.568   2.280   2.456
 8152SOL    HW225356   0.452   2.173   2.496
 8153SOL     OW25357   3.670   0.072   3.509
 8153SOL    HW125358   3.677   0.126   3.593
 8153SOL    HW225359   3.680   0.131   3.430
 8154SOL     OW25360   1.932   6.041   3.415
 8154SOL    HW125361   2.000   5.968   3.421
 8154SOL    HW225362   1.850   6.006   3.371
 8155SOL     OW25363   2.874   3.567   1.960
 8155SOL    HW125364   2.844   3.474   1.937
 8155SOL    HW225365   2.943   3.563   2.032
 8156SOL     OW25366   5.807   0.026   5.954
 8156SOL    HW125367   5.883   0.005   6.014
 8156SOL    HW225368   5.748   0.095   5.995
 8157SOL     OW25369   5.899   5.850   6.089
 8157SOL    HW125370   5.880   5.808   6.000
 8157SOL    HW225371   5.956   5.931   6.077
 8158SOL     OW25372   0.757   5.535   0.657
 8158SOL    HW125373   0.666   5.568   0.632
 8158SOL    HW225374   0.778   5.565   0.751
 8159SOL     OW25375   2.276   5.541   2.386
 8159SOL    HW125376   2.275   5.487   2.302
 8159SOL    HW225377   2.332   5.622   2.373
 8160SOL     OW25378   4.552   1.371   1.647
 8160SOL    HW125379   4.562   1.470   1.658
 8160SOL    HW225380   4.497   1.351   1.566
 8161SOL     OW25381   4.884   0.405   1.121
 8161SOL    HW125382   4.876   0.440   1.215
 8161SOL    HW225383   4.841   0.315   1.115
 8162SOL     OW25384   6.378   6.786   6.282
 8162SOL    HW125385   6.372   6.879   6.318
 8162SOL    HW225386   6.392   6.721   6.357
 8163SOL     OW25387   2.400   4.342   5.686
 8163SOL    HW125388   2.416   4.243   5.683
 8163SOL    HW225389   2.320   4.365   5.630
 8164SOL     OW25390   5.568   3.522   0.599
 8164SOL    HW125391   5.640   3.540   0.666
 8164SOL    HW225392   5.597   3.449   0.537
 8165SOL     OW25393   1.380   4.502   0.564
 8165SOL    HW125394   1.464   4.458   0.533
 8165SOL    HW225395   1.403   4.588   0.610
 8166SOL     OW25396   2.151   1.157   1.764
 8166SOL    HW125397   2.060   1.169   1.804
 8166SOL    HW225398   2.166   1.227   1.694
 8167SOL     OW25399   5.459   1.594   4.220
 8167SOL    HW125400   5.460   1.675   4.279
 8167SOL    HW225401   5.392   1.607   4.146
 8168SOL     OW25402   3.247   2.113   2.665
 8168SOL    HW125403   3.285   2.130   2.756
 8168SOL    HW225404   3.287   2.029   2.627
 8169SOL     OW25405   4.742   3.196   1.002
 8169SOL    HW125406   4.650   3.187   1.040
 8169SOL    HW225407   4.805   3.141   1.057
 8170SOL     OW25408   1.659   5.696   3.523
 8170SOL    HW125409   1.583   5.759   3.505
 8170SOL    HW225410   1.654   5.664   3.617
 8171SOL     OW25411   0.502   1.925   6.598
 8171SOL    HW125412   0.435   1.991   6.564
 8171SOL    HW225413   0.454   1.853   6.648
 8172SOL     OW25414   0.065   0.892   0.874
 8172SOL    HW125415   0.030   0.836   0.949
 8172SOL    HW225416   0.009   0.878   0.793
 8173SOL     OW25417   3.119   2.059   6.929
 8173SOL    HW125418   3.159   2.069   6.837
 8173SOL    HW225419   3.100   1.962   6.946
 8174SOL     OW25420   5.296   1.982   1.093
 8174SOL    HW125421   5.296   1.894   1.140
 8174SOL    HW225422   5.209   1.994   1.044
 8175SOL     OW25423   0.124   2.829   6.449
 8175SOL    HW125424   0.180   2.782   6.518
 8175SOL    HW225425   0.130   2.928   6.462
 8176SOL     OW25426   2.638   5.665   2.079
 8176SOL    HW125427   2.598   5.619   2.159
 8176SOL    HW225428   2.581   5.743   2.054
 8177SOL     OW25429   1.485   5.901   3.513
 8177SOL    HW125430   1.568   5.944   3.548
 8177SOL    HW225431   1.442   5.961   3.445
 8178SOL     OW25432   1.517   0.193   5.839
 8178SOL    HW125433   1.453   0.173   5.912
 8178SOL    HW225434   1.485   0.151   5.754
 8179SOL     OW25435   3.871   3.449   0.146
 8179SOL    HW125436   3.921   3.431   0.230
 8179SOL    HW225437   3.928   3.504   0.084
 8180SOL     OW25438   6.342   6.774   3.930
 8180SOL    HW125439   6.293   6.848   3.976
 8180SOL    HW225440   6.428   6.810   3.892
 8181SOL     OW25441   2.604   2.060   2.758
 8181SOL    HW125442   2.669   2.107   2.697
 8181SOL    HW225443   2.603   1.962   2.735
 8182SOL     OW25444   3.341   1.929   6.339
 8182SOL    HW125445   3.379   2.015   6.305
 8182SOL    HW225446   3.415   1.866   6.361
 8183SOL     OW25447   0.727   3.007   5.247
 8183SOL    HW125448   0.728   3.104   5.224
 8183SOL    HW225449   0.636   2.982   5.283
 8184SOL     OW25450   6.056   1.321   5.712
 8184SOL    HW125451   6.146   1.339   5.672
 8184SOL    HW225452   6.050   1.365   5.801
 8185SOL     OW25453   2.900   0.430   0.557
 8185SOL    HW125454   2.970   0.467   0.618
 8185SOL    HW225455   2.852   0.355   0.603
 8186SOL     OW25456   3.296   6.239   5.837
 8186SOL    HW125457   3.357   6.160   5.842
 8186SOL    HW225458   3.343   6.320   5.872
 8187SOL     OW25459   1.349   1.744   5.122
 8187SOL    HW125460   1.386   1.781   5.036
 8187SOL    HW225461   1.351   1.816   5.192
 8188SOL     OW25462   4.940   1.837   2.838
 8188SOL    HW125463   4.968   1.911   2.776
 8188SOL    HW225464   4.842   1.844   2.855
 8189SOL     OW25465   5.024   4.342   2.418
 8189SOL    HW125466   4.979   4.252   2.408
 8189SOL    HW225467   4.961   4.405   2.463
 8190SOL     OW25468   5.560   4.514   4.128
 8190SOL    HW125469   5.592   4.434   4.177
 8190SOL    HW225470   5.629   4.543   4.062
 8191SOL     OW25471   1.846   5.277   3.665
 8191SOL    HW125472   1.893   5.361   3.639
 8191SOL    HW225473   1.812   5.285   3.759
 8192SOL     OW25474   3.100   5.414   0.526
 8192SOL    HW125475   3.044   5.348   0.576
 8192SOL    HW225476   3.184   5.369   0.494
 8193SOL     OW25477   6.261   6.318   5.070
 8193SOL    HW125478   6.290   6.272   5.154
 8193SOL    HW225479   6.205   6.398   5.093
 8194SOL     OW25480   6.367   2.540   6.940
 8194SOL    HW125481   6.357   2.555   6.842
 8194SOL    HW225482   6.338   2.621   6.990
 8195SOL     OW25483   0.302   0.576   0.883
 8195SOL    HW125484   0.354   0.599   0.966
 8195SOL    HW225485   0.336   0.630   0.806
 8196SOL     OW25486   4.182   6.363   5.507
 8196SOL    HW125487   4.200   6.355   5.409
 8196SOL    HW225488   4.096   6.412   5.521
 8197SOL     OW25489   6.081   1.082   6.418
 8197SOL    HW125490   6.114   1.140   6.493
 8197SOL    HW225491   6.064   1.138   6.337
 8198SOL     OW25492   2.782   6.707   2.577
 8198SOL    HW125493   2.838   6.789   2.584
 8198SOL    HW225494   2.686   6.730   2.594
 8199SOL     OW25495   0.124   3.746   0.025
 8199SOL    HW125496   0.177   3.704   6.977
 8199SOL    HW225497   0.144   3.844   0.029
 8200SOL     OW25498   4.448   5.158   1.238
 8200SOL    HW125499   4.508   5.113   1.171
 8200SOL    HW225500   4.428   5.094   1.312
 8201SOL     OW25501   5.057   1.138   4.581
 8201SOL    HW125502   5.153   1.133   4.608
 8201SOL    HW225503   5.014   1.049   4.595
 8202SOL     OW25504   1.652   5.502   4.101
 8202SOL    HW125505   1.674   5.446   4.021
 8202SOL    HW225506   1.737   5.540   4.139
 8203SOL     OW25507   4.466   3.745   0.746
 8203SOL    HW125508   4.471   3.653   0.708
 8203SOL    HW225509   4.558   3.786   0.746
 8204SOL     OW25510   3.519   6.404   1.623
 8204SOL    HW125511   3.542   6.382   1.718
 8204SOL    HW225512   3.466   6.329   1.584
 8205SOL     OW25513   5.635   5.165   1.528
 8205SOL    HW125514   5.715   5.135   1.580
 8205SOL    HW225515   5.571   5.210   1.589
 8206SOL     OW25516   3.504   2.635   6.134
 8206SOL    HW125517   3.426   2.611   6.191
 8206SOL    HW225518   3.520   2.734   6.139
 8207SOL     OW25519   2.816   4.866   5.605
 8207SOL    HW125520   2.741   4.813   5.566
 8207SOL    HW225521   2.855   4.816   5.682
 8208SOL     OW25522   2.460   5.836   1.946
 8208SOL    HW125523   2.363   5.858   1.938
 8208SOL    HW225524   2.515   5.914   1.915
 8209SOL     OW25525   1.659   0.748   5.511
 8209SOL    HW125526   1.636   0.824   5.572
 8209SOL    HW225527   1.593   0.743   5.436
 8210SOL     OW25528   2.837   0.701   0.470
 8210SOL    HW125529   2.776   0.726   0.395
 8210SOL    HW225530   2.852   0.602   0.470
 8211SOL     OW25531   3.630   4.184   4.660
 8211SOL    HW125532   3.597   4.278   4.671
 8211SOL    HW225533   3.645   4.143   4.749
 8212SOL     OW25534   2.390   0.241   0.879
 8212SOL    HW125535   2.292   0.226   0.889
 8212SOL    HW225536   2.435   0.234   0.968
 8213SOL     OW25537   4.404   5.327   2.927
 8213SOL    HW125538   4.444   5.354   3.014
 8213SOL    HW225539   4.424   5.231   2.909
 8214SOL     OW25540   2.465   5.581   4.064
 8214SOL    HW125541   2.407   5.659   4.090
 8214SOL    HW225542   2.450   5.559   3.967
 8215SOL     OW25543   4.054   6.514   6.841
 8215SOL    HW125544   4.002   6.589   6.799
 8215SOL    HW225545   4.060   6.529   6.939
 8216SOL     OW25546   4.835   6.246   3.036
 8216SOL    HW125547   4.867   6.259   2.942
 8216SOL    HW225548   4.735   6.248   3.037
 8217SOL     OW25549   2.186   4.020   2.922
 8217SOL    HW125550   2.191   4.100   2.863
 8217SOL    HW225551   2.204   3.938   2.869
 8218SOL     OW25552   2.053   0.295   4.683
 8218SOL    HW125553   2.108   0.331   4.759
 8218SOL    HW225554   1.969   0.349   4.675
 8219SOL     OW25555   3.384   4.052   1.870
 8219SOL    HW125556   3.301   4.058   1.926
 8219SOL    HW225557   3.404   3.957   1.850
 8220SOL     OW25558   3.357   4.265   5.302
 8220SOL    HW125559   3.306   4.350   5.311
 8220SOL    HW225560   3.334   4.204   5.378
 8221SOL     OW25561   5.997   3.986   3.185
 8221SOL    HW125562   5.976   3.979   3.087
 8221SOL    HW225563   6.084   4.033   3.197
 8222SOL     OW25564   6.451   3.184   1.489
 8222SOL    HW125565   6.443   3.116   1.416
 8222SOL    HW225566   6.380   3.167   1.558
 8223SOL     OW25567   0.077   5.661   5.078
 8223SOL    HW125568   0.008   5.598   5.116
 8223SOL    HW225569   0.050   5.755   5.097
 8224SOL     OW25570   5.068   1.731   0.695
 8224SOL    HW125571   5.066   1.775   0.604
 8224SOL    HW225572   4.978   1.692   0.714
 8225SOL     OW25573   4.303   0.538   6.956
 8225SOL    HW125574   4.283   0.636   6.967
 8225SOL    HW225575   4.220   0.489   6.934
 8226SOL     OW25576   3.758   0.501   0.023
 8226SOL    HW125577   3.800   0.527   0.110
 8226SOL    HW225578   3.818   0.527   6.974
 8227SOL     OW25579   5.335   1.547   3.051
 8227SOL    HW125580   5.240   1.545   3.019
 8227SOL    HW225581   5.369   1.454   3.059
 8228SOL     OW25582   0.289   1.358   5.111
 8228SOL    HW125583   0.334   1.320   5.191
 8228SOL    HW225584   0.213   1.298   5.084
 8229SOL     OW25585   3.727   4.715   1.170
 8229SOL    HW125586   3.681   4.627   1.156
 8229SOL    HW225587   3.709   4.748   1.262
 8230SOL     OW25588   4.219   0.529   5.699
 8230SOL    HW125589   4.214   0.603   5.633
 8230SOL    HW225590   4.311   0.525   5.738
 8231SOL     OW25591   3.189   0.851   2.041
 8231SOL    HW125592   3.199   0.881   1.946
 8231SOL    HW225593   3.157   0.927   2.097
 8232SOL     OW25594   4.390   0.786   2.214
 8232SOL    HW125595   4.441   0.825   2.290
 8232SOL    HW225596   4.304   0.748   2.248
 8233SOL     OW25597   0.557   0.930   5.328
 8233SOL    HW125598   0.612   1.008   5.298
 8233SOL    HW225599   0.486   0.962   5.390
 8234SOL     OW25600   2.675   3.953   6.898
 8234SOL    HW125601   2.766   3.938   6.937
 8234SOL    HW225602   2.680   3.954   6.799
 8235SOL     OW25603   7.017   4.891   6.749
 8235SOL    HW125604   0.045   4.961   6.704
 8235SOL    HW225605   7.008   4.913   6.847
 8236SOL     OW25606   0.312   6.324   5.926
 8236SOL    HW125607   0.374   6.288   5.857
 8236SOL    HW225608   0.318   6.268   6.009
 8237SOL     OW25609   4.800   5.740   6.319
 8237SOL    HW125610   4.740   5.793   6.379
 8237SOL    HW225611   4.825   5.654   6.364
 8238SOL     OW25612   2.594   5.340   0.515
 8238SOL    HW125613   2.632   5.306   0.601
 8238SOL    HW225614   2.668   5.354   0.449
 8239SOL     OW25615   0.867   1.537   4.887
 8239SOL    HW125616   0.938   1.547   4.956
 8239SOL    HW225617   0.838   1.627   4.855
 8240SOL     OW25618   4.012   3.191   4.458
 8240SOL    HW125619   4.016   3.276   4.510
 8240SOL    HW225620   3.980   3.117   4.517
 8241SOL     OW25621   1.171   3.001   6.710
 8241SOL    HW125622   1.218   3.087   6.731
 8241SOL    HW225623   1.074   3.020   6.693
 8242SOL     OW25624   1.128   3.626   4.560
 8242SOL    HW125625   1.061   3.700   4.563
 8242SOL    HW225626   1.091   3.546   4.607
 8243SOL     OW25627   0.963   4.972   5.965
 8243SOL    HW125628   1.007   4.946   6.051
 8243SOL    HW225629   0.905   4.897   5.933
 8244SOL     OW25630   0.720   0.490   3.705
 8244SOL    HW125631   0.690   0.405   3.748
 8244SOL    HW225632   0.796   0.471   3.642
 8245SOL     OW25633   5.046   1.346   4.282
 8245SOL    HW125634   5.061   1.247   4.287
 8245SOL    HW225635   5.132   1.394   4.298
 8246SOL     OW25636   1.164   3.971   6.668
 8246SOL    HW125637   1.207   3.926   6.590
 8246SOL    HW225638   1.231   3.983   6.741
 8247SOL     OW25639   2.841   5.015   3.326
 8247SOL    HW125640   2.897   4.939   3.294
 8247SOL    HW225641   2.777   5.041   3.254
 8248SOL     OW25642   0.498   5.453   2.907
 8248SOL    HW125643   0.508   5.539   2.857
 8248SOL    HW225644   0.581   5.435   2.960
 8249SOL     OW25645   2.131   1.919   5.755
 8249SOL    HW125646   2.214   1.933   5.702
 8249SOL    HW225647   2.060   1.879   5.697
 8250SOL     OW25648   2.275   1.638   0.025
 8250SOL    HW125649   2.287   1.732   7.020
 8250SOL    HW225650   2.286   1.634   0.125
 8251SOL     OW25651   0.154   3.049   5.099
 8251SOL    HW125652   0.187   3.109   5.026
 8251SOL    HW225653   0.222   2.978   5.118
 8252SOL     OW25654   2.323   2.625   6.358
 8252SOL    HW125655   2.406   2.663   6.317
 8252SOL    HW225656   2.337   2.528   6.377
 8253SOL     OW25657   3.717   5.786   6.706
 8253SOL    HW125658   3.774   5.781   6.788
 8253SOL    HW225659   3.747   5.862   6.648
 8254SOL     OW25660   5.834   5.335   0.561
 8254SOL    HW125661   5.933   5.346   0.562
 8254SOL    HW225662   5.802   5.307   0.652
 8255SOL     OW25663   0.398   0.281   5.990
 8255SOL    HW125664   0.454   0.199   5.998
 8255SOL    HW225665   0.357   0.303   6.078
 8256SOL     OW25666   1.314   6.476   2.599
 8256SOL    HW125667   1.362   6.469   2.686
 8256SOL    HW225668   1.239   6.410   2.596
 8257SOL     OW25669   5.294   4.410   4.091
 8257SOL    HW125670   5.387   4.443   4.075
 8257SOL    HW225671   5.284   4.320   4.048
 8258SOL     OW25672   5.678   2.936   1.477
 8258SOL    HW125673   5.677   2.951   1.378
 8258SOL    HW225674   5.595   2.888   1.504
 8259SOL     OW25675   4.305   2.382   4.523
 8259SOL    HW125676   4.282   2.473   4.489
 8259SOL    HW225677   4.382   2.389   4.587
 8260SOL     OW25678   2.427   0.023   0.547
 8260SOL    HW125679   2.380   6.989   0.612
 8260SOL    HW225680   2.445   0.111   0.591
 8261SOL     OW25681   5.736   6.148   2.861
 8261SOL    HW125682   5.707   6.057   2.829
 8261SOL    HW225683   5.805   6.184   2.798
 8262SOL     OW25684   0.756   4.605   0.634
 8262SOL    HW125685   0.716   4.695   0.651
 8262SOL    HW225686   0.755   4.552   0.718
 8263SOL     OW25687   6.824   2.136   6.791
 8263SOL    HW125688   6.830   2.165   6.887
 8263SOL    HW225689   6.731   2.109   6.770
 8264SOL     OW25690   1.862   0.158   2.184
 8264SOL    HW125691   1.903   0.144   2.275
 8264SOL    HW225692   1.814   0.074   2.156
 8265SOL     OW25693   4.760   0.179   1.115
 8265SOL    HW125694   4.711   0.185   1.027
 8265SOL    HW225695   4.807   0.092   1.121
 8266SOL     OW25696   2.500   6.913   3.640
 8266SOL    HW125697   2.592   6.929   3.674
 8266SOL    HW225698   2.464   6.828   3.679
 8267SOL     OW25699   0.982   4.613   2.682
 8267SOL    HW125700   1.055   4.682   2.675
 8267SOL    HW225701   0.976   4.562   2.596
 8268SOL     OW25702   3.492   3.572   6.706
 8268SOL    HW125703   3.535   3.626   6.779
 8268SOL    HW225704   3.406   3.615   6.679
 8269SOL     OW25705   4.329   2.404   2.992
 8269SOL    HW125706   4.401   2.473   3.007
 8269SOL    HW225707   4.313   2.394   2.894
 8270SOL     OW25708   4.075   6.958   5.399
 8270SOL    HW125709   3.986   6.937   5.440
 8270SOL    HW225710   4.093   0.030   5.405
 8271SOL     OW25711   5.314   6.277   4.496
 8271SOL    HW125712   5.289   6.348   4.562
 8271SOL    HW225713   5.256   6.197   4.509
 8272SOL     OW25714   0.541   0.328   2.184
 8272SOL    HW125715   0.622   0.375   2.219
 8272SOL    HW225716   0.464   0.346   2.245
 8273SOL     OW25717   2.300   6.701   7.006
 8273SOL    HW125718   2.271   6.724   6.913
 8273SOL    HW225719   2.399   6.711   7.013
 8274SOL     OW25720   5.016   5.340   6.989
 8274SOL    HW125721   5.115   5.327   6.984
 8274SOL    HW225722   4.987   5.340   0.058
 8275SOL     OW25723   6.907   0.372   4.079
 8275SOL    HW125724   6.901   0.353   4.177
 8275SOL    HW225725   6.819   0.407   4.047
 8276SOL     OW25726   6.945   2.781   5.937
 8276SOL    HW125727   6.914   2.833   6.016
 8276SOL    HW225728   6.884   2.703   5.922
 8277SOL     OW25729   1.161   6.208   5.771
 8277SOL    HW125730   1.169   6.275   5.698
 8277SOL    HW225731   1.178   6.116   5.735
 8278SOL     OW25732   3.612   2.482   6.501
 8278SOL    HW125733   3.540   2.448   6.441
 8278SOL    HW225734   3.700   2.442   6.473
 8279SOL     OW25735   4.496   6.175   6.466
 8279SOL    HW125736   4.553   6.210   6.392
 8279SOL    HW225737   4.479   6.077   6.451
 8280SOL     OW25738   5.281   2.558   0.934
 8280SOL    HW125739   5.233   2.616   1.000
 8280SOL    HW225740   5.343   2.614   0.879
 8281SOL     OW25741   1.369   5.080   0.456
 8281SOL    HW125742   1.323   5.006   0.505
 8281SOL    HW225743   1.463   5.052   0.435
 8282SOL     OW25744   3.032   2.798   1.143
 8282SOL    HW125745   3.045   2.860   1.220
 8282SOL    HW225746   3.079   2.712   1.160
 8283SOL     OW25747   0.504   4.640   3.967
 8283SOL    HW125748   0.448   4.677   4.041
 8283SOL    HW225749   0.445   4.589   3.903
 8284SOL     OW25750   2.498   2.362   2.255
 8284SOL    HW125751   2.547   2.304   2.189
 8284SOL    HW225752   2.421   2.406   2.210
 8285SOL     OW25753   3.290   4.295   6.056
 8285SOL    HW125754   3.280   4.197   6.071
 8285SOL    HW225755   3.200   4.339   6.058
 8286SOL     OW25756   5.329   1.150   4.649
 8286SOL    HW125757   5.401   1.211   4.682
 8286SOL    HW225758   5.360   1.055   4.657
 8287SOL     OW25759   1.249   0.289   3.425
 8287SOL    HW125760   1.251   0.360   3.496
 8287SOL    HW225761   1.155   0.261   3.408
 8288SOL     OW25762   1.913   1.760   2.368
 8288SOL    HW125763   1.815   1.770   2.387
 8288SOL    HW225764   1.954   1.699   2.436
 8289SOL     OW25765   6.362   2.057   5.424
 8289SOL    HW125766   6.368   2.157   5.421
 8289SOL    HW225767   6.362   2.021   5.331
 8290SOL     OW25768   3.638   2.609   1.791
 8290SOL    HW125769   3.678   2.535   1.844
 8290SOL    HW225770   3.687   2.619   1.704
 8291SOL     OW25771   5.861   6.746   6.491
 8291SOL    HW125772   5.870   6.706   6.400
 8291SOL    HW225773   5.951   6.769   6.527
 8292SOL     OW25774   0.929   4.893   5.497
 8292SOL    HW125775   0.862   4.853   5.560
 8292SOL    HW225776   0.881   4.938   5.422
 8293SOL     OW25777   2.710   5.358   2.446
 8293SOL    HW125778   2.753   5.284   2.395
 8293SOL    HW225779   2.666   5.321   2.528
 8294SOL     OW25780   6.934   3.633   6.147
 8294SOL    HW125781   6.953   3.679   6.060
 8294SOL    HW225782   6.998   3.666   6.217
 8295SOL     OW25783   5.196   4.064   2.916
 8295SOL    HW125784   5.141   3.996   2.964
 8295SOL    HW225785   5.146   4.098   2.837
 8296SOL     OW25786   3.176   5.524   0.780
 8296SOL    HW125787   3.150   5.534   0.684
 8296SOL    HW225788   3.248   5.455   0.789
 8297SOL     OW25789   6.657   4.256   2.793
 8297SOL    HW125790   6.684   4.339   2.745
 8297SOL    HW225791   6.603   4.281   2.873
 8298SOL     OW25792   0.882   0.634   0.108
 8298SOL    HW125793   0.944   0.705   0.074
 8298SOL    HW225794   0.864   0.568   0.034
 8299SOL     OW25795   0.256   3.643   1.812
 8299SOL    HW125796   0.183   3.689   1.862
 8299SOL    HW225797   0.322   3.711   1.779
 8300SOL     OW25798   6.459   5.080   3.844
 8300SOL    HW125799   6.400   5.154   3.876
 8300SOL    HW225800   6.500   5.033   3.922
 8301SOL     OW25801   3.459   6.672   0.500
 8301SOL    HW125802   3.517   6.749   0.523
 8301SOL    HW225803   3.385   6.702   0.440
 8302SOL     OW25804   3.754   6.332   4.197
 8302SOL    HW125805   3.689   6.406   4.180
 8302SOL    HW225806   3.845   6.359   4.168
 8303SOL     OW25807   6.220   0.046   2.214
 8303SOL    HW125808   6.292   7.021   2.262
 8303SOL    HW225809   6.197   7.024   2.129
 8304SOL     OW25810   5.889   3.477   3.579
 8304SOL    HW125811   5.829   3.551   3.546
 8304SOL    HW225812   5.967   3.517   3.626
 8305SOL     OW25813   4.777   5.539   3.988
 8305SOL    HW125814   4.869   5.530   3.952
 8305SOL    HW225815   4.780   5.548   4.088
 8306SOL     OW25816   6.018   0.864   2.379
 8306SOL    HW125817   6.084   0.798   2.342
 8306SOL    HW225818   6.067   0.941   2.419
 8307SOL     OW25819   1.911   4.965   2.186
 8307SOL    HW125820   1.854   5.045   2.164
 8307SOL    HW225821   1.955   4.932   2.103
 8308SOL     OW25822   0.998   4.869   0.029
 8308SOL    HW125823   1.074   4.917   0.075
 8308SOL    HW225824   0.953   4.809   0.095
 8309SOL     OW25825   6.667   4.292   4.963
 8309SOL    HW125826   6.719   4.284   4.878
 8309SOL    HW225827   6.727   4.326   5.035
 8310SOL     OW25828   0.634   6.995   0.628
 8310SOL    HW125829   0.662   6.943   0.708
 8310SOL    HW225830   0.670   0.062   0.634
 8311SOL     OW25831   5.892   6.302   3.910
 8311SOL    HW125832   5.952   6.331   3.836
 8311SOL    HW225833   5.841   6.220   3.883
 8312SOL     OW25834   4.843   0.270   0.009
 8312SOL    HW125835   4.765   0.309   6.986
 8312SOL    HW225836   4.916   0.337   0.015
 8313SOL     OW25837   4.555   0.680   4.945
 8313SOL    HW125838   4.531   0.735   5.025
 8313SOL    HW225839   4.499   0.597   4.943
 8314SOL     OW25840   5.366   6.550   5.808
 8314SOL    HW125841   5.431   6.484   5.846
 8314SOL    HW225842   5.272   6.516   5.822
 8315SOL     OW25843   3.426   3.007   4.778
 8315SOL    HW125844   3.333   3.001   4.812
 8315SOL    HW225845   3.485   2.947   4.832
 8316SOL     OW25846   0.738   2.682   0.548
 8316SOL    HW125847   0.782   2.592   0.549
 8316SOL    HW225848   0.701   2.700   0.457
 8317SOL     OW25849   1.905   1.711   4.320
 8317SOL    HW125850   1.893   1.810   4.316
 8317SOL    HW225851   2.002   1.689   4.328
 8318SOL     OW25852   3.908   0.377   6.432
 8318SOL    HW125853   3.826   0.413   6.477
 8318SOL    HW225854   3.881   0.306   6.366
 8319SOL     OW25855   1.557   6.848   6.049
 8319SOL    HW125856   1.618   6.917   6.089
 8319SOL    HW225857   1.473   6.843   6.103
 8320SOL     OW25858   3.726   3.831   4.450
 8320SOL    HW125859   3.696   3.852   4.543
 8320SOL    HW225860   3.758   3.915   4.405
 8321SOL     OW25861   0.380   0.083   0.255
 8321SOL    HW125862   0.310   0.107   0.322
 8321SOL    HW225863   0.387   0.155   0.186
 8322SOL     OW25864   6.701   1.241   0.329
 8322SOL    HW125865   6.634   1.271   0.261
 8322SOL    HW225866   6.666   1.161   0.376
 8323SOL     OW25867   4.826   4.846   0.902
 8323SOL    HW125868   4.834   4.772   0.836
 8323SOL    HW225869   4.745   4.832   0.959
 8324SOL     OW25870   6.558   0.064   6.617
 8324SOL    HW125871   6.580   0.003   6.541
 8324SOL    HW225872   6.577   0.159   6.591
 8325SOL     OW25873   1.701   5.860   4.742
 8325SOL    HW125874   1.625   5.805   4.710
 8325SOL    HW225875   1.751   5.810   4.813
 8326SOL     OW25876   2.665   3.882   0.382
 8326SOL    HW125877   2.697   3.916   0.471
 8326SOL    HW225878   2.653   3.783   0.388
 8327SOL     OW25879   0.576   0.639   5.188
 8327SOL    HW125880   0.560   0.731   5.224
 8327SOL    HW225881   0.590   0.645   5.089
 8328SOL     OW25882   0.743   6.712   5.694
 8328SOL    HW125883   0.816   6.655   5.730
 8328SOL    HW225884   0.717   6.780   5.762
 8329SOL     OW25885   0.745   2.821   4.949
 8329SOL    HW125886   0.755   2.731   4.907
 8329SOL    HW225887   0.760   2.814   5.047
 8330SOL     OW25888   3.699   0.769   6.787
 8330SOL    HW125889   3.771   0.747   6.853
 8330SOL    HW225890   3.667   0.862   6.803
 8331SOL     OW25891   1.923   2.190   0.304
 8331SOL    HW125892   1.894   2.148   0.218
 8331SOL    HW225893   1.846   2.240   0.344
 8332SOL     OW25894   5.552   4.693   1.939
 8332SOL    HW125895   5.513   4.615   1.890
 8332SOL    HW225896   5.479   4.743   1.986
 8333SOL     OW25897   2.076   4.950   0.920
 8333SOL    HW125898   2.091   5.035   0.871
 8333SOL    HW225899   2.087   4.965   1.018
 8334SOL     OW25900   2.740   2.420   6.571
 8334SOL    HW125901   2.795   2.380   6.644
 8334SOL    HW225902   2.703   2.508   6.601
 8335SOL     OW25903   4.952   2.980   6.425
 8335SOL    HW125904   4.858   2.945   6.428
 8335SOL    HW225905   4.993   2.960   6.336
 8336SOL     OW25906   1.483   3.598   2.921
 8336SOL    HW125907   1.482   3.559   2.829
 8336SOL    HW225908   1.414   3.670   2.927
 8337SOL     OW25909   0.836   1.453   4.609
 8337SOL    HW125910   0.738   1.434   4.605
 8337SOL    HW225911   0.862   1.475   4.703
 8338SOL     OW25912   3.731   4.875   2.164
 8338SOL    HW125913   3.688   4.931   2.235
 8338SOL    HW225914   3.662   4.841   2.101
 8339SOL     OW25915   7.009   0.622   0.588
 8339SOL    HW125916   6.975   0.708   0.550
 8339SOL    HW225917   0.078   0.609   0.560
 8340SOL     OW25918   5.016   2.224   0.756
 8340SOL    HW125919   5.039   2.206   0.660
 8340SOL    HW225920   4.950   2.157   0.788
 8341SOL     OW25921   3.521   0.134   0.135
 8341SOL    HW125922   3.534   0.053   0.192
 8341SOL    HW225923   3.608   0.160   0.094
 8342SOL     OW25924   3.747   6.410   6.681
 8342SOL    HW125925   3.716   6.374   6.769
 8342SOL    HW225926   3.709   6.355   6.607
 8343SOL     OW25927   6.929   4.219   3.990
 8343SOL    HW125928   6.951   4.125   3.965
 8343SOL    HW225929   6.831   4.227   4.005
 8344SOL     OW25930   0.839   5.325   4.477
 8344SOL    HW125931   0.803   5.361   4.391
 8344SOL    HW225932   0.910   5.387   4.511
 8345SOL     OW25933   5.224   0.921   2.761
 8345SOL    HW125934   5.251   1.000   2.815
 8345SOL    HW225935   5.296   0.899   2.695
 8346SOL     OW25936   4.282   3.404   5.730
 8346SOL    HW125937   4.287   3.491   5.681
 8346SOL    HW225938   4.283   3.328   5.664
 8347SOL     OW25939   2.431   6.997   5.730
 8347SOL    HW125940   2.486   6.918   5.701
 8347SOL    HW225941   2.427   0.037   5.656
 8348SOL     OW25942   3.945   6.489   1.425
 8348SOL    HW125943   3.969   6.410   1.481
 8348SOL    HW225944   4.027   6.528   1.384
 8349SOL     OW25945   0.884   6.514   2.193
 8349SOL    HW125946   0.863   6.451   2.268
 8349SOL    HW225947   0.906   6.462   2.110
 8350SOL     OW25948   2.813   0.136   5.886
 8350SOL    HW125949   2.786   0.094   5.973
 8350SOL    HW225950   2.733   0.145   5.827
 8351SOL     OW25951   6.521   4.501   4.609
 8351SOL    HW125952   6.470   4.416   4.619
 8351SOL    HW225953   6.459   4.579   4.622
 8352SOL     OW25954   2.863   6.147   1.909
 8352SOL    HW125955   2.913   6.221   1.864
 8352SOL    HW225956   2.837   6.079   1.840
 8353SOL     OW25957   0.839   4.008   2.170
 8353SOL    HW125958   0.787   3.923   2.173
 8353SOL    HW225959   0.920   3.995   2.113
 8354SOL     OW25960   3.383   6.727   4.137
 8354SOL    HW125961   3.429   6.802   4.185
 8354SOL    HW225962   3.284   6.742   4.138
 8355SOL     OW25963   1.249   6.630   5.914
 8355SOL    HW125964   1.287   6.564   5.849
 8355SOL    HW225965   1.275   6.603   6.007
 8356SOL     OW25966   1.841   5.602   1.635
 8356SOL    HW125967   1.828   5.641   1.544
 8356SOL    HW225968   1.926   5.636   1.675
 8357SOL     OW25969   4.045   5.590   5.837
 8357SOL    HW125970   3.993   5.543   5.765
 8357SOL    HW225971   4.139   5.554   5.838
 8358SOL     OW25972   1.397   2.429   5.129
 8358SOL    HW125973   1.331   2.476   5.070
 8358SOL    HW225974   1.351   2.401   5.213
 8359SOL     OW25975   3.134   0.712   5.063
 8359SOL    HW125976   3.040   0.697   5.033
 8359SOL    HW225977   3.137   0.795   5.120
 8360SOL     OW25978   4.983   6.350   0.797
 8360SOL    HW125979   5.058   6.392   0.847
 8360SOL    HW225980   4.946   6.415   0.731
 8361SOL     OW25981   2.323   6.770   6.449
 8361SOL    HW125982   2.298   6.863   6.476
 8361SOL    HW225983   2.265   6.740   6.374
 8362SOL     OW25984   6.583   2.939   0.535
 8362SOL    HW125985   6.502   2.892   0.570
 8362SOL    HW225986   6.624   2.994   0.608
 8363SOL     OW25987   4.174   2.026   0.947
 8363SOL    HW125988   4.078   1.999   0.941
 8363SOL    HW225989   4.180   2.120   0.978
 8364SOL     OW25990   0.709   2.663   3.434
 8364SOL    HW125991   0.652   2.727   3.486
 8364SOL    HW225992   0.752   2.598   3.496
 8365SOL     OW25993   1.983   2.776   1.969
 8365SOL    HW125994   2.068   2.804   2.014
 8365SOL    HW225995   1.992   2.787   1.870
 8366SOL     OW25996   4.392   5.687   0.982
 8366SOL    HW125997   4.443   5.605   0.958
 8366SOL    HW225998   4.395   5.751   0.905
 8367SOL     OW25999   4.152   5.194   5.041
 8367SOL    HW126000   4.233   5.162   5.091
 8367SOL    HW226001   4.108   5.117   4.996
 8368SOL     OW26002   1.074   6.282   0.329
 8368SOL    HW126003   1.141   6.327   0.270
 8368SOL    HW226004   1.021   6.216   0.276
 8369SOL     OW26005   1.121   1.505   0.605
 8369SOL    HW126006   1.088   1.566   0.677
 8369SOL    HW226007   1.043   1.459   0.562
 8370SOL     OW26008   3.087   1.726   6.931
 8370SOL    HW126009   3.125   1.702   7.020
 8370SOL    HW226010   3.155   1.709   6.860
 8371SOL     OW26011   1.481   2.978   5.323
 8371SOL    HW126012   1.468   2.882   5.298
 8371SOL    HW226013   1.547   2.985   5.398
 8372SOL     OW26014   2.379   6.720   2.420
 8372SOL    HW126015   2.397   6.651   2.351
 8372SOL    HW226016   2.318   6.683   2.490
 8373SOL     OW26017   0.860   1.605   4.374
 8373SOL    HW126018   0.842   1.539   4.447
 8373SOL    HW226019   0.905   1.559   4.297
 8374SOL     OW26020   1.110   1.059   4.491
 8374SOL    HW126021   1.082   1.076   4.586
 8374SOL    HW226022   1.060   1.120   4.430
 8375SOL     OW26023   4.441   0.716   5.565
 8375SOL    HW126024   4.387   0.788   5.522
 8375SOL    HW226025   4.485   0.752   5.647
 8376SOL     OW26026   1.391   1.072   3.443
 8376SOL    HW126027   1.459   1.006   3.411
 8376SOL    HW226028   1.340   1.108   3.365
 8377SOL     OW26029   5.613   5.267   6.797
 8377SOL    HW126030   5.557   5.219   6.729
 8377SOL    HW226031   5.707   5.234   6.791
 8378SOL     OW26032   5.400   5.737   3.409
 8378SOL    HW126033   5.344   5.713   3.330
 8378SOL    HW226034   5.348   5.718   3.493
 8379SOL     OW26035   5.229   1.977   2.147
 8379SOL    HW126036   5.325   2.002   2.144
 8379SOL    HW226037   5.204   1.931   2.062
 8380SOL     OW26038   0.212   5.853   6.409
 8380SOL    HW126039   0.137   5.897   6.360
 8380SOL    HW226040   0.291   5.914   6.412
 8381SOL     OW26041   6.837   2.372   2.831
 8381SOL    HW126042   6.935   2.361   2.815
 8381SOL    HW226043   6.786   2.336   2.753
 8382SOL     OW26044   2.722   0.230   6.861
 8382SOL    HW126045   2.691   0.299   6.796
 8382SOL    HW226046   2.716   0.267   6.954
 8383SOL     OW26047   2.732   0.236   4.287
 8383SOL    HW126048   2.699   0.146   4.316
 8383SOL    HW226049   2.824   0.227   4.248
 8384SOL     OW26050   6.820   1.958   1.362
 8384SOL    HW126051   6.755   2.011   1.308
 8384SOL    HW226052   6.776   1.927   1.447
 8385SOL     OW26053   4.664   3.293   0.541
 8385SOL    HW126054   4.633   3.313   0.448
 8385SOL    HW226055   4.628   3.205   0.570
 8386SOL     OW26056   2.164   6.691   1.614
 8386SOL    HW126057   2.194   6.785   1.598
 8386SOL    HW226058   2.072   6.692   1.655
 8387SOL     OW26059   2.434   1.553   1.188
 8387SOL    HW126060   2.401   1.631   1.134
 8387SOL    HW226061   2.359   1.516   1.243
 8388SOL     OW26062   2.029   6.693   0.392
 8388SOL    HW126063   2.107   6.752   0.413
 8388SOL    HW226064   2.056   6.626   0.323
 8389SOL     OW26065   1.597   3.432   4.463
 8389SOL    HW126066   1.511   3.438   4.413
 8389SOL    HW226067   1.664   3.380   4.409
 8390SOL     OW26068   2.657   0.606   5.788
 8390SOL    HW126069   2.665   0.622   5.886
 8390SOL    HW226070   2.611   0.683   5.745
 8391SOL     OW26071   5.075   5.501   2.036
 8391SOL    HW126072   4.989   5.538   2.070
 8391SOL    HW226073   5.147   5.515   2.104
 8392SOL     OW26074   6.199   5.668   4.792
 8392SOL    HW126075   6.254   5.625   4.720
 8392SOL    HW226076   6.229   5.634   4.881
 8393SOL     OW26077   6.523   6.889   3.767
 8393SOL    HW126078   6.617   6.895   3.801
 8393SOL    HW226079   6.516   6.936   3.679
 8394SOL     OW26080   0.759   1.546   2.769
 8394SOL    HW126081   0.761   1.518   2.865
 8394SOL    HW226082   0.666   1.536   2.733
 8395SOL     OW26083   0.432   6.367   4.454
 8395SOL    HW126084   0.530   6.355   4.441
 8395SOL    HW226085   0.383   6.291   4.411
 8396SOL     OW26086   4.486   4.515   2.271
 8396SOL    HW126087   4.487   4.488   2.175
 8396SOL    HW226088   4.403   4.566   2.292
 8397SOL     OW26089   1.732   6.844   2.849
 8397SOL    HW126090   1.648   6.807   2.808
 8397SOL    HW226091   1.729   6.943   2.847
 8398SOL     OW26092   3.976   1.872   0.139
 8398SOL    HW126093   4.053   1.819   0.104
 8398SOL    HW226094   4.010   1.955   0.184
 8399SOL     OW26095   5.744   5.878   1.083
 8399SOL    HW126096   5.658   5.904   1.039
 8399SOL    HW226097   5.770   5.948   1.149
 8400SOL     OW26098   0.174   0.262   2.825
 8400SOL    HW126099   0.105   0.224   2.887
 8400SOL    HW226100   0.163   0.222   2.734
 8401SOL     OW26101   4.480   2.812   6.058
 8401SOL    HW126102   4.382   2.802   6.046
 8401SOL    HW226103   4.528   2.745   6.002
 8402SOL     OW26104   3.646   2.021   5.997
 8402SOL    HW126105   3.629   2.041   5.900
 8402SOL    HW226106   3.736   1.978   6.006
 8403SOL     OW26107   0.521   1.458   3.711
 8403SOL    HW126108   0.421   1.464   3.704
 8403SOL    HW226109   0.548   1.471   3.807
 8404SOL     OW26110   5.363   6.282   6.292
 8404SOL    HW126111   5.406   6.196   6.264
 8404SOL    HW226112   5.278   6.263   6.341
 8405SOL     OW26113   1.567   2.177   6.666
 8405SOL    HW126114   1.494   2.246   6.666
 8405SOL    HW226115   1.629   2.195   6.742
 8406SOL     OW26116   4.437   1.677   0.708
 8406SOL    HW126117   4.418   1.685   0.610
 8406SOL    HW226118   4.422   1.765   0.752
 8407SOL     OW26119   5.427   4.546   4.629
 8407SOL    HW126120   5.478   4.602   4.563
 8407SOL    HW226121   5.427   4.592   4.718
 8408SOL     OW26122   5.269   0.315   3.976
 8408SOL    HW126123   5.295   0.269   3.891
 8408SOL    HW226124   5.170   0.331   3.976
 8409SOL     OW26125   0.585   1.993   3.661
 8409SOL    HW126126   0.609   1.918   3.599
 8409SOL    HW226127   0.542   1.957   3.743
 8410SOL     OW26128   5.324   0.481   1.982
 8410SOL    HW126129   5.345   0.418   2.057
 8410SOL    HW226130   5.406   0.533   1.960
 8411SOL     OW26131   1.275   5.080   4.057
 8411SOL    HW126132   1.268   5.126   3.968
 8411SOL    HW226133   1.188   5.090   4.106
 8412SOL     OW26134   4.701   2.302   0.858
 8412SOL    HW126135   4.673   2.393   0.827
 8412SOL    HW226136   4.783   2.309   0.915
 8413SOL     OW26137   3.901   4.983   0.759
 8413SOL    HW126138   3.842   4.937   0.692
 8413SOL    HW226139   3.845   5.029   0.828
 8414SOL     OW26140   3.911   0.020   2.355
 8414SOL    HW126141   3.849   0.039   2.278
 8414SOL    HW226142   3.863   0.038   2.441
 8415SOL     OW26143   6.885   4.774   3.721
 8415SOL    HW126144   6.805   4.828   3.695
 8415SOL    HW226145   6.931   4.818   3.799
 8416SOL     OW26146   5.099   4.231   2.730
 8416SOL    HW126147   5.069   4.164   2.663
 8416SOL    HW226148   5.025   4.297   2.746
 8417SOL     OW26149   3.127   6.361   5.218
 8417SOL    HW126150   3.078   6.438   5.178
 8417SOL    HW226151   3.170   6.306   5.146
 8418SOL     OW26152   5.494   5.378   2.238
 8418SOL    HW126153   5.510   5.295   2.290
 8418SOL    HW226154   5.580   5.430   2.230
 8419SOL     OW26155   5.066   0.582   1.848
 8419SOL    HW126156   5.026   0.517   1.785
 8419SOL    HW226157   5.090   0.536   1.934
 8420SOL     OW26158   4.236   0.116   0.178
 8420SOL    HW126159   4.267   0.210   0.192
 8420SOL    HW226160   4.237   0.068   0.265
 8421SOL     OW26161   2.197   6.976   1.538
 8421SOL    HW126162   2.116   0.008   1.538
 8421SOL    HW226163   2.231   6.967   1.444
 8422SOL     OW26164   5.484   5.930   0.998
 8422SOL    HW126165   5.396   5.897   1.034
 8422SOL    HW226166   5.476   5.947   0.900
 8423SOL     OW26167   4.332   5.155   6.935
 8423SOL    HW126168   4.417   5.120   6.896
 8423SOL    HW226169   4.298   5.091   7.005
 8424SOL     OW26170   3.480   2.071   2.370
 8424SOL    HW126171   3.447   1.981   2.398
 8424SOL    HW226172   3.411   2.140   2.391
 8425SOL     OW26173   6.813   5.311   1.278
 8425SOL    HW126174   6.903   5.340   1.244
 8425SOL    HW226175   6.785   5.228   1.231
 8426SOL     OW26176   3.899   2.991   3.382
 8426SOL    HW126177   3.946   3.005   3.295
 8426SOL    HW226178   3.902   3.076   3.435
 8427SOL     OW26179   1.661   4.236   5.666
 8427SOL    HW126180   1.760   4.224   5.656
 8427SOL    HW226181   1.642   4.324   5.710
 8428SOL     OW26182   6.716   4.648   1.780
 8428SOL    HW126183   6.733   4.556   1.814
 8428SOL    HW226184   6.619   4.669   1.784
 8429SOL     OW26185   2.999   4.808   4.608
 8429SOL    HW126186   3.011   4.862   4.525
 8429SOL    HW226187   2.902   4.795   4.626
 8430SOL     OW26188   4.562   5.358   2.469
 8430SOL    HW126189   4.547   5.423   2.544
 8430SOL    HW226190   4.499   5.379   2.394
 8431SOL     OW26191   2.712   5.185   1.684
 8431SOL    HW126192   2.662   5.160   1.601
 8431SOL    HW226193   2.713   5.108   1.748
 8432SOL     OW26194   4.305   5.443   5.862
 8432SOL    HW126195   4.392   5.470   5.903
 8432SOL    HW226196   4.283   5.349   5.888
 8433SOL     OW26197   0.905   2.882   0.146
 8433SOL    HW126198   0.882   2.932   0.063
 8433SOL    HW226199   0.925   2.786   0.123
 8434SOL     OW26200   4.155   6.718   4.963
 8434SOL    HW126201   4.111   6.716   4.873
 8434SOL    HW226202   4.099   6.772   5.026
 8435SOL     OW26203   4.913   1.601   1.750
 8435SOL    HW126204   4.833   1.588   1.808
 8435SOL    HW226205   4.935   1.699   1.745
 8436SOL     OW26206   3.765   5.865   3.205
 8436SOL    HW126207   3.855   5.827   3.227
 8436SOL    HW226208   3.713   5.799   3.150
 8437SOL     OW26209   0.428   0.560   1.749
 8437SOL    HW126210   0.406   0.512   1.664
 8437SOL    HW226211   0.452   0.494   1.820
 8438SOL     OW26212   2.859   4.756   2.816
 8438SOL    HW126213   2.856   4.771   2.717
 8438SOL    HW226214   2.765   4.747   2.850
 8439SOL     OW26215   6.453   5.594   1.929
 8439SOL    HW126216   6.550   5.598   1.953
 8439SOL    HW226217   6.416   5.506   1.956
 8440SOL     OW26218   6.742   1.026   2.291
 8440SOL    HW126219   6.773   1.092   2.359
 8440SOL    HW226220   6.821   0.981   2.249
 8441SOL     OW26221   5.850   6.226   0.439
 8441SOL    HW126222   5.908   6.188   0.511
 8441SOL    HW226223   5.840   6.325   0.454
 8442SOL     OW26224   3.561   3.359   6.839
 8442SOL    HW126225   3.489   3.308   6.888
 8442SOL    HW226226   3.518   3.421   6.773
 8443SOL     OW26227   0.917   0.464   3.112
 8443SOL    HW126228   1.012   0.441   3.133
 8443SOL    HW226229   0.876   0.392   3.055
 8444SOL     OW26230   3.273   6.183   3.631
 8444SOL    HW126231   3.187   6.201   3.680
 8444SOL    HW226232   3.255   6.185   3.533
 8445SOL     OW26233   3.186   4.860   2.682
 8445SOL    HW126234   3.146   4.768   2.689
 8445SOL    HW226235   3.264   4.866   2.744
 8446SOL     OW26236   5.151   5.822   2.850
 8446SOL    HW126237   5.094   5.861   2.777
 8446SOL    HW226238   5.229   5.881   2.867
 8447SOL     OW26239   5.739   2.375   2.468
 8447SOL    HW126240   5.693   2.392   2.381
 8447SOL    HW226241   5.724   2.453   2.529
 8448SOL     OW26242   0.373   4.088   6.133
 8448SOL    HW126243   0.338   4.100   6.041
 8448SOL    HW226244   0.472   4.075   6.130
 8449SOL     OW26245   0.590   3.176   4.764
 8449SOL    HW126246   0.550   3.142   4.849
 8449SOL    HW226247   0.560   3.119   4.687
 8450SOL     OW26248   1.702   6.089   2.588
 8450SOL    HW126249   1.761   6.156   2.633
 8450SOL    HW226250   1.659   6.031   2.656
 8451SOL     OW26251   3.685   2.285   1.068
 8451SOL    HW126252   3.708   2.274   0.972
 8451SOL    HW226253   3.767   2.268   1.124
 8452SOL     OW26254   6.665   0.119   1.454
 8452SOL    HW126255   6.571   0.087   1.447
 8452SOL    HW226256   6.693   0.118   1.550
 8453SOL     OW26257   0.251   4.798   6.257
 8453SOL    HW126258   0.243   4.822   6.354
 8453SOL    HW226259   0.311   4.864   6.212
 8454SOL     OW26260   1.818   6.246   1.997
 8454SOL    HW126261   1.888   6.220   2.063
 8454SOL    HW226262   1.764   6.322   2.035
 8455SOL     OW26263   4.977   1.438   1.526
 8455SOL    HW126264   4.940   1.489   1.449
 8455SOL    HW226265   4.950   1.483   1.612
 8456SOL     OW26266   6.124   5.606   3.663
 8456SOL    HW126267   6.218   5.571   3.661
 8456SOL    HW226268   6.097   5.636   3.571
 8457SOL     OW26269   6.769   6.893   5.949
 8457SOL    HW126270   6.849   6.845   5.912
 8457SOL    HW226271   6.728   6.838   6.021
 8458SOL     OW26272   1.916   1.193   6.543
 8458SOL    HW126273   1.889   1.275   6.492
 8458SOL    HW226274   1.995   1.215   6.600
 8459SOL     OW26275   3.855   6.713   1.693
 8459SOL    HW126276   3.810   6.801   1.707
 8459SOL    HW226277   3.909   6.717   1.608
 8460SOL     OW26278   3.981   2.951   6.807
 8460SOL    HW126279   3.918   2.895   6.861
 8460SOL    HW226280   3.998   3.037   6.855
 8461SOL     OW26281   0.626   3.329   1.663
 8461SOL    HW126282   0.662   3.236   1.676
 8461SOL    HW226283   0.529   3.324   1.639
 8462SOL     OW26284   4.036   3.307   0.335
 8462SOL    HW126285   3.980   3.306   0.418
 8462SOL    HW226286   4.089   3.223   0.330
 8463SOL     OW26287   0.395   2.103   0.136
 8463SOL    HW126288   0.381   2.005   0.144
 8463SOL    HW226289   0.313   2.151   0.169
 8464SOL     OW26290   6.880   4.005   5.611
 8464SOL    HW126291   6.932   3.923   5.633
 8464SOL    HW226292   6.858   4.055   5.695
 8465SOL     OW26293   2.758   2.263   0.861
 8465SOL    HW126294   2.725   2.353   0.833
 8465SOL    HW226295   2.724   2.193   0.798
 8466SOL     OW26296   6.222   0.627   5.624
 8466SOL    HW126297   6.206   0.719   5.661
 8466SOL    HW226298   6.271   0.635   5.537
 8467SOL     OW26299   3.810   0.613   0.871
 8467SOL    HW126300   3.806   0.594   0.773
 8467SOL    HW226301   3.827   0.710   0.885
 8468SOL     OW26302   5.927   3.799   6.328
 8468SOL    HW126303   5.890   3.886   6.362
 8468SOL    HW226304   5.871   3.724   6.362
 8469SOL     OW26305   3.334   2.733   5.894
 8469SOL    HW126306   3.377   2.726   5.984
 8469SOL    HW226307   3.378   2.669   5.831
 8470SOL     OW26308   1.206   4.947   0.624
 8470SOL    HW126309   1.196   5.040   0.657
 8470SOL    HW226310   1.121   4.897   0.638
 8471SOL     OW26311   3.995   6.908   5.113
 8471SOL    HW126312   3.934   6.976   5.072
 8471SOL    HW226313   4.016   6.934   5.207
 8472SOL     OW26314   5.878   1.856   5.544
 8472SOL    HW126315   5.895   1.929   5.478
 8472SOL    HW226316   5.787   1.867   5.584
 8473SOL     OW26317   4.356   4.468   0.388
 8473SOL    HW126318   4.367   4.408   0.467
 8473SOL    HW226319   4.409   4.433   0.311
 8474SOL     OW26320   3.037   3.959   2.551
 8474SOL    HW126321   2.946   3.990   2.524
 8474SOL    HW226322   3.031   3.868   2.591
 8475SOL     OW26323   0.421   3.054   1.598
 8475SOL    HW126324   0.447   2.962   1.568
 8475SOL    HW226325   0.460   3.071   1.689
 8476SOL     OW26326   6.904   0.904   1.620
 8476SOL    HW126327   6.804   0.906   1.613
 8476SOL    HW226328   6.944   0.946   1.539
 8477SOL     OW26329   5.460   5.966   2.185
 8477SOL    HW126330   5.502   5.886   2.228
 8477SOL    HW226331   5.529   6.037   2.173
 8478SOL     OW26332   1.017   1.324   5.856
 8478SOL    HW126333   0.924   1.336   5.889
 8478SOL    HW226334   1.065   1.256   5.911
 8479SOL     OW26335   1.470   2.257   1.578
 8479SOL    HW126336   1.385   2.249   1.527
 8479SOL    HW226337   1.464   2.203   1.662
 8480SOL     OW26338   5.230   2.772   6.529
 8480SOL    HW126339   5.166   2.723   6.588
 8480SOL    HW226340   5.216   2.870   6.539
 8481SOL     OW26341   4.062   2.233   4.880
 8481SOL    HW126342   3.999   2.188   4.943
 8481SOL    HW226343   4.087   2.323   4.917
 8482SOL     OW26344   4.568   0.478   0.847
 8482SOL    HW126345   4.557   0.555   0.910
 8482SOL    HW226346   4.514   0.494   0.765
 8483SOL     OW26347   2.599   5.509   3.483
 8483SOL    HW126348   2.533   5.561   3.538
 8483SOL    HW226349   2.634   5.568   3.410
 8484SOL     OW26350   6.701   5.851   4.710
 8484SOL    HW126351   6.622   5.873   4.768
 8484SOL    HW226352   6.747   5.936   4.684
 8485SOL     OW26353   4.138   2.509   0.038
 8485SOL    HW126354   4.108   2.438   7.001
 8485SOL    HW226355   4.231   2.488   0.070
 8486SOL     OW26356   1.701   1.242   2.460
 8486SOL    HW126357   1.607   1.219   2.487
 8486SOL    HW226358   1.707   1.244   2.360
 8487SOL     OW26359   5.558   1.641   6.338
 8487SOL    HW126360   5.475   1.693   6.321
 8487SOL    HW226361   5.619   1.648   6.259
 8488SOL     OW26362   5.158   5.262   3.272
 8488SOL    HW126363   5.101   5.209   3.210
 8488SOL    HW226364   5.159   5.358   3.242
 8489SOL     OW26365   6.220   0.352   1.617
 8489SOL    HW126366   6.274   0.391   1.542
 8489SOL    HW226367   6.240   0.254   1.625
 8490SOL     OW26368   3.746   6.684   5.165
 8490SOL    HW126369   3.821   6.619   5.152
 8490SOL    HW226370   3.659   6.640   5.143
 8491SOL     OW26371   2.107   5.735   2.924
 8491SOL    HW126372   2.196   5.773   2.899
 8491SOL    HW226373   2.094   5.647   2.879
 8492SOL     OW26374   6.151   5.017   3.947
 8492SOL    HW126375   6.151   5.089   3.878
 8492SOL    HW226376   6.152   4.928   3.902
 8493SOL     OW26377   2.589   1.293   0.264
 8493SOL    HW126378   2.576   1.219   0.331
 8493SOL    HW226379   2.650   1.362   0.301
 8494SOL     OW26380   5.031   5.352   1.818
 8494SOL    HW126381   5.058   5.416   1.890
 8494SOL    HW226382   5.093   5.361   1.740
 8495SOL     OW26383   0.266   5.789   0.609
 8495SOL    HW126384   0.327   5.711   0.621
 8495SOL    HW226385   0.307   5.870   0.651
 8496SOL     OW26386   4.925   1.332   2.002
 8496SOL    HW126387   4.873   1.360   2.082
 8496SOL    HW226388   5.010   1.385   1.997
 8497SOL     OW26389   0.706   0.053   4.087
 8497SOL    HW126390   0.744   0.144   4.070
 8497SOL    HW226391   0.722   7.021   4.007
 8498SOL     OW26392   5.764   6.662   3.389
 8498SOL    HW126393   5.811   6.676   3.477
 8498SOL    HW226394   5.678   6.713   3.389
 8499SOL     OW26395   0.619   5.155   0.599
 8499SOL    HW126396   0.552   5.122   0.532
 8499SOL    HW226397   0.675   5.227   0.557
 8500SOL     OW26398   1.854   6.669   6.139
 8500SOL    HW126399   1.791   6.635   6.209
 8500SOL    HW226400   1.842   6.616   6.055
 8501SOL     OW26401   0.578   2.287   0.211
 8501SOL    HW126402   0.522   2.206   0.192
 8501SOL    HW226403   0.599   2.291   0.309
 8502SOL     OW26404   0.554   2.774   0.742
 8502SOL    HW126405   0.630   2.742   0.685
 8502SOL    HW226406   0.510   2.852   0.698
 8503SOL     OW26407   6.337   5.924   5.122
 8503SOL    HW126408   6.248   5.895   5.085
 8503SOL    HW226409   6.405   5.852   5.105
 8504SOL     OW26410   1.917   5.506   2.191
 8504SOL    HW126411   1.911   5.479   2.095
 8504SOL    HW226412   1.962   5.595   2.198
 8505SOL     OW26413   5.336   4.013   2.700
 8505SOL    HW126414   5.307   4.041   2.791
 8505SOL    HW226415   5.363   3.917   2.702
 8506SOL     OW26416   1.468   0.872   6.928
 8506SOL    HW126417   1.512   0.958   6.954
 8506SOL    HW226418   1.382   0.862   6.980
 8507SOL     OW26419   4.720   0.278   4.657
 8507SOL    HW126420   4.704   0.346   4.729
 8507SOL    HW226421   4.787   0.314   4.592
 8508SOL     OW26422   3.787   1.710   5.902
 8508SOL    HW126423   3.851   1.743   5.832
 8508SOL    HW226424   3.702   1.682   5.858
 8509SOL     OW26425   5.807   6.537   4.014
 8509SOL    HW126426   5.833   6.450   3.971
 8509SOL    HW226427   5.761   6.594   3.946
 8510SOL     OW26428   5.145   3.020   3.756
 8510SOL    HW126429   5.165   2.947   3.821
 8510SOL    HW226430   5.120   2.982   3.668
 8511SOL     OW26431   6.098   3.039   2.288
 8511SOL    HW126432   6.034   2.968   2.318
 8511SOL    HW226433   6.109   3.107   2.360
 8512SOL     OW26434   2.431   6.999   2.836
 8512SOL    HW126435   2.402   0.064   2.806
 8512SOL    HW226436   2.352   6.946   2.866
 8513SOL     OW26437   6.894   6.134   0.764
 8513SOL    HW126438   6.960   6.078   0.714
 8513SOL    HW226439   6.891   6.226   0.723
 8514SOL     OW26440   3.589   6.849   3.215
 8514SOL    HW126441   3.614   6.832   3.120
 8514SOL    HW226442   3.657   6.809   3.276
 8515SOL     OW26443   4.883   2.308   1.104
 8515SOL    HW126444   4.849   2.361   1.182
 8515SOL    HW226445   4.978   2.333   1.086
 8516SOL     OW26446   6.508   1.536   2.881
 8516SOL    HW126447   6.520   1.441   2.910
 8516SOL    HW226448   6.571   1.595   2.932
 8517SOL     OW26449   0.928   2.742   6.553
 8517SOL    HW126450   0.935   2.838   6.578
 8517SOL    HW226451   0.834   2.711   6.564
 8518SOL     OW26452   4.309   4.997   0.650
 8518SOL    HW126453   4.346   4.919   0.598
 8518SOL    HW226454   4.352   5.081   0.618
 8519SOL     OW26455   2.011   6.016   2.129
 8519SOL    HW126456   1.939   6.053   2.189
 8519SOL    HW226457   2.037   5.925   2.161
 8520SOL     OW26458   3.580   1.038   0.477
 8520SOL    HW126459   3.491   1.084   0.473
 8520SOL    HW226460   3.575   0.963   0.543
 8521SOL     OW26461   1.124   6.305   6.016
 8521SOL    HW126462   1.144   6.283   5.920
 8521SOL    HW226463   1.204   6.349   6.057
 8522SOL     OW26464   1.430   6.212   2.401
 8522SOL    HW126465   1.510   6.190   2.345
 8522SOL    HW226466   1.368   6.271   2.350
 8523SOL     OW26467   2.137   0.095   5.568
 8523SOL    HW126468   2.108   0.186   5.598
 8523SOL    HW226469   2.190   0.103   5.484
 8524SOL     OW26470   1.081   3.349   4.895
 8524SOL    HW126471   1.081   3.444   4.927
 8524SOL    HW226472   1.174   3.320   4.877
 8525SOL     OW26473   6.086   3.689   2.989
 8525SOL    HW126474   6.162   3.685   3.054
 8525SOL    HW226475   6.001   3.665   3.036
 8526SOL     OW26476   2.725   3.254   1.768
 8526SOL    HW126477   2.690   3.161   1.754
 8526SOL    HW226478   2.777   3.282   1.687
 8527SOL     OW26479   3.804   0.925   4.187
 8527SOL    HW126480   3.823   1.015   4.149
 8527SOL    HW226481   3.710   0.898   4.164
 8528SOL     OW26482   4.989   4.133   6.555
 8528SOL    HW126483   4.969   4.225   6.588
 8528SOL    HW226484   4.939   4.066   6.611
 8529SOL     OW26485   1.524   5.587   0.158
 8529SOL    HW126486   1.615   5.554   0.180
 8529SOL    HW226487   1.531   5.670   0.103
 8530SOL     OW26488   1.576   5.040   5.109
 8530SOL    HW126489   1.612   4.950   5.082
 8530SOL    HW226490   1.605   5.109   5.042
 8531SOL     OW26491   5.628   3.699   2.866
 8531SOL    HW126492   5.622   3.791   2.905
 8531SOL    HW226493   5.542   3.650   2.881
 8532SOL     OW26494   3.910   4.947   4.674
 8532SOL    HW126495   3.920   4.980   4.768
 8532SOL    HW226496   3.816   4.962   4.644
 8533SOL     OW26497   2.184   1.070   5.192
 8533SOL    HW126498   2.179   1.095   5.289
 8533SOL    HW226499   2.208   1.151   5.138
 8534SOL     OW26500   0.848   4.400   2.897
 8534SOL    HW126501   0.830   4.314   2.850
 8534SOL    HW226502   0.872   4.471   2.831
 8535SOL     OW26503   1.225   2.149   4.347
 8535SOL    HW126504   1.306   2.208   4.334
 8535SOL    HW226505   1.187   2.166   4.438
 8536SOL     OW26506   6.653   2.519   5.118
 8536SOL    HW126507   6.698   2.559   5.038
 8536SOL    HW226508   6.666   2.420   5.117
 8537SOL     OW26509   5.719   1.039   0.579
 8537SOL    HW126510   5.718   1.044   0.479
 8537SOL    HW226511   5.757   1.123   0.616
 8538SOL     OW26512   0.105   0.347   5.007
 8538SOL    HW126513   0.202   0.358   5.026
 8538SOL    HW226514   0.052   0.411   5.063
 8539SOL     OW26515   6.622   2.517   2.703
 8539SOL    HW126516   6.687   2.491   2.774
 8539SOL    HW226517   6.540   2.556   2.745
 8540SOL     OW26518   3.105   0.837   0.722
 8540SOL    HW126519   3.030   0.889   0.679
 8540SOL    HW226520   3.124   0.876   0.812
 8541SOL     OW26521   2.963   1.275   4.958
 8541SOL    HW126522   2.960   1.256   5.056
 8541SOL    HW226523   3.058   1.285   4.929
 8542SOL     OW26524   2.721   4.250   6.592
 8542SOL    HW126525   2.766   4.273   6.679
 8542SOL    HW226526   2.625   4.230   6.609
 8543SOL     OW26527   2.491   1.781   5.629
 8543SOL    HW126528   2.466   1.868   5.672
 8543SOL    HW226529   2.585   1.757   5.653
 8544SOL     OW26530   4.914   3.638   5.309
 8544SOL    HW126531   4.870   3.624   5.398
 8544SOL    HW226532   4.852   3.610   5.236
 8545SOL     OW26533   3.792   6.732   4.248
 8545SOL    HW126534   3.856   6.670   4.293
 8545SOL    HW226535   3.698   6.700   4.262
 8546SOL     OW26536   5.723   0.374   1.390
 8546SOL    HW126537   5.706   0.461   1.344
 8546SOL    HW226538   5.789   0.388   1.464
 8547SOL     OW26539   6.860   0.627   5.676
 8547SOL    HW126540   6.785   0.564   5.696
 8547SOL    HW226541   6.942   0.575   5.651
 8548SOL     OW26542   0.675   2.825   5.690
 8548SOL    HW126543   0.749   2.861   5.633
 8548SOL    HW226544   0.660   2.729   5.668
 8549SOL     OW26545   1.307   1.814   3.663
 8549SOL    HW126546   1.396   1.857   3.651
 8549SOL    HW226547   1.256   1.819   3.577
 8550SOL     OW26548   0.678   4.426   6.900
 8550SOL    HW126549   0.743   4.502   6.893
 8550SOL    HW226550   0.727   4.339   6.894
 8551SOL     OW26551   1.820   2.565   6.438
 8551SOL    HW126552   1.892   2.575   6.369
 8551SOL    HW226553   1.858   2.524   6.520
 8552SOL     OW26554   3.360   0.644   2.136
 8552SOL    HW126555   3.304   0.719   2.100
 8552SOL    HW226556   3.340   0.631   2.233
 8553SOL     OW26557   3.956   3.221   1.004
 8553SOL    HW126558   3.858   3.236   0.995
 8553SOL    HW226559   3.995   3.290   1.065
 8554SOL     OW26560   0.937   7.006   1.189
 8554SOL    HW126561   0.985   6.930   1.145
 8554SOL    HW226562   0.910   0.047   1.120
 8555SOL     OW26563   3.975   1.646   3.839
 8555SOL    HW126564   3.934   1.632   3.749
 8555SOL    HW226565   4.074   1.644   3.832
 8556SOL     OW26566   1.846   6.255   6.407
 8556SOL    HW126567   1.804   6.338   6.369
 8556SOL    HW226568   1.920   6.225   6.347
 8557SOL     OW26569   6.469   1.056   0.459
 8557SOL    HW126570   6.424   1.145   0.454
 8557SOL    HW226571   6.444   1.002   0.379
 8558SOL     OW26572   2.108   4.683   3.068
 8558SOL    HW126573   2.196   4.722   3.041
 8558SOL    HW226574   2.080   4.721   3.156
 8559SOL     OW26575   0.539   6.305   2.278
 8559SOL    HW126576   0.511   6.375   2.344
 8559SOL    HW226577   0.543   6.346   2.187
 8560SOL     OW26578   2.014   5.217   1.214
 8560SOL    HW126579   1.933   5.210   1.157
 8560SOL    HW226580   2.080   5.278   1.171
 8561SOL     OW26581   3.569   0.453   3.000
 8561SOL    HW126582   3.516   0.467   2.917
 8561SOL    HW226583   3.509   0.417   3.072
 8562SOL     OW26584   3.811   1.233   0.036
 8562SOL    HW126585   3.851   1.323   0.056
 8562SOL    HW226586   3.747   1.241   6.985
 8563SOL     OW26587   1.524   5.539   2.583
 8563SOL    HW126588   1.453   5.609   2.598
 8563SOL    HW226589   1.507   5.493   2.496
 8564SOL     OW26590   3.731   6.322   6.937
 8564SOL    HW126591   3.827   6.313   6.908
 8564SOL    HW226592   3.723   6.299   0.008
 8565SOL     OW26593   3.642   5.524   1.482
 8565SOL    HW126594   3.725   5.491   1.528
 8565SOL    HW226595   3.582   5.568   1.548
 8566SOL     OW26596   2.604   1.112   2.541
 8566SOL    HW126597   2.567   1.063   2.462
 8566SOL    HW226598   2.684   1.064   2.575
 8567SOL     OW26599   1.194   1.975   1.264
 8567SOL    HW126600   1.228   1.887   1.230
 8567SOL    HW226601   1.257   2.047   1.235
 8568SOL     OW26602   6.964   1.311   0.397
 8568SOL    HW126603   6.957   1.345   0.491
 8568SOL    HW226604   6.878   1.266   0.372
 8569SOL     OW26605   5.666   2.626   6.013
 8569SOL    HW126606   5.614   2.554   5.967
 8569SOL    HW226607   5.649   2.713   5.966
 8570SOL     OW26608   1.432   1.777   4.618
 8570SOL    HW126609   1.362   1.731   4.563
 8570SOL    HW226610   1.523   1.750   4.586
 8571SOL     OW26611   1.627   1.245   3.959
 8571SOL    HW126612   1.565   1.312   3.919
 8571SOL    HW226613   1.579   1.191   4.028
 8572SOL     OW26614   2.973   4.173   5.285
 8572SOL    HW126615   2.916   4.255   5.287
 8572SOL    HW226616   2.964   4.125   5.372
 8573SOL     OW26617   2.816   6.218   7.024
 8573SOL    HW126618   2.724   6.194   6.995
 8573SOL    HW226619   2.879   6.144   6.999
 8574SOL     OW26620   6.898   0.106   6.339
 8574SOL    HW126621   6.955   0.034   6.301
 8574SOL    HW226622   6.806   0.071   6.356
 8575SOL     OW26623   3.761   0.409   2.161
 8575SOL    HW126624   3.732   0.503   2.143
 8575SOL    HW226625   3.861   0.404   2.156
 8576SOL     OW26626   0.569   3.823   4.385
 8576SOL    HW126627   0.497   3.875   4.338
 8576SOL    HW226628   0.648   3.814   4.324
 8577SOL     OW26629   2.275   0.806   6.003
 8577SOL    HW126630   2.345   0.856   6.054
 8577SOL    HW226631   2.314   0.723   5.964
 8578SOL     OW26632   6.731   6.470   5.555
 8578SOL    HW126633   6.730   6.398   5.485
 8578SOL    HW226634   6.638   6.503   5.571
 8579SOL     OW26635   2.353   6.290   2.146
 8579SOL    HW126636   2.388   6.381   2.167
 8579SOL    HW226637   2.271   6.272   2.202
 8580SOL     OW26638   0.947   6.101   1.458
 8580SOL    HW126639   1.041   6.088   1.428
 8580SOL    HW226640   0.890   6.027   1.421
 8581SOL     OW26641   3.564   5.254   1.627
 8581SOL    HW126642   3.521   5.267   1.537
 8581SOL    HW226643   3.662   5.238   1.614
 8582SOL     OW26644   4.078   4.700   5.514
 8582SOL    HW126645   4.074   4.786   5.463
 8582SOL    HW226646   3.990   4.685   5.560
 8583SOL     OW26647   4.303   0.488   3.252
 8583SOL    HW126648   4.287   0.405   3.199
 8583SOL    HW226649   4.295   0.569   3.194
 8584SOL     OW26650   6.550   1.177   4.826
 8584SOL    HW126651   6.556   1.178   4.926
 8584SOL    HW226652   6.457   1.203   4.798
 8585SOL     OW26653   5.840   1.791   1.170
 8585SOL    HW126654   5.794   1.875   1.141
 8585SOL    HW226655   5.872   1.801   1.264
 8586SOL     OW26656   5.626   6.283   1.654
 8586SOL    HW126657   5.565   6.219   1.608
 8586SOL    HW226658   5.572   6.349   1.706
 8587SOL     OW26659   0.788   1.752   4.743
 8587SOL    HW126660   0.721   1.728   4.673
 8587SOL    HW226661   0.873   1.781   4.700
 8588SOL     OW26662   3.899   1.504   0.049
 8588SOL    HW126663   3.807   1.516   0.011
 8588SOL    HW226664   3.965   1.491   7.001
 8589SOL     OW26665   6.969   2.985   5.264
 8589SOL    HW126666   0.027   3.016   5.219
 8589SOL    HW226667   6.890   3.029   5.220
 8590SOL     OW26668   0.121   0.544   2.969
 8590SOL    HW126669   0.039   0.545   2.911
 8590SOL    HW226670   0.139   0.450   2.999
 8591SOL     OW26671   6.183   4.629   0.795
 8591SOL    HW126672   6.254   4.683   0.840
 8591SOL    HW226673   6.107   4.615   0.858
 8592SOL     OW26674   0.371   2.565   0.024
 8592SOL    HW126675   0.315   2.549   0.105
 8592SOL    HW226676   0.332   2.516   6.972
 8593SOL     OW26677   3.303   0.581   6.731
 8593SOL    HW126678   3.359   0.553   6.653
 8593SOL    HW226679   3.215   0.534   6.727
 8594SOL     OW26680   6.320   2.815   6.158
 8594SOL    HW126681   6.289   2.823   6.252
 8594SOL    HW226682   6.413   2.850   6.150
 8595SOL     OW26683   5.235   0.084   2.749
 8595SOL    HW126684   5.200   0.164   2.797
 8595SOL    HW226685   5.223   0.003   2.805
 8596SOL     OW26686   1.373   3.503   3.470
 8596SOL    HW126687   1.378   3.602   3.482
 8596SOL    HW226688   1.375   3.459   3.559
 8597SOL     OW26689   6.493   2.393   0.654
 8597SOL    HW126690   6.423   2.335   0.696
 8597SOL    HW226691   6.516   2.357   0.564
 8598SOL     OW26692   5.835   0.958   4.828
 8598SOL    HW126693   5.758   0.951   4.892
 8598SOL    HW226694   5.868   0.866   4.807
 8599SOL     OW26695   1.511   2.843   3.587
 8599SOL    HW126696   1.414   2.866   3.574
 8599SOL    HW226697   1.561   2.925   3.615
 8600SOL     OW26698   4.736   3.792   0.760
 8600SOL    HW126699   4.822   3.767   0.714
 8600SOL    HW226700   4.739   3.759   0.854
 8601SOL     OW26701   0.511   1.137   3.476
 8601SOL    HW126702   0.518   1.039   3.461
 8601SOL    HW226703   0.457   1.179   3.403
 8602SOL     OW26704   2.467   6.580   3.358
 8602SOL    HW126705   2.463   6.480   3.351
 8602SOL    HW226706   2.487   6.619   3.268
 8603SOL     OW26707   5.811   1.343   0.035
 8603SOL    HW126708   5.816   1.250   0.001
 8603SOL    HW226709   5.726   1.386   0.004
 8604SOL     OW26710   0.592   3.067   6.016
 8604SOL    HW126711   0.616   3.146   5.959
 8604SOL    HW226712   0.494   3.070   6.036
 8605SOL     OW26713   0.497   4.587   4.398
 8605SOL    HW126714   0.399   4.566   4.393
 8605SOL    HW226715   0.525   4.633   4.314
 8606SOL     OW26716   2.595   2.241   6.446
 8606SOL    HW126717   2.621   2.149   6.478
 8606SOL    HW226718   2.668   2.305   6.468
 8607SOL     OW26719   2.179   4.751   0.576
 8607SOL    HW126720   2.139   4.660   0.587
 8607SOL    HW226721   2.110   4.814   0.541
 8608SOL     OW26722   2.293   4.814   2.681
 8608SOL    HW126723   2.243   4.889   2.637
 8608SOL    HW226724   2.281   4.731   2.626
 8609SOL     OW26725   4.976   0.985   3.613
 8609SOL    HW126726   4.963   0.899   3.663
 8609SOL    HW226727   4.893   1.006   3.561
 8610SOL     OW26728   6.940   6.413   3.062
 8610SOL    HW126729   6.864   6.392   3.000
 8610SOL    HW226730   6.914   6.489   3.121
 8611SOL     OW26731   2.769   1.043   3.964
 8611SOL    HW126732   2.787   1.138   3.991
 8611SOL    HW226733   2.698   1.006   4.024
 8612SOL     OW26734   3.099   3.342   2.750
 8612SOL    HW126735   3.049   3.277   2.693
 8612SOL    HW226736   3.196   3.315   2.754
 8613SOL     OW26737   2.654   2.769   1.351
 8613SOL    HW126738   2.737   2.814   1.385
 8613SOL    HW226739   2.613   2.825   1.280
 8614SOL     OW26740   0.821   2.756   2.694
 8614SOL    HW126741   0.885   2.687   2.661
 8614SOL    HW226742   0.797   2.817   2.619
 8615SOL     OW26743   5.051   2.222   4.623
 8615SOL    HW126744   5.010   2.162   4.692
 8615SOL    HW226745   5.106   2.292   4.669
 8616SOL     OW26746   2.888   4.804   2.531
 8616SOL    HW126747   2.980   4.839   2.518
 8616SOL    HW226748   2.858   4.757   2.447
 8617SOL     OW26749   5.589   0.256   4.066
 8617SOL    HW126750   5.521   0.258   3.992
 8617SOL    HW226751   5.666   0.315   4.042
 8618SOL     OW26752   6.377   3.670   0.892
 8618SOL    HW126753   6.413   3.649   0.982
 8618SOL    HW226754   6.448   3.716   0.838
 8619SOL     OW26755   4.493   5.091   2.260
 8619SOL    HW126756   4.550   5.015   2.232
 8619SOL    HW226757   4.449   5.131   2.180
 8620SOL     OW26758   1.797   0.283   4.280
 8620SOL    HW126759   1.867   0.284   4.351
 8620SOL    HW226760   1.833   0.237   4.199
 8621SOL     OW26761   4.790   2.781   2.175
 8621SOL    HW126762   4.737   2.754   2.256
 8621SOL    HW226763   4.743   2.857   2.129
 8622SOL     OW26764   6.295   5.208   2.231
 8622SOL    HW126765   6.349   5.142   2.282
 8622SOL    HW226766   6.257   5.276   2.294
 8623SOL     OW26767   0.204   3.405   4.697
 8623SOL    HW126768   0.255   3.478   4.742
 8623SOL    HW226769   0.106   3.418   4.712
 8624SOL     OW26770   3.507   3.467   6.100
 8624SOL    HW126771   3.472   3.387   6.052
 8624SOL    HW226772   3.605   3.477   6.082
 8625SOL     OW26773   4.115   1.218   5.528
 8625SOL    HW126774   4.126   1.317   5.523
 8625SOL    HW226775   4.020   1.194   5.510
 8626SOL     OW26776   3.729   2.731   0.989
 8626SOL    HW126777   3.818   2.765   0.960
 8626SOL    HW226778   3.741   2.673   1.070
 8627SOL     OW26779   1.888   1.745   2.045
 8627SOL    HW126780   1.898   1.768   1.948
 8627SOL    HW226781   1.969   1.696   2.076
 8628SOL     OW26782   0.044   6.933   0.197
 8628SOL    HW126783   6.974   6.926   0.170
 8628SOL    HW226784   0.093   6.992   0.132
 8629SOL     OW26785   0.894   6.989   4.720
 8629SOL    HW126786   0.913   0.034   4.652
 8629SOL    HW226787   0.952   6.910   4.702
 8630SOL     OW26788   4.897   3.144   3.529
 8630SOL    HW126789   4.874   3.131   3.625
 8630SOL    HW226790   4.979   3.200   3.520
 8631SOL     OW26791   2.204   5.647   6.457
 8631SOL    HW126792   2.130   5.601   6.407
 8631SOL    HW226793   2.239   5.587   6.528
 8632SOL     OW26794   4.061   4.490   5.279
 8632SOL    HW126795   4.087   4.528   5.368
 8632SOL    HW226796   4.133   4.510   5.213
 8633SOL     OW26797   5.424   3.637   6.150
 8633SOL    HW126798   5.383   3.697   6.082
 8633SOL    HW226799   5.478   3.566   6.104
 8634SOL     OW26800   4.876   5.073   0.342
 8634SOL    HW126801   4.850   5.119   0.427
 8634SOL    HW226802   4.975   5.055   0.343
 8635SOL     OW26803   6.198   2.691   6.772
 8635SOL    HW126804   6.132   2.697   6.846
 8635SOL    HW226805   6.176   2.612   6.714
 8636SOL     OW26806   4.070   5.823   0.507
 8636SOL    HW126807   4.170   5.817   0.503
 8636SOL    HW226808   4.040   5.806   0.601
 8637SOL     OW26809   2.138   1.187   6.102
 8637SOL    HW126810   2.056   1.144   6.141
 8637SOL    HW226811   2.122   1.285   6.092
 8638SOL     OW26812   4.122   2.754   5.318
 8638SOL    HW126813   4.093   2.663   5.290
 8638SOL    HW226814   4.202   2.748   5.377
 8639SOL     OW26815   4.864   3.418   6.895
 8639SOL    HW126816   4.924   3.492   6.924
 8639SOL    HW226817   4.865   3.411   6.795
 8640SOL     OW26818   3.998   3.229   1.633
 8640SOL    HW126819   4.014   3.225   1.534
 8640SOL    HW226820   3.939   3.153   1.660
 8641SOL     OW26821   4.327   5.457   3.566
 8641SOL    HW126822   4.382   5.418   3.640
 8641SOL    HW226823   4.287   5.544   3.596
 8642SOL     OW26824   0.514   6.555   3.586
 8642SOL    HW126825   0.452   6.631   3.604
 8642SOL    HW226826   0.474   6.496   3.515
 8643SOL     OW26827   2.101   6.899   0.574
 8643SOL    HW126828   2.098   6.956   0.492
 8643SOL    HW226829   2.187   6.915   0.623
 8644SOL     OW26830   6.127   2.440   6.296
 8644SOL    HW126831   6.179   2.437   6.211
 8644SOL    HW226832   6.053   2.507   6.288
 8645SOL     OW26833   5.245   4.747   1.595
 8645SOL    HW126834   5.213   4.689   1.519
 8645SOL    HW226835   5.243   4.843   1.567
 8646SOL     OW26836   7.007   2.018   6.301
 8646SOL    HW126837   6.921   2.035   6.253
 8646SOL    HW226838   0.058   2.046   6.244
 8647SOL     OW26839   2.880   5.312   1.330
 8647SOL    HW126840   2.832   5.278   1.249
 8647SOL    HW226841   2.879   5.412   1.331
 8648SOL     OW26842   5.694   6.441   1.020
 8648SOL    HW126843   5.756   6.364   1.032
 8648SOL    HW226844   5.705   6.506   1.096
 8649SOL     OW26845   4.679   6.310   6.810
 8649SOL    HW126846   4.609   6.248   6.773
 8649SOL    HW226847   4.670   6.399   6.765
 8650SOL     OW26848   1.653   6.889   4.279
 8650SOL    HW126849   1.662   6.955   4.205
 8650SOL    HW226850   1.734   6.893   4.338
 8651SOL     OW26851   2.946   1.428   0.875
 8651SOL    HW126852   2.891   1.345   0.884
 8651SOL    HW226853   3.030   1.407   0.825
 8652SOL     OW26854   0.685   4.913   4.398
 8652SOL    HW126855   0.650   4.844   4.335
 8652SOL    HW226856   0.783   4.899   4.411
 8653SOL     OW26857   6.351   1.604   5.593
 8653SOL    HW126858   6.359   1.697   5.558
 8653SOL    HW226859   6.363   1.604   5.692
 8654SOL     OW26860   0.810   4.906   1.594
 8654SOL    HW126861   0.727   4.951   1.562
 8654SOL    HW226862   0.888   4.940   1.542
 8655SOL     OW26863   6.603   1.159   5.082
 8655SOL    HW126864   6.656   1.233   5.124
 8655SOL    HW226865   6.541   1.120   5.149
 8656SOL     OW26866   5.413   0.349   2.207
 8656SOL    HW126867   5.424   0.430   2.264
 8656SOL    HW226868   5.351   0.285   2.251
 8657SOL     OW26869   6.188   6.031   0.265
 8657SOL    HW126870   6.171   6.005   0.360
 8657SOL    HW226871   6.212   6.128   0.260
 8658SOL     OW26872   5.889   5.604   1.072
 8658SOL    HW126873   5.839   5.690   1.072
 8658SOL    HW226874   5.890   5.566   1.164
 8659SOL     OW26875   4.527   2.578   3.079
 8659SOL    HW126876   4.540   2.674   3.054
 8659SOL    HW226877   4.588   2.554   3.155
 8660SOL     OW26878   0.369   2.579   1.890
 8660SOL    HW126879   0.425   2.658   1.867
 8660SOL    HW226880   0.331   2.590   1.981
 8661SOL     OW26881   6.103   3.347   2.748
 8661SOL    HW126882   6.183   3.386   2.704
 8661SOL    HW226883   6.071   3.269   2.695
 8662SOL     OW26884   3.461   6.042   2.182
 8662SOL    HW126885   3.427   5.984   2.256
 8662SOL    HW226886   3.414   6.130   2.185
 8663SOL     OW26887   2.405   5.403   2.987
 8663SOL    HW126888   2.468   5.342   3.037
 8663SOL    HW226889   2.443   5.424   2.897
 8664SOL     OW26890   2.293   5.631   3.172
 8664SOL    HW126891   2.267   5.585   3.257
 8664SOL    HW226892   2.354   5.572   3.119
 8665SOL     OW26893   6.746   5.219   5.927
 8665SOL    HW126894   6.729   5.317   5.916
 8665SOL    HW226895   6.701   5.168   5.854
 8666SOL     OW26896   5.475   6.934   4.240
 8666SOL    HW126897   5.482   6.908   4.144
 8666SOL    HW226898   5.516   6.862   4.297
 8667SOL     OW26899   5.071   1.140   4.881
 8667SOL    HW126900   5.017   1.185   4.953
 8667SOL    HW226901   5.065   1.193   4.797
 8668SOL     OW26902   5.155   3.167   4.804
 8668SOL    HW126903   5.149   3.125   4.895
 8668SOL    HW226904   5.234   3.129   4.755
 8669SOL     OW26905   0.022   6.516   6.654
 8669SOL    HW126906   0.093   6.585   6.642
 8669SOL    HW226907   0.052   6.430   6.611
 8670SOL     OW26908   5.563   5.219   5.629
 8670SOL    HW126909   5.576   5.238   5.726
 8670SOL    HW226910   5.648   5.184   5.590
 8671SOL     OW26911   0.461   1.537   2.184
 8671SOL    HW126912   0.495   1.631   2.187
 8671SOL    HW226913   0.387   1.531   2.116
 8672SOL     OW26914   0.402   0.076   3.365
 8672SOL    HW126915   0.425   0.159   3.414
 8672SOL    HW226916   0.304   0.073   3.349
 8673SOL     OW26917   6.517   1.645   0.270
 8673SOL    HW126918   6.465   1.584   0.329
 8673SOL    HW226919   6.532   1.601   0.181
 8674SOL     OW26920   6.733   4.065   3.115
 8674SOL    HW126921   6.674   4.135   3.076
 8674SOL    HW226922   6.762   4.002   3.043
 8675SOL     OW26923   3.910   1.243   5.849
 8675SOL    HW126924   3.864   1.301   5.781
 8675SOL    HW226925   3.944   1.161   5.804
 8676SOL     OW26926   5.597   1.042   1.084
 8676SOL    HW126927   5.531   1.117   1.086
 8676SOL    HW226928   5.557   0.963   1.038
 8677SOL     OW26929   2.065   6.026   5.452
 8677SOL    HW126930   1.966   6.028   5.436
 8677SOL    HW226931   2.090   5.940   5.496
 8678SOL     OW26932   1.150   6.805   0.375
 8678SOL    HW126933   1.091   6.724   0.374
 8678SOL    HW226934   1.111   6.875   0.315
 8679SOL     OW26935   2.022   0.983   3.740
 8679SOL    HW126936   1.971   1.069   3.747
 8679SOL    HW226937   2.119   1.001   3.757
 8680SOL     OW26938   6.668   2.858   6.386
 8680SOL    HW126939   6.581   2.906   6.396
 8680SOL    HW226940   6.699   2.828   6.476
 8681SOL     OW26941   4.387   5.741   1.450
 8681SOL    HW126942   4.397   5.793   1.535
 8681SOL    HW226943   4.381   5.804   1.373
 8682SOL     OW26944   6.652   0.354   1.274
 8682SOL    HW126945   6.648   0.277   1.337
 8682SOL    HW226946   6.654   0.321   1.180
 8683SOL     OW26947   1.365   3.291   4.828
 8683SOL    HW126948   1.341   3.370   4.884
 8683SOL    HW226949   1.436   3.317   4.763
 8684SOL     OW26950   0.278   3.521   4.470
 8684SOL    HW126951   0.276   3.462   4.550
 8684SOL    HW226952   0.190   3.518   4.424
 8685SOL     OW26953   5.188   2.371   6.716
 8685SOL    HW126954   5.129   2.445   6.683
 8685SOL    HW226955   5.269   2.411   6.760
 8686SOL     OW26956   6.265   6.651   3.095
 8686SOL    HW126957   6.213   6.570   3.122
 8686SOL    HW226958   6.345   6.624   3.042
 8687SOL     OW26959   6.262   4.238   2.905
 8687SOL    HW126960   6.220   4.217   2.993
 8687SOL    HW226961   6.210   4.195   2.831
 8688SOL     OW26962   1.804   4.156   6.539
 8688SOL    HW126963   1.880   4.143   6.475
 8688SOL    HW226964   1.832   4.221   6.610
 8689SOL     OW26965   4.639   3.040   0.304
 8689SOL    HW126966   4.691   3.001   0.380
 8689SOL    HW226967   4.552   3.076   0.339
 8690SOL     OW26968   0.954   2.478   2.980
 8690SOL    HW126969   0.997   2.560   2.944
 8690SOL    HW226970   1.021   2.425   3.031
 8691SOL     OW26971   3.576   1.781   5.192
 8691SOL    HW126972   3.497   1.828   5.152
 8691SOL    HW226973   3.631   1.847   5.243
 8692SOL     OW26974   3.962   1.954   5.767
 8692SOL    HW126975   3.915   2.035   5.733
 8692SOL    HW226976   3.981   1.892   5.691
 8693SOL     OW26977   6.699   1.345   6.401
 8693SOL    HW126978   6.794   1.374   6.411
 8693SOL    HW226979   6.697   1.252   6.364
 8694SOL     OW26980   5.997   2.124   4.723
 8694SOL    HW126981   5.959   2.105   4.632
 8694SOL    HW226982   5.922   2.137   4.788
 8695SOL     OW26983   3.980   3.246   6.311
 8695SOL    HW126984   4.013   3.340   6.319
 8695SOL    HW226985   4.005   3.194   6.392
 8696SOL     OW26986   2.377   6.000   4.956
 8696SOL    HW126987   2.402   5.956   4.870
 8696SOL    HW226988   2.316   5.940   5.008
 8697SOL     OW26989   1.536   4.502   5.745
 8697SOL    HW126990   1.618   4.551   5.772
 8697SOL    HW226991   1.495   4.458   5.825
 8698SOL     OW26992   5.116   5.957   5.976
 8698SOL    HW126993   5.206   5.916   5.963
 8698SOL    HW226994   5.077   5.927   6.064
 8699SOL     OW26995   2.295   3.146   6.315
 8699SOL    HW126996   2.302   3.225   6.253
 8699SOL    HW226997   2.328   3.173   6.406
 8700SOL     OW26998   1.043   0.694   5.187
 8700SOL    HW126999   1.000   0.777   5.151
 8700SOL    HW227000   0.985   0.656   5.259
 8701SOL     OW27001   1.921   1.320   6.876
 8701SOL    HW127002   1.883   1.240   6.922
 8701SOL    HW227003   1.942   1.391   6.943
 8702SOL     OW27004   5.108   5.464   1.592
 8702SOL    HW127005   5.030   5.520   1.621
 8702SOL    HW227006   5.192   5.500   1.631
 8703SOL     OW27007   2.934   4.329   6.765
 8703SOL    HW127008   2.969   4.250   6.815
 8703SOL    HW227009   3.005   4.398   6.757
 8704SOL     OW27010   0.002   2.847   4.248
 8704SOL    HW127011   0.099   2.866   4.239
 8704SOL    HW227012   7.013   2.780   4.320
 8705SOL     OW27013   4.720   2.054   6.727
 8705SOL    HW127014   4.781   2.120   6.771
 8705SOL    HW227015   4.689   1.987   6.794
 8706SOL     OW27016   5.728   2.915   0.149
 8706SOL    HW127017   5.660   2.988   0.144
 8706SOL    HW227018   5.819   2.953   0.132
 8707SOL     OW27019   1.184   2.201   4.093
 8707SOL    HW127020   1.165   2.300   4.095
 8707SOL    HW227021   1.200   2.169   4.186
 8708SOL     OW27022   4.993   2.142   4.148
 8708SOL    HW127023   4.914   2.118   4.092
 8708SOL    HW227024   4.996   2.241   4.160
 8709SOL     OW27025   6.935   0.285   0.130
 8709SOL    HW127026   6.835   0.288   0.121
 8709SOL    HW227027   6.974   0.369   0.093
 8710SOL     OW27028   2.141   1.844   3.551
 8710SOL    HW127029   2.196   1.805   3.477
 8710SOL    HW227030   2.186   1.827   3.639
 8711SOL     OW27031   0.854   0.853   1.806
 8711SOL    HW127032   0.952   0.857   1.787
 8711SOL    HW227033   0.817   0.766   1.774
 8712SOL     OW27034   2.734   1.872   5.270
 8712SOL    HW127035   2.665   1.800   5.265
 8712SOL    HW227036   2.745   1.901   5.365
 8713SOL     OW27037   0.854   3.926   1.486
 8713SOL    HW127038   0.831   3.941   1.582
 8713SOL    HW227039   0.773   3.891   1.438
 8714SOL     OW27040   0.518   6.687   0.633
 8714SOL    HW127041   0.449   6.615   0.647
 8714SOL    HW227042   0.483   6.754   0.568
 8715SOL     OW27043   2.870   1.836   0.078
 8715SOL    HW127044   2.949   1.862   0.134
 8715SOL    HW227045   2.870   1.891   7.020
 8716SOL     OW27046   0.178   6.108   1.453
 8716SOL    HW127047   0.107   6.174   1.475
 8716SOL    HW227048   0.165   6.025   1.506
 8717SOL     OW27049   2.433   3.495   6.340
 8717SOL    HW127050   2.514   3.553   6.349
 8717SOL    HW227051   2.443   3.435   6.261
 8718SOL     OW27052   1.202   2.969   6.402
 8718SOL    HW127053   1.207   2.933   6.495
 8718SOL    HW227054   1.203   2.893   6.337
 8719SOL     OW27055   4.064   1.022   0.061
 8719SOL    HW127056   4.082   1.019   6.989
 8719SOL    HW227057   3.965   1.022   0.077
 8720SOL     OW27058   6.884   5.023   5.296
 8720SOL    HW127059   6.873   5.122   5.301
 8720SOL    HW227060   6.981   5.000   5.292
 8721SOL     OW27061   6.754   6.570   6.694
 8721SOL    HW127062   6.726   6.594   6.601
 8721SOL    HW227063   6.854   6.566   6.698
 8722SOL     OW27064   3.056   0.537   0.803
 8722SOL    HW127065   3.148   0.507   0.777
 8722SOL    HW227066   3.050   0.637   0.794
 8723SOL     OW27067   5.628   6.871   2.314
 8723SOL    HW127068   5.586   6.897   2.402
 8723SOL    HW227069   5.708   6.930   2.298
 8724SOL     OW27070   5.079   0.138   4.470
 8724SOL    HW127071   5.032   0.224   4.493
 8724SOL    HW227072   5.123   0.102   4.553
 8725SOL     OW27073   0.094   6.444   4.951
 8725SOL    HW127074   0.183   6.461   4.994
 8725SOL    HW227075   0.107   6.433   4.852
 8726SOL     OW27076   6.780   1.552   0.169
 8726SOL    HW127077   6.705   1.576   0.230
 8726SOL    HW227078   6.829   1.473   0.205
 8727SOL     OW27079   6.425   0.172   0.069
 8727SOL    HW127080   6.448   0.110   7.020
 8727SOL    HW227081   6.368   0.124   0.135
 8728SOL     OW27082   5.460   1.294   3.050
 8728SOL    HW127083   5.546   1.287   2.999
 8728SOL    HW227084   5.464   1.236   3.131
 8729SOL     OW27085   2.974   4.957   5.392
 8729SOL    HW127086   3.010   5.043   5.427
 8729SOL    HW227087   2.933   4.905   5.467
 8730SOL     OW27088   5.559   4.227   3.220
 8730SOL    HW127089   5.461   4.223   3.234
 8730SOL    HW227090   5.579   4.228   3.122
 8731SOL     OW27091   0.068   2.298   2.818
 8731SOL    HW127092   0.102   2.234   2.888
 8731SOL    HW227093   0.081   2.257   2.727
 8732SOL     OW27094   5.107   4.673   1.101
 8732SOL    HW127095   5.095   4.771   1.086
 8732SOL    HW227096   5.154   4.657   1.187
 8733SOL     OW27097   0.751   5.663   1.173
 8733SOL    HW127098   0.819   5.669   1.247
 8733SOL    HW227099   0.673   5.609   1.205
 8734SOL     OW27100   6.576   3.736   1.783
 8734SOL    HW127101   6.534   3.725   1.692
 8734SOL    HW227102   6.624   3.651   1.808
 8735SOL     OW27103   1.340   3.522   4.954
 8735SOL    HW127104   1.351   3.477   5.042
 8735SOL    HW227105   1.258   3.580   4.956
 8736SOL     OW27106   0.545   5.436   2.072
 8736SOL    HW127107   0.472   5.370   2.053
 8736SOL    HW227108   0.632   5.400   2.038
 8737SOL     OW27109   2.700   5.752   6.255
 8737SOL    HW127110   2.739   5.824   6.313
 8737SOL    HW227111   2.771   5.689   6.226
 8738SOL     OW27112   1.221   3.750   3.677
 8738SOL    HW127113   1.229   3.846   3.703
 8738SOL    HW227114   1.274   3.732   3.595
 8739SOL     OW27115   5.476   3.830   5.236
 8739SOL    HW127116   5.571   3.831   5.206
 8739SOL    HW227117   5.464   3.758   5.304
 8740SOL     OW27118   3.765   2.108   3.014
 8740SOL    HW127119   3.808   2.178   2.957
 8740SOL    HW227120   3.713   2.046   2.956
 8741SOL     OW27121   1.961   0.058   2.655
 8741SOL    HW127122   1.933   6.991   2.680
 8741SOL    HW227123   2.021   0.095   2.725
 8742SOL     OW27124   3.682   0.653   2.408
 8742SOL    HW127125   3.696   0.661   2.310
 8742SOL    HW227126   3.712   0.737   2.454
 8743SOL     OW27127   1.885   0.998   1.658
 8743SOL    HW127128   1.843   0.915   1.621
 8743SOL    HW227129   1.868   1.075   1.596
 8744SOL     OW27130   4.709   2.821   6.790
 8744SOL    HW127131   4.654   2.782   6.717
 8744SOL    HW227132   4.678   2.785   6.878
 8745SOL     OW27133   6.586   2.352   6.420
 8745SOL    HW127134   6.670   2.340   6.473
 8745SOL    HW227135   6.596   2.431   6.359
 8746SOL     OW27136   4.768   4.535   3.898
 8746SOL    HW127137   4.751   4.631   3.874
 8746SOL    HW227138   4.864   4.524   3.924
 8747SOL     OW27139   6.544   0.990   2.475
 8747SOL    HW127140   6.613   0.979   2.404
 8747SOL    HW227141   6.453   0.974   2.436
 8748SOL     OW27142   1.187   1.356   3.911
 8748SOL    HW127143   1.220   1.266   3.884
 8748SOL    HW227144   1.221   1.425   3.848
 8749SOL     OW27145   2.185   1.168   5.453
 8749SOL    HW127146   2.160   1.101   5.522
 8749SOL    HW227147   2.273   1.209   5.478
 8750SOL     OW27148   3.904   2.830   5.797
 8750SOL    HW127149   3.935   2.753   5.743
 8750SOL    HW227150   3.826   2.802   5.853
 8751SOL     OW27151   6.596   6.978   0.536
 8751SOL    HW127152   6.529   6.922   0.587
 8751SOL    HW227153   6.582   6.965   0.438
 8752SOL     OW27154   5.136   2.868   0.103
 8752SOL    HW127155   5.109   2.858   0.199
 8752SOL    HW227156   5.055   2.874   0.045
 8753SOL     OW27157   1.889   3.115   6.958
 8753SOL    HW127158   1.892   3.081   6.864
 8753SOL    HW227159   1.898   3.038   7.022
 8754SOL     OW27160   2.752   5.140   6.274
 8754SOL    HW127161   2.767   5.090   6.189
 8754SOL    HW227162   2.838   5.147   6.324
 8755SOL     OW27163   0.978   1.256   0.819
 8755SOL    HW127164   0.919   1.335   0.803
 8755SOL    HW227165   1.001   1.213   0.732
 8756SOL     OW27166   2.173   3.104   3.834
 8756SOL    HW127167   2.232   3.150   3.767
 8756SOL    HW227168   2.164   3.007   3.810
 8757SOL     OW27169   5.245   6.322   5.606
 8757SOL    HW127170   5.200   6.377   5.536
 8757SOL    HW227171   5.199   6.334   5.693
 8758SOL     OW27172   4.291   0.011   3.215
 8758SOL    HW127173   4.220   0.001   3.145
 8758SOL    HW227174   4.275   6.970   3.288
 8759SOL     OW27175   6.274   1.669   6.925
 8759SOL    HW127176   6.290   1.735   6.852
 8759SOL    HW227177   6.358   1.619   6.944
 8760SOL     OW27178   2.296   1.876   3.758
 8760SOL    HW127179   2.365   1.858   3.687
 8760SOL    HW227180   2.338   1.864   3.848
 8761SOL     OW27181   5.283   1.410   2.233
 8761SOL    HW127182   5.289   1.335   2.299
 8761SOL    HW227183   5.332   1.386   2.149
 8762SOL     OW27184   1.704   5.977   3.679
 8762SOL    HW127185   1.787   5.921   3.677
 8762SOL    HW227186   1.657   5.964   3.766
 8763SOL     OW27187   6.813   0.900   5.235
 8763SOL    HW127188   6.745   0.968   5.264
 8763SOL    HW227189   6.870   0.940   5.164
 8764SOL     OW27190   4.340   5.879   6.145
 8764SOL    HW127191   4.245   5.848   6.136
 8764SOL    HW227192   4.384   5.879   6.055
 8765SOL     OW27193   5.887   1.043   5.264
 8765SOL    HW127194   5.895   1.074   5.359
 8765SOL    HW227195   5.977   1.046   5.220
 8766SOL     OW27196   4.475   4.415   5.775
 8766SOL    HW127197   4.439   4.491   5.829
 8766SOL    HW227198   4.483   4.442   5.679
 8767SOL     OW27199   3.368   0.136   3.485
 8767SOL    HW127200   3.457   0.171   3.456
 8767SOL    HW227201   3.357   0.150   3.584
 8768SOL     OW27202   0.475   2.285   6.701
 8768SOL    HW127203   0.399   2.220   6.693
 8768SOL    HW227204   0.511   2.284   6.794
 8769SOL     OW27205   6.001   1.113   1.685
 8769SOL    HW127206   5.931   1.140   1.751
 8769SOL    HW227207   6.072   1.060   1.731
 8770SOL     OW27208   5.381   4.141   2.085
 8770SOL    HW127209   5.404   4.103   2.175
 8770SOL    HW227210   5.288   4.113   2.060
 8771SOL     OW27211   0.300   3.516   6.445
 8771SOL    HW127212   0.359   3.596   6.457
 8771SOL    HW227213   0.336   3.458   6.372
 8772SOL     OW27214   5.377   0.865   4.695
 8772SOL    HW127215   5.461   0.821   4.662
 8772SOL    HW227216   5.304   0.851   4.629
 8773SOL     OW27217   5.724   2.505   3.949
 8773SOL    HW127218   5.670   2.554   3.880
 8773SOL    HW227219   5.746   2.568   4.025
 8774SOL     OW27220   0.564   6.725   0.084
 8774SOL    HW127221   0.465   6.735   0.085
 8774SOL    HW227222   0.596   6.702   0.176
 8775SOL     OW27223   5.586   1.718   4.921
 8775SOL    HW127224   5.625   1.641   4.971
 8775SOL    HW227225   5.542   1.685   4.838
 8776SOL     OW27226   4.302   3.413   0.949
 8776SOL    HW127227   4.388   3.412   0.899
 8776SOL    HW227228   4.320   3.405   1.047
 8777SOL     OW27229   0.806   3.628   2.934
 8777SOL    HW127230   0.744   3.566   2.885
 8777SOL    HW227231   0.900   3.610   2.906
 8778SOL     OW27232   4.116   4.047   5.922
 8778SOL    HW127233   4.191   4.112   5.912
 8778SOL    HW227234   4.115   4.011   6.016
 8779SOL     OW27235   3.011   5.155   2.607
 8779SOL    HW127236   3.082   5.098   2.648
 8779SOL    HW227237   2.923   5.134   2.649
 8780SOL     OW27238   6.989   5.303   2.227
 8780SOL    HW127239   6.914   5.265   2.282
 8780SOL    HW227240   0.040   5.239   2.227
 8781SOL     OW27241   4.454   0.075   2.855
 8781SOL    HW127242   4.367   0.070   2.804
 8781SOL    HW227243   4.497   0.164   2.838
 8782SOL     OW27244   5.758   1.185   1.826
 8782SOL    HW127245   5.683   1.123   1.805
 8782SOL    HW227246   5.732   1.279   1.803
 8783SOL     OW27247   5.525   3.278   4.861
 8783SOL    HW127248   5.466   3.308   4.936
 8783SOL    HW227249   5.572   3.357   4.822
 8784SOL     OW27250   6.354   6.278   0.853
 8784SOL    HW127251   6.440   6.229   0.840
 8784SOL    HW227252   6.344   6.347   0.782
 8785SOL     OW27253   0.430   5.524   6.113
 8785SOL    HW127254   0.461   5.437   6.152
 8785SOL    HW227255   0.419   5.514   6.014
 8786SOL     OW27256   4.137   1.830   2.471
 8786SOL    HW127257   4.216   1.844   2.411
 8786SOL    HW227258   4.066   1.896   2.448
 8787SOL     OW27259   3.738   0.476   1.459
 8787SOL    HW127260   3.765   0.496   1.365
 8787SOL    HW227261   3.639   0.489   1.469
 8788SOL     OW27262   0.151   0.703   5.300
 8788SOL    HW127263   0.110   0.643   5.232
 8788SOL    HW227264   0.214   0.651   5.358
 8789SOL     OW27265   0.159   3.875   5.187
 8789SOL    HW127266   0.141   3.907   5.280
 8789SOL    HW227267   0.169   3.954   5.126
 8790SOL     OW27268   6.200   2.196   0.476
 8790SOL    HW127269   6.123   2.222   0.535
 8790SOL    HW227270   6.284   2.197   0.530
 8791SOL     OW27271   4.813   6.254   5.386
 8791SOL    HW127272   4.883   6.197   5.429
 8791SOL    HW227273   4.787   6.215   5.298
 8792SOL     OW27274   4.064   5.532   1.875
 8792SOL    HW127275   3.964   5.532   1.868
 8792SOL    HW227276   4.102   5.591   1.804
 8793SOL     OW27277   1.200   5.127   4.394
 8793SOL    HW127278   1.285   5.166   4.359
 8793SOL    HW227279   1.134   5.118   4.319
 8794SOL     OW27280   5.899   1.215   3.273
 8794SOL    HW127281   5.832   1.247   3.341
 8794SOL    HW227282   5.904   1.116   3.274
 8795SOL     OW27283   1.119   5.203   5.372
 8795SOL    HW127284   1.119   5.276   5.304
 8795SOL    HW227285   1.026   5.184   5.401
 8796SOL     OW27286   6.190   3.965   3.431
 8796SOL    HW127287   6.245   3.881   3.434
 8796SOL    HW227288   6.098   3.943   3.400
 8797SOL     OW27289   0.180   6.639   3.895
 8797SOL    HW127290   0.115   6.565   3.911
 8797SOL    HW227291   0.208   6.678   3.983
 8798SOL     OW27292   4.936   6.534   5.277
 8798SOL    HW127293   4.937   6.455   5.338
 8798SOL    HW227294   4.857   6.528   5.216
 8799SOL     OW27295   2.203   4.558   1.893
 8799SOL    HW127296   2.278   4.604   1.940
 8799SOL    HW227297   2.233   4.467   1.863
 8800SOL     OW27298   6.896   6.097   5.511
 8800SOL    HW127299   6.866   6.172   5.453
 8800SOL    HW227300   6.897   6.012   5.458
 8801SOL     OW27301   5.991   2.052   5.349
 8801SOL    HW127302   6.073   1.995   5.355
 8801SOL    HW227303   6.012   2.145   5.380
 8802SOL     OW27304   1.257   5.991   5.627
 8802SOL    HW127305   1.280   5.897   5.604
 8802SOL    HW227306   1.171   6.016   5.582
 8803SOL     OW27307   6.613   1.082   6.883
 8803SOL    HW127308   6.552   1.067   6.805
 8803SOL    HW227309   6.571   1.046   6.966
 8804SOL     OW27310   1.795   6.039   1.350
 8804SOL    HW127311   1.870   5.995   1.300
 8804SOL    HW227312   1.815   6.136   1.361
 8805SOL     OW27313   4.507   5.890   3.636
 8805SOL    HW127314   4.544   5.833   3.709
 8805SOL    HW227315   4.450   5.833   3.575
 8806SOL     OW27316   2.182   6.363   0.554
 8806SOL    HW127317   2.099   6.308   0.546
 8806SOL    HW227318   2.216   6.386   0.463
 8807SOL     OW27319   4.303   2.297   0.532
 8807SOL    HW127320   4.318   2.207   0.492
 8807SOL    HW227321   4.270   2.360   0.461
 8808SOL     OW27322   1.907   2.441   0.530
 8808SOL    HW127323   1.828   2.399   0.486
 8808SOL    HW227324   1.881   2.530   0.567
 8809SOL     OW27325   2.222   4.068   3.458
 8809SOL    HW127326   2.302   4.012   3.435
 8809SOL    HW227327   2.222   4.151   3.402
 8810SOL     OW27328   6.093   1.723   5.304
 8810SOL    HW127329   5.998   1.722   5.273
 8810SOL    HW227330   6.152   1.686   5.233
 8811SOL     OW27331   4.377   6.879   2.341
 8811SOL    HW127332   4.399   6.977   2.338
 8811SOL    HW227333   4.417   6.839   2.423
 8812SOL     OW27334   3.543   0.397   6.875
 8812SOL    HW127335   3.467   0.455   6.843
 8812SOL    HW227336   3.608   0.454   6.925
 8813SOL     OW27337   1.897   4.021   2.727
 8813SOL    HW127338   1.809   4.023   2.776
 8813SOL    HW227339   1.918   4.113   2.694
 8814SOL     OW27340   5.643   6.940   0.457
 8814SOL    HW127341   5.546   6.923   0.439
 8814SOL    HW227342   5.687   6.856   0.487
 8815SOL     OW27343   5.698   0.774   0.626
 8815SOL    HW127344   5.712   0.873   0.628
 8815SOL    HW227345   5.775   0.731   0.579
 8816SOL     OW27346   0.094   6.303   6.494
 8816SOL    HW127347   0.145   6.273   6.413
 8816SOL    HW227348   0.082   6.226   6.556
 8817SOL     OW27349   0.720   3.397   4.681
 8817SOL    HW127350   0.669   3.315   4.710
 8817SOL    HW227351   0.680   3.432   4.596
 8818SOL     OW27352   1.700   6.775   3.711
 8818SOL    HW127353   1.689   6.736   3.620
 8818SOL    HW227354   1.615   6.765   3.763
 8819SOL     OW27355   5.652   4.409   5.581
 8819SOL    HW127356   5.569   4.465   5.571
 8819SOL    HW227357   5.637   4.338   5.650
 8820SOL     OW27358   3.607   1.018   4.638
 8820SOL    HW127359   3.524   1.020   4.692
 8820SOL    HW227360   3.626   1.109   4.601
 8821SOL     OW27361   0.799   5.238   0.773
 8821SOL    HW127362   0.782   5.336   0.765
 8821SOL    HW227363   0.739   5.189   0.710
 8822SOL     OW27364   6.819   6.591   3.693
 8822SOL    HW127365   6.823   6.620   3.789
 8822SOL    HW227366   6.887   6.519   3.677
 8823SOL     OW27367   2.917   1.079   2.348
 8823SOL    HW127368   2.898   1.060   2.444
 8823SOL    HW227369   2.866   1.160   2.320
 8824SOL     OW27370   1.507   0.546   1.113
 8824SOL    HW127371   1.414   0.513   1.093
 8824SOL    HW227372   1.560   0.472   1.154
 8825SOL     OW27373   0.313   0.638   1.390
 8825SOL    HW127374   0.226   0.637   1.438
 8825SOL    HW227375   0.308   0.702   1.313
 8826SOL     OW27376   1.096   3.244   0.919
 8826SOL    HW127377   1.121   3.183   0.843
 8826SOL    HW227378   1.002   3.276   0.906
 8827SOL     OW27379   4.035   0.270   2.087
 8827SOL    HW127380   4.106   0.313   2.142
 8827SOL    HW227381   4.051   0.172   2.081
 8828SOL     OW27382   3.878   4.307   6.171
 8828SOL    HW127383   3.864   4.350   6.260
 8828SOL    HW227384   3.872   4.376   6.099
 8829SOL     OW27385   6.632   1.677   2.161
 8829SOL    HW127386   6.652   1.584   2.191
 8829SOL    HW227387   6.595   1.676   2.068
 8830SOL     OW27388   2.451   1.479   1.827
 8830SOL    HW127389   2.362   1.447   1.859
 8830SOL    HW227390   2.511   1.401   1.811
 8831SOL     OW27391   0.228   2.823   2.367
 8831SOL    HW127392   0.199   2.792   2.457
 8831SOL    HW227393   0.225   2.923   2.362
 8832SOL     OW27394   6.484   6.538   4.018
 8832SOL    HW127395   6.436   6.625   4.004
 8832SOL    HW227396   6.580   6.555   4.037
 8833SOL     OW27397   3.873   3.023   1.284
 8833SOL    HW127398   3.942   2.987   1.221
 8833SOL    HW227399   3.799   2.957   1.295
 8834SOL     OW27400   5.758   3.550   5.270
 8834SOL    HW127401   5.686   3.481   5.280
 8834SOL    HW227402   5.717   3.641   5.263
 8835SOL     OW27403   6.289   0.792   6.087
 8835SOL    HW127404   6.245   0.841   6.011
 8835SOL    HW227405   6.341   0.715   6.052
 8836SOL     OW27406   5.796   2.631   0.169
 8836SOL    HW127407   5.731   2.707   0.177
 8836SOL    HW227408   5.864   2.653   0.098
 8837SOL     OW27409   0.052   6.600   1.965
 8837SOL    HW127410   6.985   6.622   1.997
 8837SOL    HW227411   0.111   6.583   2.044
 8838SOL     OW27412   0.817   4.143   2.814
 8838SOL    HW127413   0.804   4.070   2.881
 8838SOL    HW227414   0.858   4.105   2.731
 8839SOL     OW27415   5.212   5.302   2.181
 8839SOL    HW127416   5.187   5.319   2.085
 8839SOL    HW227417   5.308   5.325   2.195
 8840SOL     OW27418   6.422   0.431   2.161
 8840SOL    HW127419   6.372   0.504   2.116
 8840SOL    HW227420   6.365   0.390   2.232
 8841SOL     OW27421   4.089   0.817   2.350
 8841SOL    HW127422   4.013   0.753   2.341
 8841SOL    HW227423   4.064   0.890   2.413
 8842SOL     OW27424   3.411   4.004   4.057
 8842SOL    HW127425   3.473   4.051   4.119
 8842SOL    HW227426   3.463   3.964   3.982
 8843SOL     OW27427   1.934   2.857   4.906
 8843SOL    HW127428   1.856   2.910   4.941
 8843SOL    HW227429   2.019   2.899   4.936
 8844SOL     OW27430   6.524   2.164   5.181
 8844SOL    HW127431   6.551   2.239   5.242
 8844SOL    HW227432   6.431   2.180   5.148
 8845SOL     OW27433   2.114   5.395   0.939
 8845SOL    HW127434   2.126   5.342   0.855
 8845SOL    HW227435   2.020   5.385   0.972
 8846SOL     OW27436   5.444   4.752   4.145
 8846SOL    HW127437   5.493   4.667   4.160
 8846SOL    HW227438   5.379   4.767   4.219
 8847SOL     OW27439   1.610   1.695   2.449
 8847SOL    HW127440   1.587   1.697   2.352
 8847SOL    HW227441   1.607   1.601   2.483
 8848SOL     OW27442   3.377   1.846   1.711
 8848SOL    HW127443   3.412   1.771   1.767
 8848SOL    HW227444   3.290   1.819   1.670
 8849SOL     OW27445   2.632   5.117   4.043
 8849SOL    HW127446   2.543   5.150   4.011
 8849SOL    HW227447   2.690   5.095   3.965
 8850SOL     OW27448   2.849   1.459   0.349
 8850SOL    HW127449   2.908   1.435   0.271
 8850SOL    HW227450   2.891   1.427   0.433
 8851SOL     OW27451   0.772   4.682   3.014
 8851SOL    HW127452   0.761   4.584   2.998
 8851SOL    HW227453   0.759   4.702   3.111
 8852SOL     OW27454   5.277   2.741   6.254
 8852SOL    HW127455   5.349   2.801   6.217
 8852SOL    HW227456   5.252   2.772   6.346
 8853SOL     OW27457   3.446   1.166   5.307
 8853SOL    HW127458   3.439   1.070   5.277
 8853SOL    HW227459   3.356   1.197   5.339
 8854SOL     OW27460   1.775   0.069   5.841
 8854SOL    HW127461   1.693   0.090   5.894
 8854SOL    HW227462   1.852   0.055   5.903
 8855SOL     OW27463   5.952   5.725   6.766
 8855SOL    HW127464   5.872   5.786   6.775
 8855SOL    HW227465   5.977   5.717   6.670
 8856SOL     OW27466   6.509   0.447   4.795
 8856SOL    HW127467   6.502   0.440   4.696
 8856SOL    HW227468   6.598   0.487   4.819
 8857SOL     OW27469   6.131   1.928   3.174
 8857SOL    HW127470   6.173   1.872   3.245
 8857SOL    HW227471   6.179   1.912   3.087
 8858SOL     OW27472   1.173   3.699   5.628
 8858SOL    HW127473   1.193   3.795   5.647
 8858SOL    HW227474   1.138   3.655   5.711
 8859SOL     OW27475   0.928   0.031   5.235
 8859SOL    HW127476   1.017   7.012   5.226
 8859SOL    HW227477   0.857   6.998   5.197
 8860SOL     OW27478   1.497   3.638   2.525
 8860SOL    HW127479   1.416   3.696   2.534
 8860SOL    HW227480   1.498   3.595   2.435
 8861SOL     OW27481   3.377   3.137   6.590
 8861SOL    HW127482   3.383   3.050   6.541
 8861SOL    HW227483   3.310   3.196   6.544
 8862SOL     OW27484   5.936   1.668   4.721
 8862SOL    HW127485   5.931   1.571   4.698
 8862SOL    HW227486   5.881   1.721   4.656
 8863SOL     OW27487   2.122   5.671   4.507
 8863SOL    HW127488   2.140   5.765   4.478
 8863SOL    HW227489   2.024   5.654   4.508
 8864SOL     OW27490   2.210   2.977   6.081
 8864SOL    HW127491   2.266   2.996   6.161
 8864SOL    HW227492   2.113   2.976   6.108
 8865SOL     OW27493   3.299   1.038   4.784
 8865SOL    HW127494   3.260   1.130   4.783
 8865SOL    HW227495   3.270   0.988   4.702
 8866SOL     OW27496   4.232   6.716   3.136
 8866SOL    HW127497   4.154   6.654   3.144
 8866SOL    HW227498   4.311   6.665   3.103
 8867SOL     OW27499   5.413   2.401   2.871
 8867SOL    HW127500   5.450   2.411   2.779
 8867SOL    HW227501   5.489   2.387   2.935
 8868SOL     OW27502   5.296   3.256   0.166
 8868SOL    HW127503   5.198   3.265   0.184
 8868SOL    HW227504   5.311   3.204   0.082
 8869SOL     OW27505   4.676   4.251   3.131
 8869SOL    HW127506   4.670   4.173   3.069
 8869SOL    HW227507   4.640   4.333   3.085
 8870SOL     OW27508   3.494   0.501   1.144
 8870SOL    HW127509   3.513   0.417   1.095
 8870SOL    HW227510   3.506   0.579   1.083
 8871SOL     OW27511   2.586   1.642   3.825
 8871SOL    HW127512   2.669   1.635   3.769
 8871SOL    HW227513   2.522   1.570   3.799
 8872SOL     OW27514   1.944   4.219   4.448
 8872SOL    HW127515   1.973   4.301   4.399
 8872SOL    HW227516   2.010   4.146   4.431
 8873SOL     OW27517   6.817   5.942   2.657
 8873SOL    HW127518   6.858   5.890   2.582
 8873SOL    HW227519   6.873   6.021   2.678
 8874SOL     OW27520   1.894   0.031   1.193
 8874SOL    HW127521   1.945   0.117   1.201
 8874SOL    HW227522   1.851   0.025   1.103
 8875SOL     OW27523   1.422   2.638   4.387
 8875SOL    HW127524   1.423   2.634   4.487
 8875SOL    HW227525   1.397   2.730   4.357
 8876SOL     OW27526   6.990   0.550   4.345
 8876SOL    HW127527   6.919   0.615   4.317
 8876SOL    HW227528   6.957   0.457   4.331
 8877SOL     OW27529   2.735   0.512   4.458
 8877SOL    HW127530   2.815   0.499   4.517
 8877SOL    HW227531   2.746   0.458   4.374
 8878SOL     OW27532   0.560   5.241   1.155
 8878SOL    HW127533   0.520   5.157   1.190
 8878SOL    HW227534   0.652   5.222   1.119
 8879SOL     OW27535   5.276   5.511   1.039
 8879SOL    HW127536   5.183   5.514   1.002
 8879SOL    HW227537   5.281   5.567   1.121
 8880SOL     OW27538   0.466   5.402   4.572
 8880SOL    HW127539   0.403   5.375   4.645
 8880SOL    HW227540   0.541   5.337   4.566
 8881SOL     OW27541   6.182   0.727   3.306
 8881SOL    HW127542   6.125   0.656   3.348
 8881SOL    HW227543   6.237   0.772   3.376
 8882SOL     OW27544   5.347   0.805   0.092
 8882SOL    HW127545   5.426   0.800   0.030
 8882SOL    HW227546   5.311   0.713   0.108
 8883SOL     OW27547   0.509   1.054   6.001
 8883SOL    HW127548   0.549   1.051   5.909
 8883SOL    HW227549   0.554   1.125   6.055
 8884SOL     OW27550   5.803   6.696   6.748
 8884SOL    HW127551   5.793   6.783   6.797
 8884SOL    HW227552   5.799   6.713   6.650
 8885SOL     OW27553   6.460   3.679   1.558
 8885SOL    HW127554   6.383   3.616   1.556
 8885SOL    HW227555   6.459   3.736   1.476
 8886SOL     OW27556   2.989   5.881   5.317
 8886SOL    HW127557   3.051   5.903   5.241
 8886SOL    HW227558   3.031   5.908   5.403
 8887SOL     OW27559   3.032   1.089   0.970
 8887SOL    HW127560   2.946   1.138   0.959
 8887SOL    HW227561   3.036   1.050   1.062
 8888SOL     OW27562   1.074   1.976   0.842
 8888SOL    HW127563   1.037   1.884   0.860
 8888SOL    HW227564   1.174   1.972   0.843
 8889SOL     OW27565   5.726   6.610   5.172
 8889SOL    HW127566   5.762   6.702   5.189
 8889SOL    HW227567   5.667   6.582   5.247
 8890SOL     OW27568   6.464   5.960   4.869
 8890SOL    HW127569   6.427   5.971   4.962
 8890SOL    HW227570   6.406   6.009   4.804
 8891SOL     OW27571   6.034   3.100   6.476
 8891SOL    HW127572   6.092   3.036   6.527
 8891SOL    HW227573   5.948   3.055   6.453
 8892SOL     OW27574   3.223   6.577   3.309
 8892SOL    HW127575   3.241   6.538   3.219
 8892SOL    HW227576   3.173   6.663   3.299
 8893SOL     OW27577   0.432   1.098   1.807
 8893SOL    HW127578   0.339   1.129   1.826
 8893SOL    HW227579   0.438   1.065   1.713
 8894SOL     OW27580   4.179   3.029   6.127
 8894SOL    HW127581   4.101   3.090   6.110
 8894SOL    HW227582   4.206   3.036   6.224
 8895SOL     OW27583   0.223   0.601   2.037
 8895SOL    HW127584   0.227   0.666   1.961
 8895SOL    HW227585   0.244   0.649   2.122
 8896SOL     OW27586   0.674   3.247   5.117
 8896SOL    HW127587   0.706   3.233   5.024
 8896SOL    HW227588   0.575   3.264   5.117
 8897SOL     OW27589   1.861   1.772   1.750
 8897SOL    HW127590   1.869   1.675   1.771
 8897SOL    HW227591   1.951   1.808   1.725
 8898SOL     OW27592   6.326   2.890   4.861
 8898SOL    HW127593   6.340   2.792   4.875
 8898SOL    HW227594   6.276   2.904   4.775
 8899SOL     OW27595   2.145   4.135   6.670
 8899SOL    HW127596   2.139   4.049   6.618
 8899SOL    HW227597   2.143   4.115   6.768
 8900SOL     OW27598   5.430   3.308   3.131
 8900SOL    HW127599   5.484   3.363   3.068
 8900SOL    HW227600   5.415   3.217   3.091
 8901SOL     OW27601   2.465   0.956   3.287
 8901SOL    HW127602   2.497   0.932   3.378
 8901SOL    HW227603   2.365   0.959   3.286
 8902SOL     OW27604   2.947   5.977   6.341
 8902SOL    HW127605   3.040   6.009   6.353
 8902SOL    HW227606   2.935   5.941   6.248
 8903SOL     OW27607   2.376   1.399   3.665
 8903SOL    HW127608   2.386   1.300   3.660
 8903SOL    HW227609   2.329   1.424   3.749
 8904SOL     OW27610   0.080   4.838   3.566
 8904SOL    HW127611   0.126   4.903   3.627
 8904SOL    HW227612   7.025   4.802   3.610
 8905SOL     OW27613   2.154   3.451   5.086
 8905SOL    HW127614   2.150   3.529   5.024
 8905SOL    HW227615   2.112   3.371   5.042
 8906SOL     OW27616   6.857   0.377   6.707
 8906SOL    HW127617   6.951   0.345   6.718
 8906SOL    HW227618   6.836   0.386   6.610
 8907SOL     OW27619   3.348   2.254   5.345
 8907SOL    HW127620   3.301   2.203   5.418
 8907SOL    HW227621   3.283   2.318   5.302
 8908SOL     OW27622   1.589   3.067   0.497
 8908SOL    HW127623   1.490   3.081   0.502
 8908SOL    HW227624   1.611   3.008   0.420
 8909SOL     OW27625   2.644   0.588   5.057
 8909SOL    HW127626   2.576   0.624   4.993
 8909SOL    HW227627   2.693   0.512   5.015
 8910SOL     OW27628   2.088   3.104   5.682
 8910SOL    HW127629   2.154   3.156   5.628
 8910SOL    HW227630   2.105   3.006   5.670
 8911SOL     OW27631   3.792   2.052   4.852
 8911SOL    HW127632   3.796   2.041   4.753
 8911SOL    HW227633   3.696   2.060   4.881
 8912SOL     OW27634   4.058   1.494   6.759
 8912SOL    HW127635   4.089   1.541   6.676
 8912SOL    HW227636   4.031   1.401   6.737
 8913SOL     OW27637   5.264   4.295   1.607
 8913SOL    HW127638   5.243   4.271   1.512
 8913SOL    HW227639   5.276   4.394   1.615
 8914SOL     OW27640   4.335   1.532   5.538
 8914SOL    HW127641   4.280   1.498   5.615
 8914SOL    HW227642   4.401   1.599   5.571
 8915SOL     OW27643   1.512   2.567   3.953
 8915SOL    HW127644   1.570   2.503   4.004
 8915SOL    HW227645   1.569   2.625   3.896
 8916SOL     OW27646   0.262   3.465   1.591
 8916SOL    HW127647   0.269   3.517   1.676
 8916SOL    HW227648   0.219   3.376   1.609
 8917SOL     OW27649   6.064   5.083   6.543
 8917SOL    HW127650   6.140   5.143   6.569
 8917SOL    HW227651   6.099   4.991   6.525
 8918SOL     OW27652   6.574   6.043   6.982
 8918SOL    HW127653   6.491   6.098   6.970
 8918SOL    HW227654   6.567   5.961   6.925
 8919SOL     OW27655   4.098   3.717   0.544
 8919SOL    HW127656   4.116   3.771   0.626
 8919SOL    HW227657   4.042   3.637   0.568
 8920SOL     OW27658   6.460   6.029   6.401
 8920SOL    HW127659   6.486   5.936   6.374
 8920SOL    HW227660   6.463   6.088   6.320
 8921SOL     OW27661   1.297   1.379   2.886
 8921SOL    HW127662   1.273   1.285   2.859
 8921SOL    HW227663   1.396   1.387   2.893
 8922SOL     OW27664   2.098   5.214   0.724
 8922SOL    HW127665   2.170   5.170   0.671
 8922SOL    HW227666   2.082   5.306   0.688
 8923SOL     OW27667   2.191   3.902   6.534
 8923SOL    HW127668   2.241   3.840   6.595
 8923SOL    HW227669   2.121   3.852   6.484
 8924SOL     OW27670   3.109   5.580   5.313
 8924SOL    HW127671   3.182   5.647   5.305
 8924SOL    HW227672   3.081   5.573   5.408
 8925SOL     OW27673   0.743   0.605   2.646
 8925SOL    HW127674   0.716   0.515   2.613
 8925SOL    HW227675   0.839   0.603   2.676
 8926SOL     OW27676   5.753   2.339   1.802
 8926SOL    HW127677   5.755   2.371   1.897
 8926SOL    HW227678   5.846   2.317   1.773
 8927SOL     OW27679   2.738   2.289   4.797
 8927SOL    HW127680   2.679   2.361   4.834
 8927SOL    HW227681   2.813   2.271   4.861
 8928SOL     OW27682   6.943   1.318   5.317
 8928SOL    HW127683   6.849   1.295   5.291
 8928SOL    HW227684   7.006   1.278   5.250
 8929SOL     OW27685   6.981   3.349   3.800
 8929SOL    HW127686   6.913   3.398   3.745
 8929SOL    HW227687   0.027   3.313   3.740
 8930SOL     OW27688   1.838   5.259   5.165
 8930SOL    HW127689   1.831   5.359   5.170
 8930SOL    HW227690   1.776   5.225   5.095
 8931SOL     OW27691   4.234   2.659   0.933
 8931SOL    HW127692   4.180   2.576   0.951
 8931SOL    HW227693   4.172   2.736   0.916
 8932SOL     OW27694   5.403   0.015   6.762
 8932SOL    HW127695   5.337   0.073   6.809
 8932SOL    HW227696   5.484   0.069   6.738
 8933SOL     OW27697   0.967   1.448   5.431
 8933SOL    HW127698   0.893   1.459   5.364
 8933SOL    HW227699   0.945   1.499   5.514
 8934SOL     OW27700   3.475   5.163   2.704
 8934SOL    HW127701   3.400   5.211   2.659
 8934SOL    HW227702   3.544   5.229   2.732
 8935SOL     OW27703   4.903   3.333   2.306
 8935SOL    HW127704   4.893   3.275   2.224
 8935SOL    HW227705   4.898   3.275   2.388
 8936SOL     OW27706   0.863   3.343   0.853
 8936SOL    HW127707   0.848   3.273   0.783
 8936SOL    HW227708   0.777   3.365   0.898
 8937SOL     OW27709   0.461   0.737   3.955
 8937SOL    HW127710   0.491   0.736   3.859
 8937SOL    HW227711   0.514   0.670   4.007
 8938SOL     OW27712   6.310   0.751   0.543
 8938SOL    HW127713   6.262   0.831   0.579
 8938SOL    HW227714   6.330   0.687   0.618
 8939SOL     OW27715   6.546   2.941   5.002
 8939SOL    HW127716   6.462   2.971   4.958
 8939SOL    HW227717   6.622   2.947   4.937
 8940SOL     OW27718   6.169   2.612   0.171
 8940SOL    HW127719   6.236   2.568   0.230
 8940SOL    HW227720   6.200   2.705   0.148
 8941SOL     OW27721   5.066   2.182   2.202
 8941SOL    HW127722   5.016   2.215   2.122
 8941SOL    HW227723   5.142   2.125   2.172
 8942SOL     OW27724   6.715   4.568   4.155
 8942SOL    HW127725   6.738   4.665   4.156
 8942SOL    HW227726   6.727   4.531   4.247
 8943SOL     OW27727   4.545   4.421   0.195
 8943SOL    HW127728   4.593   4.404   0.109
 8943SOL    HW227729   4.608   4.410   0.272
 8944SOL     OW27730   4.737   4.598   4.390
 8944SOL    HW127731   4.736   4.695   4.413
 8944SOL    HW227732   4.682   4.547   4.457
 8945SOL     OW27733   6.362   3.280   5.132
 8945SOL    HW127734   6.366   3.194   5.182
 8945SOL    HW227735   6.299   3.270   5.054
 8946SOL     OW27736   4.597   0.564   4.519
 8946SOL    HW127737   4.569   0.488   4.579
 8946SOL    HW227738   4.614   0.529   4.427
 8947SOL     OW27739   1.280   4.620   6.868
 8947SOL    HW127740   1.232   4.565   6.800
 8947SOL    HW227741   1.296   4.712   6.833
 8948SOL     OW27742   6.639   5.963   3.977
 8948SOL    HW127743   6.634   5.942   4.074
 8948SOL    HW227744   6.702   5.899   3.932
 8949SOL     OW27745   3.814   6.258   0.194
 8949SOL    HW127746   3.904   6.216   0.205
 8949SOL    HW227747   3.769   6.265   0.283
 8950SOL     OW27748   4.849   3.971   1.052
 8950SOL    HW127749   4.750   3.983   1.046
 8950SOL    HW227750   4.888   3.969   0.960
 8951SOL     OW27751   2.301   0.939   3.793
 8951SOL    HW127752   2.279   0.880   3.871
 8951SOL    HW227753   2.340   1.024   3.826
 8952SOL     OW27754   2.230   4.588   3.550
 8952SOL    HW127755   2.162   4.523   3.517
 8952SOL    HW227756   2.247   4.658   3.480
 8953SOL     OW27757   2.778   5.294   2.091
 8953SOL    HW127758   2.733   5.292   2.001
 8953SOL    HW227759   2.866   5.341   2.082
 8954SOL     OW27760   0.833   5.846   4.025
 8954SOL    HW127761   0.817   5.750   4.044
 8954SOL    HW227762   0.907   5.855   3.958
 8955SOL     OW27763   6.285   3.005   2.634
 8955SOL    HW127764   6.287   3.044   2.726
 8955SOL    HW227765   6.372   2.959   2.615
 8956SOL     OW27766   0.380   6.768   6.865
 8956SOL    HW127767   0.385   6.844   6.799
 8956SOL    HW227768   0.326   6.796   6.944
 8957SOL     OW27769   1.646   5.575   2.107
 8957SOL    HW127770   1.679   5.663   2.073
 8957SOL    HW227771   1.714   5.535   2.169
 8958SOL     OW27772   1.536   3.147   5.098
 8958SOL    HW127773   1.469   3.221   5.097
 8958SOL    HW227774   1.529   3.096   5.184
 8959SOL     OW27775   0.960   3.556   2.158
 8959SOL    HW127776   0.877   3.607   2.180
 8959SOL    HW227777   1.026   3.617   2.115
 8960SOL     OW27778   6.414   4.033   3.876
 8960SOL    HW127779   6.478   3.990   3.940
 8960SOL    HW227780   6.406   4.130   3.896
 8961SOL     OW27781   3.104   6.965   4.268
 8961SOL    HW127782   3.020   7.017   4.251
 8961SOL    HW227783   3.166   6.975   4.190
 8962SOL     OW27784   1.190   6.045   1.675
 8962SOL    HW127785   1.282   6.030   1.713
 8962SOL    HW227786   1.180   5.989   1.592
 8963SOL     OW27787   3.467   5.564   4.342
 8963SOL    HW127788   3.566   5.560   4.355
 8963SOL    HW227789   3.427   5.474   4.360
 8964SOL     OW27790   5.591   3.868   3.160
 8964SOL    HW127791   5.501   3.871   3.203
 8964SOL    HW227792   5.643   3.791   3.198
 8965SOL     OW27793   3.896   4.623   0.553
 8965SOL    HW127794   3.852   4.551   0.606
 8965SOL    HW227795   3.856   4.712   0.577
 8966SOL     OW27796   6.374   5.248   6.040
 8966SOL    HW127797   6.302   5.293   5.987
 8966SOL    HW227798   6.452   5.310   6.049
 8967SOL     OW27799   3.702   0.978   3.235
 8967SOL    HW127800   3.626   0.987   3.300
 8967SOL    HW227801   3.692   1.046   3.163
 8968SOL     OW27802   2.188   4.587   1.541
 8968SOL    HW127803   2.278   4.605   1.582
 8968SOL    HW227804   2.173   4.489   1.535
 8969SOL     OW27805   0.352   6.857   3.459
 8969SOL    HW127806   0.343   6.833   3.556
 8969SOL    HW227807   0.393   6.947   3.450
 8970SOL     OW27808   1.119   2.098   5.800
 8970SOL    HW127809   1.147   2.003   5.812
 8970SOL    HW227810   1.045   2.102   5.733
 8971SOL     OW27811   4.311   6.651   1.104
 8971SOL    HW127812   4.404   6.677   1.076
 8971SOL    HW227813   4.263   6.610   1.026
 8972SOL     OW27814   5.622   5.345   0.325
 8972SOL    HW127815   5.649   5.306   0.237
 8972SOL    HW227816   5.703   5.357   0.382
 8973SOL     OW27817   0.627   2.674   2.223
 8973SOL    HW127818   0.676   2.715   2.146
 8973SOL    HW227819   0.693   2.646   2.293
 8974SOL     OW27820   2.124   3.988   4.321
 8974SOL    HW127821   2.134   3.900   4.273
 8974SOL    HW227822   2.168   3.982   4.411
 8975SOL     OW27823   0.394   6.957   6.646
 8975SOL    HW127824   0.439   6.917   6.566
 8975SOL    HW227825   0.296   6.966   6.629
 8976SOL     OW27826   5.844   6.072   1.247
 8976SOL    HW127827   5.914   6.083   1.317
 8976SOL    HW227828   5.837   6.156   1.193
 8977SOL     OW27829   6.946   5.176   6.278
 8977SOL    HW127830   6.894   5.257   6.304
 8977SOL    HW227831   6.892   5.094   6.298
 8978SOL     OW27832   6.011   6.055   5.286
 8978SOL    HW127833   6.107   6.074   5.307
 8978SOL    HW227834   6.001   6.041   5.187
 8979SOL     OW27835   0.882   5.395   6.134
 8979SOL    HW127836   0.858   5.410   6.038
 8979SOL    HW227837   0.884   5.297   6.153
 8980SOL     OW27838   4.167   1.990   5.972
 8980SOL    HW127839   4.081   2.005   5.925
 8980SOL    HW227840   4.210   1.906   5.939
 8981SOL     OW27841   4.377   2.035   6.142
 8981SOL    HW127842   4.371   1.998   6.235
 8981SOL    HW227843   4.292   2.017   6.093
 8982SOL     OW27844   6.334   1.056   2.089
 8982SOL    HW127845   6.314   0.987   2.158
 8982SOL    HW227846   6.369   1.012   2.006
 8983SOL     OW27847   1.166   5.105   2.334
 8983SOL    HW127848   1.155   5.042   2.257
 8983SOL    HW227849   1.142   5.059   2.419
 8984SOL     OW27850   6.010   0.287   4.204
 8984SOL    HW127851   6.006   0.307   4.106
 8984SOL    HW227852   5.931   0.232   4.230
 8985SOL     OW27853   4.677   1.864   0.595
 8985SOL    HW127854   4.637   1.780   0.632
 8985SOL    HW227855   4.631   1.888   0.509
 8986SOL     OW27856   5.778   4.366   1.833
 8986SOL    HW127857   5.752   4.292   1.770
 8986SOL    HW227858   5.750   4.454   1.795
 8987SOL     OW27859   2.598   0.345   1.366
 8987SOL    HW127860   2.664   0.414   1.396
 8987SOL    HW227861   2.602   0.266   1.427
 8988SOL     OW27862   2.119   5.804   0.943
 8988SOL    HW127863   2.197   5.743   0.954
 8988SOL    HW227864   2.050   5.761   0.885
 8989SOL     OW27865   5.037   2.733   2.984
 8989SOL    HW127866   5.105   2.672   2.942
 8989SOL    HW227867   5.046   2.729   3.083
 8990SOL     OW27868   3.153   6.077   0.721
 8990SOL    HW127869   3.121   6.034   0.637
 8990SOL    HW227870   3.114   6.169   0.728
 8991SOL     OW27871   2.344   2.765   0.953
 8991SOL    HW127872   2.278   2.838   0.935
 8991SOL    HW227873   2.363   2.715   0.867
 8992SOL     OW27874   0.239   3.207   0.334
 8992SOL    HW127875   0.205   3.277   0.396
 8992SOL    HW227876   0.194   3.120   0.354
 8993SOL     OW27877   5.088   1.911   3.935
 8993SOL    HW127878   4.993   1.882   3.931
 8993SOL    HW227879   5.094   2.009   3.917
 8994SOL     OW27880   1.470   5.568   4.432
 8994SOL    HW127881   1.466   5.490   4.370
 8994SOL    HW227882   1.459   5.653   4.381
 8995SOL     OW27883   1.324   2.763   4.878
 8995SOL    HW127884   1.246   2.728   4.825
 8995SOL    HW227885   1.306   2.858   4.904
 8996SOL     OW27886   0.434   3.723   1.191
 8996SOL    HW127887   0.447   3.678   1.102
 8996SOL    HW227888   0.349   3.690   1.232
 8997SOL     OW27889   5.148   1.049   6.150
 8997SOL    HW127890   5.225   1.034   6.211
 8997SOL    HW227891   5.069   0.997   6.182
 8998SOL     OW27892   1.056   2.599   5.232
 8998SOL    HW127893   1.101   2.605   5.143
 8998SOL    HW227894   0.981   2.664   5.236
 8999SOL     OW27895   4.731   1.572   6.447
 8999SOL    HW127896   4.642   1.536   6.417
 8999SOL    HW227897   4.739   1.562   6.546
 9000SOL     OW27898   3.317   3.869   6.851
 9000SOL    HW127899   3.384   3.843   6.920
 9000SOL    HW227900   3.340   3.826   6.764
 9001SOL     OW27901   1.696   4.799   3.308
 9001SOL    HW127902   1.729   4.885   3.269
 9001SOL    HW227903   1.601   4.809   3.335
 9002SOL     OW27904   6.534   5.029   5.820
 9002SOL    HW127905   6.492   4.993   5.904
 9002SOL    HW227906   6.488   5.114   5.794
 9003SOL     OW27907   6.336   2.450   0.299
 9003SOL    HW127908   6.299   2.357   0.296
 9003SOL    HW227909   6.436   2.447   0.301
 9004SOL     OW27910   5.355   6.599   1.127
 9004SOL    HW127911   5.315   6.644   1.047
 9004SOL    HW227912   5.421   6.530   1.096
 9005SOL     OW27913   4.765   2.083   4.015
 9005SOL    HW127914   4.723   2.041   4.095
 9005SOL    HW227915   4.781   2.012   3.946
 9006SOL     OW27916   1.575   5.387   1.388
 9006SOL    HW127917   1.598   5.449   1.313
 9006SOL    HW227918   1.572   5.293   1.354
 9007SOL     OW27919   2.748   4.994   3.602
 9007SOL    HW127920   2.791   4.905   3.622
 9007SOL    HW227921   2.776   5.025   3.511
 9008SOL     OW27922   6.967   4.338   2.144
 9008SOL    HW127923   6.993   4.264   2.081
 9008SOL    HW227924   6.886   4.385   2.108
 9009SOL     OW27925   2.481   0.240   1.141
 9009SOL    HW127926   2.548   0.299   1.187
 9009SOL    HW227927   2.525   0.153   1.116
 9010SOL     OW27928   0.951   6.708   4.671
 9010SOL    HW127929   0.947   6.681   4.575
 9010SOL    HW227930   1.027   6.661   4.716
 9011SOL     OW27931   4.138   2.057   1.222
 9011SOL    HW127932   4.120   1.978   1.163
 9011SOL    HW227933   4.054   2.110   1.233
 9012SOL     OW27934   1.116   4.766   1.387
 9012SOL    HW127935   1.081   4.787   1.296
 9012SOL    HW227936   1.118   4.667   1.401
 9013SOL     OW27937   6.396   5.972   4.306
 9013SOL    HW127938   6.408   5.885   4.354
 9013SOL    HW227939   6.485   6.004   4.273
 9014SOL     OW27940   1.188   1.448   6.913
 9014SOL    HW127941   1.170   1.447   6.814
 9014SOL    HW227942   1.159   1.536   6.951
 9015SOL     OW27943   0.481   1.119   6.655
 9015SOL    HW127944   0.508   1.120   6.751
 9015SOL    HW227945   0.554   1.159   6.599
 9016SOL     OW27946   6.914   6.439   5.768
 9016SOL    HW127947   6.849   6.436   5.692
 9016SOL    HW227948   6.879   6.386   5.845
 9017SOL     OW27949   5.921   2.069   3.879
 9017SOL    HW127950   5.897   1.974   3.902
 9017SOL    HW227951   5.841   2.127   3.895
 9018SOL     OW27952   3.731   0.645   4.997
 9018SOL    HW127953   3.707   0.694   4.914
 9018SOL    HW227954   3.829   0.622   4.995
 9019SOL     OW27955   2.459   6.544   6.604
 9019SOL    HW127956   2.433   6.539   6.700
 9019SOL    HW227957   2.387   6.591   6.553
 9020SOL     OW27958   1.758   4.298   2.493
 9020SOL    HW127959   1.811   4.318   2.576
 9020SOL    HW227960   1.699   4.375   2.471
 9021SOL     OW27961   0.117   6.057   4.144
 9021SOL    HW127962   0.103   5.997   4.222
 9021SOL    HW227963   0.078   6.014   4.062
 9022SOL     OW27964   2.741   0.388   0.086
 9022SOL    HW127965   2.652   0.371   0.126
 9022SOL    HW227966   2.803   0.423   0.156
 9023SOL     OW27967   3.486   3.206   3.757
 9023SOL    HW127968   3.572   3.229   3.804
 9023SOL    HW227969   3.418   3.276   3.777
 9024SOL     OW27970   1.448   6.096   5.857
 9024SOL    HW127971   1.484   6.043   5.934
 9024SOL    HW227972   1.371   6.047   5.816
 9025SOL     OW27973   6.339   5.160   1.458
 9025SOL    HW127974   6.379   5.068   1.463
 9025SOL    HW227975   6.412   5.228   1.449
 9026SOL     OW27976   3.878   3.012   4.589
 9026SOL    HW127977   3.830   2.955   4.521
 9026SOL    HW227978   3.834   3.002   4.678
 9027SOL     OW27979   2.800   2.248   3.084
 9027SOL    HW127980   2.724   2.312   3.097
 9027SOL    HW227981   2.861   2.252   3.163
 9028SOL     OW27982   2.172   4.300   5.963
 9028SOL    HW127983   2.173   4.200   5.972
 9028SOL    HW227984   2.194   4.342   6.051
 9029SOL     OW27985   4.251   5.042   4.300
 9029SOL    HW127986   4.336   5.003   4.334
 9029SOL    HW227987   4.177   4.977   4.313
 9030SOL     OW27988   2.309   0.950   2.558
 9030SOL    HW127989   2.287   0.984   2.649
 9030SOL    HW227990   2.311   1.026   2.493
 9031SOL     OW27991   2.766   6.155   5.808
 9031SOL    HW127992   2.825   6.184   5.882
 9031SOL    HW227993   2.795   6.197   5.723
 9032SOL     OW27994   2.721   2.512   1.411
 9032SOL    HW127995   2.745   2.516   1.508
 9032SOL    HW227996   2.707   2.605   1.376
 9033SOL     OW27997   2.107   3.680   4.517
 9033SOL    HW127998   2.150   3.693   4.427
 9033SOL    HW227999   2.014   3.648   4.504
 9034SOL     OW28000   3.208   6.870   5.030
 9034SOL    HW128001   3.154   6.849   4.949
 9034SOL    HW228002   3.189   6.963   5.060
 9035SOL     OW28003   6.905   0.054   4.899
 9035SOL    HW128004   6.836   0.070   4.970
 9035SOL    HW228005   6.876   0.098   4.814
 9036SOL     OW28006   1.844   2.378   5.171
 9036SOL    HW128007   1.886   2.441   5.236
 9036SOL    HW228008   1.789   2.430   5.105
 9037SOL     OW28009   2.404   3.809   6.012
 9037SOL    HW128010   2.436   3.744   5.944
 9037SOL    HW228011   2.327   3.770   6.063
 9038SOL     OW28012   5.084   0.517   6.071
 9038SOL    HW128013   5.161   0.460   6.100
 9038SOL    HW228014   5.108   0.563   5.985
 9039SOL     OW28015   1.637   4.518   5.469
 9039SOL    HW128016   1.604   4.597   5.418
 9039SOL    HW228017   1.601   4.520   5.562
 9040SOL     OW28018   3.234   1.143   2.467
 9040SOL    HW128019   3.159   1.135   2.402
 9040SOL    HW228020   3.206   1.103   2.555
 9041SOL     OW28021   0.562   1.916   1.919
 9041SOL    HW128022   0.565   1.981   1.995
 9041SOL    HW228023   0.470   1.878   1.911
 9042SOL     OW28024   2.367   5.936   3.139
 9042SOL    HW128025   2.372   5.840   3.166
 9042SOL    HW228026   2.382   5.944   3.040
 9043SOL     OW28027   1.346   2.419   6.035
 9043SOL    HW128028   1.348   2.341   5.972
 9043SOL    HW228029   1.365   2.503   5.985
 9044SOL     OW28030   5.955   0.578   0.846
 9044SOL    HW128031   6.049   0.611   0.837
 9044SOL    HW228032   5.918   0.559   0.755
 9045SOL     OW28033   3.629   0.303   3.330
 9045SOL    HW128034   3.669   0.375   3.386
 9045SOL    HW228035   3.544   0.336   3.289
 9046SOL     OW28036   3.564   4.473   5.370
 9046SOL    HW128037   3.505   4.543   5.330
 9046SOL    HW228038   3.548   4.386   5.323
 9047SOL     OW28039   1.789   4.390   5.308
 9047SOL    HW128040   1.719   4.438   5.360
 9047SOL    HW228041   1.753   4.303   5.275
 9048SOL     OW28042   1.228   3.964   5.655
 9048SOL    HW128043   1.184   4.016   5.582
 9048SOL    HW228044   1.325   3.991   5.661
 9049SOL     OW28045   5.092   6.260   6.258
 9049SOL    HW128046   5.100   6.251   6.358
 9049SOL    HW228047   5.032   6.187   6.223
 9050SOL     OW28048   0.615   5.171   0.002
 9050SOL    HW128049   0.614   5.096   0.068
 9050SOL    HW228050   0.584   5.255   0.047
 9051SOL     OW28051   4.495   6.420   0.844
 9051SOL    HW128052   4.461   6.504   0.800
 9051SOL    HW228053   4.428   6.347   0.832
 9052SOL     OW28054   2.718   4.858   4.650
 9052SOL    HW128055   2.698   4.787   4.718
 9052SOL    HW228056   2.641   4.921   4.644
 9053SOL     OW28057   2.184   2.840   3.766
 9053SOL    HW128058   2.250   2.820   3.694
 9053SOL    HW228059   2.206   2.786   3.848
 9054SOL     OW28060   1.751   0.483   1.781
 9054SOL    HW128061   1.809   0.564   1.792
 9054SOL    HW228062   1.679   0.484   1.849
 9055SOL     OW28063   0.535   3.091   3.758
 9055SOL    HW128064   0.570   3.150   3.831
 9055SOL    HW228065   0.535   2.996   3.790
 9056SOL     OW28066   5.736   0.377   1.837
 9056SOL    HW128067   5.690   0.327   1.911
 9056SOL    HW228068   5.667   0.413   1.773
 9057SOL     OW28069   5.781   5.058   0.063
 9057SOL    HW128070   5.863   5.057   0.120
 9057SOL    HW228071   5.786   4.984   7.022
 9058SOL     OW28072   1.966   2.324   4.341
 9058SOL    HW128073   1.946   2.282   4.429
 9058SOL    HW228074   1.981   2.422   4.353
 9059SOL     OW28075   6.114   1.389   3.332
 9059SOL    HW128076   6.036   1.326   3.333
 9059SOL    HW228077   6.159   1.384   3.243
 9060SOL     OW28078   6.473   3.381   2.022
 9060SOL    HW128079   6.543   3.411   1.956
 9060SOL    HW228080   6.401   3.451   2.028
 9061SOL     OW28081   4.769   5.451   3.324
 9061SOL    HW128082   4.705   5.496   3.387
 9061SOL    HW228083   4.859   5.447   3.366
 9062SOL     OW28084   1.199   4.849   2.146
 9062SOL    HW128085   1.187   4.834   2.047
 9062SOL    HW228086   1.293   4.827   2.172
 9063SOL     OW28087   2.811   1.811   2.536
 9063SOL    HW128088   2.746   1.789   2.609
 9063SOL    HW228089   2.862   1.729   2.511
 9064SOL     OW28090   6.515   4.321   3.795
 9064SOL    HW128091   6.416   4.333   3.802
 9064SOL    HW228092   6.561   4.408   3.811
 9065SOL     OW28093   2.693   6.214   5.041
 9065SOL    HW128094   2.729   6.265   5.119
 9065SOL    HW228095   2.599   6.244   5.022
 9066SOL     OW28096   6.703   6.646   6.393
 9066SOL    HW128097   6.788   6.661   6.341
 9066SOL    HW228098   6.674   6.551   6.382
 9067SOL     OW28099   6.587   6.266   4.553
 9067SOL    HW128100   6.653   6.294   4.623
 9067SOL    HW228101   6.635   6.237   4.471
 9068SOL     OW28102   4.442   0.184   5.140
 9068SOL    HW128103   4.386   0.108   5.107
 9068SOL    HW228104   4.384   0.258   5.172
 9069SOL     OW28105   5.001   2.681   2.025
 9069SOL    HW128106   5.077   2.738   1.995
 9069SOL    HW228107   4.932   2.739   2.069
 9070SOL     OW28108   1.644   2.219   6.160
 9070SOL    HW128109   1.712   2.293   6.159
 9070SOL    HW228110   1.557   2.254   6.196
 9071SOL     OW28111   4.622   1.093   5.959
 9071SOL    HW128112   4.720   1.108   5.968
 9071SOL    HW228113   4.576   1.181   5.948
 9072SOL     OW28114   5.205   6.724   1.937
 9072SOL    HW128115   5.205   6.625   1.950
 9072SOL    HW228116   5.268   6.766   2.002
 9073SOL     OW28117   4.344   6.961   0.355
 9073SOL    HW128118   4.269   6.902   0.386
 9073SOL    HW228119   4.411   6.905   0.306
 9074SOL     OW28120   1.714   0.625   1.293
 9074SOL    HW128121   1.631   0.666   1.256
 9074SOL    HW228122   1.693   0.535   1.332
 9075SOL     OW28123   0.057   0.729   2.542
 9075SOL    HW128124   0.138   0.671   2.548
 9075SOL    HW228125   7.022   0.694   2.471
 9076SOL     OW28126   4.786   1.452   3.879
 9076SOL    HW128127   4.731   1.534   3.864
 9076SOL    HW228128   4.863   1.475   3.939
 9077SOL     OW28129   4.976   1.527   6.245
 9077SOL    HW128130   4.891   1.531   6.297
 9077SOL    HW228131   5.041   1.468   6.292
 9078SOL     OW28132   5.579   5.213   5.903
 9078SOL    HW128133   5.621   5.255   5.983
 9078SOL    HW228134   5.479   5.218   5.912
 9079SOL     OW28135   1.435   0.364   5.034
 9079SOL    HW128136   1.362   0.304   5.001
 9079SOL    HW228137   1.406   0.459   5.026
 9080SOL     OW28138   5.983   3.005   0.067
 9080SOL    HW128139   5.936   3.062   7.026
 9080SOL    HW228140   6.067   3.051   0.096
 9081SOL     OW28141   3.926   1.816   1.379
 9081SOL    HW128142   3.876   1.731   1.395
 9081SOL    HW228143   3.901   1.853   1.289
 9082SOL     OW28144   2.546   6.593   5.268
 9082SOL    HW128145   2.515   6.608   5.174
 9082SOL    HW228146   2.620   6.526   5.268
 9083SOL     OW28147   4.777   4.439   6.459
 9083SOL    HW128148   4.777   4.518   6.520
 9083SOL    HW228149   4.769   4.469   6.364
 9084SOL     OW28150   0.445   2.306   5.686
 9084SOL    HW128151   0.357   2.311   5.638
 9084SOL    HW228152   0.429   2.305   5.785
 9085SOL     OW28153   2.894   5.463   0.983
 9085SOL    HW128154   2.888   5.563   0.984
 9085SOL    HW228155   2.981   5.434   1.024
 9086SOL     OW28156   6.030   4.270   1.044
 9086SOL    HW128157   5.981   4.356   1.032
 9086SOL    HW228158   5.973   4.194   1.013
 9087SOL     OW28159   5.755   3.172   2.904
 9087SOL    HW128160   5.830   3.237   2.918
 9087SOL    HW228161   5.687   3.214   2.843
 9088SOL     OW28162   5.792   6.668   2.042
 9088SOL    HW128163   5.857   6.623   1.980
 9088SOL    HW228164   5.837   6.747   2.085
 9089SOL     OW28165   4.420   5.448   4.455
 9089SOL    HW128166   4.494   5.381   4.454
 9089SOL    HW228167   4.333   5.402   4.437
 9090SOL     OW28168   5.249   5.971   4.950
 9090SOL    HW128169   5.210   5.912   4.879
 9090SOL    HW228170   5.330   5.926   4.989
 9091SOL     OW28171   3.113   2.745   0.341
 9091SOL    HW128172   3.157   2.659   0.314
 9091SOL    HW228173   3.043   2.727   0.410
 9092SOL     OW28174   1.557   0.449   6.227
 9092SOL    HW128175   1.600   0.454   6.137
 9092SOL    HW228176   1.626   0.464   6.298
 9093SOL     OW28177   1.651   6.168   6.882
 9093SOL    HW128178   1.679   6.156   6.787
 9093SOL    HW228179   1.563   6.123   6.897
 9094SOL     OW28180   0.500   5.693   2.760
 9094SOL    HW128181   0.579   5.706   2.701
 9094SOL    HW228182   0.418   5.724   2.713
 9095SOL     OW28183   5.560   3.890   6.618
 9095SOL    HW128184   5.493   3.964   6.625
 9095SOL    HW228185   5.597   3.886   6.525
 9096SOL     OW28186   5.219   3.198   2.495
 9096SOL    HW128187   5.192   3.153   2.410
 9096SOL    HW228188   5.314   3.175   2.515
 9097SOL     OW28189   6.936   3.446   0.038
 9097SOL    HW128190   6.963   3.362   0.085
 9097SOL    HW228191   7.003   3.468   6.993
 9098SOL     OW28192   3.644   3.176   0.878
 9098SOL    HW128193   3.673   3.264   0.915
 9098SOL    HW228194   3.608   3.119   0.952
 9099SOL     OW28195   3.252   3.389   0.651
 9099SOL    HW128196   3.298   3.303   0.633
 9099SOL    HW228197   3.153   3.375   0.655
 9100SOL     OW28198   0.838   2.071   2.272
 9100SOL    HW128199   0.819   2.022   2.357
 9100SOL    HW228200   0.757   2.068   2.213
 9101SOL     OW28201   1.930   3.053   2.636
 9101SOL    HW128202   1.888   3.035   2.725
 9101SOL    HW228203   1.934   3.152   2.621
 9102SOL     OW28204   3.612   6.285   1.887
 9102SOL    HW128205   3.630   6.195   1.847
 9102SOL    HW228206   3.640   6.285   1.983
 9103SOL     OW28207   6.929   3.623   0.269
 9103SOL    HW128208   6.961   3.568   0.192
 9103SOL    HW228209   7.001   3.687   0.295
 9104SOL     OW28210   3.842   6.161   2.042
 9104SOL    HW128211   3.805   6.092   2.105
 9104SOL    HW228212   3.906   6.118   1.979
 9105SOL     OW28213   1.550   0.594   0.170
 9105SOL    HW128214   1.483   0.663   0.144
 9105SOL    HW228215   1.555   0.524   0.099
 9106SOL     OW28216   5.542   3.766   0.002
 9106SOL    HW128217   5.594   3.688   0.037
 9106SOL    HW228218   5.598   3.849   0.008
 9107SOL     OW28219   4.236   0.321   6.223
 9107SOL    HW128220   4.250   0.362   6.133
 9107SOL    HW228221   4.172   0.377   6.276
 9108SOL     OW28222   4.740   4.588   5.900
 9108SOL    HW128223   4.770   4.574   5.994
 9108SOL    HW228224   4.663   4.652   5.898
 9109SOL     OW28225   1.405   2.444   2.675
 9109SOL    HW128226   1.438   2.538   2.683
 9109SOL    HW228227   1.390   2.421   2.579
 9110SOL     OW28228   1.937   4.394   4.057
 9110SOL    HW128229   1.961   4.371   4.151
 9110SOL    HW228230   2.018   4.382   3.998
 9111SOL     OW28231   4.538   3.347   0.289
 9111SOL    HW128232   4.597   3.353   0.208
 9111SOL    HW228233   4.526   3.438   0.328
 9112SOL     OW28234   0.015   4.470   4.817
 9112SOL    HW128235   0.113   4.453   4.817
 9112SOL    HW228236   7.023   4.567   4.835
 9113SOL     OW28237   4.344   6.611   0.690
 9113SOL    HW128238   4.281   6.592   0.765
 9113SOL    HW228239   4.310   6.568   0.606
 9114SOL     OW28240   1.648   5.145   2.074
 9114SOL    HW128241   1.716   5.178   2.010
 9114SOL    HW228242   1.571   5.105   2.024
 9115SOL     OW28243   0.931   5.748   5.211
 9115SOL    HW128244   0.902   5.832   5.256
 9115SOL    HW228245   0.976   5.688   5.277
 9116SOL     OW28246   6.374   2.104   0.676
 9116SOL    HW128247   6.338   2.058   0.758
 9116SOL    HW228248   6.469   2.078   0.662
 9117SOL     OW28249   5.567   2.807   6.925
 9117SOL    HW128250   5.622   2.886   6.898
 9117SOL    HW228251   5.617   2.723   6.903
 9118SOL     OW28252   6.477   5.811   0.570
 9118SOL    HW128253   6.559   5.796   0.626
 9118SOL    HW228254   6.435   5.724   0.546
 9119SOL     OW28255   5.297   1.355   2.617
 9119SOL    HW128256   5.224   1.335   2.682
 9119SOL    HW228257   5.298   1.454   2.599
 9120SOL     OW28258   5.523   3.073   5.775
 9120SOL    HW128259   5.433   3.031   5.786
 9120SOL    HW228260   5.530   3.113   5.684
 9121SOL     OW28261   1.155   2.561   6.775
 9121SOL    HW128262   1.118   2.633   6.716
 9121SOL    HW228263   1.248   2.539   6.746
 9122SOL     OW28264   1.893   3.123   1.880
 9122SOL    HW128265   1.963   3.176   1.929
 9122SOL    HW228266   1.865   3.173   1.798
 9123SOL     OW28267   3.984   0.310   4.554
 9123SOL    HW128268   4.052   0.325   4.626
 9123SOL    HW228269   3.928   0.392   4.543
 9124SOL     OW28270   5.749   6.779   5.619
 9124SOL    HW128271   5.800   6.776   5.533
 9124SOL    HW228272   5.749   6.689   5.661
 9125SOL     OW28273   4.940   3.580   2.471
 9125SOL    HW128274   4.963   3.666   2.425
 9125SOL    HW228275   4.856   3.542   2.431
 9126SOL     OW28276   5.685   2.403   2.188
 9126SOL    HW128277   5.734   2.324   2.152
 9126SOL    HW228278   5.728   2.487   2.154
 9127SOL     OW28279   6.078   0.921   5.715
 9127SOL    HW128280   5.996   0.893   5.765
 9127SOL    HW228281   6.137   0.973   5.776
 9128SOL     OW28282   4.006   1.655   5.131
 9128SOL    HW128283   4.008   1.575   5.191
 9128SOL    HW228284   4.095   1.699   5.131
 9129SOL     OW28285   0.987   2.837   1.423
 9129SOL    HW128286   1.051   2.851   1.347
 9129SOL    HW228287   0.982   2.739   1.444
 9130SOL     OW28288   6.776   3.316   0.481
 9130SOL    HW128289   6.787   3.231   0.430
 9130SOL    HW228290   6.707   3.374   0.435
 9131SOL     OW28291   0.368   3.609   6.047
 9131SOL    HW128292   0.450   3.611   5.991
 9131SOL    HW228293   0.369   3.527   6.104
 9132SOL     OW28294   0.387   4.877   4.718
 9132SOL    HW128295   0.345   4.861   4.629
 9132SOL    HW228296   0.487   4.880   4.708
 9133SOL     OW28297   3.014   6.073   1.500
 9133SOL    HW128298   3.075   6.095   1.577
 9133SOL    HW228299   3.066   6.027   1.429
 9134SOL     OW28300   3.740   5.994   0.037
 9134SOL    HW128301   3.811   5.994   6.993
 9134SOL    HW228302   3.748   6.077   0.093
 9135SOL     OW28303   6.529   6.222   2.110
 9135SOL    HW128304   6.626   6.219   2.087
 9135SOL    HW228305   6.501   6.134   2.148
 9136SOL     OW28306   5.378   5.059   5.399
 9136SOL    HW128307   5.460   5.116   5.400
 9136SOL    HW228308   5.311   5.097   5.335
 9137SOL     OW28309   5.095   2.054   1.316
 9137SOL    HW128310   4.997   2.050   1.294
 9137SOL    HW228311   5.142   1.979   1.270
 9138SOL     OW28312   6.380   5.245   5.706
 9138SOL    HW128313   6.301   5.188   5.684
 9138SOL    HW228314   6.410   5.293   5.623
 9139SOL     OW28315   2.388   1.799   4.542
 9139SOL    HW128316   2.430   1.718   4.501
 9139SOL    HW228317   2.455   1.844   4.602
 9140SOL     OW28318   6.075   3.147   2.568
 9140SOL    HW128319   6.158   3.103   2.601
 9140SOL    HW228320   6.001   3.080   2.563
 9141SOL     OW28321   5.676   0.600   6.482
 9141SOL    HW128322   5.660   0.502   6.494
 9141SOL    HW228323   5.610   0.637   6.416
 9142SOL     OW28324   0.632   2.289   0.530
 9142SOL    HW128325   0.552   2.342   0.559
 9142SOL    HW228326   0.620   2.193   0.557
 9143SOL     OW28327   5.220   3.202   1.331
 9143SOL    HW128328   5.315   3.196   1.300
 9143SOL    HW228329   5.201   3.126   1.393
 9144SOL     OW28330   2.668   5.577   5.431
 9144SOL    HW128331   2.581   5.604   5.392
 9144SOL    HW228332   2.714   5.513   5.369
 9145SOL     OW28333   6.419   5.215   0.131
 9145SOL    HW128334   6.486   5.274   0.087
 9145SOL    HW228335   6.411   5.238   0.228
 9146SOL     OW28336   5.227   2.607   2.805
 9146SOL    HW128337   5.290   2.532   2.826
 9146SOL    HW228338   5.144   2.569   2.763
 9147SOL     OW28339   5.827   0.365   3.924
 9147SOL    HW128340   5.916   0.400   3.950
 9147SOL    HW228341   5.838   0.289   3.860
 9148SOL     OW28342   4.897   6.528   0.627
 9148SOL    HW128343   4.799   6.546   0.622
 9148SOL    HW228344   4.941   6.557   0.542
 9149SOL     OW28345   5.136   3.288   3.477
 9149SOL    HW128346   5.169   3.211   3.423
 9149SOL    HW228347   5.212   3.330   3.527
 9150SOL     OW28348   3.239   5.305   2.608
 9150SOL    HW128349   3.235   5.380   2.542
 9150SOL    HW228350   3.156   5.249   2.601
 9151SOL     OW28351   1.384   4.609   3.832
 9151SOL    HW128352   1.391   4.667   3.751
 9151SOL    HW228353   1.423   4.657   3.911
 9152SOL     OW28354   2.291   4.686   5.017
 9152SOL    HW128355   2.253   4.692   5.109
 9152SOL    HW228356   2.381   4.730   5.015
 9153SOL     OW28357   1.242   2.915   1.002
 9153SOL    HW128358   1.227   2.822   1.035
 9153SOL    HW228359   1.270   2.973   1.078
 9154SOL     OW28360   4.606   5.063   6.232
 9154SOL    HW128361   4.616   5.006   6.314
 9154SOL    HW228362   4.677   5.134   6.233
 9155SOL     OW28363   1.244   3.074   1.449
 9155SOL    HW128364   1.150   3.106   1.437
 9155SOL    HW228365   1.286   3.060   1.359
 9156SOL     OW28366   1.605   2.628   0.756
 9156SOL    HW128367   1.517   2.655   0.717
 9156SOL    HW228368   1.617   2.671   0.845
 9157SOL     OW28369   6.321   4.472   6.487
 9157SOL    HW128370   6.242   4.445   6.543
 9157SOL    HW228371   6.403   4.427   6.521
 9158SOL     OW28372   5.678   3.622   4.272
 9158SOL    HW128373   5.595   3.577   4.306
 9158SOL    HW228374   5.657   3.669   4.186
 9159SOL     OW28375   1.553   0.016   2.565
 9159SOL    HW128376   1.582   6.959   2.518
 9159SOL    HW228377   1.610   0.093   2.534
 9160SOL     OW28378   6.264   0.410   4.918
 9160SOL    HW128379   6.191   0.373   4.860
 9160SOL    HW228380   6.333   0.454   4.860
 9161SOL     OW28381   4.612   4.491   4.985
 9161SOL    HW128382   4.602   4.400   4.945
 9161SOL    HW228383   4.523   4.537   4.985
 9162SOL     OW28384   4.888   0.819   4.570
 9162SOL    HW128385   4.818   0.789   4.636
 9162SOL    HW228386   4.844   0.844   4.484
 9163SOL     OW28387   2.085   3.196   4.401
 9163SOL    HW128388   2.045   3.105   4.400
 9163SOL    HW228389   2.137   3.209   4.485
 9164SOL     OW28390   2.570   1.062   6.787
 9164SOL    HW128391   2.510   1.132   6.748
 9164SOL    HW228392   2.661   1.070   6.746
 9165SOL     OW28393   5.777   2.012   5.179
 9165SOL    HW128394   5.862   2.030   5.228
 9165SOL    HW228395   5.703   2.064   5.221
 9166SOL     OW28396   3.939   6.374   0.868
 9166SOL    HW128397   3.859   6.330   0.907
 9166SOL    HW228398   3.944   6.354   0.770
 9167SOL     OW28399   2.174   2.840   6.878
 9167SOL    HW128400   2.194   2.934   6.851
 9167SOL    HW228401   2.131   2.792   6.801
 9168SOL     OW28402   0.320   0.259   6.596
 9168SOL    HW128403   0.393   0.257   6.664
 9168SOL    HW228404   0.351   0.310   6.516
 9169SOL     OW28405   6.192   1.585   5.065
 9169SOL    HW128406   6.287   1.579   5.098
 9169SOL    HW228407   6.180   1.520   4.990
 9170SOL     OW28408   1.343   5.245   0.128
 9170SOL    HW128409   1.319   5.340   0.150
 9170SOL    HW228410   1.435   5.243   0.090
 9171SOL     OW28411   3.926   5.416   0.702
 9171SOL    HW128412   3.988   5.351   0.746
 9171SOL    HW228413   3.952   5.428   0.607
 9172SOL     OW28414   3.274   0.549   4.259
 9172SOL    HW128415   3.289   0.625   4.195
 9172SOL    HW228416   3.320   0.570   4.345
 9173SOL     OW28417   6.520   3.661   4.833
 9173SOL    HW128418   6.479   3.571   4.817
 9173SOL    HW228419   6.576   3.656   4.916
 9174SOL     OW28420   5.585   3.850   1.766
 9174SOL    HW128421   5.559   3.754   1.759
 9174SOL    HW228422   5.614   3.883   1.676
 9175SOL     OW28423   0.390   6.981   4.567
 9175SOL    HW128424   0.365   6.974   4.471
 9175SOL    HW228425   0.488   6.965   4.577
 9176SOL     OW28426   2.865   1.258   5.326
 9176SOL    HW128427   2.950   1.257   5.379
 9176SOL    HW228428   2.863   1.179   5.264
 9177SOL     OW28429   0.581   5.017   5.027
 9177SOL    HW128430   0.501   5.076   5.017
 9177SOL    HW228431   0.590   4.959   4.946
 9178SOL     OW28432   1.883   5.563   0.507
 9178SOL    HW128433   1.853   5.561   0.412
 9178SOL    HW228434   1.901   5.657   0.535
 9179SOL     OW28435   3.068   5.304   4.698
 9179SOL    HW128436   3.004   5.228   4.712
 9179SOL    HW228437   3.021   5.391   4.714
 9180SOL     OW28438   6.285   2.421   2.904
 9180SOL    HW128439   6.361   2.485   2.903
 9180SOL    HW228440   6.235   2.427   2.817
 9181SOL     OW28441   4.251   1.945   4.914
 9181SOL    HW128442   4.219   2.024   4.965
 9181SOL    HW228443   4.281   1.874   4.977
 9182SOL     OW28444   2.245   6.945   2.304
 9182SOL    HW128445   2.295   6.963   2.219
 9182SOL    HW228446   2.297   6.882   2.361
 9183SOL     OW28447   4.755   5.751   0.833
 9183SOL    HW128448   4.806   5.798   0.761
 9183SOL    HW228449   4.702   5.818   0.885
 9184SOL     OW28450   4.820   1.574   0.701
 9184SOL    HW128451   4.841   1.478   0.718
 9184SOL    HW228452   4.797   1.587   0.604
 9185SOL     OW28453   4.370   6.741   4.481
 9185SOL    HW128454   4.289   6.790   4.449
 9185SOL    HW228455   4.350   6.700   4.570
 9186SOL     OW28456   5.989   6.331   4.478
 9186SOL    HW128457   6.019   6.345   4.384
 9186SOL    HW228458   6.048   6.263   4.522
 9187SOL     OW28459   2.782   1.559   0.673
 9187SOL    HW128460   2.822   1.527   0.759
 9187SOL    HW228461   2.692   1.517   0.661
 9188SOL     OW28462   1.265   6.852   1.398
 9188SOL    HW128463   1.252   6.950   1.414
 9188SOL    HW228464   1.325   6.815   1.468
 9189SOL     OW28465   4.631   6.132   1.664
 9189SOL    HW128466   4.711   6.189   1.679
 9189SOL    HW228467   4.601   6.140   1.568
 9190SOL     OW28468   2.724   4.644   6.214
 9190SOL    HW128469   2.691   4.570   6.274
 9190SOL    HW228470   2.718   4.731   6.262
 9191SOL     OW28471   6.794   2.536   5.399
 9191SOL    HW128472   6.882   2.529   5.352
 9191SOL    HW228473   6.747   2.448   5.394
 9192SOL     OW28474   0.753   3.498   6.227
 9192SOL    HW128475   0.691   3.576   6.215
 9192SOL    HW228476   0.755   3.445   6.142
 9193SOL     OW28477   4.843   4.323   6.816
 9193SOL    HW128478   4.854   4.407   6.762
 9193SOL    HW228479   4.928   4.304   6.865
 9194SOL     OW28480   3.036   0.454   3.630
 9194SOL    HW128481   2.996   0.385   3.569
 9194SOL    HW228482   3.036   0.543   3.583
 9195SOL     OW28483   1.777   1.447   3.658
 9195SOL    HW128484   1.770   1.491   3.747
 9195SOL    HW228485   1.780   1.516   3.586
 9196SOL     OW28486   4.738   6.842   2.728
 9196SOL    HW128487   4.750   6.929   2.776
 9196SOL    HW228488   4.761   6.767   2.790
 9197SOL     OW28489   1.783   5.219   1.865
 9197SOL    HW128490   1.878   5.187   1.859
 9197SOL    HW228491   1.752   5.246   1.774
 9198SOL     OW28492   6.652   4.798   6.886
 9198SOL    HW128493   6.575   4.818   6.947
 9198SOL    HW228494   6.641   4.849   6.800
 9199SOL     OW28495   1.001   4.471   6.107
 9199SOL    HW128496   0.943   4.437   6.181
 9199SOL    HW228497   1.088   4.503   6.145
 9200SOL     OW28498   2.644   6.697   6.940
 9200SOL    HW128499   2.717   6.728   6.880
 9200SOL    HW228500   2.624   6.769   7.007
 9201SOL     OW28501   0.403   2.394   0.645
 9201SOL    HW128502   0.344   2.320   0.674
 9201SOL    HW228503   0.455   2.429   0.723
 9202SOL     OW28504   1.146   6.881   2.295
 9202SOL    HW128505   1.187   6.834   2.218
 9202SOL    HW228506   1.051   6.850   2.307
 9203SOL     OW28507   0.898   3.912   6.747
 9203SOL    HW128508   0.979   3.942   6.698
 9203SOL    HW228509   0.854   3.837   6.697
 9204SOL     OW28510   4.860   2.852   6.023
 9204SOL    HW128511   4.795   2.811   6.087
 9204SOL    HW228512   4.813   2.918   5.965
 9205SOL     OW28513   6.232   4.682   3.053
 9205SOL    HW128514   6.260   4.623   3.129
 9205SOL    HW228515   6.238   4.778   3.080
 9206SOL     OW28516   3.803   5.611   2.815
 9206SOL    HW128517   3.901   5.606   2.835
 9206SOL    HW228518   3.788   5.665   2.733
 9207SOL     OW28519   5.222   4.267   6.093
 9207SOL    HW128520   5.155   4.260   6.167
 9207SOL    HW228521   5.176   4.277   6.006
 9208SOL     OW28522   5.791   4.410   3.784
 9208SOL    HW128523   5.814   4.503   3.810
 9208SOL    HW228524   5.734   4.411   3.702
 9209SOL     OW28525   3.965   0.629   6.874
 9209SOL    HW128526   4.007   0.539   6.880
 9209SOL    HW228527   3.996   0.675   6.790
 9210SOL     OW28528   0.124   0.824   2.808
 9210SOL    HW128529   0.215   0.786   2.826
 9210SOL    HW228530   0.105   0.819   2.710
 9211SOL     OW28531   0.489   2.314   5.966
 9211SOL    HW128532   0.466   2.280   6.057
 9211SOL    HW228533   0.575   2.365   5.971
 9212SOL     OW28534   5.458   5.479   4.092
 9212SOL    HW128535   5.502   5.390   4.085
 9212SOL    HW228536   5.527   5.549   4.110
 9213SOL     OW28537   5.043   3.552   5.728
 9213SOL    HW128538   4.977   3.495   5.678
 9213SOL    HW228539   5.132   3.506   5.729
 9214SOL     OW28540   6.681   3.459   6.774
 9214SOL    HW128541   6.687   3.447   6.873
 9214SOL    HW228542   6.738   3.536   6.746
 9215SOL     OW28543   1.085   2.333   1.407
 9215SOL    HW128544   1.033   2.407   1.451
 9215SOL    HW228545   1.024   2.281   1.347
 9216SOL     OW28546   2.931   0.461   2.252
 9216SOL    HW128547   2.844   0.425   2.217
 9216SOL    HW228548   2.983   0.387   2.295
 9217SOL     OW28549   0.616   2.528   0.104
 9217SOL    HW128550   0.538   2.556   0.048
 9217SOL    HW228551   0.594   2.443   0.151
 9218SOL     OW28552   2.131   0.042   0.368
 9218SOL    HW128553   2.192   0.110   0.409
 9218SOL    HW228554   2.056   0.088   0.321
 9219SOL     OW28555   6.426   2.980   1.308
 9219SOL    HW128556   6.405   2.977   1.211
 9219SOL    HW228557   6.420   2.888   1.347
 9220SOL     OW28558   1.437   6.572   1.508
 9220SOL    HW128559   1.429   6.475   1.487
 9220SOL    HW228560   1.498   6.616   1.442
 9221SOL     OW28561   3.294   0.751   3.335
 9221SOL    HW128562   3.228   0.680   3.308
 9221SOL    HW228563   3.284   0.769   3.432
 9222SOL     OW28564   1.760   6.907   6.211
 9222SOL    HW128565   1.798   6.819   6.184
 9222SOL    HW228566   1.834   6.967   6.241
 9223SOL     OW28567   0.899   1.082   4.042
 9223SOL    HW128568   0.955   1.112   3.965
 9223SOL    HW228569   0.825   1.147   4.056
 9224SOL     OW28570   1.562   4.677   5.221
 9224SOL    HW128571   1.490   4.732   5.263
 9224SOL    HW228572   1.524   4.622   5.147
 9225SOL     OW28573   3.087   6.491   5.708
 9225SOL    HW128574   2.993   6.468   5.731
 9225SOL    HW228575   3.148   6.416   5.734
 9226SOL     OW28576   6.062   6.580   1.112
 9226SOL    HW128577   6.100   6.596   1.021
 9226SOL    HW228578   5.995   6.652   1.133
 9227SOL     OW28579   0.758   5.337   0.466
 9227SOL    HW128580   0.760   5.412   0.533
 9227SOL    HW228581   0.802   5.367   0.381
 9228SOL     OW28582   1.425   1.509   5.248
 9228SOL    HW128583   1.344   1.488   5.304
 9228SOL    HW228584   1.424   1.606   5.224
 9229SOL     OW28585   0.736   5.877   4.820
 9229SOL    HW128586   0.708   5.947   4.885
 9229SOL    HW228587   0.829   5.895   4.789
 9230SOL     OW28588   4.489   1.552   3.571
 9230SOL    HW128589   4.453   1.642   3.546
 9230SOL    HW228590   4.487   1.492   3.491
 9231SOL     OW28591   0.459   4.233   4.550
 9231SOL    HW128592   0.521   4.158   4.573
 9231SOL    HW228593   0.511   4.317   4.540
 9232SOL     OW28594   3.681   5.056   0.255
 9232SOL    HW128595   3.708   5.046   0.159
 9232SOL    HW228596   3.585   5.029   0.266
 9233SOL     OW28597   5.701   5.351   1.857
 9233SOL    HW128598   5.787   5.342   1.806
 9233SOL    HW228599   5.634   5.399   1.800
 9234SOL     OW28600   3.716   5.836   5.819
 9234SOL    HW128601   3.787   5.775   5.784
 9234SOL    HW228602   3.736   5.930   5.792
 9235SOL     OW28603   1.797   3.279   3.229
 9235SOL    HW128604   1.870   3.219   3.262
 9235SOL    HW228605   1.836   3.358   3.183
 9236SOL     OW28606   2.628   4.254   5.521
 9236SOL    HW128607   2.533   4.227   5.500
 9236SOL    HW228608   2.668   4.297   5.440
 9237SOL     OW28609   1.800   5.658   4.499
 9237SOL    HW128610   1.791   5.723   4.574
 9237SOL    HW228611   1.721   5.597   4.498
 9238SOL     OW28612   3.651   1.539   6.999
 9238SOL    HW128613   3.630   1.632   6.971
 9238SOL    HW228614   3.582   1.507   0.037
 9239SOL     OW28615   6.671   4.526   0.663
 9239SOL    HW128616   6.755   4.580   0.666
 9239SOL    HW228617   6.593   4.584   0.688
 9240SOL     OW28618   4.870   1.601   1.284
 9240SOL    HW128619   4.826   1.625   1.197
 9240SOL    HW228620   4.862   1.677   1.348
 9241SOL     OW28621   0.546   4.727   5.628
 9241SOL    HW128622   0.456   4.700   5.663
 9241SOL    HW228623   0.550   4.826   5.620
 9242SOL     OW28624   0.264   5.472   0.206
 9242SOL    HW128625   0.324   5.552   0.213
 9242SOL    HW228626   0.312   5.399   0.158
 9243SOL     OW28627   5.967   6.537   1.853
 9243SOL    HW128628   5.982   6.569   1.759
 9243SOL    HW228629   6.052   6.497   1.889
 9244SOL     OW28630   4.139   5.415   6.638
 9244SOL    HW128631   4.234   5.442   6.649
 9244SOL    HW228632   4.129   5.361   6.554
 9245SOL     OW28633   1.536   5.089   3.214
 9245SOL    HW128634   1.633   5.094   3.192
 9245SOL    HW228635   1.488   5.037   3.144
 9246SOL     OW28636   0.119   4.811   2.919
 9246SOL    HW128637   0.172   4.890   2.947
 9246SOL    HW228638   0.023   4.837   2.907
 9247SOL     OW28639   1.196   6.933   2.933
 9247SOL    HW128640   1.219   6.864   2.865
 9247SOL    HW228641   1.100   6.958   2.923
 9248SOL     OW28642   1.638   2.492   5.010
 9248SOL    HW128643   1.609   2.554   4.936
 9248SOL    HW228644   1.557   2.460   5.059
 9249SOL     OW28645   4.759   3.960   6.955
 9249SOL    HW128646   4.819   3.998   7.025
 9249SOL    HW228647   4.711   3.880   6.991
 9250SOL     OW28648   5.906   3.200   4.705
 9250SOL    HW128649   5.827   3.139   4.696
 9250SOL    HW228650   5.881   3.292   4.674
 9251SOL     OW28651   4.099   2.196   3.173
 9251SOL    HW128652   4.177   2.134   3.180
 9251SOL    HW228653   4.106   2.249   3.089
 9252SOL     OW28654   5.757   0.156   4.238
 9252SOL    HW128655   5.725   0.153   4.333
 9252SOL    HW228656   5.684   0.193   4.180
 9253SOL     OW28657   5.943   6.556   5.906
 9253SOL    HW128658   5.847   6.579   5.895
 9253SOL    HW228659   5.954   6.457   5.909
 9254SOL     OW28660   6.194   4.514   2.838
 9254SOL    HW128661   6.255   4.436   2.856
 9254SOL    HW228662   6.208   4.584   2.908
 9255SOL     OW28663   4.616   4.108   0.675
 9255SOL    HW128664   4.535   4.092   0.731
 9255SOL    HW228665   4.681   4.033   0.687
 9256SOL     OW28666   4.178   6.503   2.641
 9256SOL    HW128667   4.187   6.577   2.708
 9256SOL    HW228668   4.101   6.521   2.581
 9257SOL     OW28669   0.810   3.977   3.184
 9257SOL    HW128670   0.899   3.946   3.219
 9257SOL    HW228671   0.800   3.948   3.089
 9258SOL     OW28672   3.043   3.242   3.891
 9258SOL    HW128673   3.000   3.184   3.822
 9258SOL    HW228674   3.123   3.194   3.930
 9259SOL     OW28675   1.264   2.505   0.378
 9259SOL    HW128676   1.165   2.507   0.394
 9259SOL    HW228677   1.306   2.583   0.425
 9260SOL     OW28678   5.056   1.684   5.563
 9260SOL    HW128679   5.051   1.729   5.474
 9260SOL    HW228680   5.150   1.656   5.581
 9261SOL     OW28681   4.477   0.527   6.117
 9261SOL    HW128682   4.416   0.592   6.071
 9261SOL    HW228683   4.464   0.533   6.216
 9262SOL     OW28684   6.986   3.391   5.754
 9262SOL    HW128685   7.010   3.415   5.660
 9262SOL    HW228686   6.887   3.395   5.765
 9263SOL     OW28687   5.910   5.373   1.671
 9263SOL    HW128688   5.903   5.468   1.642
 9263SOL    HW228689   5.962   5.321   1.602
 9264SOL     OW28690   5.629   4.117   0.350
 9264SOL    HW128691   5.649   4.061   0.431
 9264SOL    HW228692   5.539   4.093   0.314
 9265SOL     OW28693   3.276   1.715   6.709
 9265SOL    HW128694   3.340   1.781   6.748
 9265SOL    HW228695   3.217   1.760   6.643
 9266SOL     OW28696   2.068   6.747   2.185
 9266SOL    HW128697   2.004   6.701   2.247
 9266SOL    HW228698   2.110   6.825   2.232
 9267SOL     OW28699   0.522   3.689   5.704
 9267SOL    HW128700   0.457   3.753   5.745
 9267SOL    HW228701   0.607   3.736   5.684
 9268SOL     OW28702   1.473   4.768   1.364
 9268SOL    HW128703   1.435   4.785   1.455
 9268SOL    HW228704   1.418   4.699   1.317
 9269SOL     OW28705   3.239   1.715   5.819
 9269SOL    HW128706   3.201   1.630   5.782
 9269SOL    HW228707   3.203   1.730   5.911
 9270SOL     OW28708   4.673   6.831   6.133
 9270SOL    HW128709   4.734   6.908   6.113
 9270SOL    HW228710   4.692   6.797   6.226
 9271SOL     OW28711   1.416   6.045   6.809
 9271SOL    HW128712   1.434   5.947   6.817
 9271SOL    HW228713   1.320   6.060   6.785
 9272SOL     OW28714   1.623   5.215   5.406
 9272SOL    HW128715   1.650   5.152   5.332
 9272SOL    HW228716   1.675   5.300   5.398
 9273SOL     OW28717   5.357   6.038   3.697
 9273SOL    HW128718   5.397   5.983   3.770
 9273SOL    HW228719   5.259   6.048   3.712
 9274SOL     OW28720   6.600   2.464   0.338
 9274SOL    HW128721   6.679   2.432   0.286
 9274SOL    HW228722   6.622   2.550   0.384
 9275SOL     OW28723   6.991   2.169   0.293
 9275SOL    HW128724   0.061   2.196   0.301
 9275SOL    HW228725   6.973   2.092   0.355
 9276SOL     OW28726   1.963   4.416   2.630
 9276SOL    HW128727   2.019   4.339   2.599
 9276SOL    HW228728   1.958   4.485   2.557
 9277SOL     OW28729   5.541   2.993   0.472
 9277SOL    HW128730   5.548   2.939   0.556
 9277SOL    HW228731   5.469   2.954   0.414
 9278SOL     OW28732   1.425   0.346   5.405
 9278SOL    HW128733   1.438   0.296   5.319
 9278SOL    HW228734   1.330   0.376   5.412
 9279SOL     OW28735   4.794   0.566   2.076
 9279SOL    HW128736   4.752   0.568   1.985
 9279SOL    HW228737   4.866   0.635   2.082
 9280SOL     OW28738   1.420   1.237   2.580
 9280SOL    HW128739   1.392   1.327   2.612
 9280SOL    HW228740   1.368   1.212   2.498
 9281SOL     OW28741   3.047   4.694   0.994
 9281SOL    HW128742   3.123   4.756   1.012
 9281SOL    HW228743   3.038   4.630   1.070
 9282SOL     OW28744   5.030   1.297   5.123
 9282SOL    HW128745   5.001   1.326   5.214
 9282SOL    HW228746   5.128   1.313   5.113
 9283SOL     OW28747   5.793   0.329   3.555
 9283SOL    HW128748   5.887   0.361   3.551
 9283SOL    HW228749   5.791   0.236   3.592
 9284SOL     OW28750   3.208   4.698   5.757
 9284SOL    HW128751   3.112   4.702   5.785
 9284SOL    HW228752   3.266   4.691   5.837
 9285SOL     OW28753   5.137   2.738   1.087
 9285SOL    HW128754   5.061   2.785   1.042
 9285SOL    HW228755   5.107   2.704   1.176
 9286SOL     OW28756   5.317   6.822   6.625
 9286SOL    HW128757   5.372   6.790   6.548
 9286SOL    HW228758   5.366   6.894   6.674
 9287SOL     OW28759   3.149   5.318   6.927
 9287SOL    HW128760   3.202   5.248   6.879
 9287SOL    HW228761   3.209   5.371   6.986
 9288SOL     OW28762   3.823   1.374   3.934
 9288SOL    HW128763   3.864   1.327   4.012
 9288SOL    HW228764   3.893   1.386   3.863
 9289SOL     OW28765   3.306   1.872   2.547
 9289SOL    HW128766   3.234   1.853   2.480
 9289SOL    HW228767   3.384   1.811   2.529
 9290SOL     OW28768   4.590   1.654   3.837
 9290SOL    HW128769   4.528   1.675   3.913
 9290SOL    HW228770   4.541   1.601   3.768
 9291SOL     OW28771   2.085   6.956   4.168
 9291SOL    HW128772   2.058   6.862   4.189
 9291SOL    HW228773   2.120   6.999   4.251
 9292SOL     OW28774   0.702   3.291   6.760
 9292SOL    HW128775   0.786   3.292   6.814
 9292SOL    HW228776   0.688   3.382   6.719
 9293SOL     OW28777   5.669   4.300   0.086
 9293SOL    HW128778   5.752   4.291   0.141
 9293SOL    HW228779   5.622   4.385   0.110
 9294SOL     OW28780   3.498   6.801   4.964
 9294SOL    HW128781   3.481   6.723   4.904
 9294SOL    HW228782   3.410   6.841   4.992
 9295SOL     OW28783   5.344   2.552   4.448
 9295SOL    HW128784   5.321   2.484   4.518
 9295SOL    HW228785   5.286   2.632   4.460
 9296SOL     OW28786   0.607   6.826   6.505
 9296SOL    HW128787   0.642   6.771   6.429
 9296SOL    HW228788   0.666   6.907   6.518
 9297SOL     OW28789   6.085   1.186   0.619
 9297SOL    HW128790   6.103   1.250   0.693
 9297SOL    HW228791   6.022   1.115   0.650
 9298SOL     OW28792   1.846   0.467   4.663
 9298SOL    HW128793   1.817   0.458   4.758
 9298SOL    HW228794   1.882   0.559   4.647
 9299SOL     OW28795   0.673   2.260   4.310
 9299SOL    HW128796   0.623   2.230   4.228
 9299SOL    HW228797   0.760   2.211   4.316
 9300SOL     OW28798   0.989   4.546   5.659
 9300SOL    HW128799   0.903   4.581   5.621
 9300SOL    HW228800   1.043   4.504   5.586
 9301SOL     OW28801   5.053   4.185   3.381
 9301SOL    HW128802   5.030   4.266   3.435
 9301SOL    HW228803   5.123   4.209   3.313
 9302SOL     OW28804   2.278   2.888   4.664
 9302SOL    HW128805   2.253   2.985   4.665
 9302SOL    HW228806   2.327   2.865   4.749
 9303SOL     OW28807   3.931   5.898   0.275
 9303SOL    HW128808   3.841   5.903   0.318
 9303SOL    HW228809   3.999   5.871   0.342
 9304SOL     OW28810   4.749   4.415   2.110
 9304SOL    HW128811   4.811   4.351   2.064
 9304SOL    HW228812   4.655   4.392   2.088
 9305SOL     OW28813   3.574   1.356   1.865
 9305SOL    HW128814   3.635   1.287   1.825
 9305SOL    HW228815   3.619   1.396   1.945
 9306SOL     OW28816   0.271   4.425   4.882
 9306SOL    HW128817   0.360   4.404   4.843
 9306SOL    HW228818   0.272   4.404   4.980
 9307SOL     OW28819   1.053   3.553   0.927
 9307SOL    HW128820   1.024   3.527   1.018
 9307SOL    HW228821   1.004   3.499   0.859
 9308SOL     OW28822   1.686   4.107   0.948
 9308SOL    HW128823   1.694   4.026   0.890
 9308SOL    HW228824   1.747   4.098   1.026
 9309SOL     OW28825   3.749   4.841   5.740
 9309SOL    HW128826   3.716   4.816   5.831
 9309SOL    HW228827   3.677   4.892   5.692
 9310SOL     OW28828   4.632   5.456   5.786
 9310SOL    HW128829   4.616   5.477   5.882
 9310SOL    HW228830   4.730   5.442   5.771
 9311SOL     OW28831   4.406   5.089   1.805
 9311SOL    HW128832   4.362   5.130   1.725
 9311SOL    HW228833   4.499   5.061   1.781
 9312SOL     OW28834   1.369   2.909   1.253
 9312SOL    HW128835   1.396   2.835   1.315
 9312SOL    HW228836   1.449   2.940   1.202
 9313SOL     OW28837   0.070   0.544   1.111
 9313SOL    HW128838   0.031   0.512   1.024
 9313SOL    HW228839   0.161   0.582   1.094
 9314SOL     OW28840   4.645   6.282   6.259
 9314SOL    HW128841   4.599   6.345   6.197
 9314SOL    HW228842   4.722   6.239   6.212
 9315SOL     OW28843   6.404   1.075   5.271
 9315SOL    HW128844   6.357   1.075   5.359
 9315SOL    HW228845   6.413   0.981   5.237
 9316SOL     OW28846   4.714   5.925   5.345
 9316SOL    HW128847   4.687   5.946   5.439
 9316SOL    HW228848   4.658   5.977   5.281
 9317SOL     OW28849   6.518   4.873   3.312
 9317SOL    HW128850   6.438   4.901   3.365
 9317SOL    HW228851   6.582   4.950   3.306
 9318SOL     OW28852   6.231   0.433   5.832
 9318SOL    HW128853   6.161   0.463   5.897
 9318SOL    HW228854   6.223   0.486   5.748
 9319SOL     OW28855   1.094   2.877   0.383
 9319SOL    HW128856   1.019   2.896   0.447
 9319SOL    HW228857   1.057   2.862   0.292
 9320SOL     OW28858   3.579   1.188   5.989
 9320SOL    HW128859   3.604   1.119   6.057
 9320SOL    HW228860   3.655   1.202   5.926
 9321SOL     OW28861   5.940   6.898   3.262
 9321SOL    HW128862   5.926   6.839   3.341
 9321SOL    HW228863   6.038   6.916   3.250
 9322SOL     OW28864   1.196   4.880   6.771
 9322SOL    HW128865   1.133   4.847   6.702
 9322SOL    HW228866   1.166   4.970   6.803
 9323SOL     OW28867   1.277   0.604   5.072
 9323SOL    HW128868   1.191   0.633   5.114
 9323SOL    HW228869   1.269   0.610   4.972
 9324SOL     OW28870   1.439   4.710   0.716
 9324SOL    HW128871   1.386   4.689   0.798
 9324SOL    HW228872   1.459   4.808   0.714
 9325SOL     OW28873   4.883   0.939   6.775
 9325SOL    HW128874   4.794   0.897   6.757
 9325SOL    HW228875   4.950   0.867   6.792
 9326SOL     OW28876   2.052   6.507   0.906
 9326SOL    HW128877   2.122   6.536   0.841
 9326SOL    HW228878   1.970   6.563   0.895
 9327SOL     OW28879   5.151   6.655   2.797
 9327SOL    HW128880   5.130   6.648   2.894
 9327SOL    HW228881   5.068   6.634   2.744
 9328SOL     OW28882   3.592   0.614   5.702
 9328SOL    HW128883   3.606   0.600   5.604
 9328SOL    HW228884   3.604   0.710   5.724
 9329SOL     OW28885   6.117   3.990   1.611
 9329SOL    HW128886   6.215   3.974   1.599
 9329SOL    HW228887   6.093   3.986   1.708
 9330SOL     OW28888   6.518   6.702   6.879
 9330SOL    HW128889   6.599   6.678   6.826
 9330SOL    HW228890   6.525   6.661   6.970
 9331SOL     OW28891   1.518   1.040   6.450
 9331SOL    HW128892   1.466   1.092   6.518
 9331SOL    HW228893   1.556   1.104   6.382
 9332SOL     OW28894   4.184   4.100   1.718
 9332SOL    HW128895   4.262   4.092   1.780
 9332SOL    HW228896   4.100   4.078   1.767
 9333SOL     OW28897   4.165   3.924   1.503
 9333SOL    HW128898   4.078   3.947   1.461
 9333SOL    HW228899   4.194   3.999   1.563
 9334SOL     OW28900   5.455   5.889   3.886
 9334SOL    HW128901   5.378   5.828   3.903
 9334SOL    HW228902   5.490   5.924   3.974
 9335SOL     OW28903   0.745   1.400   5.956
 9335SOL    HW128904   0.789   1.483   5.990
 9335SOL    HW228905   0.717   1.343   6.034
 9336SOL     OW28906   2.500   5.129   5.496
 9336SOL    HW128907   2.479   5.069   5.573
 9336SOL    HW228908   2.422   5.189   5.477
 9337SOL     OW28909   5.249   1.662   4.018
 9337SOL    HW128910   5.212   1.750   3.988
 9337SOL    HW228911   5.271   1.606   3.939
 9338SOL     OW28912   4.261   0.470   1.929
 9338SOL    HW128913   4.304   0.412   1.859
 9338SOL    HW228914   4.162   0.471   1.916
 9339SOL     OW28915   5.463   0.263   1.508
 9339SOL    HW128916   5.460   0.319   1.591
 9339SOL    HW228917   5.537   0.296   1.449
 9340SOL     OW28918   5.416   3.475   4.285
 9340SOL    HW128919   5.376   3.555   4.240
 9340SOL    HW228920   5.491   3.439   4.230
 9341SOL     OW28921   0.038   5.999   0.608
 9341SOL    HW128922   0.089   6.066   0.555
 9341SOL    HW228923   0.101   5.928   0.641
 9342SOL     OW28924   1.496   6.935   3.516
 9342SOL    HW128925   1.549   6.894   3.590
 9342SOL    HW228926   1.399   6.932   3.538
 9343SOL     OW28927   6.023   4.051   2.657
 9343SOL    HW128928   6.045   4.044   2.560
 9343SOL    HW228929   5.931   4.089   2.669
 9344SOL     OW28930   4.697   6.273   2.118
 9344SOL    HW128931   4.648   6.347   2.070
 9344SOL    HW228932   4.781   6.251   2.068
 9345SOL     OW28933   6.538   4.226   2.329
 9345SOL    HW128934   6.508   4.130   2.334
 9345SOL    HW228935   6.462   4.283   2.298
 9346SOL     OW28936   6.368   0.884   1.176
 9346SOL    HW128937   6.271   0.875   1.154
 9346SOL    HW228938   6.378   0.915   1.270
 9347SOL     OW28939   0.947   3.836   0.515
 9347SOL    HW128940   0.914   3.896   0.443
 9347SOL    HW228941   1.034   3.795   0.487
 9348SOL     OW28942   3.755   5.948   2.182
 9348SOL    HW128943   3.688   5.960   2.256
 9348SOL    HW228944   3.747   5.856   2.144
 9349SOL     OW28945   0.882   6.242   2.816
 9349SOL    HW128946   0.826   6.163   2.791
 9349SOL    HW228947   0.874   6.260   2.914
 9350SOL     OW28948   0.016   3.673   5.482
 9350SOL    HW128949   6.952   3.666   5.439
 9350SOL    HW228950   0.064   3.585   5.473
 9351SOL     OW28951   2.617   0.428   6.712
 9351SOL    HW128952   2.685   0.500   6.719
 9351SOL    HW228953   2.573   0.433   6.622
 9352SOL     OW28954   3.286   2.087   6.714
 9352SOL    HW128955   3.336   2.154   6.659
 9352SOL    HW228956   3.230   2.030   6.654
 9353SOL     OW28957   0.355   4.786   0.612
 9353SOL    HW128958   0.305   4.866   0.644
 9353SOL    HW228959   0.446   4.812   0.583
 9354SOL     OW28960   6.344   1.907   6.252
 9354SOL    HW128961   6.326   1.808   6.252
 9354SOL    HW228962   6.295   1.949   6.176
 9355SOL     OW28963   0.517   2.225   4.820
 9355SOL    HW128964   0.534   2.262   4.729
 9355SOL    HW228965   0.604   2.198   4.862
 9356SOL     OW28966   4.595   0.554   2.246
 9356SOL    HW128967   4.515   0.516   2.198
 9356SOL    HW228968   4.675   0.548   2.186
 9357SOL     OW28969   1.382   3.331   6.144
 9357SOL    HW128970   1.284   3.328   6.127
 9357SOL    HW228971   1.403   3.284   6.230
 9358SOL     OW28972   6.899   3.972   2.359
 9358SOL    HW128973   6.860   4.054   2.400
 9358SOL    HW228974   6.965   3.931   2.422
 9359SOL     OW28975   1.366   4.586   0.092
 9359SOL    HW128976   1.316   4.580   0.006
 9359SOL    HW228977   1.385   4.682   0.113
 9360SOL     OW28978   1.670   5.110   6.332
 9360SOL    HW128979   1.623   5.123   6.245
 9360SOL    HW228980   1.673   5.197   6.381
 9361SOL     OW28981   1.464   4.783   3.592
 9361SOL    HW128982   1.454   4.724   3.512
 9361SOL    HW228983   1.515   4.865   3.567
 9362SOL     OW28984   0.608   1.129   2.701
 9362SOL    HW128985   0.530   1.093   2.648
 9362SOL    HW228986   0.642   1.212   2.658
 9363SOL     OW28987   3.315   5.143   2.008
 9363SOL    HW128988   3.306   5.140   1.909
 9363SOL    HW228989   3.258   5.216   2.045
 9364SOL     OW28990   2.305   2.421   0.026
 9364SOL    HW128991   2.397   2.437   0.062
 9364SOL    HW228992   2.307   2.345   6.987
 9365SOL     OW28993   2.993   1.673   3.505
 9365SOL    HW128994   2.942   1.754   3.532
 9365SOL    HW228995   3.039   1.633   3.584
 9366SOL     OW28996   3.014   5.250   0.142
 9366SOL    HW128997   3.059   5.263   0.053
 9366SOL    HW228998   3.073   5.285   0.214
 9367SOL     OW28999   6.417   0.020   1.445
 9367SOL    HW129000   6.337   0.029   1.386
 9367SOL    HW229001   6.447   6.950   1.448
 9368SOL     OW29002   3.396   6.781   2.017
 9368SOL    HW129003   3.455   6.701   2.005
 9368SOL    HW229004   3.438   6.860   1.972
 9369SOL     OW29005   6.788   6.680   4.416
 9369SOL    HW129006   6.793   6.594   4.366
 9369SOL    HW229007   6.879   6.720   4.425
 9370SOL     OW29008   5.396   6.572   4.156
 9370SOL    HW129009   5.457   6.650   4.140
 9370SOL    HW229010   5.409   6.537   4.249
 9371SOL     OW29011   2.588   5.967   0.503
 9371SOL    HW129012   2.625   5.985   0.594
 9371SOL    HW229013   2.664   5.956   0.439
 9372SOL     OW29014   5.248   0.111   1.632
 9372SOL    HW129015   5.324   0.169   1.601
 9372SOL    HW229016   5.251   0.104   1.731
 9373SOL     OW29017   5.406   2.202   0.796
 9373SOL    HW129018   5.356   2.118   0.817
 9373SOL    HW229019   5.422   2.254   0.880
 9374SOL     OW29020   0.180   3.354   5.909
 9374SOL    HW129021   0.107   3.383   5.846
 9374SOL    HW229022   0.188   3.420   5.983
 9375SOL     OW29023   0.094   1.566   0.552
 9375SOL    HW129024   0.049   1.498   0.610
 9375SOL    HW229025   0.026   1.615   0.499
 9376SOL     OW29026   2.610   3.858   1.673
 9376SOL    HW129027   2.636   3.929   1.608
 9376SOL    HW229028   2.530   3.888   1.726
 9377SOL     OW29029   1.802   5.014   3.153
 9377SOL    HW129030   1.811   4.982   3.059
 9377SOL    HW229031   1.839   5.106   3.161
 9378SOL     OW29032   3.609   0.961   3.829
 9378SOL    HW129033   3.592   0.879   3.773
 9378SOL    HW229034   3.605   0.936   3.926
 9379SOL     OW29035   5.329   0.017   4.816
 9379SOL    HW129036   5.249   0.077   4.827
 9379SOL    HW229037   5.307   6.970   4.751
 9380SOL     OW29038   3.446   5.749   5.792
 9380SOL    HW129039   3.544   5.765   5.801
 9380SOL    HW229040   3.427   5.710   5.702
 9381SOL     OW29041   5.347   3.043   5.205
 9381SOL    HW129042   5.372   3.012   5.297
 9381SOL    HW229043   5.308   3.135   5.210
 9382SOL     OW29044   3.854   1.030   3.878
 9382SOL    HW129045   3.763   0.994   3.857
 9382SOL    HW229046   3.902   1.052   3.793
 9383SOL     OW29047   5.105   4.241   4.523
 9383SOL    HW129048   5.050   4.316   4.559
 9383SOL    HW229049   5.121   4.255   4.425
 9384SOL     OW29050   3.530   7.003   1.941
 9384SOL    HW129051   3.608   0.006   1.998
 9384SOL    HW229052   3.553   7.018   1.844
 9385SOL     OW29053   4.454   1.534   4.408
 9385SOL    HW129054   4.491   1.456   4.458
 9385SOL    HW229055   4.510   1.615   4.425
 9386SOL     OW29056   2.951   5.634   5.025
 9386SOL    HW129057   3.035   5.688   5.024
 9386SOL    HW229058   2.963   5.556   5.086
 9387SOL     OW29059   3.302   2.233   0.538
 9387SOL    HW129060   3.303   2.238   0.638
 9387SOL    HW229061   3.233   2.297   0.503
 9388SOL     OW29062   1.759   6.646   3.013
 9388SOL    HW129063   1.672   6.611   3.050
 9388SOL    HW229064   1.740   6.716   2.945
 9389SOL     OW29065   3.438   6.162   3.036
 9389SOL    HW129066   3.369   6.136   3.104
 9389SOL    HW229067   3.394   6.213   2.962
 9390SOL     OW29068   5.996   5.108   5.814
 9390SOL    HW129069   5.976   5.180   5.748
 9390SOL    HW229070   6.067   5.048   5.777
 9391SOL     OW29071   0.281   0.899   4.898
 9391SOL    HW129072   0.380   0.908   4.897
 9391SOL    HW229073   0.239   0.979   4.856
 9392SOL     OW29074   4.882   4.178   3.714
 9392SOL    HW129075   4.839   4.098   3.673
 9392SOL    HW229076   4.854   4.186   3.810
 9393SOL     OW29077   3.042   0.003   5.714
 9393SOL    HW129078   3.067   6.933   5.729
 9393SOL    HW229079   2.996   0.038   5.795
 9394SOL     OW29080   5.937   0.597   1.241
 9394SOL    HW129081   5.944   0.518   1.180
 9394SOL    HW229082   5.842   0.609   1.270
 9395SOL     OW29083   2.462   1.163   0.584
 9395SOL    HW129084   2.530   1.127   0.521
 9395SOL    HW229085   2.475   1.123   0.674
 9396SOL     OW29086   2.199   4.671   5.262
 9396SOL    HW129087   2.167   4.724   5.341
 9396SOL    HW229088   2.122   4.622   5.221
 9397SOL     OW29089   3.074   6.625   5.479
 9397SOL    HW129090   3.069   6.543   5.536
 9397SOL    HW229091   3.133   6.692   5.522
 9398SOL     OW29092   5.827   1.588   5.672
 9398SOL    HW129093   5.776   1.667   5.639
 9398SOL    HW229094   5.917   1.586   5.628
 9399SOL     OW29095   1.024   2.432   4.128
 9399SOL    HW129096   1.044   2.477   4.216
 9399SOL    HW229097   0.941   2.471   4.090
 9400SOL     OW29098   4.752   0.340   0.344
 9400SOL    HW129099   4.715   0.270   0.283
 9400SOL    HW229100   4.748   0.429   0.299
 9401SOL     OW29101   0.357   2.368   1.666
 9401SOL    HW129102   0.332   2.458   1.703
 9401SOL    HW229103   0.377   2.306   1.742
 9402SOL     OW29104   1.068   4.674   3.351
 9402SOL    HW129105   1.008   4.598   3.375
 9402SOL    HW229106   1.093   4.668   3.255
 9403SOL     OW29107   6.911   1.662   2.463
 9403SOL    HW129108   6.880   1.609   2.542
 9403SOL    HW229109   6.925   1.602   2.385
 9404SOL     OW29110   0.480   1.851   1.262
 9404SOL    HW129111   0.440   1.786   1.327
 9404SOL    HW229112   0.442   1.834   1.171
 9405SOL     OW29113   0.825   4.217   4.524
 9405SOL    HW129114   0.871   4.224   4.436
 9405SOL    HW229115   0.769   4.299   4.540
 9406SOL     OW29116   1.292   2.852   6.953
 9406SOL    HW129117   1.248   2.791   7.019
 9406SOL    HW229118   1.265   2.826   6.860
 9407SOL     OW29119   2.633   5.116   4.571
 9407SOL    HW129120   2.590   5.151   4.654
 9407SOL    HW229121   2.573   5.134   4.493
 9408SOL     OW29122   7.012   2.217   6.042
 9408SOL    HW129123   0.060   2.279   6.013
 9408SOL    HW229124   6.934   2.271   6.073
 9409SOL     OW29125   6.670   5.448   2.294
 9409SOL    HW129126   6.767   5.461   2.273
 9409SOL    HW229127   6.617   5.452   2.209
 9410SOL     OW29128   4.801   1.092   1.895
 9410SOL    HW129129   4.708   1.069   1.924
 9410SOL    HW229130   4.827   1.181   1.933
 9411SOL     OW29131   3.255   3.657   2.853
 9411SOL    HW129132   3.317   3.731   2.829
 9411SOL    HW229133   3.177   3.656   2.790
 9412SOL     OW29134   1.131   0.196   1.720
 9412SOL    HW129135   1.184   0.262   1.667
 9412SOL    HW229136   1.193   0.138   1.773
 9413SOL     OW29137   4.714   4.785   4.803
 9413SOL    HW129138   4.664   4.698   4.806
 9413SOL    HW229139   4.699   4.829   4.714
 9414SOL     OW29140   2.863   2.291   4.199
 9414SOL    HW129141   2.795   2.304   4.272
 9414SOL    HW229142   2.828   2.328   4.113
 9415SOL     OW29143   2.982   0.070   1.928
 9415SOL    HW129144   2.890   0.098   1.901
 9415SOL    HW229145   3.049   0.133   1.889
 9416SOL     OW29146   0.139   0.935   5.145
 9416SOL    HW129147   0.136   0.856   5.206
 9416SOL    HW229148   0.200   0.915   5.068
 9417SOL     OW29149   3.227   6.199   1.662
 9417SOL    HW129150   3.302   6.188   1.597
 9417SOL    HW229151   3.188   6.290   1.653
 9418SOL     OW29152   2.611   1.798   2.745
 9418SOL    HW129153   2.647   1.747   2.823
 9418SOL    HW229154   2.515   1.774   2.731
 9419SOL     OW29155   2.619   3.107   6.362
 9419SOL    HW129156   2.613   3.168   6.283
 9419SOL    HW229157   2.527   3.085   6.394
 9420SOL     OW29158   5.918   4.689   0.435
 9420SOL    HW129159   5.887   4.616   0.495
 9420SOL    HW229160   6.004   4.727   0.470
 9421SOL     OW29161   2.824   5.267   4.337
 9421SOL    HW129162   2.797   5.315   4.254
 9421SOL    HW229163   2.829   5.169   4.319
 9422SOL     OW29164   2.700   6.447   4.227
 9422SOL    HW129165   2.666   6.433   4.135
 9422SOL    HW229166   2.800   6.442   4.227
 9423SOL     OW29167   4.000   6.449   2.874
 9423SOL    HW129168   3.956   6.377   2.821
 9423SOL    HW229169   4.079   6.484   2.825
 9424SOL     OW29170   5.215   1.750   4.825
 9424SOL    HW129171   5.160   1.784   4.749
 9424SOL    HW229172   5.202   1.651   4.834
 9425SOL     OW29173   5.909   5.063   1.594
 9425SOL    HW129174   5.957   5.117   1.524
 9425SOL    HW229175   5.856   4.991   1.549
 9426SOL     OW29176   1.745   1.477   6.041
 9426SOL    HW129177   1.691   1.509   5.963
 9426SOL    HW229178   1.793   1.393   6.016
 9427SOL     OW29179   2.118   6.029   3.150
 9427SOL    HW129180   2.199   5.971   3.141
 9427SOL    HW229181   2.039   5.981   3.112
 9428SOL     OW29182   6.593   6.803   0.314
 9428SOL    HW129183   6.663   6.741   0.349
 9428SOL    HW229184   6.541   6.758   0.242
 9429SOL     OW29185   1.421   2.054   3.824
 9429SOL    HW129186   1.490   1.998   3.779
 9429SOL    HW229187   1.409   2.139   3.773
 9430SOL     OW29188   0.537   2.565   3.988
 9430SOL    HW129189   0.505   2.556   3.894
 9430SOL    HW229190   0.479   2.510   4.048
 9431SOL     OW29191   6.696   4.298   0.823
 9431SOL    HW129192   6.700   4.393   0.791
 9431SOL    HW229193   6.788   4.258   0.821
 9432SOL     OW29194   6.554   1.755   4.238
 9432SOL    HW129195   6.648   1.757   4.203
 9432SOL    HW229196   6.517   1.847   4.239
 9433SOL     OW29197   4.024   5.774   3.274
 9433SOL    HW129198   4.018   5.697   3.339
 9433SOL    HW229199   4.098   5.757   3.209
 9434SOL     OW29200   5.662   5.484   3.647
 9434SOL    HW129201   5.604   5.449   3.574
 9434SOL    HW229202   5.695   5.575   3.622
 9435SOL     OW29203   0.425   2.013   2.374
 9435SOL    HW129204   0.499   1.950   2.398
 9435SOL    HW229205   0.349   2.000   2.438
 9436SOL     OW29206   1.322   1.053   2.381
 9436SOL    HW129207   1.270   0.968   2.389
 9436SOL    HW229208   1.325   1.082   2.286
 9437SOL     OW29209   0.775   5.187   3.674
 9437SOL    HW129210   0.821   5.198   3.762
 9437SOL    HW229211   0.784   5.272   3.621
 9438SOL     OW29212   1.029   0.019   2.025
 9438SOL    HW129213   0.998   6.957   2.061
 9438SOL    HW229214   1.075   0.004   1.937
 9439SOL     OW29215   0.156   3.150   1.067
 9439SOL    HW129216   0.233   3.198   1.027
 9439SOL    HW229217   0.179   3.053   1.077
 9440SOL     OW29218   2.454   4.413   3.213
 9440SOL    HW129219   2.463   4.410   3.113
 9440SOL    HW229220   2.505   4.491   3.249
 9441SOL     OW29221   6.653   5.829   5.588
 9441SOL    HW129222   6.569   5.783   5.560
 9441SOL    HW229223   6.633   5.894   5.661
 9442SOL     OW29224   4.325   3.629   1.226
 9442SOL    HW129225   4.409   3.626   1.281
 9442SOL    HW229226   4.340   3.687   1.146
 9443SOL     OW29227   2.626   5.801   1.469
 9443SOL    HW129228   2.651   5.843   1.557
 9443SOL    HW229229   2.528   5.779   1.469
 9444SOL     OW29230   1.959   3.997   0.774
 9444SOL    HW129231   1.916   3.929   0.834
 9444SOL    HW229232   1.997   4.071   0.830
 9445SOL     OW29233   6.692   2.160   3.535
 9445SOL    HW129234   6.652   2.245   3.501
 9445SOL    HW229235   6.771   2.135   3.480
 9446SOL     OW29236   6.816   4.874   4.172
 9446SOL    HW129237   6.749   4.929   4.122
 9446SOL    HW229238   6.811   4.896   4.270
 9447SOL     OW29239   4.666   4.993   2.815
 9447SOL    HW129240   4.737   4.924   2.807
 9447SOL    HW229241   4.644   5.030   2.725
 9448SOL     OW29242   6.330   6.741   5.764
 9448SOL    HW129243   6.397   6.811   5.787
 9448SOL    HW229244   6.306   6.690   5.847
 9449SOL     OW29245   5.494   6.292   0.533
 9449SOL    HW129246   5.400   6.287   0.501
 9449SOL    HW229247   5.547   6.216   0.494
 9450SOL     OW29248   1.645   5.175   4.215
 9450SOL    HW129249   1.744   5.188   4.220
 9450SOL    HW229250   1.625   5.078   4.196
 9451SOL     OW29251   4.052   5.826   5.973
 9451SOL    HW129252   4.053   5.739   5.924
 9451SOL    HW229253   4.061   5.901   5.908
 9452SOL     OW29254   0.527   3.940   0.461
 9452SOL    HW129255   0.528   4.030   0.504
 9452SOL    HW229256   0.586   3.877   0.512
 9453SOL     OW29257   2.532   4.969   2.919
 9453SOL    HW129258   2.529   4.869   2.920
 9453SOL    HW229259   2.449   5.004   2.874
 9454SOL     OW29260   4.310   4.025   0.278
 9454SOL    HW129261   4.231   4.080   0.304
 9454SOL    HW229262   4.292   3.929   0.298
 9455SOL     OW29263   2.517   1.953   2.155
 9455SOL    HW129264   2.557   1.966   2.245
 9455SOL    HW229265   2.516   1.856   2.132
 9456SOL     OW29266   6.175   4.075   2.153
 9456SOL    HW129267   6.088   4.121   2.171
 9456SOL    HW229268   6.247   4.144   2.140
 9457SOL     OW29269   1.000   5.116   4.569
 9457SOL    HW129270   0.931   5.174   4.526
 9457SOL    HW229271   1.086   5.124   4.520
 9458SOL     OW29272   0.143   4.184   0.350
 9458SOL    HW129273   0.214   4.239   0.308
 9458SOL    HW229274   0.183   4.103   0.393
 9459SOL     OW29275   5.240   4.295   3.748
 9459SOL    HW129276   5.198   4.381   3.721
 9459SOL    HW229277   5.204   4.267   3.837
 9460SOL     OW29278   1.916   3.282   4.720
 9460SOL    HW129279   1.937   3.245   4.810
 9460SOL    HW229280   1.997   3.278   4.662
 9461SOL     OW29281   1.178   1.356   0.965
 9461SOL    HW129282   1.111   1.296   0.922
 9461SOL    HW229283   1.131   1.427   1.018
 9462SOL     OW29284   1.677   2.831   3.367
 9462SOL    HW129285   1.773   2.832   3.391
 9462SOL    HW229286   1.621   2.831   3.450
 9463SOL     OW29287   5.584   6.624   1.532
 9463SOL    HW129288   5.568   6.555   1.602
 9463SOL    HW229289   5.503   6.682   1.522
 9464SOL     OW29290   5.952   0.417   1.582
 9464SOL    HW129291   5.945   0.501   1.636
 9464SOL    HW229292   6.043   0.377   1.593
 9465SOL     OW29293   0.254   3.977   1.543
 9465SOL    HW129294   0.239   4.076   1.553
 9465SOL    HW229295   0.167   3.932   1.523
 9466SOL     OW29296   4.312   5.453   6.208
 9466SOL    HW129297   4.385   5.395   6.246
 9466SOL    HW229298   4.284   5.519   6.278
 9467SOL     OW29299   1.812   2.699   0.572
 9467SOL    HW129300   1.738   2.663   0.629
 9467SOL    HW229301   1.783   2.785   0.530
 9468SOL     OW29302   6.648   3.268   6.166
 9468SOL    HW129303   6.560   3.224   6.146
 9468SOL    HW229304   6.644   3.311   6.256
 9469SOL     OW29305   0.183   6.257   0.551
 9469SOL    HW129306   0.096   6.293   0.583
 9469SOL    HW229307   0.186   6.259   0.452
 9470SOL     OW29308   4.617   3.697   0.007
 9470SOL    HW129309   4.525   3.736   0.003
 9470SOL    HW229310   4.617   3.607   6.989
 9471SOL     OW29311   5.765   2.405   5.470
 9471SOL    HW129312   5.731   2.323   5.423
 9471SOL    HW229313   5.790   2.474   5.402
 9472SOL     OW29314   1.241   4.497   6.243
 9472SOL    HW129315   1.293   4.442   6.307
 9472SOL    HW229316   1.277   4.485   6.151
 9473SOL     OW29317   3.253   3.683   6.624
 9473SOL    HW129318   3.182   3.751   6.608
 9473SOL    HW229319   3.250   3.614   6.552
 9474SOL     OW29320   6.193   3.081   1.605
 9474SOL    HW129321   6.201   3.044   1.697
 9474SOL    HW229322   6.097   3.082   1.577
 9475SOL     OW29323   4.253   3.316   6.617
 9475SOL    HW129324   4.336   3.273   6.651
 9475SOL    HW229325   4.272   3.410   6.589
 9476SOL     OW29326   3.464   4.057   5.762
 9476SOL    HW129327   3.435   3.983   5.703
 9476SOL    HW229328   3.559   4.042   5.790
 9477SOL     OW29329   1.374   3.343   0.907
 9477SOL    HW129330   1.280   3.309   0.915
 9477SOL    HW229331   1.406   3.329   0.814
 9478SOL     OW29332   4.481   2.905   0.908
 9478SOL    HW129333   4.530   2.832   0.955
 9478SOL    HW229334   4.492   2.990   0.958
 9479SOL     OW29335   4.057   0.463   1.244
 9479SOL    HW129336   4.087   0.551   1.281
 9479SOL    HW229337   3.979   0.477   1.183
 9480SOL     OW29338   5.629   5.492   0.056
 9480SOL    HW129339   5.716   5.475   0.011
 9480SOL    HW229340   5.568   5.414   0.041
 9481SOL     OW29341   4.986   2.401   3.189
 9481SOL    HW129342   4.934   2.406   3.103
 9481SOL    HW229343   5.084   2.399   3.168
 9482SOL     OW29344   6.161   6.784   1.317
 9482SOL    HW129345   6.066   6.791   1.285
 9482SOL    HW229346   6.163   6.790   1.417
 9483SOL     OW29347   1.740   0.603   6.414
 9483SOL    HW129348   1.721   0.566   6.505
 9483SOL    HW229349   1.736   0.703   6.418
 9484SOL     OW29350   2.429   0.372   4.255
 9484SOL    HW129351   2.359   0.335   4.195
 9484SOL    HW229352   2.520   0.345   4.222
 9485SOL     OW29353   5.925   1.844   1.440
 9485SOL    HW129354   5.870   1.846   1.523
 9485SOL    HW229355   6.015   1.805   1.460
 9486SOL     OW29356   5.149   5.661   1.234
 9486SOL    HW129357   5.077   5.684   1.299
 9486SOL    HW229358   5.213   5.737   1.227
 9487SOL     OW29359   3.262   3.509   4.623
 9487SOL    HW129360   3.239   3.419   4.660
 9487SOL    HW229361   3.180   3.566   4.620
 9488SOL     OW29362   2.186   1.420   0.788
 9488SOL    HW129363   2.148   1.444   0.877
 9488SOL    HW229364   2.192   1.502   0.731
 9489SOL     OW29365   5.236   4.346   1.168
 9489SOL    HW129366   5.330   4.375   1.147
 9489SOL    HW229367   5.211   4.269   1.110
 9490SOL     OW29368   0.057   5.867   3.540
 9490SOL    HW129369   7.001   5.812   3.527
 9490SOL    HW229370   0.033   5.953   3.585
 9491SOL     OW29371   6.014   5.766   4.341
 9491SOL    HW129372   5.983   5.856   4.311
 9491SOL    HW229373   6.028   5.766   4.440
 9492SOL     OW29374   4.391   3.325   5.354
 9492SOL    HW129375   4.344   3.240   5.330
 9492SOL    HW229376   4.323   3.396   5.374
 9493SOL     OW29377   2.826   5.548   3.630
 9493SOL    HW129378   2.821   5.640   3.668
 9493SOL    HW229379   2.736   5.519   3.599
 9494SOL     OW29380   5.705   3.050   2.490
 9494SOL    HW129381   5.760   3.046   2.574
 9494SOL    HW229382   5.745   2.989   2.421
 9495SOL     OW29383   6.774   1.501   2.640
 9495SOL    HW129384   6.790   1.436   2.715
 9495SOL    HW229385   6.675   1.517   2.631
 9496SOL     OW29386   4.645   2.080   2.102
 9496SOL    HW129387   4.579   2.154   2.093
 9496SOL    HW229388   4.597   1.993   2.105
 9497SOL     OW29389   5.982   5.964   5.627
 9497SOL    HW129390   5.890   5.985   5.594
 9497SOL    HW229391   6.023   6.046   5.666
 9498SOL     OW29392   6.701   4.540   5.379
 9498SOL    HW129393   6.759   4.508   5.455
 9498SOL    HW229394   6.725   4.634   5.356
 9499SOL     OW29395   0.108   6.062   4.995
 9499SOL    HW129396   0.060   5.994   5.051
 9499SOL    HW229397   0.043   6.131   4.964
 9500SOL     OW29398   3.718   6.275   1.037
 9500SOL    HW129399   3.747   6.351   1.096
 9500SOL    HW229400   3.750   6.189   1.075
 9501SOL     OW29401   1.504   1.172   4.201
 9501SOL    HW129402   1.409   1.140   4.209
 9501SOL    HW229403   1.507   1.271   4.213
 9502SOL     OW29404   6.042   4.083   4.149
 9502SOL    HW129405   6.117   4.017   4.158
 9502SOL    HW229406   5.991   4.064   4.065
 9503SOL     OW29407   0.210   2.192   0.693
 9503SOL    HW129408   0.154   2.111   0.676
 9503SOL    HW229409   0.274   2.173   0.768
 9504SOL     OW29410   6.816   4.113   1.759
 9504SOL    HW129411   6.870   4.177   1.704
 9504SOL    HW229412   6.822   4.022   1.718
 9505SOL     OW29413   5.067   4.680   5.584
 9505SOL    HW129414   5.121   4.759   5.616
 9505SOL    HW229415   5.008   4.709   5.509
 9506SOL     OW29416   2.456   2.696   0.420
 9506SOL    HW129417   2.482   2.747   0.501
 9506SOL    HW229418   2.460   2.598   0.439
 9507SOL     OW29419   6.577   0.605   1.023
 9507SOL    HW129420   6.644   0.662   0.975
 9507SOL    HW229421   6.587   0.510   0.992
 9508SOL     OW29422   5.794   1.983   2.520
 9508SOL    HW129423   5.830   1.977   2.427
 9508SOL    HW229424   5.729   1.908   2.535
 9509SOL     OW29425   6.514   0.097   3.571
 9509SOL    HW129426   6.514   0.153   3.654
 9509SOL    HW229427   6.587   0.126   3.510
 9510SOL     OW29428   0.875   3.643   3.419
 9510SOL    HW129429   0.873   3.556   3.469
 9510SOL    HW229430   0.792   3.694   3.438
 9511SOL     OW29431   0.736   0.940   2.072
 9511SOL    HW129432   0.775   0.901   1.989
 9511SOL    HW229433   0.809   0.979   2.129
 9512SOL     OW29434   6.857   2.369   1.532
 9512SOL    HW129435   6.942   2.320   1.551
 9512SOL    HW229436   6.789   2.346   1.602
 9513SOL     OW29437   3.086   4.954   6.110
 9513SOL    HW129438   3.103   4.986   6.016
 9513SOL    HW229439   3.052   5.030   6.166
 9514SOL     OW29440   2.928   3.753   6.817
 9514SOL    HW129441   3.021   3.743   6.782
 9514SOL    HW229442   2.927   3.730   6.914
 9515SOL     OW29443   2.046   5.539   3.592
 9515SOL    HW129444   2.111   5.465   3.580
 9515SOL    HW229445   1.968   5.526   3.530
 9516SOL     OW29446   5.371   4.538   0.794
 9516SOL    HW129447   5.332   4.453   0.757
 9516SOL    HW229448   5.392   4.525   0.891
 9517SOL     OW29449   1.418   4.148   0.906
 9517SOL    HW129450   1.372   4.146   0.817
 9517SOL    HW229451   1.516   4.129   0.893
 9518SOL     OW29452   2.703   1.648   0.188
 9518SOL    HW129453   2.770   1.710   0.147
 9518SOL    HW229454   2.739   1.611   0.273
 9519SOL     OW29455   2.022   2.292   5.640
 9519SOL    HW129456   2.069   2.329   5.720
 9519SOL    HW229457   1.923   2.300   5.653
 9520SOL     OW29458   2.894   0.450   2.682
 9520SOL    HW129459   2.844   0.521   2.633
 9520SOL    HW229460   2.978   0.489   2.720
 9521SOL     OW29461   5.520   5.856   3.187
 9521SOL    HW129462   5.613   5.853   3.150
 9521SOL    HW229463   5.523   5.849   3.286
 9522SOL     OW29464   3.691   5.885   1.139
 9522SOL    HW129465   3.614   5.943   1.165
 9522SOL    HW229466   3.710   5.821   1.212
 9523SOL     OW29467   3.002   5.135   4.106
 9523SOL    HW129468   3.024   5.232   4.119
 9523SOL    HW229469   2.914   5.127   4.060
 9524SOL     OW29470   4.185   3.045   1.354
 9524SOL    HW129471   4.107   3.021   1.296
 9524SOL    HW229472   4.270   3.016   1.309
 9525SOL     OW29473   1.887   1.636   5.813
 9525SOL    HW129474   1.874   1.670   5.906
 9525SOL    HW229475   1.839   1.548   5.802
 9526SOL     OW29476   5.676   5.693   2.950
 9526SOL    HW129477   5.748   5.757   2.925
 9526SOL    HW229478   5.713   5.623   3.011
 9527SOL     OW29479   1.165   1.081   1.847
 9527SOL    HW129480   1.126   1.148   1.910
 9527SOL    HW229481   1.127   1.096   1.756
 9528SOL     OW29482   6.598   0.633   0.565
 9528SOL    HW129483   6.582   0.632   0.466
 9528SOL    HW229484   6.530   0.574   0.610
 9529SOL     OW29485   1.119   2.639   6.005
 9529SOL    HW129486   1.113   2.539   6.003
 9529SOL    HW229487   1.075   2.676   5.924
 9530SOL     OW29488   1.521   3.305   3.108
 9530SOL    HW129489   1.605   3.278   3.154
 9530SOL    HW229490   1.516   3.405   3.104
 9531SOL     OW29491   4.007   6.032   3.129
 9531SOL    HW129492   4.006   5.933   3.144
 9531SOL    HW229493   3.976   6.052   3.036
 9532SOL     OW29494   1.602   5.675   1.761
 9532SOL    HW129495   1.691   5.681   1.715
 9532SOL    HW229496   1.591   5.584   1.799
 9533SOL     OW29497   0.233   1.610   5.053
 9533SOL    HW129498   0.196   1.599   4.960
 9533SOL    HW229499   0.252   1.521   5.093
 9534SOL     OW29500   5.147   3.258   5.249
 9534SOL    HW129501   5.090   3.212   5.318
 9534SOL    HW229502   5.090   3.321   5.196
 9535SOL     OW29503   2.608   0.963   5.526
 9535SOL    HW129504   2.537   0.962   5.456
 9535SOL    HW229505   2.687   0.911   5.495
 9536SOL     OW29506   2.158   5.823   5.599
 9536SOL    HW129507   2.103   5.807   5.681
 9536SOL    HW229508   2.253   5.800   5.617
 9537SOL     OW29509   3.169   0.940   2.691
 9537SOL    HW129510   3.071   0.941   2.670
 9537SOL    HW229511   3.188   0.869   2.759
 9538SOL     OW29512   6.668   1.006   4.286
 9538SOL    HW129513   6.687   1.003   4.188
 9538SOL    HW229514   6.754   1.011   4.337
 9539SOL     OW29515   2.121   4.586   6.194
 9539SOL    HW129516   2.116   4.654   6.267
 9539SOL    HW229517   2.195   4.521   6.213
 9540SOL     OW29518   4.576   4.454   5.491
 9540SOL    HW129519   4.640   4.378   5.492
 9540SOL    HW229520   4.620   4.536   5.527
 9541SOL     OW29521   1.780   2.071   4.937
 9541SOL    HW129522   1.819   2.005   4.873
 9541SOL    HW229523   1.821   2.057   5.028
 9542SOL     OW29524   4.981   3.366   5.092
 9542SOL    HW129525   4.927   3.440   5.052
 9542SOL    HW229526   4.923   3.285   5.103
 9543SOL     OW29527   4.677   0.738   4.724
 9543SOL    HW129528   4.661   0.675   4.647
 9543SOL    HW229529   4.626   0.707   4.804
 9544SOL     OW29530   5.847   0.250   2.157
 9544SOL    HW129531   5.922   0.297   2.110
 9544SOL    HW229532   5.764   0.257   2.101
 9545SOL     OW29533   6.558   6.438   3.205
 9545SOL    HW129534   6.604   6.350   3.198
 9545SOL    HW229535   6.548   6.478   3.114
 9546SOL     OW29536   3.231   3.810   6.350
 9546SOL    HW129537   3.147   3.803   6.403
 9546SOL    HW229538   3.305   3.841   6.410
 9547SOL     OW29539   2.187   6.522   4.356
 9547SOL    HW129540   2.184   6.575   4.440
 9547SOL    HW229541   2.281   6.515   4.324
 9548SOL     OW29542   6.216   5.182   5.048
 9548SOL    HW129543   6.201   5.094   5.004
 9548SOL    HW229544   6.267   5.168   5.133
 9549SOL     OW29545   3.538   5.353   1.309
 9549SOL    HW129546   3.611   5.286   1.296
 9549SOL    HW229547   3.572   5.431   1.361
 9550SOL     OW29548   0.130   1.427   6.762
 9550SOL    HW129549   0.097   1.396   6.851
 9550SOL    HW229550   0.158   1.349   6.707
 9551SOL     OW29551   0.156   0.081   4.926
 9551SOL    HW129552   0.169   0.179   4.940
 9551SOL    HW229553   0.070   0.052   4.968
 9552SOL     OW29554   1.182   6.417   3.228
 9552SOL    HW129555   1.120   6.363   3.286
 9552SOL    HW229556   1.175   6.513   3.253
 9553SOL     OW29557   6.390   4.747   6.942
 9553SOL    HW129558   6.352   4.769   6.852
 9553SOL    HW229559   6.372   4.823   7.005
 9554SOL     OW29560   2.904   0.697   1.764
 9554SOL    HW129561   2.815   0.735   1.736
 9554SOL    HW229562   2.914   0.708   1.863
 9555SOL     OW29563   6.524   2.294   1.390
 9555SOL    HW129564   6.540   2.348   1.473
 9555SOL    HW229565   6.440   2.325   1.346
 9556SOL     OW29566   2.878   1.672   1.384
 9556SOL    HW129567   2.809   1.738   1.414
 9556SOL    HW229568   2.849   1.580   1.408
 9557SOL     OW29569   6.002   0.403   3.022
 9557SOL    HW129570   5.903   0.414   3.013
 9557SOL    HW229571   6.048   0.471   2.965
 9558SOL     OW29572   0.238   5.038   3.062
 9558SOL    HW129573   0.262   5.028   3.159
 9558SOL    HW229574   0.298   5.105   3.019
 9559SOL     OW29575   0.479   3.933   1.938
 9559SOL    HW129576   0.450   3.905   1.846
 9559SOL    HW229577   0.510   4.028   1.935
 9560SOL     OW29578   2.463   1.560   2.679
 9560SOL    HW129579   2.466   1.621   2.600
 9560SOL    HW229580   2.540   1.496   2.674
 9561SOL     OW29581   3.126   6.339   0.712
 9561SOL    HW129582   3.067   6.341   0.792
 9561SOL    HW229583   3.184   6.421   0.711
 9562SOL     OW29584   4.190   5.382   3.981
 9562SOL    HW129585   4.177   5.396   4.079
 9562SOL    HW229586   4.102   5.376   3.935
 9563SOL     OW29587   6.986   6.571   6.920
 9563SOL    HW129588   7.013   6.540   6.829
 9563SOL    HW229589   7.002   6.669   6.928
 9564SOL     OW29590   2.949   6.879   6.265
 9564SOL    HW129591   2.923   6.783   6.272
 9564SOL    HW229592   3.014   6.902   6.338
 9565SOL     OW29593   4.195   5.815   4.624
 9565SOL    HW129594   4.160   5.732   4.667
 9565SOL    HW229595   4.119   5.866   4.583
 9566SOL     OW29596   3.437   4.600   6.591
 9566SOL    HW129597   3.501   4.574   6.663
 9566SOL    HW229598   3.416   4.521   6.534
 9567SOL     OW29599   6.029   5.723   6.503
 9567SOL    HW129600   5.940   5.769   6.495
 9567SOL    HW229601   6.093   5.763   6.438
 9568SOL     OW29602   5.061   3.831   6.419
 9568SOL    HW129603   5.154   3.859   6.392
 9568SOL    HW229604   4.995   3.895   6.379
 9569SOL     OW29605   6.469   1.518   0.000
 9569SOL    HW129606   6.475   1.432   0.052
 9569SOL    HW229607   6.528   1.512   6.946
 9570SOL     OW29608   0.139   1.405   1.010
 9570SOL    HW129609   0.125   1.328   0.948
 9570SOL    HW229610   0.155   1.371   1.103
 9571SOL     OW29611   2.443   4.068   0.289
 9571SOL    HW129612   2.445   4.167   0.280
 9571SOL    HW229613   2.523   4.038   0.342
 9572SOL     OW29614   1.000   4.326   1.046
 9572SOL    HW129615   1.083   4.356   0.999
 9572SOL    HW229616   1.001   4.226   1.055
 9573SOL     OW29617   0.841   0.980   6.838
 9573SOL    HW129618   0.799   1.050   6.780
 9573SOL    HW229619   0.818   0.999   6.934
 9574SOL     OW29620   3.672   3.666   5.779
 9574SOL    HW129621   3.628   3.695   5.863
 9574SOL    HW229622   3.712   3.745   5.733
 9575SOL     OW29623   5.702   0.803   1.846
 9575SOL    HW129624   5.799   0.792   1.866
 9575SOL    HW229625   5.690   0.836   1.752
 9576SOL     OW29626   3.394   1.355   3.792
 9576SOL    HW129627   3.463   1.397   3.850
 9576SOL    HW229628   3.317   1.326   3.847
 9577SOL     OW29629   0.181   6.795   2.357
 9577SOL    HW129630   0.231   6.708   2.353
 9577SOL    HW229631   0.172   6.833   2.265
 9578SOL     OW29632   6.068   2.562   2.239
 9578SOL    HW129633   6.136   2.612   2.185
 9578SOL    HW229634   6.112   2.485   2.286
 9579SOL     OW29635   1.414   0.122   1.853
 9579SOL    HW129636   1.420   0.151   1.949
 9579SOL    HW229637   1.467   0.185   1.796
 9580SOL     OW29638   4.787   3.665   0.246
 9580SOL    HW129639   4.740   3.723   0.179
 9580SOL    HW229640   4.862   3.716   0.287
 9581SOL     OW29641   1.381   5.693   6.019
 9581SOL    HW129642   1.395   5.596   6.040
 9581SOL    HW229643   1.299   5.726   6.067
 9582SOL     OW29644   4.351   4.638   4.024
 9582SOL    HW129645   4.400   4.584   4.092
 9582SOL    HW229646   4.292   4.705   4.070
 9583SOL     OW29647   2.149   3.692   1.805
 9583SOL    HW129648   2.205   3.616   1.838
 9583SOL    HW229649   2.061   3.691   1.852
 9584SOL     OW29650   6.311   4.998   6.728
 9584SOL    HW129651   6.411   5.001   6.725
 9584SOL    HW229652   6.276   4.947   6.649
 9585SOL     OW29653   5.699   6.808   2.662
 9585SOL    HW129654   5.730   6.855   2.579
 9585SOL    HW229655   5.603   6.829   2.678
 9586SOL     OW29656   5.343   3.213   3.798
 9586SOL    HW129657   5.260   3.158   3.789
 9586SOL    HW229658   5.332   3.299   3.749
 9587SOL     OW29659   5.856   0.164   1.669
 9587SOL    HW129660   5.908   0.236   1.624
 9587SOL    HW229661   5.789   0.205   1.731
 9588SOL     OW29662   0.036   0.642   1.523
 9588SOL    HW129663   7.007   0.726   1.518
 9588SOL    HW229664   7.004   0.563   1.505
 9589SOL     OW29665   2.104   6.634   5.583
 9589SOL    HW129666   2.110   6.638   5.683
 9589SOL    HW229667   2.160   6.558   5.550
 9590SOL     OW29668   0.386   4.031   2.870
 9590SOL    HW129669   0.359   3.935   2.870
 9590SOL    HW229670   0.434   4.052   2.955
 9591SOL     OW29671   2.647   6.507   1.166
 9591SOL    HW129672   2.616   6.415   1.191
 9591SOL    HW229673   2.684   6.552   1.247
 9592SOL     OW29674   4.297   5.482   2.751
 9592SOL    HW129675   4.343   5.571   2.754
 9592SOL    HW229676   4.332   5.424   2.824
 9593SOL     OW29677   6.296   3.004   4.440
 9593SOL    HW129678   6.389   3.040   4.450
 9593SOL    HW229679   6.230   3.078   4.456
 9594SOL     OW29680   6.556   6.734   2.626
 9594SOL    HW129681   6.466   6.693   2.641
 9594SOL    HW229682   6.545   6.830   2.601
 9595SOL     OW29683   1.096   5.482   4.220
 9595SOL    HW129684   1.075   5.522   4.309
 9595SOL    HW229685   1.193   5.458   4.217
 9596SOL     OW29686   6.626   6.391   5.114
 9596SOL    HW129687   6.642   6.465   5.049
 9596SOL    HW229688   6.586   6.313   5.067
 9597SOL     OW29689   0.731   4.210   1.609
 9597SOL    HW129690   0.709   4.190   1.705
 9597SOL    HW229691   0.830   4.221   1.599
 9598SOL     OW29692   0.570   4.480   6.287
 9598SOL    HW129693   0.616   4.434   6.363
 9598SOL    HW229694   0.637   4.531   6.234
 9599SOL     OW29695   3.923   0.225   5.253
 9599SOL    HW129696   3.943   0.170   5.172
 9599SOL    HW229697   3.825   0.246   5.255
 9600SOL     OW29698   0.905   0.368   5.633
 9600SOL    HW129699   0.941   0.286   5.678
 9600SOL    HW229700   0.853   0.341   5.552
 9601SOL     OW29701   0.948   5.133   6.222
 9601SOL    HW129702   1.047   5.145   6.226
 9601SOL    HW229703   0.922   5.092   6.135
 9602SOL     OW29704   0.128   5.070   6.526
 9602SOL    HW129705   0.164   5.130   6.456
 9602SOL    HW229706   0.112   5.122   6.610
 9603SOL     OW29707   2.236   6.135   4.180
 9603SOL    HW129708   2.156   6.193   4.199
 9603SOL    HW229709   2.318   6.177   4.219
 9604SOL     OW29710   4.725   1.350   6.920
 9604SOL    HW129711   4.683   1.299   6.995
 9604SOL    HW229712   4.811   1.306   6.894
 9605SOL     OW29713   1.956   5.783   6.127
 9605SOL    HW129714   1.991   5.734   6.047
 9605SOL    HW229715   2.032   5.813   6.184
 9606SOL     OW29716   0.256   5.871   3.359
 9606SOL    HW129717   0.189   5.864   3.433
 9606SOL    HW229718   0.242   5.956   3.309
 9607SOL     OW29719   0.777   1.240   2.397
 9607SOL    HW129720   0.820   1.177   2.332
 9607SOL    HW229721   0.846   1.302   2.434
 9608SOL     OW29722   6.902   6.869   2.599
 9608SOL    HW129723   6.816   6.913   2.573
 9608SOL    HW229724   6.915   6.786   2.545
 9609SOL     OW29725   2.373   4.396   5.057
 9609SOL    HW129726   2.308   4.472   5.053
 9609SOL    HW229727   2.360   4.336   4.978
 9610SOL     OW29728   1.939   1.791   6.030
 9610SOL    HW129729   1.907   1.866   6.087
 9610SOL    HW229730   2.019   1.820   5.977
 9611SOL     OW29731   6.942   0.537   0.870
 9611SOL    HW129732   6.957   0.580   0.780
 9611SOL    HW229733   6.881   0.595   0.924
 9612SOL     OW29734   5.739   3.205   0.955
 9612SOL    HW129735   5.650   3.171   0.925
 9612SOL    HW229736   5.728   3.296   0.995
 9613SOL     OW29737   6.160   6.813   5.559
 9613SOL    HW129738   6.187   6.759   5.479
 9613SOL    HW229739   6.227   6.799   5.633
 9614SOL     OW29740   3.727   3.841   2.368
 9614SOL    HW129741   3.780   3.857   2.451
 9614SOL    HW229742   3.720   3.743   2.350
 9615SOL     OW29743   1.071   6.065   2.664
 9615SOL    HW129744   1.014   6.139   2.699
 9615SOL    HW229745   1.115   6.018   2.741
 9616SOL     OW29746   3.332   2.348   0.855
 9616SOL    HW129747   3.274   2.277   0.896
 9616SOL    HW229748   3.346   2.422   0.921
 9617SOL     OW29749   1.257   2.884   3.546
 9617SOL    HW129750   1.184   2.844   3.602
 9617SOL    HW229751   1.221   2.909   3.457
 9618SOL     OW29752   3.884   6.558   6.389
 9618SOL    HW129753   3.918   6.464   6.393
 9618SOL    HW229754   3.784   6.557   6.390
 9619SOL     OW29755   2.279   5.810   0.351
 9619SOL    HW129756   2.378   5.813   0.365
 9619SOL    HW229757   2.235   5.878   0.408
 9620SOL     OW29758   3.272   0.685   7.002
 9620SOL    HW129759   3.276   0.666   6.904
 9620SOL    HW229760   3.312   0.776   7.020
 9621SOL     OW29761   0.167   1.139   2.611
 9621SOL    HW129762   0.253   1.089   2.602
 9621SOL    HW229763   0.134   1.164   2.520
 9622SOL     OW29764   5.933   0.346   6.709
 9622SOL    HW129765   5.970   0.290   6.635
 9622SOL    HW229766   5.984   0.326   6.793
 9623SOL     OW29767   5.276   5.866   6.337
 9623SOL    HW129768   5.214   5.824   6.270
 9623SOL    HW229769   5.256   5.831   6.428
 9624SOL     OW29770   4.897   5.755   4.935
 9624SOL    HW129771   4.884   5.852   4.911
 9624SOL    HW229772   4.820   5.702   4.899
 9625SOL     OW29773   5.211   4.755   6.709
 9625SOL    HW129774   5.226   4.746   6.807
 9625SOL    HW229775   5.174   4.670   6.672
 9626SOL     OW29776   1.847   4.726   5.534
 9626SOL    HW129777   1.846   4.755   5.629
 9626SOL    HW229778   1.757   4.690   5.509
 9627SOL     OW29779   1.782   5.376   6.183
 9627SOL    HW129780   1.842   5.351   6.258
 9627SOL    HW229781   1.752   5.470   6.194
 9628SOL     OW29782   5.890   4.211   6.674
 9628SOL    HW129783   5.906   4.224   6.772
 9628SOL    HW229784   5.794   4.229   6.654
 9629SOL     OW29785   0.220   5.965   2.862
 9629SOL    HW129786   0.294   6.017   2.819
 9629SOL    HW229787   0.208   5.878   2.813
 9630SOL     OW29788   6.519   6.615   5.592
 9630SOL    HW129789   6.435   6.646   5.636
 9630SOL    HW229790   6.543   6.678   5.518
 9631SOL     OW29791   4.115   1.216   0.734
 9631SOL    HW129792   4.203   1.255   0.707
 9631SOL    HW229793   4.056   1.289   0.770
 9632SOL     OW29794   3.084   5.666   1.244
 9632SOL    HW129795   3.085   5.624   1.154
 9632SOL    HW229796   3.027   5.613   1.306
 9633SOL     OW29797   3.945   3.084   2.051
 9633SOL    HW129798   3.874   3.115   2.114
 9633SOL    HW229799   4.027   3.140   2.064
 9634SOL     OW29800   5.412   4.742   2.829
 9634SOL    HW129801   5.380   4.726   2.736
 9634SOL    HW229802   5.509   4.715   2.837
 9635SOL     OW29803   1.268   3.698   4.328
 9635SOL    HW129804   1.360   3.729   4.351
 9635SOL    HW229805   1.209   3.704   4.409
 9636SOL     OW29806   4.392   2.008   5.638
 9636SOL    HW129807   4.306   2.047   5.672
 9636SOL    HW229808   4.468   2.064   5.670
 9637SOL     OW29809   2.247   3.471   1.150
 9637SOL    HW129810   2.269   3.533   1.075
 9637SOL    HW229811   2.326   3.413   1.170
 9638SOL     OW29812   0.334   4.192   6.415
 9638SOL    HW129813   0.338   4.193   6.315
 9638SOL    HW229814   0.411   4.243   6.452
 9639SOL     OW29815   4.539   2.114   1.764
 9639SOL    HW129816   4.613   2.180   1.772
 9639SOL    HW229817   4.573   2.031   1.719
 9640SOL     OW29818   4.009   1.049   2.472
 9640SOL    HW129819   3.917   1.060   2.436
 9640SOL    HW229820   4.062   1.132   2.454
 9641SOL     OW29821   5.627   5.009   2.566
 9641SOL    HW129822   5.597   4.933   2.509
 9641SOL    HW229823   5.558   5.028   2.637
 9642SOL     OW29824   1.648   6.994   3.972
 9642SOL    HW129825   1.615   6.905   3.940
 9642SOL    HW229826   1.576   0.011   4.028
 9643SOL     OW29827   4.908   3.652   4.096
 9643SOL    HW129828   4.828   3.604   4.060
 9643SOL    HW229829   4.954   3.701   4.022
 9644SOL     OW29830   1.782   6.340   5.390
 9644SOL    HW129831   1.784   6.311   5.294
 9644SOL    HW229832   1.864   6.394   5.411
 9645SOL     OW29833   1.571   5.656   5.789
 9645SOL    HW129834   1.640   5.617   5.851
 9645SOL    HW229835   1.506   5.710   5.842
 9646SOL     OW29836   2.996   6.849   4.794
 9646SOL    HW129837   2.956   6.940   4.802
 9646SOL    HW229838   3.059   6.847   4.716
 9647SOL     OW29839   6.388   6.411   3.417
 9647SOL    HW129840   6.448   6.420   3.338
 9647SOL    HW229841   6.370   6.501   3.456
 9648SOL     OW29842   5.319   2.078   1.658
 9648SOL    HW129843   5.396   2.122   1.704
 9648SOL    HW229844   5.293   2.132   1.579
 9649SOL     OW29845   2.313   3.628   0.112
 9649SOL    HW129846   2.346   3.573   0.036
 9649SOL    HW229847   2.346   3.722   0.104
 9650SOL     OW29848   6.245   4.363   3.853
 9650SOL    HW129849   6.163   4.329   3.807
 9650SOL    HW229850   6.220   4.436   3.917
 9651SOL     OW29851   2.755   1.429   0.016
 9651SOL    HW129852   2.735   1.504   0.078
 9651SOL    HW229853   2.803   1.356   0.065
 9652SOL     OW29854   0.523   3.984   0.764
 9652SOL    HW129855   0.587   4.028   0.700
 9652SOL    HW229856   0.557   3.893   0.787
 9653SOL     OW29857   4.666   4.272   5.899
 9653SOL    HW129858   4.749   4.328   5.903
 9653SOL    HW229859   4.593   4.325   5.856
 9654SOL     OW29860   4.080   3.374   3.218
 9654SOL    HW129861   4.028   3.358   3.301
 9654SOL    HW229862   4.083   3.290   3.163
 9655SOL     OW29863   5.931   0.750   1.489
 9655SOL    HW129864   5.968   0.708   1.572
 9655SOL    HW229865   5.964   0.699   1.409
 9656SOL     OW29866   5.289   3.387   0.610
 9656SOL    HW129867   5.307   3.306   0.555
 9656SOL    HW229868   5.374   3.439   0.621
 9657SOL     OW29869   5.289   3.851   3.724
 9657SOL    HW129870   5.339   3.789   3.785
 9657SOL    HW229871   5.252   3.799   3.647
 9658SOL     OW29872   4.444   1.645   2.899
 9658SOL    HW129873   4.506   1.722   2.886
 9658SOL    HW229874   4.491   1.573   2.950
 9659SOL     OW29875   3.516   2.393   0.671
 9659SOL    HW129876   3.475   2.331   0.603
 9659SOL    HW229877   3.462   2.390   0.755
 9660SOL     OW29878   0.625   5.914   0.421
 9660SOL    HW129879   0.530   5.935   0.399
 9660SOL    HW229880   0.649   5.954   0.510
 9661SOL     OW29881   4.777   5.178   1.340
 9661SOL    HW129882   4.836   5.203   1.264
 9661SOL    HW229883   4.713   5.253   1.359
 9662SOL     OW29884   5.588   5.036   0.287
 9662SOL    HW129885   5.657   5.045   0.215
 9662SOL    HW229886   5.630   4.998   0.370
 9663SOL     OW29887   1.108   4.474   3.695
 9663SOL    HW129888   1.046   4.512   3.627
 9663SOL    HW229889   1.136   4.546   3.758
 9664SOL     OW29890   5.172   3.662   3.532
 9664SOL    HW129891   5.193   3.627   3.440
 9664SOL    HW229892   5.080   3.632   3.558
 9665SOL     OW29893   6.610   6.725   6.128
 9665SOL    HW129894   6.516   6.759   6.134
 9665SOL    HW229895   6.627   6.660   6.201
 9666SOL     OW29896   6.151   4.547   1.552
 9666SOL    HW129897   6.129   4.457   1.590
 9666SOL    HW229898   6.243   4.545   1.513
 9667SOL     OW29899   3.991   5.709   0.753
 9667SOL    HW129900   3.931   5.629   0.747
 9667SOL    HW229901   3.948   5.779   0.810
 9668SOL     OW29902   1.148   6.747   5.591
 9668SOL    HW129903   1.118   6.690   5.515
 9668SOL    HW229904   1.233   6.793   5.567
 9669SOL     OW29905   2.612   0.019   1.065
 9669SOL    HW129906   2.696   7.015   1.110
 9669SOL    HW229907   2.564   6.966   1.028
 9670SOL     OW29908   0.596   0.090   5.886
 9670SOL    HW129909   0.650   0.167   5.921
 9670SOL    HW229910   0.654   0.009   5.880
 9671SOL     OW29911   1.024   5.015   0.286
 9671SOL    HW129912   1.097   4.953   0.258
 9671SOL    HW229913   1.064   5.097   0.327
 9672SOL     OW29914   0.681   4.362   3.370
 9672SOL    HW129915   0.663   4.266   3.394
 9672SOL    HW229916   0.677   4.373   3.270
 9673SOL     OW29917   3.479   4.249   1.684
 9673SOL    HW129918   3.436   4.197   1.758
 9673SOL    HW229919   3.478   4.195   1.600
 9674SOL     OW29920   3.536   6.715   2.663
 9674SOL    HW129921   3.633   6.736   2.652
 9674SOL    HW229922   3.487   6.799   2.686
 9675SOL     OW29923   4.862   3.961   0.569
 9675SOL    HW129924   4.915   4.011   0.500
 9675SOL    HW229925   4.849   3.866   0.540
 9676SOL     OW29926   1.456   2.410   6.260
 9676SOL    HW129927   1.413   2.422   6.170
 9676SOL    HW229928   1.458   2.497   6.308
 9677SOL     OW29929   6.072   5.202   0.359
 9677SOL    HW129930   6.013   5.272   0.319
 9677SOL    HW229931   6.063   5.116   0.308
 9678SOL     OW29932   3.326   3.859   4.664
 9678SOL    HW129933   3.349   3.957   4.665
 9678SOL    HW229934   3.268   3.838   4.743
 9679SOL     OW29935   3.051   1.858   4.312
 9679SOL    HW129936   3.058   1.929   4.242
 9679SOL    HW229937   2.957   1.856   4.348
 9680SOL     OW29938   5.004   6.569   4.565
 9680SOL    HW129939   4.947   6.493   4.533
 9680SOL    HW229940   5.024   6.630   4.489
 9681SOL     OW29941   2.854   1.236   1.299
 9681SOL    HW129942   2.938   1.267   1.254
 9681SOL    HW229943   2.808   1.168   1.242
 9682SOL     OW29944   5.764   5.247   4.286
 9682SOL    HW129945   5.774   5.330   4.340
 9682SOL    HW229946   5.755   5.168   4.347
 9683SOL     OW29947   1.538   6.293   0.920
 9683SOL    HW129948   1.565   6.282   0.824
 9683SOL    HW229949   1.462   6.357   0.925
 9684SOL     OW29950   1.011   3.792   5.248
 9684SOL    HW129951   0.960   3.778   5.164
 9684SOL    HW229952   1.043   3.705   5.283
 9685SOL     OW29953   4.506   3.483   0.646
 9685SOL    HW129954   4.493   3.540   0.566
 9685SOL    HW229955   4.570   3.409   0.625
 9686SOL     OW29956   6.802   2.189   6.506
 9686SOL    HW129957   6.787   2.152   6.597
 9686SOL    HW229958   6.895   2.224   6.499
 9687SOL     OW29959   6.467   6.627   0.938
 9687SOL    HW129960   6.456   6.702   1.002
 9687SOL    HW229961   6.377   6.586   0.919
 9688SOL     OW29962   1.306   4.676   1.022
 9688SOL    HW129963   1.308   4.639   1.115
 9688SOL    HW229964   1.268   4.607   0.960
 9689SOL     OW29965   1.330   5.707   6.331
 9689SOL    HW129966   1.251   5.695   6.271
 9689SOL    HW229967   1.300   5.745   6.419
 9690SOL     OW29968   4.739   5.272   5.286
 9690SOL    HW129969   4.704   5.365   5.288
 9690SOL    HW229970   4.720   5.226   5.373
 9691SOL     OW29971   3.523   4.136   2.320
 9691SOL    HW129972   3.532   4.204   2.393
 9691SOL    HW229973   3.438   4.085   2.333
 9692SOL     OW29974   4.860   5.364   0.219
 9692SOL    HW129975   4.888   5.431   0.287
 9692SOL    HW229976   4.861   5.273   0.260
 9693SOL     OW29977   5.733   3.950   4.297
 9693SOL    HW129978   5.701   3.882   4.363
 9693SOL    HW229979   5.833   3.946   4.291
 9694SOL     OW29980   2.915   0.419   1.859
 9694SOL    HW129981   2.893   0.514   1.837
 9694SOL    HW229982   2.830   0.365   1.865
 9695SOL     OW29983   0.222   4.057   3.179
 9695SOL    HW129984   0.288   4.063   3.105
 9695SOL    HW229985   0.269   4.062   3.267
 9696SOL     OW29986   5.950   1.823   2.740
 9696SOL    HW129987   6.005   1.896   2.699
 9696SOL    HW229988   5.910   1.855   2.826
 9697SOL     OW29989   6.823   6.239   6.920
 9697SOL    HW129990   6.856   6.198   6.835
 9697SOL    HW229991   6.743   6.188   6.953
 9698SOL     OW29992   5.777   3.583   6.420
 9698SOL    HW129993   5.682   3.607   6.404
 9698SOL    HW229994   5.807   3.515   6.352
 9699SOL     OW29995   0.916   5.634   0.190
 9699SOL    HW129996   0.946   5.701   0.122
 9699SOL    HW229997   0.928   5.542   0.154
 9700SOL     OW29998   6.733   6.163   3.744
 9700SOL    HW129999   6.669   6.233   3.710
 9700SOL    HW230000   6.706   6.134   3.835
 9701SOL     OW30001   4.845   3.422   6.576
 9701SOL    HW130002   4.927   3.415   6.519
 9701SOL    HW230003   4.765   3.392   6.523
 9702SOL     OW30004   3.405   2.861   0.607
 9702SOL    HW130005   3.494   2.899   0.579
 9702SOL    HW230006   3.408   2.839   0.705
 9703SOL     OW30007   6.117   4.173   4.393
 9703SOL    HW130008   6.068   4.110   4.452
 9703SOL    HW230009   6.084   4.164   4.299
 9704SOL     OW30010   3.058   4.830   3.001
 9704SOL    HW130011   2.992   4.803   2.931
 9704SOL    HW230012   3.039   4.779   3.085
 9705SOL     OW30013   6.172   4.306   5.064
 9705SOL    HW130014   6.204   4.219   5.102
 9705SOL    HW230015   6.072   4.303   5.056
 9706SOL     OW30016   1.573   1.931   1.545
 9706SOL    HW130017   1.609   1.999   1.610
 9706SOL    HW230018   1.502   1.877   1.590
 9707SOL     OW30019   5.791   4.742   1.795
 9707SOL    HW130020   5.699   4.722   1.830
 9707SOL    HW230021   5.847   4.779   1.869
 9708SOL     OW30022   1.641   1.457   2.057
 9708SOL    HW130023   1.573   1.440   1.987
 9708SOL    HW230024   1.633   1.551   2.091
 9709SOL     OW30025   5.354   3.820   2.008
 9709SOL    HW130026   5.267   3.868   1.999
 9709SOL    HW230027   5.415   3.848   1.934
 9710SOL     OW30028   6.337   0.350   6.918
 9710SOL    HW130029   6.387   0.301   6.990
 9710SOL    HW230030   6.248   0.307   6.904
 9711SOL     OW30031   4.227   6.109   5.618
 9711SOL    HW130032   4.215   6.191   5.562
 9711SOL    HW230033   4.310   6.118   5.673
 9712SOL     OW30034   6.047   3.365   0.605
 9712SOL    HW130035   6.093   3.288   0.650
 9712SOL    HW230036   6.115   3.420   0.557
 9713SOL     OW30037   2.213   6.587   2.914
 9713SOL    HW130038   2.120   6.587   2.878
 9713SOL    HW230039   2.220   6.521   2.989
 9714SOL     OW30040   4.049   5.601   4.681
 9714SOL    HW130041   3.963   5.596   4.630
 9714SOL    HW230042   4.085   5.509   4.695
 9715SOL     OW30043   6.510   4.712   1.206
 9715SOL    HW130044   6.435   4.683   1.147
 9715SOL    HW230045   6.590   4.655   1.188
 9716SOL     OW30046   3.926   4.338   6.615
 9716SOL    HW130047   3.969   4.247   6.619
 9716SOL    HW230048   3.934   4.382   6.705
 9717SOL     OW30049   5.027   6.408   6.672
 9717SOL    HW130050   5.053   6.359   6.755
 9717SOL    HW230051   4.998   6.343   6.602
 9718SOL     OW30052   3.931   2.147   0.597
 9718SOL    HW130053   3.904   2.067   0.652
 9718SOL    HW230054   4.013   2.188   0.636
 9719SOL     OW30055   5.072   6.858   5.818
 9719SOL    HW130056   5.166   6.873   5.788
 9719SOL    HW230057   5.011   6.921   5.770
 9720SOL     OW30058   1.476   3.876   2.662
 9720SOL    HW130059   1.489   3.946   2.591
 9720SOL    HW230060   1.528   3.794   2.636
 9721SOL     OW30061   0.662   1.433   0.253
 9721SOL    HW130062   0.642   1.527   0.226
 9721SOL    HW230063   0.577   1.380   0.256
 9722SOL     OW30064   3.581   2.186   5.220
 9722SOL    HW130065   3.488   2.205   5.252
 9722SOL    HW230066   3.639   2.264   5.239
 9723SOL     OW30067   6.002   4.963   4.910
 9723SOL    HW130068   6.019   4.883   4.967
 9723SOL    HW230069   5.964   5.037   4.966
 9724SOL     OW30070   2.024   5.537   6.306
 9724SOL    HW130071   2.059   5.489   6.226
 9724SOL    HW230072   1.953   5.601   6.278
 9725SOL     OW30073   3.852   5.563   4.980
 9725SOL    HW130074   3.938   5.546   5.028
 9725SOL    HW230075   3.870   5.616   4.897
 9726SOL     OW30076   4.947   1.013   4.171
 9726SOL    HW130077   5.047   1.020   4.170
 9726SOL    HW230078   4.913   1.011   4.077
 9727SOL     OW30079   0.703   2.737   0.282
 9727SOL    HW130080   0.764   2.802   0.235
 9727SOL    HW230081   0.672   2.668   0.216
 9728SOL     OW30082   6.380   1.631   6.291
 9728SOL    HW130083   6.473   1.643   6.256
 9728SOL    HW230084   6.380   1.560   6.361
 9729SOL     OW30085   1.657   3.654   4.201
 9729SOL    HW130086   1.683   3.714   4.125
 9729SOL    HW230087   1.716   3.673   4.280
 9730SOL     OW30088   1.026   4.148   4.077
 9730SOL    HW130089   1.013   4.181   3.983
 9730SOL    HW230090   1.076   4.062   4.075
 9731SOL     OW30091   5.205   4.627   2.149
 9731SOL    HW130092   5.203   4.527   2.148
 9731SOL    HW230093   5.175   4.662   2.060
 9732SOL     OW30094   0.682   3.221   2.012
 9732SOL    HW130095   0.740   3.157   2.063
 9732SOL    HW230096   0.650   3.293   2.073
 9733SOL     OW30097   6.145   5.529   2.054
 9733SOL    HW130098   6.116   5.614   2.010
 9733SOL    HW230099   6.082   5.506   2.128
 9734SOL     OW30100   6.779   6.608   0.249
 9734SOL    HW130101   6.876   6.606   0.276
 9734SOL    HW230102   6.771   6.578   0.154
 9735SOL     OW30103   1.229   2.433   3.388
 9735SOL    HW130104   1.164   2.496   3.345
 9735SOL    HW230105   1.321   2.471   3.380
 9736SOL     OW30106   4.982   1.990   6.243
 9736SOL    HW130107   4.916   2.036   6.302
 9736SOL    HW230108   5.024   2.056   6.181
 9737SOL     OW30109   5.663   2.343   3.028
 9737SOL    HW130110   5.743   2.402   3.015
 9737SOL    HW230111   5.693   2.248   3.036
 9738SOL     OW30112   2.216   6.583   0.696
 9738SOL    HW130113   2.184   6.663   0.646
 9738SOL    HW230114   2.222   6.505   0.634
 9739SOL     OW30115   4.522   6.040   6.932
 9739SOL    HW130116   4.531   5.952   6.884
 9739SOL    HW230117   4.503   6.112   6.865
 9740SOL     OW30118   5.406   0.167   2.552
 9740SOL    HW130119   5.364   0.242   2.502
 9740SOL    HW230120   5.367   0.161   2.643
 9741SOL     OW30121   2.490   1.142   3.883
 9741SOL    HW130122   2.500   1.067   3.949
 9741SOL    HW230123   2.578   1.160   3.839
 9742SOL     OW30124   4.671   0.762   0.072
 9742SOL    HW130125   4.599   0.825   0.041
 9742SOL    HW230126   4.752   0.815   0.099
 9743SOL     OW30127   0.429   3.441   3.263
 9743SOL    HW130128   0.398   3.363   3.208
 9743SOL    HW230129   0.491   3.409   3.334
 9744SOL     OW30130   2.211   6.861   2.948
 9744SOL    HW130131   2.216   6.766   2.978
 9744SOL    HW230132   2.121   6.898   2.970
 9745SOL     OW30133   5.300   2.475   6.218
 9745SOL    HW130134   5.385   2.437   6.253
 9745SOL    HW230135   5.306   2.575   6.220
 9746SOL     OW30136   5.271   6.588   0.011
 9746SOL    HW130137   5.342   6.528   7.000
 9746SOL    HW230138   5.237   6.648   6.964
 9747SOL     OW30139   2.450   2.168   1.583
 9747SOL    HW130140   2.413   2.105   1.651
 9747SOL    HW230141   2.536   2.206   1.616
 9748SOL     OW30142   0.180   0.332   3.161
 9748SOL    HW130143   0.258   0.392   3.145
 9748SOL    HW230144   0.212   0.243   3.191
 9749SOL     OW30145   0.854   1.988   2.543
 9749SOL    HW130146   0.949   1.966   2.565
 9749SOL    HW230147   0.830   2.077   2.581
 9750SOL     OW30148   5.802   4.625   4.023
 9750SOL    HW130149   5.893   4.591   4.047
 9750SOL    HW230150   5.796   4.723   4.044
 9751SOL     OW30151   2.541   0.226   0.668
 9751SOL    HW130152   2.531   0.293   0.595
 9751SOL    HW230153   2.470   0.240   0.737
 9752SOL     OW30154   3.931   2.615   6.765
 9752SOL    HW130155   3.931   2.654   6.673
 9752SOL    HW230156   3.880   2.674   6.827
 9753SOL     OW30157   1.111   5.992   6.007
 9753SOL    HW130158   1.042   6.064   6.001
 9753SOL    HW230159   1.075   5.907   5.968
 9754SOL     OW30160   3.997   0.011   0.424
 9754SOL    HW130161   4.008   0.109   0.441
 9754SOL    HW230162   4.041   6.985   0.496
 9755SOL     OW30163   3.138   4.134   5.030
 9755SOL    HW130164   3.086   4.209   4.990
 9755SOL    HW230165   3.133   4.139   5.130
 9756SOL     OW30166   5.648   2.138   6.076
 9756SOL    HW130167   5.705   2.200   6.131
 9756SOL    HW230168   5.563   2.120   6.125
 9757SOL     OW30169   5.184   4.564   4.470
 9757SOL    HW130170   5.259   4.499   4.471
 9757SOL    HW230171   5.145   4.570   4.378
 9758SOL     OW30172   1.089   1.410   6.626
 9758SOL    HW130173   1.078   1.509   6.636
 9758SOL    HW230174   1.105   1.387   6.530
 9759SOL     OW30175   0.820   1.721   6.777
 9759SOL    HW130176   0.878   1.674   6.843
 9759SOL    HW230177   0.871   1.738   6.693
 9760SOL     OW30178   4.873   2.607   0.021
 9760SOL    HW130179   4.874   2.642   0.115
 9760SOL    HW230180   4.881   2.682   6.983
 9761SOL     OW30181   1.365   1.413   1.964
 9761SOL    HW130182   1.324   1.362   1.889
 9761SOL    HW230183   1.321   1.502   1.973
 9762SOL     OW30184   3.213   1.756   4.584
 9762SOL    HW130185   3.229   1.853   4.566
 9762SOL    HW230186   3.115   1.736   4.574
 9763SOL     OW30187   6.378   1.085   3.250
 9763SOL    HW130188   6.351   1.058   3.157
 9763SOL    HW230189   6.454   1.028   3.280
 9764SOL     OW30190   6.267   1.837   3.410
 9764SOL    HW130191   6.312   1.747   3.407
 9764SOL    HW230192   6.331   1.905   3.447
 9765SOL     OW30193   6.446   1.014   2.983
 9765SOL    HW130194   6.425   0.984   2.890
 9765SOL    HW230195   6.542   0.994   3.004
 9766SOL     OW30196   2.180   0.178   3.258
 9766SOL    HW130197   2.104   0.230   3.219
 9766SOL    HW230198   2.264   0.198   3.206
 9767SOL     OW30199   2.069   2.621   5.053
 9767SOL    HW130200   2.047   2.705   5.003
 9767SOL    HW230201   2.165   2.624   5.083
 9768SOL     OW30202   5.511   2.137   1.184
 9768SOL    HW130203   5.439   2.075   1.153
 9768SOL    HW230204   5.507   2.222   1.131
 9769SOL     OW30205   3.500   0.475   4.942
 9769SOL    HW130206   3.564   0.546   4.973
 9769SOL    HW230207   3.411   0.490   4.983
 9770SOL     OW30208   3.705   1.857   5.561
 9770SOL    HW130209   3.728   1.912   5.480
 9770SOL    HW230210   3.710   1.760   5.538
 9771SOL     OW30211   2.417   6.941   1.752
 9771SOL    HW130212   2.387   6.892   1.834
 9771SOL    HW230213   2.349   6.928   1.680
 9772SOL     OW30214   1.973   6.631   1.943
 9772SOL    HW130215   1.961   6.729   1.927
 9772SOL    HW230216   1.986   6.614   2.041
 9773SOL     OW30217   5.946   4.825   3.396
 9773SOL    HW130218   5.963   4.772   3.313
 9773SOL    HW230219   5.851   4.856   3.397
 9774SOL     OW30220   0.550   4.375   3.619
 9774SOL    HW130221   0.594   4.389   3.530
 9774SOL    HW230222   0.512   4.283   3.623
 9775SOL     OW30223   2.876   0.451   3.118
 9775SOL    HW130224   2.815   0.380   3.156
 9775SOL    HW230225   2.941   0.480   3.188
 9776SOL     OW30226   1.287   4.759   6.319
 9776SOL    HW130227   1.346   4.757   6.238
 9776SOL    HW230228   1.274   4.666   6.352
 9777SOL     OW30229   5.222   6.153   0.475
 9777SOL    HW130230   5.238   6.111   0.564
 9777SOL    HW230231   5.128   6.186   0.470
 9778SOL     OW30232   0.182   2.266   4.513
 9778SOL    HW130233   0.188   2.354   4.560
 9778SOL    HW230234   0.114   2.208   4.559
 9779SOL     OW30235   0.815   2.504   3.628
 9779SOL    HW130236   0.879   2.435   3.662
 9779SOL    HW230237   0.732   2.501   3.684
 9780SOL     OW30238   2.066   1.579   1.000
 9780SOL    HW130239   1.997   1.589   0.928
 9780SOL    HW230240   2.151   1.624   0.971
 9781SOL     OW30241   2.157   3.460   4.667
 9781SOL    HW130242   2.218   3.496   4.738
 9781SOL    HW230243   2.148   3.528   4.594
 9782SOL     OW30244   0.585   1.921   0.871
 9782SOL    HW130245   0.653   1.923   0.944
 9782SOL    HW230246   0.621   1.968   0.790
 9783SOL     OW30247   4.383   1.794   3.525
 9783SOL    HW130248   4.415   1.819   3.433
 9783SOL    HW230249   4.283   1.787   3.524
 9784SOL     OW30250   3.376   0.964   5.875
 9784SOL    HW130251   3.392   1.047   5.929
 9784SOL    HW230252   3.311   0.905   5.922
 9785SOL     OW30253   6.044   2.321   5.474
 9785SOL    HW130254   5.974   2.388   5.449
 9785SOL    HW230255   6.084   2.345   5.562
 9786SOL     OW30256   2.784   4.310   0.585
 9786SOL    HW130257   2.711   4.369   0.549
 9786SOL    HW230258   2.823   4.351   0.667
 9787SOL     OW30259   4.025   3.612   4.390
 9787SOL    HW130260   4.030   3.700   4.436
 9787SOL    HW230261   4.092   3.610   4.315
 9788SOL     OW30262   0.951   6.123   1.858
 9788SOL    HW130263   1.050   6.119   1.864
 9788SOL    HW230264   0.920   6.061   1.786
 9789SOL     OW30265   2.628   7.007   6.901
 9789SOL    HW130266   2.599   6.953   6.822
 9789SOL    HW230267   2.671   0.065   6.871
 9790SOL     OW30268   6.272   4.690   6.309
 9790SOL    HW130269   6.284   4.613   6.372
 9790SOL    HW230270   6.210   4.663   6.235
 9791SOL     OW30271   0.979   0.265   0.425
 9791SOL    HW130272   1.078   0.249   0.422
 9791SOL    HW230273   0.939   0.210   0.498
 9792SOL     OW30274   3.734   5.002   1.015
 9792SOL    HW130275   3.777   5.075   1.069
 9792SOL    HW230276   3.770   4.913   1.043
 9793SOL     OW30277   4.182   0.113   1.593
 9793SOL    HW130278   4.093   0.134   1.632
 9793SOL    HW230279   4.170   0.065   1.506
 9794SOL     OW30280   5.279   4.205   5.010
 9794SOL    HW130281   5.375   4.235   5.011
 9794SOL    HW230282   5.249   4.193   4.915
 9795SOL     OW30283   1.115   3.027   4.330
 9795SOL    HW130284   1.111   3.118   4.373
 9795SOL    HW230285   1.199   2.981   4.357
 9796SOL     OW30286   3.483   4.041   3.712
 9796SOL    HW130287   3.541   4.091   3.776
 9796SOL    HW230288   3.495   3.943   3.727
 9797SOL     OW30289   2.299   6.211   0.158
 9797SOL    HW130290   2.283   6.285   0.224
 9797SOL    HW230291   2.389   6.171   0.175
 9798SOL     OW30292   1.959   1.629   0.766
 9798SOL    HW130293   1.925   1.722   0.757
 9798SOL    HW230294   1.923   1.573   0.691
 9799SOL     OW30295   3.450   4.080   6.276
 9799SOL    HW130296   3.364   4.129   6.289
 9799SOL    HW230297   3.459   4.009   6.346
 9800SOL     OW30298   5.497   3.968   4.147
 9800SOL    HW130299   5.467   4.060   4.173
 9800SOL    HW230300   5.592   3.955   4.176
 9801SOL     OW30301   5.111   4.928   0.362
 9801SOL    HW130302   5.203   4.943   0.325
 9801SOL    HW230303   5.115   4.864   0.438
 9802SOL     OW30304   4.312   4.742   0.523
 9802SOL    HW130305   4.224   4.758   0.478
 9802SOL    HW230306   4.344   4.649   0.501
 9803SOL     OW30307   1.851   3.484   6.238
 9803SOL    HW130308   1.913   3.416   6.278
 9803SOL    HW230309   1.825   3.455   6.146
 9804SOL     OW30310   0.186   6.121   3.234
 9804SOL    HW130311   0.114   6.091   3.171
 9804SOL    HW230312   0.165   6.213   3.268
 9805SOL     OW30313   0.832   6.697   3.037
 9805SOL    HW130314   0.858   6.638   2.960
 9805SOL    HW230315   0.840   6.646   3.122
 9806SOL     OW30316   2.360   2.360   6.444
 9806SOL    HW130317   2.447   2.312   6.463
 9806SOL    HW230318   2.310   2.310   6.374
 9807SOL     OW30319   3.381   3.333   2.202
 9807SOL    HW130320   3.441   3.387   2.144
 9807SOL    HW230321   3.328   3.394   2.262
 9808SOL     OW30322   3.682   5.562   4.048
 9808SOL    HW130323   3.583   5.574   4.051
 9808SOL    HW230324   3.709   5.524   3.959
 9809SOL     OW30325   1.338   3.475   0.423
 9809SOL    HW130326   1.392   3.393   0.404
 9809SOL    HW230327   1.335   3.492   0.521
 9810SOL     OW30328   2.958   2.204   4.948
 9810SOL    HW130329   2.985   2.128   4.888
 9810SOL    HW230330   3.039   2.246   4.988
 9811SOL     OW30331   5.896   3.867   3.488
 9811SOL    HW130332   5.848   3.938   3.437
 9811SOL    HW230333   5.830   3.806   3.531
 9812SOL     OW30334   2.922   0.853   4.420
 9812SOL    HW130335   2.840   0.867   4.476
 9812SOL    HW230336   2.896   0.811   4.333
 9813SOL     OW30337   5.751   2.012   1.063
 9813SOL    HW130338   5.679   2.068   1.104
 9813SOL    HW230339   5.755   2.031   0.965
 9814SOL     OW30340   5.203   1.236   7.000
 9814SOL    HW130341   5.165   1.327   7.011
 9814SOL    HW230342   5.273   1.237   6.929
 9815SOL     OW30343   4.590   2.424   4.331
 9815SOL    HW130344   4.676   2.474   4.320
 9815SOL    HW230345   4.519   2.470   4.278
 9816SOL     OW30346   0.940   0.744   6.478
 9816SOL    HW130347   0.960   0.840   6.494
 9816SOL    HW230348   1.015   0.688   6.513
 9817SOL     OW30349   0.579   6.952   2.995
 9817SOL    HW130350   0.610   6.991   2.909
 9817SOL    HW230351   0.549   6.857   2.980
 9818SOL     OW30352   6.421   2.080   4.605
 9818SOL    HW130353   6.378   1.993   4.580
 9818SOL    HW230354   6.373   2.119   4.683
 9819SOL     OW30355   4.711   2.451   3.290
 9819SOL    HW130356   4.802   2.409   3.289
 9819SOL    HW230357   4.685   2.471   3.384
 9820SOL     OW30358   3.561   3.187   6.286
 9820SOL    HW130359   3.511   3.272   6.269
 9820SOL    HW230360   3.617   3.198   6.368
 9821SOL     OW30361   5.319   0.602   6.450
 9821SOL    HW130362   5.245   0.636   6.391
 9821SOL    HW230363   5.387   0.554   6.395
 9822SOL     OW30364   0.800   6.531   3.230
 9822SOL    HW130365   0.770   6.612   3.281
 9822SOL    HW230366   0.769   6.449   3.278
 9823SOL     OW30367   3.793   0.195   1.046
 9823SOL    HW130368   3.829   0.196   1.139
 9823SOL    HW230369   3.868   0.180   0.982
 9824SOL     OW30370   2.073   4.012   6.025
 9824SOL    HW130371   2.136   3.962   6.085
 9824SOL    HW230372   2.103   4.002   5.930
 9825SOL     OW30373   3.150   5.419   5.101
 9825SOL    HW130374   3.147   5.472   5.186
 9825SOL    HW230375   3.073   5.355   5.099
 9826SOL     OW30376   5.081   5.719   6.184
 9826SOL    HW130377   5.008   5.708   6.252
 9826SOL    HW230378   5.102   5.630   6.143
 9827SOL     OW30379   1.948   4.040   4.112
 9827SOL    HW130380   1.864   4.092   4.130
 9827SOL    HW230381   2.016   4.062   4.182
 9828SOL     OW30382   2.835   2.913   6.348
 9828SOL    HW130383   2.830   2.859   6.265
 9828SOL    HW230384   2.749   2.964   6.360
 9829SOL     OW30385   2.788   6.488   0.760
 9829SOL    HW130386   2.732   6.546   0.818
 9829SOL    HW230387   2.810   6.536   0.675
 9830SOL     OW30388   5.416   2.619   1.622
 9830SOL    HW130389   5.396   2.629   1.719
 9830SOL    HW230390   5.363   2.543   1.584
 9831SOL     OW30391   1.659   6.064   0.979
 9831SOL    HW130392   1.630   6.159   0.966
 9831SOL    HW230393   1.586   6.012   1.022
 9832SOL     OW30394   5.056   5.112   2.310
 9832SOL    HW130395   4.971   5.071   2.277
 9832SOL    HW230396   5.086   5.182   2.246
 9833SOL     OW30397   3.161   3.000   4.884
 9833SOL    HW130398   3.075   2.949   4.876
 9833SOL    HW230399   3.218   2.958   4.955
 9834SOL     OW30400   2.920   4.077   5.573
 9834SOL    HW130401   2.973   4.011   5.626
 9834SOL    HW230402   2.876   4.142   5.635
 9835SOL     OW30403   3.759   2.370   5.842
 9835SOL    HW130404   3.713   2.378   5.931
 9835SOL    HW230405   3.777   2.462   5.806
 9836SOL     OW30406   6.128   4.735   3.826
 9836SOL    HW130407   6.195   4.748   3.754
 9836SOL    HW230408   6.164   4.671   3.894
 9837SOL     OW30409   2.388   0.254   2.737
 9837SOL    HW130410   2.479   0.283   2.708
 9837SOL    HW230411   2.322   0.328   2.721
 9838SOL     OW30412   0.789   0.011   6.189
 9838SOL    HW130413   0.772   7.013   6.284
 9838SOL    HW230414   0.786   0.111   6.178
 9839SOL     OW30415   5.929   1.352   3.049
 9839SOL    HW130416   6.029   1.356   3.043
 9839SOL    HW230417   5.902   1.331   3.143
 9840SOL     OW30418   0.402   1.098   1.494
 9840SOL    HW130419   0.417   1.001   1.477
 9840SOL    HW230420   0.305   1.114   1.514
 9841SOL     OW30421   1.127   4.384   4.729
 9841SOL    HW130422   1.205   4.420   4.677
 9841SOL    HW230423   1.125   4.284   4.721
 9842SOL     OW30424   3.559   4.011   3.266
 9842SOL    HW130425   3.530   4.021   3.171
 9842SOL    HW230426   3.480   4.016   3.326
 9843SOL     OW30427   6.443   1.917   1.897
 9843SOL    HW130428   6.469   1.978   1.971
 9843SOL    HW230429   6.498   1.833   1.901
 9844SOL     OW30430   5.248   0.374   2.457
 9844SOL    HW130431   5.184   0.384   2.533
 9844SOL    HW230432   5.295   0.461   2.441
 9845SOL     OW30433   2.985   1.589   4.577
 9845SOL    HW130434   2.990   1.523   4.652
 9845SOL    HW230435   3.025   1.549   4.495
 9846SOL     OW30436   3.977   3.060   2.387
 9846SOL    HW130437   3.918   3.102   2.317
 9846SOL    HW230438   4.067   3.040   2.347
 9847SOL     OW30439   3.562   2.745   5.336
 9847SOL    HW130440   3.659   2.739   5.310
 9847SOL    HW230441   3.553   2.811   5.410
 9848SOL     OW30442   3.459   2.359   6.320
 9848SOL    HW130443   3.416   2.387   6.235
 9848SOL    HW230444   3.517   2.279   6.303
 9849SOL     OW30445   6.039   0.497   0.299
 9849SOL    HW130446   6.136   0.502   0.320
 9849SOL    HW230447   6.013   0.575   0.242
 9850SOL     OW30448   5.854   5.857   2.860
 9850SOL    HW130449   5.906   5.843   2.776
 9850SOL    HW230450   5.911   5.903   2.927
 9851SOL     OW30451   4.622   2.149   5.704
 9851SOL    HW130452   4.710   2.111   5.676
 9851SOL    HW230453   4.585   2.096   5.780
 9852SOL     OW30454   4.371   2.125   2.861
 9852SOL    HW130455   4.351   2.204   2.919
 9852SOL    HW230456   4.358   2.041   2.913
 9853SOL     OW30457   5.101   3.883   3.139
 9853SOL    HW130458   5.012   3.896   3.094
 9853SOL    HW230459   5.119   3.785   3.148
 9854SOL     OW30460   6.855   5.379   4.967
 9854SOL    HW130461   6.856   5.428   4.880
 9854SOL    HW230462   6.908   5.295   4.958
 9855SOL     OW30463   2.288   4.329   1.817
 9855SOL    HW130464   2.289   4.305   1.720
 9855SOL    HW230465   2.289   4.245   1.872
 9856SOL     OW30466   4.966   4.050   0.096
 9856SOL    HW130467   4.993   4.119   0.029
 9856SOL    HW230468   5.046   4.019   0.146
 9857SOL     OW30469   4.259   1.679   4.616
 9857SOL    HW130470   4.302   1.761   4.578
 9857SOL    HW230471   4.302   1.598   4.576
 9858SOL     OW30472   6.981   0.994   1.348
 9858SOL    HW130473   6.888   1.030   1.340
 9858SOL    HW230474   7.004   0.943   1.266
 9859SOL     OW30475   6.178   0.026   1.306
 9859SOL    HW130476   6.157   7.002   1.223
 9859SOL    HW230477   6.093   0.052   1.352
 9860SOL     OW30478   0.005   1.180   2.916
 9860SOL    HW130479   0.014   1.168   2.817
 9860SOL    HW230480   7.025   1.277   2.938
 9861SOL     OW30481   3.090   6.797   3.218
 9861SOL    HW130482   3.009   6.845   3.184
 9861SOL    HW230483   3.172   6.844   3.188
 9862SOL     OW30484   2.513   5.033   0.479
 9862SOL    HW130485   2.511   5.132   0.492
 9862SOL    HW230486   2.593   4.995   0.525
 9863SOL     OW30487   2.857   0.222   3.570
 9863SOL    HW130488   2.856   0.199   3.472
 9863SOL    HW230489   2.939   0.185   3.612
 9864SOL     OW30490   3.826   6.085   4.001
 9864SOL    HW130491   3.786   5.994   4.003
 9864SOL    HW230492   3.807   6.133   4.087
 9865SOL     OW30493   1.650   0.954   3.887
 9865SOL    HW130494   1.559   0.950   3.930
 9865SOL    HW230495   1.686   0.861   3.876
 9866SOL     OW30496   5.589   4.315   5.304
 9866SOL    HW130497   5.580   4.339   5.401
 9866SOL    HW230498   5.683   4.332   5.274
 9867SOL     OW30499   5.982   0.367   1.100
 9867SOL    HW130500   5.993   0.396   1.005
 9867SOL    HW230501   5.894   0.323   1.112
 9868SOL     OW30502   1.099   4.046   5.241
 9868SOL    HW130503   1.036   4.114   5.204
 9868SOL    HW230504   1.053   3.957   5.247
 9869SOL     OW30505   1.517   3.494   2.262
 9869SOL    HW130506   1.615   3.492   2.284
 9869SOL    HW230507   1.485   3.401   2.246
 9870SOL     OW30508   4.698   5.978   2.817
 9870SOL    HW130509   4.608   5.964   2.776
 9870SOL    HW230510   4.734   5.891   2.851
 9871SOL     OW30511   1.016   6.960   5.656
 9871SOL    HW130512   1.056   6.869   5.643
 9871SOL    HW230513   0.917   6.953   5.657
 9872SOL     OW30514   3.026   4.884   4.335
 9872SOL    HW130515   2.932   4.902   4.306
 9872SOL    HW230516   3.087   4.892   4.257
 9873SOL     OW30517   2.965   2.416   0.973
 9873SOL    HW130518   2.902   2.340   0.960
 9873SOL    HW230519   3.003   2.413   1.065
 9874SOL     OW30520   0.826   3.466   4.078
 9874SOL    HW130521   0.728   3.469   4.058
 9874SOL    HW230522   0.868   3.553   4.050
 9875SOL     OW30523   6.816   6.497   2.029
 9875SOL    HW130524   6.765   6.481   1.945
 9875SOL    HW230525   6.753   6.518   2.103
 9876SOL     OW30526   6.325   0.666   2.415
 9876SOL    HW130527   6.366   0.671   2.506
 9876SOL    HW230528   6.278   0.578   2.404
 9877SOL     OW30529   0.347   5.628   3.279
 9877SOL    HW130530   0.317   5.597   3.189
 9877SOL    HW230531   0.312   5.720   3.297
 9878SOL     OW30532   2.810   5.199   4.917
 9878SOL    HW130533   2.860   5.219   5.001
 9878SOL    HW230534   2.863   5.135   4.861
 9879SOL     OW30535   5.755   5.310   3.831
 9879SOL    HW130536   5.841   5.350   3.862
 9879SOL    HW230537   5.718   5.364   3.756
 9880SOL     OW30538   2.869   1.546   5.663
 9880SOL    HW130539   2.820   1.619   5.712
 9880SOL    HW230540   2.848   1.552   5.565
 9881SOL     OW30541   1.545   1.133   5.070
 9881SOL    HW130542   1.586   1.161   5.156
 9881SOL    HW230543   1.617   1.123   5.001
 9882SOL     OW30544   1.012   2.320   3.826
 9882SOL    HW130545   0.997   2.358   3.917
 9882SOL    HW230546   1.006   2.220   3.829
 9883SOL     OW30547   1.820   5.526   0.229
 9883SOL    HW130548   1.853   5.621   0.232
 9883SOL    HW230549   1.828   5.490   0.137
 9884SOL     OW30550   4.262   1.856   2.932
 9884SOL    HW130551   4.327   1.780   2.932
 9884SOL    HW230552   4.222   1.864   3.024
 9885SOL     OW30553   6.709   3.107   5.561
 9885SOL    HW130554   6.731   3.062   5.647
 9885SOL    HW230555   6.716   3.041   5.486
 9886SOL     OW30556   0.628   3.762   1.381
 9886SOL    HW130557   0.546   3.753   1.325
 9886SOL    HW230558   0.641   3.680   1.436
 9887SOL     OW30559   3.771   0.699   6.143
 9887SOL    HW130560   3.814   0.611   6.123
 9887SOL    HW230561   3.701   0.687   6.213
 9888SOL     OW30562   5.947   3.932   1.914
 9888SOL    HW130563   5.964   3.911   2.010
 9888SOL    HW230564   5.879   4.005   1.907
 9889SOL     OW30565   0.356   5.573   1.673
 9889SOL    HW130566   0.265   5.533   1.688
 9889SOL    HW230567   0.425   5.501   1.678
 9890SOL     OW30568   1.648   1.925   0.305
 9890SOL    HW130569   1.578   1.897   0.239
 9890SOL    HW230570   1.604   1.946   0.392
 9891SOL     OW30571   5.446   2.997   1.957
 9891SOL    HW130572   5.523   3.032   2.009
 9891SOL    HW230573   5.467   2.906   1.921
 9892SOL     OW30574   6.851   4.734   0.974
 9892SOL    HW130575   6.924   4.694   0.919
 9892SOL    HW230576   6.882   4.821   1.013
 9893SOL     OW30577   1.015   6.945   1.498
 9893SOL    HW130578   1.100   6.893   1.507
 9893SOL    HW230579   0.996   6.961   1.401
 9894SOL     OW30580   2.686   2.974   1.709
 9894SOL    HW130581   2.605   2.936   1.752
 9894SOL    HW230582   2.752   2.901   1.691
 9895SOL     OW30583   6.680   3.922   5.144
 9895SOL    HW130584   6.748   3.995   5.139
 9895SOL    HW230585   6.605   3.950   5.203
 9896SOL     OW30586   6.285   0.844   7.023
 9896SOL    HW130587   6.204   0.842   6.964
 9896SOL    HW230588   6.360   0.794   6.979
 9897SOL     OW30589   6.208   5.756   2.916
 9897SOL    HW130590   6.168   5.841   2.950
 9897SOL    HW230591   6.175   5.739   2.823
 9898SOL     OW30592   1.522   6.128   4.134
 9898SOL    HW130593   1.530   6.066   4.056
 9898SOL    HW230594   1.493   6.218   4.101
 9899SOL     OW30595   1.012   5.779   7.000
 9899SOL    HW130596   1.016   5.725   6.916
 9899SOL    HW230597   0.991   5.874   6.977
 9900SOL     OW30598   2.083   3.450   3.648
 9900SOL    HW130599   2.085   3.478   3.744
 9900SOL    HW230600   2.054   3.526   3.591
 9901SOL     OW30601   2.869   0.478   6.117
 9901SOL    HW130602   2.910   0.494   6.027
 9901SOL    HW230603   2.941   0.482   6.187
 9902SOL     OW30604   3.213   4.902   0.717
 9902SOL    HW130605   3.216   4.878   0.815
 9902SOL    HW230606   3.284   4.969   0.697
 9903SOL     OW30607   5.204   1.637   2.414
 9903SOL    HW130608   5.233   1.569   2.347
 9903SOL    HW230609   5.114   1.612   2.450
 9904SOL     OW30610   1.326   4.000   6.906
 9904SOL    HW130611   1.416   4.043   6.900
 9904SOL    HW230612   1.262   4.061   6.953
 9905SOL     OW30613   2.293   6.892   5.975
 9905SOL    HW130614   2.300   6.918   5.879
 9905SOL    HW230615   2.334   6.801   5.988
 9906SOL     OW30616   2.445   3.609   1.635
 9906SOL    HW130617   2.405   3.587   1.724
 9906SOL    HW230618   2.515   3.679   1.646
 9907SOL     OW30619   6.355   0.410   1.405
 9907SOL    HW130620   6.301   0.398   1.322
 9907SOL    HW230621   6.442   0.454   1.382
 9908SOL     OW30622   5.834   1.754   5.177
 9908SOL    HW130623   5.904   1.752   5.106
 9908SOL    HW230624   5.803   1.848   5.189
 9909SOL     OW30625   4.500   0.494   3.479
 9909SOL    HW130626   4.469   0.429   3.548
 9909SOL    HW230627   4.459   0.471   3.391
 9910SOL     OW30628   1.428   4.645   2.714
 9910SOL    HW130629   1.372   4.574   2.757
 9910SOL    HW230630   1.375   4.689   2.641
 9911SOL     OW30631   2.848   5.821   2.292
 9911SOL    HW130632   2.873   5.745   2.352
 9911SOL    HW230633   2.857   5.792   2.196
 9912SOL     OW30634   4.399   0.701   1.510
 9912SOL    HW130635   4.393   0.766   1.586
 9912SOL    HW230636   4.475   0.727   1.450
 9913SOL     OW30637   5.851   3.893   1.187
 9913SOL    HW130638   5.869   3.923   1.093
 9913SOL    HW230639   5.929   3.915   1.245
 9914SOL     OW30640   5.479   1.569   4.647
 9914SOL    HW130641   5.516   1.486   4.689
 9914SOL    HW230642   5.390   1.591   4.687
 9915SOL     OW30643   4.984   0.130   3.306
 9915SOL    HW130644   4.975   0.066   3.383
 9915SOL    HW230645   5.028   0.214   3.337
 9916SOL     OW30646   2.197   2.370   2.694
 9916SOL    HW130647   2.130   2.427   2.743
 9916SOL    HW230648   2.289   2.392   2.726
 9917SOL     OW30649   5.606   4.264   6.653
 9917SOL    HW130650   5.546   4.277   6.574
 9917SOL    HW230651   5.586   4.334   6.722
 9918SOL     OW30652   3.495   1.347   3.410
 9918SOL    HW130653   3.528   1.430   3.455
 9918SOL    HW230654   3.506   1.356   3.311
 9919SOL     OW30655   7.003   5.156   1.427
 9919SOL    HW130656   6.943   5.084   1.462
 9919SOL    HW230657   0.066   5.116   1.405
 9920SOL     OW30658   4.747   1.389   2.217
 9920SOL    HW130659   4.703   1.448   2.284
 9920SOL    HW230660   4.711   1.296   2.226
 9921SOL     OW30661   4.381   6.876   5.432
 9921SOL    HW130662   4.292   6.908   5.401
 9921SOL    HW230663   4.382   6.869   5.532
 9922SOL     OW30664   2.887   4.261   0.321
 9922SOL    HW130665   2.952   4.185   0.335
 9922SOL    HW230666   2.849   4.288   0.409
 9923SOL     OW30667   5.025   5.124   6.521
 9923SOL    HW130668   5.058   5.215   6.493
 9923SOL    HW230669   5.098   5.077   6.571
 9924SOL     OW30670   6.311   1.827   4.512
 9924SOL    HW130671   6.344   1.832   4.418
 9924SOL    HW230672   6.212   1.814   4.513
 9925SOL     OW30673   6.839   3.404   4.501
 9925SOL    HW130674   6.803   3.426   4.410
 9925SOL    HW230675   6.859   3.306   4.506
 9926SOL     OW30676   4.071   2.444   0.985
 9926SOL    HW130677   4.141   2.400   1.042
 9926SOL    HW230678   4.027   2.375   0.928
 9927SOL     OW30679   6.870   6.722   0.532
 9927SOL    HW130680   6.822   6.809   0.516
 9927SOL    HW230681   6.967   6.734   0.513
 9928SOL     OW30682   4.720   4.187   2.848
 9928SOL    HW130683   4.660   4.151   2.777
 9928SOL    HW230684   4.760   4.274   2.817
 9929SOL     OW30685   3.180   4.469   5.602
 9929SOL    HW130686   3.180   4.555   5.654
 9929SOL    HW230687   3.245   4.405   5.643
 9930SOL     OW30688   6.533   6.742   4.693
 9930SOL    HW130689   6.458   6.694   4.739
 9930SOL    HW230690   6.608   6.678   4.674
 9931SOL     OW30691   0.590   5.696   4.222
 9931SOL    HW130692   0.678   5.666   4.259
 9931SOL    HW230693   0.518   5.679   4.289
 9932SOL     OW30694   3.196   4.112   6.863
 9932SOL    HW130695   3.231   4.021   6.843
 9932SOL    HW230696   3.253   4.156   6.933
 9933SOL     OW30697   0.002   6.032   3.015
 9933SOL    HW130698   6.986   6.078   2.937
 9933SOL    HW230699   0.094   6.001   2.990
 9934SOL     OW30700   6.237   2.219   5.747
 9934SOL    HW130701   6.330   2.188   5.765
 9934SOL    HW230702   6.183   2.144   5.709
 9935SOL     OW30703   2.659   6.896   6.424
 9935SOL    HW130704   2.658   6.813   6.369
 9935SOL    HW230705   2.730   6.889   6.494
 9936SOL     OW30706   6.708   5.313   0.023
 9936SOL    HW130707   6.753   5.249   0.085
 9936SOL    HW230708   6.722   5.283   6.954
 9937SOL     OW30709   6.516   1.578   1.239
 9937SOL    HW130710   6.524   1.666   1.287
 9937SOL    HW230711   6.421   1.546   1.245
 9938SOL     OW30712   6.597   4.575   2.863
 9938SOL    HW130713   6.695   4.566   2.850
 9938SOL    HW230714   6.579   4.627   2.946
 9939SOL     OW30715   4.529   2.172   1.084
 9939SOL    HW130716   4.514   2.101   1.015
 9939SOL    HW230717   4.594   2.239   1.048
 9940SOL     OW30718   1.228   0.710   1.292
 9940SOL    HW130719   1.256   0.615   1.305
 9940SOL    HW230720   1.141   0.712   1.243
 9941SOL     OW30721   2.886   3.719   5.514
 9941SOL    HW130722   2.961   3.708   5.579
 9941SOL    HW230723   2.826   3.792   5.545
 9942SOL     OW30724   2.556   5.334   2.726
 9942SOL    HW130725   2.625   5.322   2.797
 9942SOL    HW230726   2.509   5.246   2.710
 9943SOL     OW30727   0.735   4.571   5.529
 9943SOL    HW130728   0.689   4.524   5.454
 9943SOL    HW230729   0.668   4.625   5.580
 9944SOL     OW30730   1.389   4.354   6.426
 9944SOL    HW130731   1.422   4.277   6.480
 9944SOL    HW230732   1.457   4.427   6.428
 9945SOL     OW30733   5.863   5.506   6.943
 9945SOL    HW130734   5.890   5.590   6.896
 9945SOL    HW230735   5.874   5.428   6.882
 9946SOL     OW30736   5.235   0.748   3.747
 9946SOL    HW130737   5.288   0.810   3.806
 9946SOL    HW230738   5.258   0.765   3.652
 9947SOL     OW30739   1.927   2.157   4.587
 9947SOL    HW130740   1.977   2.081   4.628
 9947SOL    HW230741   1.887   2.214   4.659
 9948SOL     OW30742   5.679   4.332   4.813
 9948SOL    HW130743   5.692   4.428   4.836
 9948SOL    HW230744   5.609   4.324   4.742
 9949SOL     OW30745   6.644   4.579   4.839
 9949SOL    HW130746   6.670   4.504   4.899
 9949SOL    HW230747   6.565   4.551   4.783
 9950SOL     OW30748   5.755   5.929   5.191
 9950SOL    HW130749   5.679   5.953   5.250
 9950SOL    HW230750   5.837   5.912   5.246
 9951SOL     OW30751   0.011   0.899   4.010
 9951SOL    HW130752   0.075   0.853   3.948
 9951SOL    HW230753   0.004   0.846   4.095
 9952SOL     OW30754   1.036   3.965   0.733
 9952SOL    HW130755   0.969   4.016   0.787
 9952SOL    HW230756   0.989   3.920   0.656
 9953SOL     OW30757   5.584   2.642   4.715
 9953SOL    HW130758   5.638   2.577   4.661
 9953SOL    HW230759   5.525   2.591   4.778
 9954SOL     OW30760   6.424   1.020   6.684
 9954SOL    HW130761   6.375   1.104   6.709
 9954SOL    HW230762   6.463   1.030   6.593
 9955SOL     OW30763   6.344   3.554   5.215
 9955SOL    HW130764   6.368   3.594   5.304
 9955SOL    HW230765   6.314   3.460   5.227
 9956SOL     OW30766   1.366   6.745   2.526
 9956SOL    HW130767   1.410   6.814   2.468
 9956SOL    HW230768   1.369   6.656   2.481
 9957SOL     OW30769   5.197   5.639   2.542
 9957SOL    HW130770   5.158   5.549   2.525
 9957SOL    HW230771   5.172   5.670   2.634
 9958SOL     OW30772   3.391   5.397   0.012
 9958SOL    HW130773   3.422   5.430   0.101
 9958SOL    HW230774   3.458   5.421   6.968
 9959SOL     OW30775   4.120   3.713   5.233
 9959SOL    HW130776   4.143   3.685   5.140
 9959SOL    HW230777   4.133   3.811   5.243
 9960SOL     OW30778   6.933   0.538   1.892
 9960SOL    HW130779   6.899   0.540   1.986
 9960SOL    HW230780   7.010   0.600   1.882
 9961SOL     OW30781   1.509   5.012   4.574
 9961SOL    HW130782   1.608   4.997   4.569
 9961SOL    HW230783   1.491   5.106   4.605
 9962SOL     OW30784   6.351   6.012   2.757
 9962SOL    HW130785   6.397   5.924   2.761
 9962SOL    HW230786   6.325   6.041   2.849
 9963SOL     OW30787   3.150   3.290   6.526
 9963SOL    HW130788   3.071   3.269   6.469
 9963SOL    HW230789   3.204   3.362   6.482
 9964SOL     OW30790   5.179   4.484   5.414
 9964SOL    HW130791   5.149   4.399   5.458
 9964SOL    HW230792   5.137   4.561   5.461
 9965SOL     OW30793   3.707   6.661   5.957
 9965SOL    HW130794   3.620   6.695   5.993
 9965SOL    HW230795   3.782   6.695   6.015
 9966SOL     OW30796   2.189   6.019   1.913
 9966SOL    HW130797   2.131   6.037   1.993
 9966SOL    HW230798   2.251   6.097   1.900
 9967SOL     OW30799   0.090   0.184   2.209
 9967SOL    HW130800   0.087   0.283   2.226
 9967SOL    HW230801   0.183   0.158   2.183
 9968SOL     OW30802   3.514   3.988   0.841
 9968SOL    HW130803   3.490   3.987   0.938
 9968SOL    HW230804   3.450   3.930   0.790
 9969SOL     OW30805   1.617   3.193   2.521
 9969SOL    HW130806   1.581   3.101   2.539
 9969SOL    HW230807   1.705   3.185   2.474
 9970SOL     OW30808   5.057   3.940   2.563
 9970SOL    HW130809   5.081   3.858   2.510
 9970SOL    HW230810   5.139   3.976   2.607
 9971SOL     OW30811   2.199   5.502   1.428
 9971SOL    HW130812   2.117   5.557   1.417
 9971SOL    HW230813   2.206   5.437   1.351
 9972SOL     OW30814   4.377   5.189   1.536
 9972SOL    HW130815   4.329   5.275   1.521
 9972SOL    HW230816   4.462   5.206   1.586
 9973SOL     OW30817   4.756   1.917   4.262
 9973SOL    HW130818   4.804   1.974   4.329
 9973SOL    HW230819   4.661   1.908   4.288
 9974SOL     OW30820   0.401   3.211   3.088
 9974SOL    HW130821   0.381   3.136   3.024
 9974SOL    HW230822   0.383   3.298   3.043
 9975SOL     OW30823   6.515   4.508   0.017
 9975SOL    HW130824   6.534   4.533   0.112
 9975SOL    HW230825   6.473   4.586   6.996
 9976SOL     OW30826   0.435   6.223   5.689
 9976SOL    HW130827   0.476   6.314   5.688
 9976SOL    HW230828   0.343   6.226   5.650
 9977SOL     OW30829   6.832   5.536   5.531
 9977SOL    HW130830   6.783   5.532   5.618
 9977SOL    HW230831   6.919   5.585   5.544
 9978SOL     OW30832   0.284   2.232   3.801
 9978SOL    HW130833   0.229   2.235   3.717
 9978SOL    HW230834   0.303   2.137   3.825
 9979SOL     OW30835   6.428   5.378   5.452
 9979SOL    HW130836   6.491   5.453   5.430
 9979SOL    HW230837   6.417   5.321   5.370
 9980SOL     OW30838   1.631   0.980   5.665
 9980SOL    HW130839   1.561   1.025   5.720
 9980SOL    HW230840   1.684   1.049   5.615
 9981SOL     OW30841   2.270   1.865   2.198
 9981SOL    HW130842   2.351   1.923   2.191
 9981SOL    HW230843   2.256   1.816   2.111
 9982SOL     OW30844   6.757   6.647   3.976
 9982SOL    HW130845   6.763   6.746   3.958
 9982SOL    HW230846   6.823   6.622   4.047
 9983SOL     OW30847   6.822   2.706   2.898
 9983SOL    HW130848   6.898   2.656   2.939
 9983SOL    HW230849   6.818   2.685   2.800
 9984SOL     OW30850   2.183   0.807   6.813
 9984SOL    HW130851   2.087   0.801   6.843
 9984SOL    HW230852   2.223   0.891   6.848
 9985SOL     OW30853   1.459   1.301   0.882
 9985SOL    HW130854   1.367   1.333   0.903
 9985SOL    HW230855   1.513   1.377   0.847
 9986SOL     OW30856   5.535   4.253   5.800
 9986SOL    HW130857   5.547   4.154   5.800
 9986SOL    HW230858   5.533   4.286   5.895
 9987SOL     OW30859   7.006   3.448   4.034
 9987SOL    HW130860   6.996   3.393   3.952
 9987SOL    HW230861   0.074   3.480   4.042
 9988SOL     OW30862   6.636   5.564   4.332
 9988SOL    HW130863   6.573   5.617   4.388
 9988SOL    HW230864   6.619   5.585   4.235
 9989SOL     OW30865   6.212   3.673   3.419
 9989SOL    HW130866   6.207   3.668   3.320
 9989SOL    HW230867   6.153   3.604   3.460
 9990SOL     OW30868   2.533   5.641   1.747
 9990SOL    HW130869   2.500   5.672   1.659
 9990SOL    HW230870   2.488   5.692   1.820
 9991SOL     OW30871   1.905   2.477   3.195
 9991SOL    HW130872   1.955   2.563   3.209
 9991SOL    HW230873   1.969   2.405   3.168
 9992SOL     OW30874   5.549   5.229   0.041
 9992SOL    HW130875   5.553   5.242   6.968
 9992SOL    HW230876   5.629   5.176   0.071
 9993SOL     OW30877   2.947   0.489   0.269
 9993SOL    HW130878   2.941   0.439   0.356
 9993SOL    HW230879   3.033   0.466   0.224
 9994SOL     OW30880   6.070   4.423   3.173
 9994SOL    HW130881   6.073   4.360   3.251
 9994SOL    HW230882   6.145   4.489   3.181
 9995SOL     OW30883   4.789   1.008   3.024
 9995SOL    HW130884   4.786   1.042   3.118
 9995SOL    HW230885   4.865   0.944   3.014
 9996SOL     OW30886   2.938   3.167   0.952
 9996SOL    HW130887   3.035   3.188   0.966
 9996SOL    HW230888   2.920   3.160   0.853
 9997SOL     OW30889   3.473   1.446   0.184
 9997SOL    HW130890   3.464   1.411   0.277
 9997SOL    HW230891   3.428   1.383   0.120
 9998SOL     OW30892   5.677   4.785   6.173
 9998SOL    HW130893   5.670   4.742   6.262
 9998SOL    HW230894   5.733   4.867   6.180
 9999SOL     OW30895   6.214   3.502   5.659
 9999SOL    HW130896   6.122   3.464   5.662
 9999SOL    HW230897   6.210   3.600   5.677
10000SOL     OW30898   0.348   4.414   6.674
10000SOL    HW130899   0.324   4.410   6.771
10000SOL    HW230900   0.430   4.360   6.657
10001SOL     OW30901   4.953   6.779   1.801
10001SOL    HW130902   5.036   6.782   1.858
10001SOL    HW230903   4.873   6.800   1.857
10002SOL     OW30904   1.693   0.810   3.048
10002SOL    HW130905   1.695   0.901   3.090
10002SOL    HW230906   1.684   0.819   2.949
10003SOL     OW30907   3.850   1.279   3.502
10003SOL    HW130908   3.794   1.319   3.574
10003SOL    HW230909   3.827   1.321   3.414
10004SOL     OW30910   6.340   2.530   4.526
10004SOL    HW130911   6.284   2.567   4.599
10004SOL    HW230912   6.366   2.603   4.463
10005SOL     OW30913   5.016   0.431   4.738
10005SOL    HW130914   5.052   0.505   4.796
10005SOL    HW230915   4.917   0.440   4.729
10006SOL     OW30916   5.271   5.707   3.941
10006SOL    HW130917   5.242   5.769   4.013
10006SOL    HW230918   5.191   5.666   3.897
10007SOL     OW30919   0.015   4.705   5.921
10007SOL    HW130920   6.987   4.733   5.842
10007SOL    HW230921   0.016   4.778   5.989
10008SOL     OW30922   4.022   1.384   4.600
10008SOL    HW130923   4.033   1.284   4.602
10008SOL    HW230924   3.971   1.410   4.518
10009SOL     OW30925   1.988   4.112   1.653
10009SOL    HW130926   1.988   4.053   1.572
10009SOL    HW230927   1.895   4.116   1.690
10010SOL     OW30928   2.055   0.669   5.601
10010SOL    HW130929   1.979   0.637   5.658
10010SOL    HW230930   2.140   0.627   5.632
10011SOL     OW30931   5.973   1.187   6.146
10011SOL    HW130932   5.979   1.099   6.099
10011SOL    HW230933   5.879   1.202   6.177
10012SOL     OW30934   5.728   1.357   3.436
10012SOL    HW130935   5.770   1.381   3.523
10012SOL    HW230936   5.630   1.343   3.448
10013SOL     OW30937   0.253   1.434   3.347
10013SOL    HW130938   0.262   1.336   3.331
10013SOL    HW230939   0.343   1.478   3.341
10014SOL     OW30940   6.506   3.903   0.697
10014SOL    HW130941   6.586   3.927   0.642
10014SOL    HW230942   6.477   3.983   0.749
10015SOL     OW30943   1.954   4.910   0.483
10015SOL    HW130944   1.940   4.967   0.402
10015SOL    HW230945   1.914   4.955   0.563
10016SOL     OW30946   1.301   0.863   6.418
10016SOL    HW130947   1.382   0.921   6.409
10016SOL    HW230948   1.274   0.859   6.514
10017SOL     OW30949   2.978   1.797   3.091
10017SOL    HW130950   3.001   1.891   3.064
10017SOL    HW230951   2.918   1.757   3.022
10018SOL     OW30952   4.948   0.070   6.560
10018SOL    HW130953   4.960   0.057   6.462
10018SOL    HW230954   4.950   0.167   6.582
10019SOL     OW30955   0.507   1.527   3.404
10019SOL    HW130956   0.471   1.618   3.425
10019SOL    HW230957   0.520   1.475   3.488
10020SOL     OW30958   2.111   2.520   0.944
10020SOL    HW130959   2.153   2.549   0.859
10020SOL    HW230960   2.181   2.489   1.008
10021SOL     OW30961   0.704   2.172   1.466
10021SOL    HW130962   0.719   2.174   1.367
10021SOL    HW230963   0.769   2.110   1.509
10022SOL     OW30964   2.405   1.104   6.067
10022SOL    HW130965   2.311   1.137   6.077
10022SOL    HW230966   2.441   1.133   5.978
10023SOL     OW30967   0.420   4.974   1.189
10023SOL    HW130968   0.436   4.875   1.192
10023SOL    HW230969   0.325   4.991   1.163
10024SOL     OW30970   1.872   6.356   2.263
10024SOL    HW130971   1.835   6.266   2.287
10024SOL    HW230972   1.806   6.427   2.287
10025SOL     OW30973   1.324   1.149   0.255
10025SOL    HW130974   1.408   1.190   0.219
10025SOL    HW230975   1.348   1.081   0.324
10026SOL     OW30976   5.276   6.503   3.931
10026SOL    HW130977   5.304   6.555   3.850
10026SOL    HW230978   5.326   6.535   4.011
10027SOL     OW30979   6.679   3.959   4.154
10027SOL    HW130980   6.700   4.042   4.102
10027SOL    HW230981   6.715   3.968   4.247
10028SOL     OW30982   0.933   0.319   2.451
10028SOL    HW130983   1.014   0.278   2.409
10028SOL    HW230984   0.871   0.247   2.480
10029SOL     OW30985   4.731   1.843   4.605
10029SOL    HW130986   4.668   1.902   4.656
10029SOL    HW230987   4.754   1.764   4.662
10030SOL     OW30988   1.649   0.638   3.245
10030SOL    HW130989   1.615   0.545   3.227
10030SOL    HW230990   1.654   0.689   3.159
10031SOL     OW30991   5.429   4.527   5.051
10031SOL    HW130992   5.335   4.521   5.085
10031SOL    HW230993   5.465   4.435   5.037
10032SOL     OW30994   3.181   0.949   5.173
10032SOL    HW130995   3.223   0.922   5.260
10032SOL    HW230996   3.252   0.981   5.110
10033SOL     OW30997   6.768   2.976   4.843
10033SOL    HW130998   6.735   3.070   4.841
10033SOL    HW230999   6.765   2.938   4.751
10034SOL     OW31000   3.295   0.472   4.559
10034SOL    HW131001   3.389   0.439   4.563
10034SOL    HW231002   3.287   0.557   4.610
10035SOL     OW31003   6.725   5.629   1.739
10035SOL    HW131004   6.658   5.555   1.743
10035SOL    HW231005   6.730   5.665   1.646
10036SOL     OW31006   6.362   2.288   0.912
10036SOL    HW131007   6.391   2.217   0.976
10036SOL    HW231008   6.299   2.249   0.845
10037SOL     OW31009   6.737   1.822   0.099
10037SOL    HW131010   6.659   1.846   0.041
10037SOL    HW231011   6.757   1.725   0.089
10038SOL     OW31012   5.785   0.067   0.303
10038SOL    HW131013   5.723   0.021   0.366
10038SOL    HW231014   5.851   0.121   0.356
10039SOL     OW31015   3.578   0.740   3.634
10039SOL    HW131016   3.599   0.749   3.537
10039SOL    HW231017   3.485   0.705   3.645
10040SOL     OW31018   5.797   5.175   6.468
10040SOL    HW131019   5.894   5.166   6.494
10040SOL    HW231020   5.751   5.087   6.478
10041SOL     OW31021   3.373   6.248   6.672
10041SOL    HW131022   3.395   6.334   6.717
10041SOL    HW231023   3.373   6.174   6.740
10042SOL     OW31024   0.097   1.580   3.920
10042SOL    HW131025   0.185   1.540   3.893
10042SOL    HW231026   0.036   1.583   3.841
10043SOL     OW31027   6.331   1.893   5.179
10043SOL    HW131028   6.284   1.897   5.091
10043SOL    HW231029   6.414   1.838   5.171
10044SOL     OW31030   2.430   2.883   5.530
10044SOL    HW131031   2.474   2.971   5.514
10044SOL    HW231032   2.407   2.840   5.443
10045SOL     OW31033   4.188   0.951   1.444
10045SOL    HW131034   4.133   0.918   1.522
10045SOL    HW231035   4.212   0.873   1.386
10046SOL     OW31036   1.974   3.809   1.177
10046SOL    HW131037   2.054   3.770   1.131
10046SOL    HW231038   1.893   3.753   1.156
10047SOL     OW31039   0.916   2.997   5.850
10047SOL    HW131040   0.835   2.996   5.909
10047SOL    HW231041   0.996   3.024   5.903
10048SOL     OW31042   6.899   6.787   3.156
10048SOL    HW131043   6.923   6.783   3.059
10048SOL    HW231044   6.982   6.792   3.210
10049SOL     OW31045   1.018   1.810   5.983
10049SOL    HW131046   1.116   1.807   5.964
10049SOL    HW231047   1.002   1.786   6.079
10050SOL     OW31048   5.449   3.657   5.480
10050SOL    HW131049   5.350   3.640   5.483
10050SOL    HW231050   5.496   3.588   5.533
10051SOL     OW31051   0.516   4.362   4.802
10051SOL    HW131052   0.584   4.393   4.736
10051SOL    HW231053   0.542   4.272   4.836
10052SOL     OW31054   1.739   1.189   2.936
10052SOL    HW131055   1.690   1.135   2.867
10052SOL    HW231056   1.751   1.136   3.019
10053SOL     OW31057   5.198   4.918   4.118
10053SOL    HW131058   5.165   4.896   4.027
10053SOL    HW231059   5.126   4.898   4.185
10054SOL     OW31060   5.432   3.927   4.861
10054SOL    HW131061   5.367   3.899   4.791
10054SOL    HW231062   5.386   3.986   4.928
10055SOL     OW31063   6.765   2.652   6.623
10055SOL    HW131064   6.699   2.698   6.683
10055SOL    HW231065   6.802   2.572   6.670
10056SOL     OW31066   5.139   3.530   2.950
10056SOL    HW131067   5.062   3.516   2.889
10056SOL    HW231068   5.106   3.556   3.041
10057SOL     OW31069   5.669   3.823   5.568
10057SOL    HW131070   5.614   3.785   5.494
10057SOL    HW231071   5.765   3.823   5.542
10058SOL     OW31072   6.731   3.136   4.198
10058SOL    HW131073   6.828   3.126   4.220
10058SOL    HW231074   6.703   3.231   4.215
10059SOL     OW31075   6.200   1.586   0.783
10059SOL    HW131076   6.175   1.661   0.844
10059SOL    HW231077   6.292   1.602   0.746
10060SOL     OW31078   2.497   1.761   2.494
10060SOL    HW131079   2.402   1.790   2.488
10060SOL    HW231080   2.556   1.841   2.492
10061SOL     OW31081   4.114   1.293   3.842
10061SOL    HW131082   4.138   1.303   3.939
10061SOL    HW231083   4.190   1.325   3.786
10062SOL     OW31084   0.345   6.952   4.287
10062SOL    HW131085   0.373   6.880   4.223
10062SOL    HW231086   0.324   0.009   4.235
10063SOL     OW31087   2.155   1.932   4.160
10063SOL    HW131088   2.073   1.950   4.214
10063SOL    HW231089   2.235   1.969   4.208
10064SOL     OW31090   3.924   6.008   6.864
10064SOL    HW131091   3.952   6.104   6.861
10064SOL    HW231092   3.935   5.967   6.773
10065SOL     OW31093   1.472   1.031   1.592
10065SOL    HW131094   1.445   1.109   1.535
10065SOL    HW231095   1.569   1.013   1.581
10066SOL     OW31096   0.100   3.644   5.100
10066SOL    HW131097   0.187   3.594   5.096
10066SOL    HW231098   0.115   3.734   5.142
10067SOL     OW31099   0.669   3.045   6.697
10067SOL    HW131100   0.654   3.143   6.711
10067SOL    HW231101   0.639   3.021   6.604
10068SOL     OW31102   1.822   3.338   2.838
10068SOL    HW131103   1.842   3.392   2.920
10068SOL    HW231104   1.760   3.389   2.778
10069SOL     OW31105   3.569   5.076   1.826
10069SOL    HW131106   3.669   5.081   1.832
10069SOL    HW231107   3.537   5.143   1.760
10070SOL     OW31108   2.614   5.788   4.327
10070SOL    HW131109   2.531   5.819   4.279
10070SOL    HW231110   2.601   5.694   4.359
10071SOL     OW31111   0.397   6.217   3.721
10071SOL    HW131112   0.422   6.152   3.793
10071SOL    HW231113   0.345   6.293   3.760
10072SOL     OW31114   0.521   1.432   2.680
10072SOL    HW131115   0.496   1.403   2.588
10072SOL    HW231116   0.438   1.435   2.737
10073SOL     OW31117   6.197   2.833   3.787
10073SOL    HW131118   6.174   2.742   3.823
10073SOL    HW231119   6.278   2.826   3.729
10074SOL     OW31120   1.633   4.998   0.466
10074SOL    HW131121   1.633   4.899   0.459
10074SOL    HW231122   1.698   5.036   0.399
10075SOL     OW31123   2.075   1.331   2.266
10075SOL    HW131124   2.145   1.390   2.226
10075SOL    HW231125   1.984   1.365   2.240
10076SOL     OW31126   4.919   5.123   3.098
10076SOL    HW131127   4.993   5.083   3.044
10076SOL    HW231128   4.832   5.083   3.070
10077SOL     OW31129   6.188   3.130   0.171
10077SOL    HW131130   6.232   3.097   0.255
10077SOL    HW231131   6.258   3.145   0.101
10078SOL     OW31132   6.891   6.676   4.737
10078SOL    HW131133   6.861   6.734   4.661
10078SOL    HW231134   6.957   6.727   4.793
10079SOL     OW31135   5.733   2.911   3.520
10079SOL    HW131136   5.637   2.912   3.495
10079SOL    HW231137   5.753   2.984   3.585
10080SOL     OW31138   6.008   0.924   6.050
10080SOL    HW131139   5.959   0.871   6.119
10080SOL    HW231140   5.968   0.908   5.960
10081SOL     OW31141   1.504   1.493   6.566
10081SOL    HW131142   1.558   1.479   6.483
10081SOL    HW231143   1.471   1.404   6.599
10082SOL     OW31144   1.104   4.887   2.810
10082SOL    HW131145   1.038   4.961   2.804
10082SOL    HW231146   1.113   4.858   2.906
10083SOL     OW31147   3.448   5.235   3.564
10083SOL    HW131148   3.466   5.329   3.591
10083SOL    HW231149   3.354   5.210   3.589
10084SOL     OW31150   0.481   0.218   5.651
10084SOL    HW131151   0.451   0.311   5.673
10084SOL    HW231152   0.542   0.184   5.723
10085SOL     OW31153   3.789   6.645   0.147
10085SOL    HW131154   3.710   6.593   0.176
10085SOL    HW231155   3.780   6.740   0.179
10086SOL     OW31156   6.518   6.643   1.959
10086SOL    HW131157   6.466   6.559   1.944
10086SOL    HW231158   6.541   6.651   2.056
10087SOL     OW31159   0.617   6.708   4.217
10087SOL    HW131160   0.663   6.792   4.248
10087SOL    HW231161   0.582   6.658   4.296
10088SOL     OW31162   0.196   2.570   0.254
10088SOL    HW131163   0.110   2.620   0.267
10088SOL    HW231164   0.270   2.619   0.301
10089SOL     OW31165   4.133   1.701   2.059
10089SOL    HW131166   4.039   1.699   2.093
10089SOL    HW231167   4.195   1.727   2.134
10090SOL     OW31168   0.970   5.020   1.395
10090SOL    HW131169   1.032   5.093   1.366
10090SOL    HW231170   1.022   4.935   1.406
10091SOL     OW31171   6.593   5.454   6.279
10091SOL    HW131172   6.665   5.422   6.340
10091SOL    HW231173   6.524   5.505   6.330
10092SOL     OW31174   0.857   3.326   5.568
10092SOL    HW131175   0.767   3.368   5.579
10092SOL    HW231176   0.903   3.367   5.488
10093SOL     OW31177   5.328   3.718   5.915
10093SOL    HW131178   5.324   3.797   5.854
10093SOL    HW231179   5.269   3.646   5.880
10094SOL     OW31180   3.002   0.029   1.306
10094SOL    HW131181   2.935   6.984   1.327
10094SOL    HW231182   2.974   0.079   1.224
10095SOL     OW31183   5.165   2.625   5.216
10095SOL    HW131184   5.172   2.528   5.239
10095SOL    HW231185   5.255   2.659   5.187
10096SOL     OW31186   4.922   0.821   2.442
10096SOL    HW131187   4.866   0.899   2.469
10096SOL    HW231188   4.971   0.786   2.521
10097SOL     OW31189   2.160   1.572   5.844
10097SOL    HW131190   2.191   1.477   5.843
10097SOL    HW231191   2.063   1.575   5.819
10098SOL     OW31192   3.086   5.336   4.431
10098SOL    HW131193   3.113   5.330   4.527
10098SOL    HW231194   2.990   5.309   4.422
10099SOL     OW31195   6.401   3.949   1.791
10099SOL    HW131196   6.425   4.013   1.719
10099SOL    HW231197   6.468   3.875   1.795
10100SOL     OW31198   5.437   5.357   5.193
10100SOL    HW131199   5.369   5.284   5.188
10100SOL    HW231200   5.394   5.444   5.168
10101SOL     OW31201   0.971   2.545   1.529
10101SOL    HW131202   0.988   2.518   1.624
10101SOL    HW231203   0.885   2.506   1.497
10102SOL     OW31204   5.908   6.800   0.803
10102SOL    HW131205   5.928   6.895   0.778
10102SOL    HW231206   5.830   6.799   0.866
10103SOL     OW31207   0.749   0.546   5.785
10103SOL    HW131208   0.812   0.475   5.755
10103SOL    HW231209   0.782   0.585   5.871
10104SOL     OW31210   2.292   0.503   5.903
10104SOL    HW131211   2.194   0.508   5.920
10104SOL    HW231212   2.321   0.408   5.900
10105SOL     OW31213   3.067   1.482   5.824
10105SOL    HW131214   3.052   1.476   5.922
10105SOL    HW231215   2.981   1.505   5.778
10106SOL     OW31216   4.861   6.440   1.337
10106SOL    HW131217   4.906   6.355   1.308
10106SOL    HW231218   4.922   6.490   1.399
10107SOL     OW31219   5.410   4.779   6.503
10107SOL    HW131220   5.362   4.783   6.590
10107SOL    HW231221   5.344   4.768   6.429
10108SOL     OW31222   1.465   3.316   0.658
10108SOL    HW131223   1.534   3.361   0.601
10108SOL    HW231224   1.433   3.233   0.613
10109SOL     OW31225   0.818   1.057   0.109
10109SOL    HW131226   0.726   1.094   0.121
10109SOL    HW231227   0.880   1.101   0.174
10110SOL     OW31228   4.857   5.476   2.636
10110SOL    HW131229   4.901   5.513   2.718
10110SOL    HW231230   4.876   5.378   2.630
10111SOL     OW31231   1.322   1.888   1.964
10111SOL    HW131232   1.248   1.951   1.987
10111SOL    HW231233   1.399   1.902   2.026
10112SOL     OW31234   6.410   2.704   3.673
10112SOL    HW131235   6.459   2.787   3.648
10112SOL    HW231236   6.476   2.634   3.703
10113SOL     OW31237   4.963   1.209   6.805
10113SOL    HW131238   4.925   1.117   6.797
10113SOL    HW231239   5.036   1.209   6.874
10114SOL     OW31240   4.251   1.604   3.235
10114SOL    HW131241   4.164   1.604   3.285
10114SOL    HW231242   4.234   1.581   3.139
10115SOL     OW31243   3.428   1.030   5.029
10115SOL    HW131244   3.378   1.052   4.945
10115SOL    HW231245   3.490   1.105   5.051
10116SOL     OW31246   6.408   0.816   5.153
10116SOL    HW131247   6.344   0.744   5.125
10116SOL    HW231248   6.498   0.799   5.112
10117SOL     OW31249   6.384   5.323   4.883
10117SOL    HW131250   6.313   5.271   4.930
10117SOL    HW231251   6.421   5.267   4.808
10118SOL     OW31252   3.237   4.934   5.028
10118SOL    HW131253   3.219   4.912   4.932
10118SOL    HW231254   3.197   4.864   5.086
10119SOL     OW31255   0.235   5.003   4.180
10119SOL    HW131256   0.212   4.911   4.213
10119SOL    HW231257   0.330   5.005   4.148
10120SOL     OW31258   1.579   3.074   2.133
10120SOL    HW131259   1.547   3.104   2.043
10120SOL    HW231260   1.639   3.144   2.172
10121SOL     OW31261   6.261   4.348   0.896
10121SOL    HW131262   6.199   4.300   0.958
10121SOL    HW231263   6.249   4.447   0.907
10122SOL     OW31264   0.143   2.048   3.373
10122SOL    HW131265   0.173   2.130   3.421
10122SOL    HW231266   0.110   1.981   3.438
10123SOL     OW31267   5.571   5.999   1.309
10123SOL    HW131268   5.668   6.001   1.285
10123SOL    HW231269   5.531   5.913   1.278
10124SOL     OW31270   1.306   4.449   2.900
10124SOL    HW131271   1.231   4.384   2.914
10124SOL    HW231272   1.347   4.471   2.988
10125SOL     OW31273   1.573   2.206   0.208
10125SOL    HW131274   1.608   2.122   0.166
10125SOL    HW231275   1.511   2.252   0.144
10126SOL     OW31276   5.976   0.639   6.671
10126SOL    HW131277   6.032   0.666   6.750
10126SOL    HW231278   5.947   0.544   6.683
10127SOL     OW31279   1.933   4.926   6.163
10127SOL    HW131280   1.884   5.012   6.150
10127SOL    HW231281   2.027   4.944   6.190
10128SOL     OW31282   3.291   0.302   0.414
10128SOL    HW131283   3.246   0.299   0.325
10128SOL    HW231284   3.390   0.310   0.401
10129SOL     OW31285   6.036   1.540   3.857
10129SOL    HW131286   6.017   1.628   3.899
10129SOL    HW231287   6.107   1.551   3.787
10130SOL     OW31288   1.618   2.412   2.382
10130SOL    HW131289   1.632   2.313   2.382
10130SOL    HW231290   1.705   2.458   2.401
10131SOL     OW31291   2.047   0.687   4.507
10131SOL    HW131292   2.041   0.763   4.442
10131SOL    HW231293   2.128   0.631   4.485
10132SOL     OW31294   6.908   0.753   2.913
10132SOL    HW131295   6.928   0.655   2.915
10132SOL    HW231296   6.980   0.800   2.862
10133SOL     OW31297   4.558   5.894   1.079
10133SOL    HW131298   4.516   5.803   1.081
10133SOL    HW231299   4.486   5.963   1.076
10134SOL     OW31300   5.831   0.510   2.425
10134SOL    HW131301   5.840   0.603   2.462
10134SOL    HW231302   5.815   0.515   2.326
10135SOL     OW31303   5.727   7.015   3.587
10135SOL    HW131304   5.634   7.000   3.619
10135SOL    HW231305   5.725   0.015   3.490
10136SOL     OW31306   4.648   1.911   2.656
10136SOL    HW131307   4.614   1.859   2.578
10136SOL    HW231308   4.694   1.994   2.623
10137SOL     OW31309   0.262   5.995   5.817
10137SOL    HW131310   0.168   5.984   5.786
10137SOL    HW231311   0.318   6.033   5.743
10138SOL     OW31312   5.464   1.249   6.852
10138SOL    HW131313   5.486   1.342   6.881
10138SOL    HW231314   5.491   1.236   6.757
10139SOL     OW31315   3.330   3.710   5.413
10139SOL    HW131316   3.269   3.730   5.336
10139SOL    HW231317   3.403   3.648   5.383
10140SOL     OW31318   0.006   5.217   5.981
10140SOL    HW131319   0.017   5.198   6.079
10140SOL    HW231320   6.935   5.217   5.958
10141SOL     OW31321   2.727   1.585   4.055
10141SOL    HW131322   2.695   1.611   3.963
10141SOL    HW231323   2.751   1.667   4.106
10142SOL     OW31324   6.055   6.405   4.215
10142SOL    HW131325   6.071   6.500   4.186
10142SOL    HW231326   6.046   6.347   4.134
10143SOL     OW31327   5.618   3.247   0.475
10143SOL    HW131328   5.600   3.149   0.468
10143SOL    HW231329   5.690   3.262   0.544
10144SOL     OW31330   3.662   6.110   5.181
10144SOL    HW131331   3.593   6.142   5.116
10144SOL    HW231332   3.709   6.188   5.221
10145SOL     OW31333   5.119   5.864   0.801
10145SOL    HW131334   5.160   5.807   0.730
10145SOL    HW231335   5.157   5.957   0.794
10146SOL     OW31336   0.552   3.431   4.054
10146SOL    HW131337   0.476   3.424   3.991
10146SOL    HW231338   0.517   3.441   4.147
10147SOL     OW31339   4.448   5.927   6.391
10147SOL    HW131340   4.407   5.902   6.303
10147SOL    HW231341   4.455   5.846   6.449
10148SOL     OW31342   1.088   5.130   6.820
10148SOL    HW131343   1.105   5.225   6.845
10148SOL    HW231344   0.994   5.105   6.843
10149SOL     OW31345   4.453   4.215   0.898
10149SOL    HW131346   4.504   4.157   0.961
10149SOL    HW231347   4.395   4.278   0.950
10150SOL     OW31348   4.741   4.302   0.368
10150SOL    HW131349   4.683   4.221   0.359
10150SOL    HW231350   4.728   4.343   0.458
10151SOL     OW31351   6.437   0.372   5.575
10151SOL    HW131352   6.341   0.357   5.597
10151SOL    HW231353   6.445   0.441   5.503
10152SOL     OW31354   5.606   6.450   2.804
10152SOL    HW131355   5.633   6.377   2.866
10152SOL    HW231356   5.623   6.422   2.710
10153SOL     OW31357   5.718   4.837   3.783
10153SOL    HW131358   5.784   4.775   3.741
10153SOL    HW231359   5.630   4.791   3.793
10154SOL     OW31360   4.333   5.361   5.450
10154SOL    HW131361   4.271   5.291   5.487
10154SOL    HW231362   4.279   5.436   5.412
10155SOL     OW31363   4.176   2.143   5.708
10155SOL    HW131364   4.168   2.224   5.765
10155SOL    HW231365   4.105   2.077   5.734
10156SOL     OW31366   4.792   0.701   1.046
10156SOL    HW131367   4.805   0.629   1.114
10156SOL    HW231368   4.868   0.766   1.052
10157SOL     OW31369   0.114   3.205   1.328
10157SOL    HW131370   0.204   3.232   1.362
10157SOL    HW231371   0.121   3.177   1.232
10158SOL     OW31372   5.541   6.346   2.013
10158SOL    HW131373   5.450   6.309   1.994
10158SOL    HW231374   5.546   6.441   1.980
10159SOL     OW31375   3.356   3.243   3.162
10159SOL    HW131376   3.338   3.320   3.101
10159SOL    HW231377   3.429   3.268   3.226
10160SOL     OW31378   2.060   4.188   3.110
10160SOL    HW131379   2.001   4.144   3.177
10160SOL    HW231380   2.107   4.119   3.056
10161SOL     OW31381   4.373   4.572   6.446
10161SOL    HW131382   4.284   4.573   6.400
10161SOL    HW231383   4.386   4.483   6.490
10162SOL     OW31384   1.597   4.066   2.500
10162SOL    HW131385   1.645   4.153   2.513
10162SOL    HW231386   1.532   4.074   2.425
10163SOL     OW31387   0.730   6.350   5.163
10163SOL    HW131388   0.644   6.340   5.213
10163SOL    HW231389   0.760   6.260   5.130
10164SOL     OW31390   7.009   3.035   3.176
10164SOL    HW131391   6.953   3.051   3.258
10164SOL    HW231392   0.066   2.985   3.202
10165SOL     OW31393   6.214   3.463   4.115
10165SOL    HW131394   6.266   3.380   4.098
10165SOL    HW231395   6.252   3.538   4.060
10166SOL     OW31396   1.367   1.998   0.835
10166SOL    HW131397   1.438   1.960   0.894
10166SOL    HW231398   1.404   2.012   0.743
10167SOL     OW31399   0.963   6.681   6.586
10167SOL    HW131400   0.883   6.621   6.598
10167SOL    HW231401   1.033   6.633   6.534
10168SOL     OW31402   5.613   0.969   0.327
10168SOL    HW131403   5.630   1.028   0.248
10168SOL    HW231404   5.515   0.954   0.338
10169SOL     OW31405   6.553   3.283   3.163
10169SOL    HW131406   6.578   3.192   3.196
10169SOL    HW231407   6.636   3.336   3.146
10170SOL     OW31408   6.149   5.990   6.791
10170SOL    HW131409   6.097   6.021   6.871
10170SOL    HW231410   6.148   5.890   6.787
10171SOL     OW31411   1.597   3.199   5.501
10171SOL    HW131412   1.630   3.291   5.523
10171SOL    HW231413   1.499   3.203   5.479
10172SOL     OW31414   6.055   0.211   3.588
10172SOL    HW131415   6.127   0.147   3.560
10172SOL    HW231416   5.996   0.167   3.656
10173SOL     OW31417   3.505   5.130   7.009
10173SOL    HW131418   3.445   5.050   7.014
10173SOL    HW231419   3.461   5.207   0.029
10174SOL     OW31420   4.268   6.408   2.424
10174SOL    HW131421   4.252   6.464   2.506
10174SOL    HW231422   4.234   6.456   2.344
10175SOL     OW31423   7.011   2.137   3.777
10175SOL    HW131424   7.021   2.095   3.867
10175SOL    HW231425   7.012   2.237   3.787
10176SOL     OW31426   6.181   3.085   5.609
10176SOL    HW131427   6.101   3.110   5.663
10176SOL    HW231428   6.246   3.162   5.608
10177SOL     OW31429   1.964   0.823   2.070
10177SOL    HW131430   1.935   0.788   2.159
10177SOL    HW231431   2.059   0.854   2.075
10178SOL     OW31432   1.653   1.444   7.023
10178SOL    HW131433   1.749   1.455   7.001
10178SOL    HW231434   1.644   1.407   0.090
10179SOL     OW31435   0.062   4.147   1.123
10179SOL    HW131436   0.076   4.208   1.044
10179SOL    HW231437   0.131   4.074   1.121
10180SOL     OW31438   3.568   6.887   5.736
10180SOL    HW131439   3.550   6.960   5.802
10180SOL    HW231440   3.483   6.864   5.688
10181SOL     OW31441   6.902   3.844   1.271
10181SOL    HW131442   6.927   3.748   1.265
10181SOL    HW231443   6.876   3.878   1.181
10182SOL     OW31444   5.142   0.984   0.015
10182SOL    HW131445   5.216   0.940   0.066
10182SOL    HW231446   5.172   1.075   7.011
10183SOL     OW31447   6.228   2.065   6.055
10183SOL    HW131448   6.259   2.033   5.965
10183SOL    HW231449   6.132   2.092   6.050
10184SOL     OW31450   5.942   3.612   6.130
10184SOL    HW131451   5.973   3.546   6.199
10184SOL    HW231452   5.950   3.705   6.166
10185SOL     OW31453   3.800   5.815   2.648
10185SOL    HW131454   3.813   5.883   2.576
10185SOL    HW231455   3.779   5.861   2.734
10186SOL     OW31456   4.804   3.949   5.980
10186SOL    HW131457   4.789   4.042   6.013
10186SOL    HW231458   4.902   3.929   5.979
10187SOL     OW31459   2.700   4.879   6.399
10187SOL    HW131460   2.607   4.853   6.376
10187SOL    HW231461   2.719   4.970   6.361
10188SOL     OW31462   2.566   6.871   0.108
10188SOL    HW131463   2.614   6.924   0.038
10188SOL    HW231464   2.513   6.932   0.166
10189SOL     OW31465   1.126   1.256   6.314
10189SOL    HW131466   1.148   1.341   6.266
10189SOL    HW231467   1.173   1.179   6.271
10190SOL     OW31468   3.233   4.673   1.442
10190SOL    HW131469   3.177   4.745   1.484
10190SOL    HW231470   3.286   4.627   1.513
10191SOL     OW31471   5.780   5.834   6.522
10191SOL    HW131472   5.760   5.922   6.479
10191SOL    HW231473   5.714   5.816   6.594
10192SOL     OW31474   2.417   1.685   4.834
10192SOL    HW131475   2.321   1.703   4.854
10192SOL    HW231476   2.473   1.760   4.870
10193SOL     OW31477   3.976   3.761   2.901
10193SOL    HW131478   3.984   3.817   2.984
10193SOL    HW231479   4.042   3.792   2.833
10194SOL     OW31480   3.782   0.110   4.577
10194SOL    HW131481   3.862   0.168   4.561
10194SOL    HW231482   3.804   0.015   4.556
10195SOL     OW31483   5.228   0.166   2.311
10195SOL    HW131484   5.155   0.188   2.246
10195SOL    HW231485   5.235   0.238   2.380
10196SOL     OW31486   5.747   1.670   2.957
10196SOL    HW131487   5.815   1.620   3.010
10196SOL    HW231488   5.668   1.689   3.015
10197SOL     OW31489   6.531   0.256   2.446
10197SOL    HW131490   6.551   0.347   2.481
10197SOL    HW231491   6.464   0.263   2.373
10198SOL     OW31492   3.182   6.476   1.637
10198SOL    HW131493   3.094   6.514   1.664
10198SOL    HW231494   3.255   6.534   1.673
10199SOL     OW31495   0.988   1.907   6.611
10199SOL    HW131496   1.070   1.946   6.569
10199SOL    HW231497   0.914   1.974   6.609
10200SOL     OW31498   4.808   4.292   5.516
10200SOL    HW131499   4.856   4.365   5.565
10200SOL    HW231500   4.867   4.211   5.512
10201SOL     OW31501   0.840   5.574   2.162
10201SOL    HW131502   0.911   5.565   2.093
10201SOL    HW231503   0.758   5.615   2.121
10202SOL     OW31504   0.867   3.952   1.763
10202SOL    HW131505   0.837   3.878   1.822
10202SOL    HW231506   0.967   3.953   1.759
10203SOL     OW31507   1.980   3.088   2.300
10203SOL    HW131508   1.972   3.123   2.394
10203SOL    HW231509   2.069   3.045   2.289
10204SOL     OW31510   3.081   4.782   5.195
10204SOL    HW131511   3.067   4.822   5.286
10204SOL    HW231512   3.039   4.691   5.192
10205SOL     OW31513   5.758   1.908   3.607
10205SOL    HW131514   5.782   1.814   3.634
10205SOL    HW231515   5.818   1.937   3.532
10206SOL     OW31516   5.846   6.674   6.218
10206SOL    HW131517   5.759   6.640   6.182
10206SOL    HW231518   5.919   6.610   6.194
10207SOL     OW31519   2.597   0.949   2.783
10207SOL    HW131520   2.630   0.925   2.875
10207SOL    HW231521   2.566   0.866   2.737
10208SOL     OW31522   5.803   5.081   5.461
10208SOL    HW131523   5.791   4.996   5.409
10208SOL    HW231524   5.823   5.156   5.398
10209SOL     OW31525   6.992   0.750   6.408
10209SOL    HW131526   0.007   0.841   6.403
10209SOL    HW231527   6.893   0.760   6.419
10210SOL     OW31528   5.963   6.794   2.396
10210SOL    HW131529   5.931   6.796   2.302
10210SOL    HW231530   5.928   6.712   2.442
10211SOL     OW31531   3.859   6.296   5.316
10211SOL    HW131532   3.806   6.312   5.399
10211SOL    HW231533   3.920   6.218   5.330
10212SOL     OW31534   0.659   1.227   4.047
10212SOL    HW131535   0.630   1.300   4.109
10212SOL    HW231536   0.580   1.197   3.993
10213SOL     OW31537   5.736   1.860   3.220
10213SOL    HW131538   5.826   1.882   3.258
10213SOL    HW231539   5.730   1.762   3.204
10214SOL     OW31540   6.267   0.819   2.208
10214SOL    HW131541   6.304   0.758   2.278
10214SOL    HW231542   6.227   0.764   2.134
10215SOL     OW31543   3.847   3.460   6.077
10215SOL    HW131544   3.829   3.362   6.069
10215SOL    HW231545   3.893   3.479   6.164
10216SOL     OW31546   6.000   0.014   1.083
10216SOL    HW131547   5.951   0.007   0.997
10216SOL    HW231548   5.989   0.106   1.121
10217SOL     OW31549   2.885   2.278   3.812
10217SOL    HW131550   2.974   2.246   3.846
10217SOL    HW231551   2.877   2.258   3.715
10218SOL     OW31552   2.115   0.790   1.274
10218SOL    HW131553   2.184   0.862   1.283
10218SOL    HW231554   2.159   0.706   1.242
10219SOL     OW31555   0.549   2.087   2.112
10219SOL    HW131556   0.502   2.048   2.190
10219SOL    HW231557   0.533   2.186   2.110
10220SOL     OW31558   4.344   1.829   1.489
10220SOL    HW131559   4.279   1.887   1.441
10220SOL    HW231560   4.304   1.797   1.575
10221SOL     OW31561   3.029   0.629   5.397
10221SOL    HW131562   3.088   0.569   5.450
10221SOL    HW231563   3.077   0.715   5.379
10222SOL     OW31564   1.581   4.106   5.149
10222SOL    HW131565   1.528   4.061   5.221
10222SOL    HW231566   1.550   4.201   5.139
10223SOL     OW31567   1.789   4.823   6.842
10223SOL    HW131568   1.714   4.781   6.893
10223SOL    HW231569   1.752   4.887   6.775
10224SOL     OW31570   0.850   0.266   4.313
10224SOL    HW131571   0.845   0.302   4.219
10224SOL    HW231572   0.759   0.271   4.355
10225SOL     OW31573   0.128   6.064   4.515
10225SOL    HW131574   0.224   6.058   4.543
10225SOL    HW231575   0.073   6.100   4.590
10226SOL     OW31576   2.758   1.305   6.811
10226SOL    HW131577   2.747   1.361   6.893
10226SOL    HW231578   2.690   1.331   6.743
10227SOL     OW31579   4.929   4.560   0.344
10227SOL    HW131580   4.834   4.576   0.318
10227SOL    HW231581   4.949   4.462   0.340
10228SOL     OW31582   0.266   5.269   2.506
10228SOL    HW131583   0.278   5.218   2.421
10228SOL    HW231584   0.293   5.212   2.583
10229SOL     OW31585   0.912   0.304   3.557
10229SOL    HW131586   0.909   0.244   3.478
10229SOL    HW231587   0.936   0.397   3.528
10230SOL     OW31588   6.174   6.840   3.680
10230SOL    HW131589   6.241   6.831   3.753
10230SOL    HW231590   6.189   6.926   3.631
10231SOL     OW31591   6.222   6.945   4.505
10231SOL    HW131592   6.277   6.953   4.421
10231SOL    HW231593   6.256   7.010   4.573
10232SOL     OW31594   3.339   1.012   4.390
10232SOL    HW131595   3.339   1.099   4.440
10232SOL    HW231596   3.377   1.026   4.298
10233SOL     OW31597   4.211   2.772   6.039
10233SOL    HW131598   4.195   2.869   6.057
10233SOL    HW231599   4.126   2.721   6.053
10234SOL     OW31600   5.204   0.111   0.906
10234SOL    HW131601   5.112   0.072   0.904
10234SOL    HW231602   5.209   0.188   0.842
10235SOL     OW31603   4.732   1.404   0.218
10235SOL    HW131604   4.726   1.311   0.182
10235SOL    HW231605   4.805   1.454   0.172
10236SOL     OW31606   2.376   6.539   1.419
10236SOL    HW131607   2.393   6.634   1.392
10236SOL    HW231608   2.370   6.534   1.519
10237SOL     OW31609   6.293   4.286   1.910
10237SOL    HW131610   6.302   4.247   1.819
10237SOL    HW231611   6.205   4.333   1.919
10238SOL     OW31612   3.827   4.637   5.297
10238SOL    HW131613   3.738   4.599   5.321
10238SOL    HW231614   3.887   4.564   5.264
10239SOL     OW31615   0.515   4.182   5.351
10239SOL    HW131616   0.492   4.170   5.255
10239SOL    HW231617   0.524   4.279   5.371
10240SOL     OW31618   1.044   4.802   3.062
10240SOL    HW131619   0.947   4.780   3.053
10240SOL    HW231620   1.054   4.891   3.108
10241SOL     OW31621   0.484   1.367   2.393
10241SOL    HW131622   0.581   1.343   2.400
10241SOL    HW231623   0.474   1.452   2.342
10242SOL     OW31624   0.043   1.463   5.692
10242SOL    HW131625   7.019   1.402   5.631
10242SOL    HW231626   0.014   1.557   5.677
10243SOL     OW31627   0.599   5.283   1.480
10243SOL    HW131628   0.587   5.375   1.443
10243SOL    HW231629   0.602   5.288   1.579
10244SOL     OW31630   2.427   4.830   6.840
10244SOL    HW131631   2.481   4.758   6.797
10244SOL    HW231632   2.487   4.902   6.874
10245SOL     OW31633   1.612   3.173   6.861
10245SOL    HW131634   1.561   3.145   6.942
10245SOL    HW231635   1.698   3.215   6.888
10246SOL     OW31636   3.129   3.991   4.062
10246SOL    HW131637   3.130   3.962   3.967
10246SOL    HW231638   3.222   4.014   4.091
10247SOL     OW31639   0.455   5.482   5.833
10247SOL    HW131640   0.390   5.414   5.800
10247SOL    HW231641   0.458   5.559   5.769
10248SOL     OW31642   3.214   0.250   2.148
10248SOL    HW131643   3.147   0.176   2.157
10248SOL    HW231644   3.273   0.252   2.229
10249SOL     OW31645   4.257   0.132   5.479
10249SOL    HW131646   4.357   0.126   5.488
10249SOL    HW231647   4.229   0.227   5.488
10250SOL     OW31648   6.320   0.995   1.448
10250SOL    HW131649   6.227   1.032   1.441
10250SOL    HW231650   6.316   0.902   1.483
10251SOL     OW31651   2.770   2.746   6.138
10251SOL    HW131652   2.742   2.804   6.062
10251SOL    HW231653   2.690   2.698   6.175
10252SOL     OW31654   6.165   6.630   0.861
10252SOL    HW131655   6.152   6.728   0.850
10252SOL    HW231656   6.170   6.587   0.771
10253SOL     OW31657   4.669   4.941   0.225
10253SOL    HW131658   4.762   4.976   0.240
10253SOL    HW231659   4.605   5.018   0.219
10254SOL     OW31660   3.060   1.766   4.933
10254SOL    HW131661   3.085   1.806   5.021
10254SOL    HW231662   3.061   1.837   4.862
10255SOL     OW31663   2.086   6.426   1.787
10255SOL    HW131664   2.094   6.355   1.857
10255SOL    HW231665   2.046   6.508   1.827
10256SOL     OW31666   4.979   0.195   0.384
10256SOL    HW131667   5.060   0.241   0.419
10256SOL    HW231668   4.901   0.256   0.389
10257SOL     OW31669   1.300   5.086   5.132
10257SOL    HW131670   1.256   5.086   5.222
10257SOL    HW231671   1.399   5.077   5.144
10258SOL     OW31672   4.939   6.196   3.482
10258SOL    HW131673   4.845   6.172   3.507
10258SOL    HW231674   4.962   6.285   3.521
10259SOL     OW31675   0.053   4.902   3.945
10259SOL    HW131676   0.079   4.805   3.953
10259SOL    HW231677   7.004   4.920   4.009
10260SOL     OW31678   0.497   6.401   3.090
10260SOL    HW131679   0.515   6.364   3.181
10260SOL    HW231680   0.520   6.332   3.021
10261SOL     OW31681   0.004   5.811   2.501
10261SOL    HW131682   7.010   5.726   2.549
10261SOL    HW231683   6.977   5.816   2.416
10262SOL     OW31684   3.165   5.057   4.514
10262SOL    HW131685   3.120   5.018   4.434
10262SOL    HW231686   3.100   5.062   4.590
10263SOL     OW31687   5.042   2.009   0.070
10263SOL    HW131688   5.120   2.071   0.083
10263SOL    HW231689   5.048   1.966   7.006
10264SOL     OW31690   5.720   1.431   6.406
10264SOL    HW131691   5.758   1.445   6.497
10264SOL    HW231692   5.630   1.473   6.400
10265SOL     OW31693   3.320   1.562   3.161
10265SOL    HW131694   3.295   1.466   3.178
10265SOL    HW231695   3.388   1.566   3.089
10266SOL     OW31696   3.870   3.918   6.372
10266SOL    HW131697   3.806   3.852   6.333
10266SOL    HW231698   3.820   3.990   6.419
10267SOL     OW31699   6.784   1.935   0.357
10267SOL    HW131700   6.769   1.901   0.264
10267SOL    HW231701   6.715   2.005   0.378
10268SOL     OW31702   5.500   6.054   1.592
10268SOL    HW131703   5.495   6.064   1.493
10268SOL    HW231704   5.428   5.993   1.624
10269SOL     OW31705   2.403   2.018   5.741
10269SOL    HW131706   2.403   2.020   5.841
10269SOL    HW231707   2.405   2.111   5.705
10270SOL     OW31708   1.956   6.230   0.520
10270SOL    HW131709   1.948   6.208   0.618
10270SOL    HW231710   1.868   6.213   0.476
10271SOL     OW31711   3.364   3.624   0.580
10271SOL    HW131712   3.313   3.687   0.639
10271SOL    HW231713   3.326   3.532   0.590
10272SOL     OW31714   1.276   0.897   4.352
10272SOL    HW131715   1.231   0.900   4.263
10272SOL    HW231716   1.230   0.960   4.415
10273SOL     OW31717   3.415   5.591   4.038
10273SOL    HW131718   3.389   5.516   4.099
10273SOL    HW231719   3.369   5.581   3.950
10274SOL     OW31720   1.268   5.252   5.816
10274SOL    HW131721   1.235   5.158   5.832
10274SOL    HW231722   1.295   5.261   5.720
10275SOL     OW31723   0.884   6.117   3.562
10275SOL    HW131724   0.861   6.059   3.484
10275SOL    HW231725   0.803   6.132   3.618
10276SOL     OW31726   0.082   5.584   5.867
10276SOL    HW131727   0.139   5.653   5.913
10276SOL    HW231728   7.012   5.605   5.883
10277SOL     OW31729   2.763   6.594   3.892
10277SOL    HW131730   2.751   6.570   3.796
10277SOL    HW231731   2.688   6.655   3.921
10278SOL     OW31732   6.752   0.858   6.367
10278SOL    HW131733   6.692   0.791   6.411
10278SOL    HW231734   6.728   0.866   6.271
10279SOL     OW31735   3.248   6.977   4.031
10279SOL    HW131736   3.247   6.921   3.948
10279SOL    HW231737   3.337   7.022   4.040
10280SOL     OW31738   1.974   4.687   0.821
10280SOL    HW131739   1.897   4.679   0.757
10280SOL    HW231740   1.985   4.782   0.849
10281SOL     OW31741   4.620   1.436   2.975
10281SOL    HW131742   4.672   1.415   2.892
10281SOL    HW231743   4.577   1.352   3.008
10282SOL     OW31744   0.313   2.668   3.733
10282SOL    HW131745   0.263   2.582   3.733
10282SOL    HW231746   0.255   2.741   3.769
10283SOL     OW31747   1.230   3.219   1.178
10283SOL    HW131748   1.149   3.189   1.228
10283SOL    HW231749   1.205   3.242   1.084
10284SOL     OW31750   5.291   3.598   4.949
10284SOL    HW131751   5.242   3.657   5.013
10284SOL    HW231752   5.390   3.616   4.956
10285SOL     OW31753   4.805   0.016   1.493
10285SOL    HW131754   4.843   6.950   1.494
10285SOL    HW231755   4.880   0.083   1.491
10286SOL     OW31756   3.610   1.530   2.699
10286SOL    HW131757   3.522   1.487   2.721
10286SOL    HW231758   3.670   1.463   2.655
10287SOL     OW31759   1.277   6.726   2.112
10287SOL    HW131760   1.311   6.702   2.021
10287SOL    HW231761   1.343   6.697   2.181
10288SOL     OW31762   5.123   5.518   3.176
10288SOL    HW131763   5.045   5.517   3.114
10288SOL    HW231764   5.177   5.601   3.160
10289SOL     OW31765   2.931   1.312   1.799
10289SOL    HW131766   3.004   1.250   1.770
10289SOL    HW231767   2.888   1.276   1.882
10290SOL     OW31768   4.098   3.238   2.579
10290SOL    HW131769   4.086   3.184   2.662
10290SOL    HW231770   4.067   3.186   2.500
10291SOL     OW31771   3.901   0.918   3.421
10291SOL    HW131772   3.827   0.915   3.353
10291SOL    HW231773   3.877   0.982   3.493
10292SOL     OW31774   0.597   2.435   4.991
10292SOL    HW131775   0.558   2.383   4.916
10292SOL    HW231776   0.625   2.373   5.064
10293SOL     OW31777   1.860   5.926   3.082
10293SOL    HW131778   1.874   5.897   2.987
10293SOL    HW231779   1.813   5.854   3.132
10294SOL     OW31780   4.884   2.223   2.813
10294SOL    HW131781   4.831   2.196   2.732
10294SOL    HW231782   4.830   2.284   2.870
10295SOL     OW31783   6.540   4.601   5.590
10295SOL    HW131784   6.587   4.668   5.648
10295SOL    HW231785   6.604   4.564   5.523
10296SOL     OW31786   5.794   4.386   5.968
10296SOL    HW131787   5.726   4.460   5.969
10296SOL    HW231788   5.846   4.388   6.054
10297SOL     OW31789   2.424   6.488   4.206
10297SOL    HW131790   2.421   6.536   4.119
10297SOL    HW231791   2.516   6.498   4.246
10298SOL     OW31792   4.869   4.048   3.185
10298SOL    HW131793   4.884   4.137   3.228
10298SOL    HW231794   4.877   3.975   3.254
10299SOL     OW31795   4.704   4.206   3.404
10299SOL    HW131796   4.790   4.256   3.416
10299SOL    HW231797   4.685   4.197   3.306
10300SOL     OW31798   1.365   3.202   1.654
10300SOL    HW131799   1.312   3.152   1.585
10300SOL    HW231800   1.436   3.256   1.608
10301SOL     OW31801   5.889   1.539   3.620
10301SOL    HW131802   5.955   1.520   3.693
10301SOL    HW231803   5.936   1.538   3.532
10302SOL     OW31804   1.413   6.494   2.856
10302SOL    HW131805   1.436   6.400   2.883
10302SOL    HW231806   1.314   6.506   2.860
10303SOL     OW31807   3.511   3.349   1.726
10303SOL    HW131808   3.519   3.415   1.652
10303SOL    HW231809   3.560   3.265   1.701
10304SOL     OW31810   6.780   6.913   3.884
10304SOL    HW131811   6.751   6.985   3.946
10304SOL    HW231812   6.874   6.931   3.854
10305SOL     OW31813   1.914   5.781   0.181
10305SOL    HW131814   1.850   5.838   0.129
10305SOL    HW231815   1.997   5.833   0.202
10306SOL     OW31816   4.575   5.939   0.250
10306SOL    HW131817   4.502   5.929   0.183
10306SOL    HW231818   4.538   5.977   0.335
10307SOL     OW31819   1.372   0.832   5.428
10307SOL    HW131820   1.357   0.766   5.501
10307SOL    HW231821   1.382   0.784   5.341
10308SOL     OW31822   3.140   5.049   3.327
10308SOL    HW131823   3.065   5.114   3.338
10308SOL    HW231824   3.225   5.099   3.309
10309SOL     OW31825   5.920   6.161   3.240
10309SOL    HW131826   5.918   6.229   3.314
10309SOL    HW231827   5.899   6.206   3.153
10310SOL     OW31828   3.238   3.750   2.246
10310SOL    HW131829   3.188   3.663   2.252
10310SOL    HW231830   3.302   3.756   2.323
10311SOL     OW31831   0.507   5.991   0.978
10311SOL    HW131832   0.598   5.953   0.961
10311SOL    HW231833   0.515   6.073   1.034
10312SOL     OW31834   3.737   4.848   0.545
10312SOL    HW131835   3.652   4.872   0.594
10312SOL    HW231836   3.735   4.889   0.454
10313SOL     OW31837   4.838   0.058   2.465
10313SOL    HW131838   4.802   0.138   2.514
10313SOL    HW231839   4.906   0.012   2.521
10314SOL     OW31840   6.608   0.315   1.013
10314SOL    HW131841   6.675   0.297   0.941
10314SOL    HW231842   6.540   0.242   1.014
10315SOL     OW31843   6.669   6.154   5.686
10315SOL    HW131844   6.740   6.113   5.628
10315SOL    HW231845   6.579   6.125   5.655
10316SOL     OW31846   0.225   3.944   4.748
10316SOL    HW131847   0.294   3.899   4.691
10316SOL    HW231848   0.166   3.875   4.790
10317SOL     OW31849   3.957   5.095   6.178
10317SOL    HW131850   4.004   5.172   6.135
10317SOL    HW231851   3.876   5.128   6.227
10318SOL     OW31852   6.475   4.984   1.078
10318SOL    HW131853   6.396   4.926   1.095
10318SOL    HW231854   6.553   4.927   1.051
10319SOL     OW31855   0.385   4.439   3.837
10319SOL    HW131856   0.288   4.419   3.854
10319SOL    HW231857   0.404   4.434   3.739
10320SOL     OW31858   0.995   6.639   0.665
10320SOL    HW131859   1.012   6.592   0.578
10320SOL    HW231860   0.899   6.629   0.689
10321SOL     OW31861   4.424   5.929   4.499
10321SOL    HW131862   4.364   5.893   4.571
10321SOL    HW231863   4.390   6.019   4.471
10322SOL     OW31864   6.518   5.290   0.938
10322SOL    HW131865   6.532   5.338   1.024
10322SOL    HW231866   6.516   5.356   0.863
10323SOL     OW31867   6.163   3.261   6.316
10323SOL    HW131868   6.259   3.235   6.307
10323SOL    HW231869   6.116   3.194   6.373
10324SOL     OW31870   3.198   2.990   3.930
10324SOL    HW131871   3.111   2.944   3.948
10324SOL    HW231872   3.201   3.021   3.835
10325SOL     OW31873   6.615   3.602   3.369
10325SOL    HW131874   6.642   3.646   3.283
10325SOL    HW231875   6.675   3.525   3.387
10326SOL     OW31876   4.841   2.994   0.123
10326SOL    HW131877   4.761   3.009   0.180
10326SOL    HW231878   4.913   3.058   0.150
10327SOL     OW31879   1.274   1.161   3.149
10327SOL    HW131880   1.343   1.217   3.196
10327SOL    HW231881   1.280   1.177   3.050
10328SOL     OW31882   5.881   3.715   2.361
10328SOL    HW131883   5.941   3.635   2.372
10328SOL    HW231884   5.794   3.698   2.407
10329SOL     OW31885   3.344   0.600   2.664
10329SOL    HW131886   3.339   0.602   2.564
10329SOL    HW231887   3.386   0.685   2.697
10330SOL     OW31888   3.649   5.356   2.842
10330SOL    HW131889   3.659   5.366   2.941
10330SOL    HW231890   3.674   5.442   2.798
10331SOL     OW31891   5.420   0.441   3.698
10331SOL    HW131892   5.499   0.491   3.665
10331SOL    HW231893   5.377   0.492   3.773
10332SOL     OW31894   0.162   1.728   0.744
10332SOL    HW131895   0.256   1.703   0.768
10332SOL    HW231896   0.129   1.669   0.671
10333SOL     OW31897   5.658   5.227   4.561
10333SOL    HW131898   5.676   5.320   4.530
10333SOL    HW231899   5.729   5.199   4.626
10334SOL     OW31900   2.196   5.044   4.391
10334SOL    HW131901   2.281   4.995   4.370
10334SOL    HW231902   2.204   5.086   4.482
10335SOL     OW31903   2.408   5.574   0.095
10335SOL    HW131904   2.418   5.475   0.078
10335SOL    HW231905   2.321   5.591   0.142
10336SOL     OW31906   4.440   6.999   2.062
10336SOL    HW131907   4.487   0.004   2.144
10336SOL    HW231908   4.478   0.019   1.982
10337SOL     OW31909   0.281   5.274   4.761
10337SOL    HW131910   0.283   5.217   4.680
10337SOL    HW231911   0.186   5.298   4.783
10338SOL     OW31912   2.927   6.820   1.981
10338SOL    HW131913   2.981   6.742   1.952
10338SOL    HW231914   2.968   6.904   1.946
10339SOL     OW31915   2.989   6.059   1.038
10339SOL    HW131916   2.915   6.022   1.093
10339SOL    HW231917   2.953   6.126   0.973
10340SOL     OW31918   2.387   5.933   6.941
10340SOL    HW131919   2.379   5.957   0.012
10340SOL    HW231920   2.435   6.006   6.892
10341SOL     OW31921   2.244   2.206   1.909
10341SOL    HW131922   2.336   2.168   1.921
10341SOL    HW231923   2.183   2.171   1.980
10342SOL     OW31924   2.481   0.163   5.563
10342SOL    HW131925   2.500   0.260   5.580
10342SOL    HW231926   2.557   0.123   5.511
10343SOL     OW31927   2.736   3.885   6.258
10343SOL    HW131928   2.746   3.800   6.207
10343SOL    HW231929   2.826   3.924   6.276
10344SOL     OW31930   4.195   3.636   4.984
10344SOL    HW131931   4.190   3.654   4.886
10344SOL    HW231932   4.290   3.616   5.010
10345SOL     OW31933   2.434   1.474   6.906
10345SOL    HW131934   2.497   1.537   6.860
10345SOL    HW231935   2.375   1.525   6.968
10346SOL     OW31936   4.877   6.621   0.030
10346SOL    HW131937   4.874   6.598   6.958
10346SOL    HW231938   4.905   6.716   0.041
10347SOL     OW31939   5.589   1.908   1.473
10347SOL    HW131940   5.607   2.002   1.442
10347SOL    HW231941   5.664   1.878   1.531
10348SOL     OW31942   6.113   1.224   6.956
10348SOL    HW131943   6.062   1.309   6.945
10348SOL    HW231944   6.049   1.148   6.967
10349SOL     OW31945   6.489   1.209   1.140
10349SOL    HW131946   6.517   1.274   1.069
10349SOL    HW231947   6.485   1.117   1.101
10350SOL     OW31948   3.443   5.863   4.329
10350SOL    HW131949   3.371   5.882   4.396
10350SOL    HW231950   3.475   5.770   4.341
10351SOL     OW31951   5.928   5.698   4.936
10351SOL    HW131952   6.003   5.731   4.879
10351SOL    HW231953   5.863   5.772   4.952
10352SOL     OW31954   5.546   1.771   6.992
10352SOL    HW131955   5.450   1.798   6.996
10352SOL    HW231956   5.597   1.835   6.935
10353SOL     OW31957   0.612   3.026   3.163
10353SOL    HW131958   0.562   3.083   3.098
10353SOL    HW231959   0.692   3.075   3.196
10354SOL     OW31960   0.092   3.812   0.372
10354SOL    HW131961   0.155   3.861   0.431
10354SOL    HW231962   0.053   3.874   0.305
10355SOL     OW31963   1.272   0.706   0.716
10355SOL    HW131964   1.211   0.651   0.774
10355SOL    HW231965   1.240   0.701   0.621
10356SOL     OW31966   6.666   3.421   0.031
10356SOL    HW131967   6.766   3.429   0.040
10356SOL    HW231968   6.623   3.482   0.098
10357SOL     OW31969   1.354   2.645   6.485
10357SOL    HW131970   1.380   2.623   6.579
10357SOL    HW231971   1.435   2.651   6.428
10358SOL     OW31972   1.172   2.650   2.737
10358SOL    HW131973   1.269   2.626   2.734
10358SOL    HW231974   1.151   2.692   2.825
10359SOL     OW31975   5.242   1.844   2.868
10359SOL    HW131976   5.151   1.885   2.874
10359SOL    HW231977   5.303   1.887   2.935
10360SOL     OW31978   5.342   5.293   2.997
10360SOL    HW131979   5.420   5.250   2.953
10360SOL    HW231980   5.301   5.361   2.935
10361SOL     OW31981   1.739   1.528   1.567
10361SOL    HW131982   1.648   1.569   1.574
10361SOL    HW231983   1.789   1.544   1.652
10362SOL     OW31984   0.870   4.867   1.860
10362SOL    HW131985   0.811   4.887   1.782
10362SOL    HW231986   0.960   4.838   1.828
10363SOL     OW31987   4.882   3.128   0.667
10363SOL    HW131988   4.833   3.215   0.659
10363SOL    HW231989   4.919   3.119   0.759
10364SOL     OW31990   4.697   4.907   1.368
10364SOL    HW131991   4.629   4.896   1.441
10364SOL    HW231992   4.714   5.004   1.353
10365SOL     OW31993   5.977   4.932   0.713
10365SOL    HW131994   6.045   4.964   0.647
10365SOL    HW231995   5.962   5.003   0.782
10366SOL     OW31996   3.770   6.598   2.937
10366SOL    HW131997   3.848   6.539   2.919
10366SOL    HW231998   3.685   6.551   2.912
10367SOL     OW31999   6.299   1.588   1.536
10367SOL    HW132000   6.330   1.526   1.608
10367SOL    HW232001   6.368   1.659   1.522
10368SOL     OW32002   1.976   0.355   2.049
10368SOL    HW132003   1.936   0.273   2.090
10368SOL    HW232004   1.909   0.430   2.054
10369SOL     OW32005   3.158   6.330   4.717
10369SOL    HW132006   3.103   6.399   4.672
10369SOL    HW232007   3.108   6.243   4.720
10370SOL     OW32008   0.129   2.230   4.258
10370SOL    HW132009   0.085   2.314   4.227
10370SOL    HW232010   0.160   2.242   4.352
10371SOL     OW32011   3.642   6.217   3.522
10371SOL    HW132012   3.712   6.186   3.457
10371SOL    HW232013   3.617   6.311   3.502
10372SOL     OW32014   2.756   0.522   1.484
10372SOL    HW132015   2.850   0.497   1.504
10372SOL    HW232016   2.725   0.592   1.549
10373SOL     OW32017   6.652   1.265   5.697
10373SOL    HW132018   6.731   1.244   5.641
10373SOL    HW232019   6.615   1.180   5.735
10374SOL     OW32020   3.429   6.777   4.587
10374SOL    HW132021   3.490   6.836   4.640
10374SOL    HW232022   3.483   6.717   4.528
10375SOL     OW32023   3.573   2.889   6.944
10375SOL    HW132024   3.516   2.837   6.880
10375SOL    HW232025   3.594   2.979   6.905
10376SOL     OW32026   1.404   6.004   3.228
10376SOL    HW132027   1.332   6.058   3.271
10376SOL    HW232028   1.413   6.031   3.133
10377SOL     OW32029   0.417   1.610   1.752
10377SOL    HW132030   0.486   1.670   1.711
10377SOL    HW232031   0.458   1.521   1.772
10378SOL     OW32032   0.364   5.613   4.940
10378SOL    HW132033   0.275   5.633   4.981
10378SOL    HW232034   0.363   5.637   4.843
10379SOL     OW32035   2.487   6.700   3.795
10379SOL    HW132036   2.492   6.600   3.798
10379SOL    HW232037   2.433   6.733   3.873
10380SOL     OW32038   1.692   2.665   4.319
10380SOL    HW132039   1.605   2.619   4.333
10380SOL    HW232040   1.686   2.722   4.236
10381SOL     OW32041   4.279   4.386   1.702
10381SOL    HW132042   4.234   4.314   1.650
10381SOL    HW232043   4.347   4.346   1.763
10382SOL     OW32044   3.164   4.861   2.385
10382SOL    HW132045   3.238   4.899   2.328
10382SOL    HW232046   3.201   4.835   2.474
10383SOL     OW32047   1.704   4.909   0.183
10383SOL    HW132048   1.750   4.996   0.167
10383SOL    HW232049   1.766   4.833   0.162
10384SOL     OW32050   6.297   6.325   1.125
10384SOL    HW132051   6.279   6.232   1.157
10384SOL    HW232052   6.316   6.324   1.027
10385SOL     OW32053   3.481   5.199   6.218
10385SOL    HW132054   3.408   5.232   6.157
10385SOL    HW232055   3.440   5.153   6.297
10386SOL     OW32056   0.195   1.199   6.619
10386SOL    HW132057   0.279   1.159   6.657
10386SOL    HW232058   0.126   1.127   6.609
10387SOL     OW32059   5.043   2.690   3.253
10387SOL    HW132060   5.008   2.738   3.334
10387SOL    HW232061   5.037   2.591   3.268
10388SOL     OW32062   2.872   0.805   5.713
10388SOL    HW132063   2.830   0.749   5.642
10388SOL    HW232064   2.813   0.883   5.733
10389SOL     OW32065   6.378   3.840   0.240
10389SOL    HW132066   6.401   3.772   0.170
10389SOL    HW232067   6.366   3.929   0.197
10390SOL     OW32068   2.044   2.083   0.848
10390SOL    HW132069   2.108   2.061   0.774
10390SOL    HW232070   2.095   2.113   0.929
10391SOL     OW32071   0.673   5.981   3.691
10391SOL    HW132072   0.750   5.916   3.694
10391SOL    HW232073   0.595   5.937   3.647
10392SOL     OW32074   6.523   5.136   5.124
10392SOL    HW132075   6.471   5.080   5.059
10392SOL    HW232076   6.533   5.086   5.210
10393SOL     OW32077   2.142   3.731   4.236
10393SOL    HW132078   2.169   3.635   4.243
10393SOL    HW232079   2.112   3.750   4.142
10394SOL     OW32080   2.913   6.093   4.192
10394SOL    HW132081   2.987   6.118   4.130
10394SOL    HW232082   2.838   6.053   4.139
10395SOL     OW32083   0.298   6.553   1.536
10395SOL    HW132084   0.339   6.462   1.542
10395SOL    HW232085   0.276   6.586   1.628
10396SOL     OW32086   3.749   1.911   4.347
10396SOL    HW132087   3.824   1.881   4.287
10396SOL    HW232088   3.662   1.893   4.302
10397SOL     OW32089   3.378   1.979   2.896
10397SOL    HW132090   3.460   1.930   2.867
10397SOL    HW232091   3.338   1.933   2.975
10398SOL     OW32092   6.662   2.935   0.985
10398SOL    HW132093   6.636   2.842   1.010
10398SOL    HW232094   6.761   2.943   0.982
10399SOL     OW32095   5.257   2.380   3.118
10399SOL    HW132096   5.293   2.456   3.172
10399SOL    HW232097   5.312   2.369   3.036
10400SOL     OW32098   4.006   6.858   0.182
10400SOL    HW132099   3.996   6.904   0.271
10400SOL    HW232100   4.101   6.827   0.172
10401SOL     OW32101   6.062   0.775   3.868
10401SOL    HW132102   6.087   0.701   3.805
10401SOL    HW232103   5.978   0.751   3.916
10402SOL     OW32104   6.600   3.387   5.059
10402SOL    HW132105   6.506   3.375   5.091
10402SOL    HW232106   6.634   3.476   5.088
10403SOL     OW32107   4.000   1.093   3.658
10403SOL    HW132108   4.078   1.130   3.708
10403SOL    HW232109   3.946   1.169   3.619
10404SOL     OW32110   6.233   6.724   5.306
10404SOL    HW132111   6.329   6.705   5.283
10404SOL    HW232112   6.194   6.787   5.239
10405SOL     OW32113   0.300   2.062   5.581
10405SOL    HW132114   0.259   1.973   5.558
10405SOL    HW232115   0.339   2.057   5.673
10406SOL     OW32116   2.759   5.089   2.693
10406SOL    HW132117   2.740   5.024   2.620
10406SOL    HW232118   2.675   5.110   2.743
10407SOL     OW32119   3.410   6.462   5.908
10407SOL    HW132120   3.452   6.535   5.961
10407SOL    HW232121   3.398   6.492   5.813
10408SOL     OW32122   4.778   6.946   0.910
10408SOL    HW132123   4.867   6.971   0.947
10408SOL    HW232124   4.789   6.871   0.845
10409SOL     OW32125   0.076   4.729   0.829
10409SOL    HW132126   0.097   4.824   0.807
10409SOL    HW232127   0.160   4.676   0.830
10410SOL     OW32128   5.371   1.515   0.273
10410SOL    HW132129   5.335   1.425   0.248
10410SOL    HW232130   5.308   1.586   0.240
10411SOL     OW32131   3.957   6.573   3.585
10411SOL    HW132132   3.901   6.627   3.522
10411SOL    HW232133   4.001   6.499   3.535
10412SOL     OW32134   6.939   0.898   0.658
10412SOL    HW132135   6.981   0.988   0.653
10412SOL    HW232136   6.889   0.880   0.574
10413SOL     OW32137   6.186   2.557   0.542
10413SOL    HW132138   6.261   2.519   0.489
10413SOL    HW232139   6.223   2.622   0.609
10414SOL     OW32140   3.849   4.153   5.508
10414SOL    HW132141   3.811   4.240   5.540
10414SOL    HW232142   3.783   4.107   5.448
10415SOL     OW32143   0.329   3.899   4.296
10415SOL    HW132144   0.318   3.976   4.232
10415SOL    HW232145   0.258   3.905   4.367
10416SOL     OW32146   6.728   0.511   3.691
10416SOL    HW132147   6.665   0.576   3.649
10416SOL    HW232148   6.812   0.505   3.637
10417SOL     OW32149   3.427   5.062   4.435
10417SOL    HW132150   3.434   5.156   4.402
10417SOL    HW232151   3.333   5.043   4.464
10418SOL     OW32152   0.293   4.831   6.556
10418SOL    HW132153   0.361   4.828   6.629
10418SOL    HW232154   0.264   4.926   6.541
10419SOL     OW32155   1.108   6.976   6.222
10419SOL    HW132156   1.076   6.982   6.316
10419SOL    HW232157   1.192   0.004   6.212
10420SOL     OW32158   0.239   3.900   2.667
10420SOL    HW132159   0.172   3.848   2.613
10420SOL    HW232160   0.190   3.965   2.726
10421SOL     OW32161   7.000   1.640   3.700
10421SOL    HW132162   7.005   1.739   3.688
10421SOL    HW232163   6.913   1.607   3.664
10422SOL     OW32164   5.924   3.202   5.631
10422SOL    HW132165   5.929   3.185   5.532
10422SOL    HW232166   5.872   3.286   5.647
10423SOL     OW32167   5.413   5.159   4.461
10423SOL    HW132168   5.438   5.133   4.368
10423SOL    HW232169   5.495   5.190   4.510
10424SOL     OW32170   6.081   2.857   0.534
10424SOL    HW132171   6.023   2.921   0.584
10424SOL    HW232172   6.023   2.790   0.487
10425SOL     OW32173   1.423   6.988   2.107
10425SOL    HW132174   1.368   7.003   2.189
10425SOL    HW232175   1.365   6.994   2.026
10426SOL     OW32176   0.100   4.715   0.401
10426SOL    HW132177   0.128   4.682   0.491
10426SOL    HW232178   0.181   4.739   0.347
10427SOL     OW32179   3.533   1.016   6.825
10427SOL    HW132180   3.513   1.109   6.855
10427SOL    HW232181   3.516   1.008   6.727
10428SOL     OW32182   2.834   1.344   3.980
10428SOL    HW132183   2.909   1.342   4.045
10428SOL    HW232184   2.784   1.430   3.989
10429SOL     OW32185   0.157   5.315   0.895
10429SOL    HW132186   0.245   5.354   0.866
10429SOL    HW232187   0.089   5.388   0.903
10430SOL     OW32188   4.490   6.372   3.523
10430SOL    HW132189   4.522   6.411   3.610
10430SOL    HW232190   4.450   6.282   3.540
10431SOL     OW32191   3.294   5.947   4.553
10431SOL    HW132192   3.310   5.864   4.606
10431SOL    HW232193   3.207   5.988   4.581
10432SOL     OW32194   5.967   6.985   4.295
10432SOL    HW132195   5.888   0.005   4.335
10432SOL    HW232196   5.976   6.894   4.335
10433SOL     OW32197   1.964   6.794   1.190
10433SOL    HW132198   1.986   6.750   1.277
10433SOL    HW232199   1.923   6.884   1.208
10434SOL     OW32200   4.075   0.252   3.679
10434SOL    HW132201   4.027   0.168   3.651
10434SOL    HW232202   4.111   0.298   3.598
10435SOL     OW32203   6.790   0.177   4.682
10435SOL    HW132204   6.828   0.265   4.710
10435SOL    HW232205   6.693   0.188   4.660
10436SOL     OW32206   1.221   4.965   5.838
10436SOL    HW132207   1.134   4.968   5.887
10436SOL    HW232208   1.235   4.874   5.800
10437SOL     OW32209   6.401   4.938   6.076
10437SOL    HW132210   6.339   4.997   6.128
10437SOL    HW232211   6.442   4.871   6.138
10438SOL     OW32212   6.028   6.143   0.617
10438SOL    HW132213   6.083   6.060   0.607
10438SOL    HW232214   6.032   6.173   0.712
10439SOL     OW32215   3.731   1.518   6.094
10439SOL    HW132216   3.656   1.471   6.048
10439SOL    HW232217   3.776   1.580   6.030
10440SOL     OW32218   1.837   6.569   0.696
10440SOL    HW132219   1.904   6.614   0.637
10440SOL    HW232220   1.809   6.632   0.769
10441SOL     OW32221   4.282   1.395   6.915
10441SOL    HW132222   4.293   1.430   7.009
10441SOL    HW232223   4.194   1.425   6.878
10442SOL     OW32224   3.693   6.431   5.797
10442SOL    HW132225   3.596   6.426   5.822
10442SOL    HW232226   3.736   6.507   5.847
10443SOL     OW32227   4.964   3.876   4.891
10443SOL    HW132228   4.933   3.812   4.821
10443SOL    HW232229   4.914   3.962   4.883
10444SOL     OW32230   4.086   6.345   4.378
10444SOL    HW132231   4.060   6.338   4.281
10444SOL    HW232232   4.040   6.424   4.418
10445SOL     OW32233   0.807   5.662   4.348
10445SOL    HW132234   0.813   5.753   4.389
10445SOL    HW232235   0.888   5.609   4.374
10446SOL     OW32236   1.215   3.113   5.732
10446SOL    HW132237   1.229   3.051   5.810
10446SOL    HW232238   1.147   3.182   5.756
10447SOL     OW32239   6.514   1.374   1.964
10447SOL    HW132240   6.600   1.397   2.008
10447SOL    HW232241   6.440   1.376   2.032
10448SOL     OW32242   3.930   2.435   1.435
10448SOL    HW132243   3.945   2.389   1.523
10448SOL    HW232244   4.015   2.436   1.383
10449SOL     OW32245   2.360   5.388   4.743
10449SOL    HW132246   2.443   5.385   4.799
10449SOL    HW232247   2.326   5.482   4.737
10450SOL     OW32248   0.556   2.011   0.531
10450SOL    HW132249   0.543   1.920   0.491
10450SOL    HW232250   0.499   2.077   0.482
10451SOL     OW32251   1.953   5.112   3.455
10451SOL    HW132252   1.888   5.171   3.503
10451SOL    HW232253   1.963   5.026   3.504
10452SOL     OW32254   6.005   3.505   3.333
10452SOL    HW132255   6.052   3.423   3.301
10452SOL    HW232256   5.960   3.486   3.421
10453SOL     OW32257   5.235   5.971   1.988
10453SOL    HW132258   5.307   5.939   2.050
10453SOL    HW232259   5.148   5.971   2.036
10454SOL     OW32260   4.596   2.700   1.065
10454SOL    HW132261   4.678   2.705   1.122
10454SOL    HW232262   4.515   2.702   1.123
10455SOL     OW32263   0.010   4.840   2.554
10455SOL    HW132264   7.010   4.928   2.593
10455SOL    HW232265   0.091   4.851   2.497
10456SOL     OW32266   3.249   5.990   1.830
10456SOL    HW132267   3.243   6.074   1.776
10456SOL    HW232268   3.341   5.982   1.868
10457SOL     OW32269   3.643   2.895   2.976
10457SOL    HW132270   3.662   2.891   3.074
10457SOL    HW232271   3.723   2.928   2.927
10458SOL     OW32272   0.616   0.864   0.052
10458SOL    HW132273   0.560   0.799   0.001
10458SOL    HW232274   0.703   0.822   0.075
10459SOL     OW32275   5.353   5.204   2.597
10459SOL    HW132276   5.291   5.264   2.648
10459SOL    HW232277   5.379   5.126   2.655
10460SOL     OW32278   2.027   5.918   1.201
10460SOL    HW132279   2.035   5.863   1.117
10460SOL    HW232280   2.091   5.994   1.196
10461SOL     OW32281   1.444   6.091   5.446
10461SOL    HW132282   1.464   6.187   5.465
10461SOL    HW232283   1.371   6.059   5.506
10462SOL     OW32284   5.173   1.936   2.413
10462SOL    HW132285   5.173   1.973   2.320
10462SOL    HW232286   5.202   1.840   2.410
10463SOL     OW32287   3.629   3.196   5.517
10463SOL    HW132288   3.688   3.272   5.490
10463SOL    HW232289   3.631   3.187   5.617
10464SOL     OW32290   5.176   0.360   0.788
10464SOL    HW132291   5.095   0.400   0.830
10464SOL    HW232292   5.257   0.382   0.843
10465SOL     OW32293   6.308   6.926   0.614
10465SOL    HW132294   6.338   7.008   0.565
10465SOL    HW232295   6.228   6.949   0.670
10466SOL     OW32296   4.378   4.998   4.825
10466SOL    HW132297   4.320   4.927   4.864
10466SOL    HW232298   4.468   4.995   4.869
10467SOL     OW32299   1.131   2.099   5.239
10467SOL    HW132300   1.079   2.130   5.159
10467SOL    HW232301   1.223   2.073   5.210
10468SOL     OW32302   3.374   5.526   3.228
10468SOL    HW132303   3.466   5.526   3.187
10468SOL    HW232304   3.381   5.554   3.324
10469SOL     OW32305   3.658   3.694   0.590
10469SOL    HW132306   3.663   3.733   0.498
10469SOL    HW232307   3.567   3.654   0.604
10470SOL     OW32308   2.005   1.916   2.717
10470SOL    HW132309   2.078   1.983   2.700
10470SOL    HW232310   1.954   1.942   2.798
10471SOL     OW32311   2.519   3.835   1.294
10471SOL    HW132312   2.514   3.744   1.334
10471SOL    HW232313   2.452   3.895   1.339
10472SOL     OW32314   3.426   6.169   1.493
10472SOL    HW132315   3.430   6.193   1.396
10472SOL    HW232316   3.488   6.092   1.510
10473SOL     OW32317   5.409   6.948   0.842
10473SOL    HW132318   5.355   0.003   0.822
10473SOL    HW232319   5.349   6.875   0.876
10474SOL     OW32320   5.151   0.750   4.585
10474SOL    HW132321   5.057   0.782   4.572
10474SOL    HW232322   5.162   0.660   4.541
10475SOL     OW32323   5.261   6.635   1.366
10475SOL    HW132324   5.314   6.595   1.292
10475SOL    HW232325   5.306   6.719   1.398
10476SOL     OW32326   0.332   5.611   6.392
10476SOL    HW132327   0.264   5.683   6.408
10476SOL    HW232328   0.358   5.611   6.296
10477SOL     OW32329   5.948   2.926   5.036
10477SOL    HW132330   6.010   2.989   4.990
10477SOL    HW232331   5.904   2.867   4.969
10478SOL     OW32332   0.734   0.275   6.860
10478SOL    HW132333   0.649   0.228   6.837
10478SOL    HW232334   0.753   0.264   6.958
10479SOL     OW32335   1.270   2.542   1.332
10479SOL    HW132336   1.274   2.547   1.233
10479SOL    HW232337   1.187   2.494   1.360
10480SOL     OW32338   5.318   0.407   1.106
10480SOL    HW132339   5.225   0.437   1.086
10480SOL    HW232340   5.379   0.486   1.112
10481SOL     OW32341   2.908   1.037   5.142
10481SOL    HW132342   3.006   1.023   5.156
10481SOL    HW232343   2.872   0.963   5.085
10482SOL     OW32344   0.511   6.050   4.491
10482SOL    HW132345   0.562   6.131   4.521
10482SOL    HW232346   0.490   5.993   4.570
10483SOL     OW32347   6.771   5.177   0.270
10483SOL    HW132348   6.834   5.100   0.259
10483SOL    HW232349   6.696   5.151   0.330
10484SOL     OW32350   7.021   0.158   0.691
10484SOL    HW132351   7.021   0.120   0.598
10484SOL    HW232352   6.992   0.088   0.755
10485SOL     OW32353   3.791   3.620   3.166
10485SOL    HW132354   3.803   3.655   3.073
10485SOL    HW232355   3.728   3.680   3.216
10486SOL     OW32356   6.054   0.555   6.008
10486SOL    HW132357   5.963   0.584   5.979
10486SOL    HW232358   6.102   0.633   6.048
10487SOL     OW32359   4.633   1.639   1.583
10487SOL    HW132360   4.730   1.656   1.565
10487SOL    HW232361   4.582   1.642   1.497
10488SOL     OW32362   1.371   2.207   5.866
10488SOL    HW132363   1.306   2.161   5.806
10488SOL    HW232364   1.463   2.197   5.828
10489SOL     OW32365   5.807   5.663   3.382
10489SOL    HW132366   5.900   5.655   3.416
10489SOL    HW232367   5.753   5.721   3.443
10490SOL     OW32368   5.933   0.312   0.666
10490SOL    HW132369   5.849   0.337   0.714
10490SOL    HW232370   5.920   0.325   0.567
10491SOL     OW32371   1.684   2.928   6.280
10491SOL    HW132372   1.681   2.998   6.208
10491SOL    HW232373   1.748   2.956   6.351
10492SOL     OW32374   3.504   6.091   0.415
10492SOL    HW132375   3.473   6.130   0.502
10492SOL    HW232376   3.430   6.095   0.348
10493SOL     OW32377   3.398   5.481   1.112
10493SOL    HW132378   3.431   5.573   1.089
10493SOL    HW232379   3.453   5.443   1.186
10494SOL     OW32380   0.740   5.140   5.820
10494SOL    HW132381   0.757   5.195   5.739
10494SOL    HW232382   0.815   5.076   5.834
10495SOL     OW32383   6.512   5.763   6.878
10495SOL    HW132384   6.431   5.720   6.918
10495SOL    HW232385   6.504   5.763   6.779
10496SOL     OW32386   6.878   4.088   5.164
10496SOL    HW132387   6.831   4.169   5.199
10496SOL    HW232388   6.935   4.114   5.086
10497SOL     OW32389   1.131   6.936   1.785
10497SOL    HW132390   1.179   6.853   1.757
10497SOL    HW232391   1.110   6.992   1.705
10498SOL     OW32392   5.107   5.962   1.371
10498SOL    HW132393   5.109   5.985   1.273
10498SOL    HW232394   5.014   5.973   1.405
10499SOL     OW32395   6.090   5.777   1.333
10499SOL    HW132396   6.016   5.715   1.358
10499SOL    HW232397   6.055   5.870   1.324
10500SOL     OW32398   5.115   3.443   4.791
10500SOL    HW132399   5.113   3.343   4.787
10500SOL    HW232400   5.159   3.471   4.876
10501SOL     OW32401   2.210   5.926   2.535
10501SOL    HW132402   2.262   6.006   2.504
10501SOL    HW232403   2.112   5.942   2.520
10502SOL     OW32404   2.950   3.336   1.202
10502SOL    HW132405   2.897   3.420   1.217
10502SOL    HW232406   2.925   3.296   1.113
10503SOL     OW32407   6.318   4.001   6.602
10503SOL    HW132408   6.299   3.946   6.521
10503SOL    HW232409   6.272   4.089   6.593
10504SOL     OW32410   0.941   2.945   6.139
10504SOL    HW132411   0.859   2.890   6.155
10504SOL    HW232412   1.011   2.888   6.096
10505SOL     OW32413   6.061   5.762   1.964
10505SOL    HW132414   6.106   5.851   1.964
10505SOL    HW232415   5.980   5.765   2.022
10506SOL     OW32416   0.691   3.576   0.351
10506SOL    HW132417   0.593   3.566   0.338
10506SOL    HW232418   0.739   3.522   0.282
10507SOL     OW32419   2.621   5.141   0.097
10507SOL    HW132420   2.600   5.046   0.120
10507SOL    HW232421   2.687   5.177   0.163
10508SOL     OW32422   1.359   5.402   3.738
10508SOL    HW132423   1.308   5.464   3.797
10508SOL    HW232424   1.332   5.308   3.757
10509SOL     OW32425   5.218   3.709   4.443
10509SOL    HW132426   5.243   3.667   4.530
10509SOL    HW232427   5.121   3.735   4.445
10510SOL     OW32428   5.135   6.425   5.836
10510SOL    HW132429   5.171   6.355   5.897
10510SOL    HW232430   5.035   6.418   5.832
10511SOL     OW32431   3.118   1.072   2.191
10511SOL    HW132432   3.043   1.081   2.256
10511SOL    HW232433   3.148   1.162   2.160
10512SOL     OW32434   4.474   7.026   6.124
10512SOL    HW132435   4.403   6.958   6.103
10512SOL    HW232436   4.553   6.980   6.164
10513SOL     OW32437   6.461   2.634   2.511
10513SOL    HW132438   6.521   2.565   2.552
10513SOL    HW232439   6.486   2.724   2.546
10514SOL     OW32440   1.899   1.878   0.826
10514SOL    HW132441   1.956   1.960   0.823
10514SOL    HW232442   1.891   1.846   0.921
10515SOL     OW32443   2.477   2.234   3.586
10515SOL    HW132444   2.543   2.160   3.575
10515SOL    HW232445   2.385   2.196   3.597
10516SOL     OW32446   3.049   1.924   0.273
10516SOL    HW132447   3.005   2.009   0.301
10516SOL    HW232448   3.107   1.890   0.347
10517SOL     OW32449   1.904   4.174   2.291
10517SOL    HW132450   1.920   4.229   2.209
10517SOL    HW232451   1.861   4.230   2.361
10518SOL     OW32452   0.176   5.127   2.229
10518SOL    HW132453   0.274   5.138   2.212
10518SOL    HW232454   0.158   5.035   2.264
10519SOL     OW32455   3.022   4.913   1.297
10519SOL    HW132456   3.014   4.847   1.221
10519SOL    HW232457   2.931   4.947   1.321
10520SOL     OW32458   6.488   1.937   6.480
10520SOL    HW132459   6.454   1.905   6.391
10520SOL    HW232460   6.579   1.898   6.496
10521SOL     OW32461   6.554   4.105   1.593
10521SOL    HW132462   6.601   4.135   1.510
10521SOL    HW232463   6.622   4.079   1.662
10522SOL     OW32464   0.330   2.440   2.949
10522SOL    HW132465   0.306   2.343   2.938
10522SOL    HW232466   0.271   2.481   3.017
10523SOL     OW32467   0.151   4.026   3.766
10523SOL    HW132468   0.213   4.085   3.714
10523SOL    HW232469   0.085   3.983   3.705
10524SOL     OW32470   0.145   5.049   3.735
10524SOL    HW132471   0.116   5.000   3.817
10524SOL    HW232472   0.201   5.127   3.761
10525SOL     OW32473   4.440   0.435   4.965
10525SOL    HW132474   4.459   0.402   4.873
10525SOL    HW232475   4.434   0.357   5.028
10526SOL     OW32476   0.380   5.751   1.200
10526SOL    HW132477   0.385   5.851   1.207
10526SOL    HW232478   0.314   5.717   1.267
10527SOL     OW32479   0.515   0.637   5.989
10527SOL    HW132480   0.535   0.564   5.923
10527SOL    HW232481   0.596   0.654   6.045
10528SOL     OW32482   0.598   4.461   0.164
10528SOL    HW132483   0.622   4.462   0.067
10528SOL    HW232484   0.535   4.535   0.183
10529SOL     OW32485   1.641   6.125   4.885
10529SOL    HW132486   1.556   6.117   4.938
10529SOL    HW232487   1.669   6.033   4.855
10530SOL     OW32488   1.349   6.315   6.341
10530SOL    HW132489   1.388   6.247   6.403
10530SOL    HW232490   1.316   6.270   6.258
10531SOL     OW32491   2.613   2.456   4.987
10531SOL    HW132492   2.672   2.420   5.058
10531SOL    HW232493   2.547   2.519   5.027
10532SOL     OW32494   6.045   6.948   6.903
10532SOL    HW132495   6.104   6.868   6.902
10532SOL    HW232496   6.002   6.958   6.993
10533SOL     OW32497   2.945   5.441   4.089
10533SOL    HW132498   2.998   5.525   4.077
10533SOL    HW232499   2.852   5.464   4.117
10534SOL     OW32500   0.527   5.600   2.289
10534SOL    HW132501   0.491   5.553   2.370
10534SOL    HW232502   0.538   5.535   2.214
10535SOL     OW32503   2.780   1.427   1.466
10535SOL    HW132504   2.784   1.374   1.550
10535SOL    HW232505   2.790   1.367   1.387
10536SOL     OW32506   4.569   7.024   3.711
10536SOL    HW132507   4.489   0.058   3.720
10536SOL    HW232508   4.625   0.028   3.635
10537SOL     OW32509   4.892   6.668   3.686
10537SOL    HW132510   4.884   6.574   3.718
10537SOL    HW232511   4.826   6.684   3.612
10538SOL     OW32512   5.479   3.979   2.474
10538SOL    HW132513   5.414   3.993   2.400
10538SOL    HW232514   5.430   3.967   2.560
10539SOL     OW32515   6.353   5.680   2.206
10539SOL    HW132516   6.404   5.743   2.147
10539SOL    HW232517   6.302   5.615   2.150
10540SOL     OW32518   2.492   3.999   6.198
10540SOL    HW132519   2.573   3.969   6.249
10540SOL    HW232520   2.467   3.928   6.132
10541SOL     OW32521   2.988   3.225   4.584
10541SOL    HW132522   2.954   3.136   4.615
10541SOL    HW232523   3.034   3.271   4.660
10542SOL     OW32524   6.333   0.374   4.566
10542SOL    HW132525   6.298   0.467   4.561
10542SOL    HW232526   6.328   0.332   4.476
10543SOL     OW32527   0.079   2.425   5.774
10543SOL    HW132528   0.099   2.440   5.870
10543SOL    HW232529   0.006   2.488   5.744
10544SOL     OW32530   1.188   0.419   3.705
10544SOL    HW132531   1.105   0.445   3.655
10544SOL    HW232532   1.191   0.468   3.792
10545SOL     OW32533   0.958   3.309   2.288
10545SOL    HW132534   0.981   3.336   2.382
10545SOL    HW232535   0.938   3.391   2.234
10546SOL     OW32536   2.857   6.330   1.226
10546SOL    HW132537   2.818   6.410   1.272
10546SOL    HW232538   2.957   6.330   1.237
10547SOL     OW32539   4.899   0.365   4.433
10547SOL    HW132540   4.895   0.359   4.333
10547SOL    HW232541   4.979   0.418   4.460
10548SOL     OW32542   0.382   4.698   4.967
10548SOL    HW132543   0.328   4.625   4.927
10548SOL    HW232544   0.365   4.783   4.917
10549SOL     OW32545   0.053   1.649   0.182
10549SOL    HW132546   0.055   1.693   0.272
10549SOL    HW232547   6.984   1.635   0.154
10550SOL     OW32548   3.789   6.607   3.271
10550SOL    HW132549   3.789   6.676   3.199
10550SOL    HW232550   3.870   6.550   3.261
10551SOL     OW32551   2.253   1.871   5.999
10551SOL    HW132552   2.305   1.787   5.981
10551SOL    HW232553   2.192   1.889   5.921
10552SOL     OW32554   2.727   0.849   4.753
10552SOL    HW132555   2.692   0.823   4.663
10552SOL    HW232556   2.755   0.945   4.751
10553SOL     OW32557   7.019   4.991   1.037
10553SOL    HW132558   0.030   4.968   0.947
10553SOL    HW232559   0.050   5.061   1.080
10554SOL     OW32560   5.886   4.633   2.571
10554SOL    HW132561   5.936   4.562   2.620
10554SOL    HW232562   5.950   4.690   2.520
10555SOL     OW32563   2.779   2.340   0.549
10555SOL    HW132564   2.755   2.408   0.618
10555SOL    HW232565   2.728   2.256   0.566
10556SOL     OW32566   2.674   1.378   2.998
10556SOL    HW132567   2.590   1.385   3.050
10556SOL    HW232568   2.697   1.282   2.983
10557SOL     OW32569   1.682   3.519   4.902
10557SOL    HW132570   1.661   3.467   4.819
10557SOL    HW232571   1.726   3.460   4.969
10558SOL     OW32572   3.221   4.899   5.579
10558SOL    HW132573   3.228   4.821   5.642
10558SOL    HW232574   3.262   4.875   5.492
10559SOL     OW32575   3.342   1.290   0.668
10559SOL    HW132576   3.321   1.216   0.732
10559SOL    HW232577   3.287   1.370   0.690
10560SOL     OW32578   4.007   5.998   1.908
10560SOL    HW132579   4.017   5.948   1.821
10560SOL    HW232580   4.093   6.044   1.929
10561SOL     OW32581   4.242   4.851   2.105
10561SOL    HW132582   4.154   4.807   2.087
10561SOL    HW232583   4.253   4.863   2.204
10562SOL     OW32584   3.381   6.257   1.237
10562SOL    HW132585   3.373   6.219   1.145
10562SOL    HW232586   3.397   6.356   1.232
10563SOL     OW32587   0.854   0.087   0.891
10563SOL    HW132588   0.925   0.075   0.822
10563SOL    HW232589   0.790   0.011   0.887
10564SOL     OW32590   6.700   5.216   3.474
10564SOL    HW132591   6.731   5.307   3.446
10564SOL    HW232592   6.687   5.160   3.392
10565SOL     OW32593   6.697   0.195   5.955
10565SOL    HW132594   6.749   0.260   6.011
10565SOL    HW232595   6.676   0.114   6.010
10566SOL     OW32596   2.527   2.443   6.807
10566SOL    HW132597   2.488   2.523   6.761
10566SOL    HW232598   2.588   2.474   6.880
10567SOL     OW32599   1.745   2.378   5.644
10567SOL    HW132600   1.803   2.459   5.631
10567SOL    HW232601   1.671   2.379   5.576
10568SOL     OW32602   5.807   3.061   6.694
10568SOL    HW132603   5.828   3.154   6.664
10568SOL    HW232604   5.789   3.060   6.792
10569SOL     OW32605   5.544   0.656   1.989
10569SOL    HW132606   5.471   0.718   2.018
10569SOL    HW232607   5.601   0.702   1.920
10570SOL     OW32608   1.555   4.740   4.238
10570SOL    HW132609   1.512   4.739   4.148
10570SOL    HW232610   1.625   4.811   4.241
10571SOL     OW32611   0.115   4.313   6.122
10571SOL    HW132612   0.193   4.373   6.142
10571SOL    HW232613   0.113   4.291   6.025
10572SOL     OW32614   6.729   4.545   1.502
10572SOL    HW132615   6.809   4.549   1.442
10572SOL    HW232616   6.745   4.603   1.582
10573SOL     OW32617   5.423   0.620   4.521
10573SOL    HW132618   5.379   0.617   4.611
10573SOL    HW232619   5.475   0.536   4.507
10574SOL     OW32620   6.685   0.473   3.964
10574SOL    HW132621   6.712   0.479   3.868
10574SOL    HW232622   6.653   0.562   3.995
10575SOL     OW32623   5.540   0.295   3.362
10575SOL    HW132624   5.626   0.336   3.390
10575SOL    HW232625   5.553   0.243   3.277
10576SOL     OW32626   1.548   4.949   2.550
10576SOL    HW132627   1.559   4.916   2.644
10576SOL    HW232628   1.536   5.048   2.551
10577SOL     OW32629   2.972   6.046   0.533
10577SOL    HW132630   2.934   5.961   0.570
10577SOL    HW232631   2.921   6.072   0.451
10578SOL     OW32632   5.924   2.352   3.627
10578SOL    HW132633   5.829   2.324   3.643
10578SOL    HW232634   5.982   2.319   3.701
10579SOL     OW32635   2.561   4.254   1.254
10579SOL    HW132636   2.660   4.259   1.271
10579SOL    HW232637   2.531   4.339   1.211
10580SOL     OW32638   6.243   6.681   6.903
10580SOL    HW132639   6.333   6.703   6.865
10580SOL    HW232640   6.247   6.685   7.003
10581SOL     OW32641   4.908   6.403   2.817
10581SOL    HW132642   4.918   6.483   2.758
10581SOL    HW232643   4.916   6.320   2.762
10582SOL     OW32644   5.585   4.602   6.381
10582SOL    HW132645   5.550   4.671   6.445
10582SOL    HW232646   5.509   4.561   6.331
10583SOL     OW32647   3.098   0.281   4.442
10583SOL    HW132648   3.161   0.348   4.483
10583SOL    HW232649   3.047   0.324   4.368
10584SOL     OW32650   6.371   0.431   6.667
10584SOL    HW132651   6.364   0.394   6.760
10584SOL    HW232652   6.356   0.529   6.669
10585SOL     OW32653   0.983   1.739   6.282
10585SOL    HW132654   0.901   1.742   6.339
10585SOL    HW232655   1.033   1.825   6.291
10586SOL     OW32656   4.520   4.936   5.732
10586SOL    HW132657   4.511   5.033   5.707
10586SOL    HW232658   4.463   4.918   5.813
10587SOL     OW32659   0.655   6.016   5.848
10587SOL    HW132660   0.574   6.030   5.905
10587SOL    HW232661   0.696   6.104   5.826
10588SOL     OW32662   1.994   2.585   4.364
10588SOL    HW132663   2.063   2.657   4.374
10588SOL    HW232664   1.904   2.622   4.389
10589SOL     OW32665   5.594   6.195   4.620
10589SOL    HW132666   5.539   6.159   4.696
10589SOL    HW232667   5.543   6.184   4.535
10590SOL     OW32668   0.293   5.787   1.879
10590SOL    HW132669   0.247   5.875   1.870
10590SOL    HW232670   0.317   5.752   1.788
10591SOL     OW32671   1.961   1.365   1.248
10591SOL    HW132672   1.960   1.327   1.156
10591SOL    HW232673   1.913   1.453   1.248
10592SOL     OW32674   5.799   2.486   4.625
10592SOL    HW132675   5.772   2.391   4.615
10592SOL    HW232676   5.844   2.499   4.714
10593SOL     OW32677   1.590   6.131   0.652
10593SOL    HW132678   1.504   6.107   0.608
10593SOL    HW232679   1.619   6.222   0.621
10594SOL     OW32680   3.695   0.873   2.878
10594SOL    HW132681   3.740   0.803   2.933
10594SOL    HW232682   3.677   0.953   2.934
10595SOL     OW32683   6.186   0.930   0.711
10595SOL    HW132684   6.194   1.028   0.693
10595SOL    HW232685   6.106   0.913   0.768
10596SOL     OW32686   4.919   1.574   0.143
10596SOL    HW132687   4.982   1.521   0.086
10596SOL    HW232688   4.882   1.650   0.090
10597SOL     OW32689   2.634   0.623   6.061
10597SOL    HW132690   2.578   0.629   6.143
10597SOL    HW232691   2.712   0.564   6.078
10598SOL     OW32692   2.599   1.884   6.041
10598SOL    HW132693   2.556   1.799   6.010
10598SOL    HW232694   2.584   1.894   6.140
10599SOL     OW32695   6.173   4.280   6.277
10599SOL    HW132696   6.228   4.325   6.347
10599SOL    HW232697   6.228   4.209   6.231
10600SOL     OW32698   3.414   1.142   1.429
10600SOL    HW132699   3.347   1.199   1.475
10600SOL    HW232700   3.466   1.089   1.496
10601SOL     OW32701   0.270   5.983   5.406
10601SOL    HW132702   0.253   5.898   5.356
10601SOL    HW232703   0.360   6.019   5.380
10602SOL     OW32704   0.907   0.554   0.382
10602SOL    HW132705   0.918   0.569   0.284
10602SOL    HW232706   0.916   0.457   0.403
10603SOL     OW32707   4.408   6.237   1.762
10603SOL    HW132708   4.495   6.194   1.739
10603SOL    HW232709   4.421   6.336   1.770
10604SOL     OW32710   0.515   6.202   4.853
10604SOL    HW132711   0.468   6.115   4.841
10604SOL    HW232712   0.453   6.268   4.896
10605SOL     OW32713   1.914   0.077   0.192
10605SOL    HW132714   1.932   7.022   0.137
10605SOL    HW232715   1.910   0.158   0.133
10606SOL     OW32716   6.348   0.748   1.511
10606SOL    HW132717   6.385   0.698   1.433
10606SOL    HW232718   6.331   0.686   1.587
10607SOL     OW32719   4.132   4.519   0.178
10607SOL    HW132720   4.153   4.424   0.156
10607SOL    HW232721   4.114   4.570   0.094
10608SOL     OW32722   6.807   2.966   2.958
10608SOL    HW132723   6.890   2.984   3.011
10608SOL    HW232724   6.810   2.873   2.922
10609SOL     OW32725   2.600   6.446   0.336
10609SOL    HW132726   2.594   6.413   0.431
10609SOL    HW232727   2.665   6.522   0.331
10610SOL     OW32728   6.658   2.694   4.130
10610SOL    HW132729   6.728   2.741   4.077
10610SOL    HW232730   6.575   2.684   4.075
10611SOL     OW32731   2.599   5.360   4.874
10611SOL    HW132732   2.677   5.297   4.872
10611SOL    HW232733   2.631   5.452   4.895
10612SOL     OW32734   5.210   1.029   4.211
10612SOL    HW132735   5.258   0.941   4.218
10612SOL    HW232736   5.252   1.095   4.272
10613SOL     OW32737   5.515   6.131   4.343
10613SOL    HW132738   5.589   6.183   4.299
10613SOL    HW232739   5.445   6.194   4.376
10614SOL     OW32740   4.973   1.399   5.393
10614SOL    HW132741   4.981   1.495   5.419
10614SOL    HW232742   4.883   1.365   5.420
10615SOL     OW32743   3.785   1.423   5.678
10615SOL    HW132744   3.732   1.371   5.610
10615SOL    HW232745   3.722   1.473   5.737
10616SOL     OW32746   2.621   6.435   6.410
10616SOL    HW132747   2.680   6.372   6.459
10616SOL    HW232748   2.556   6.477   6.473
10617SOL     OW32749   2.177   4.302   1.558
10617SOL    HW132750   2.109   4.248   1.607
10617SOL    HW232751   2.222   4.246   1.490
10618SOL     OW32752   0.657   5.406   5.508
10618SOL    HW132753   0.670   5.504   5.494
10618SOL    HW232754   0.569   5.378   5.470
10619SOL     OW32755   0.714   2.415   2.832
10619SOL    HW132756   0.797   2.424   2.888
10619SOL    HW232757   0.661   2.499   2.840
10620SOL     OW32758   1.281   0.067   5.014
10620SOL    HW132759   1.274   0.017   5.100
10620SOL    HW232760   1.190   0.076   4.973
10621SOL     OW32761   1.008   4.345   2.508
10621SOL    HW132762   0.940   4.414   2.482
10621SOL    HW232763   1.100   4.383   2.496
10622SOL     OW32764   4.571   2.435   1.388
10622SOL    HW132765   4.487   2.453   1.440
10622SOL    HW232766   4.649   2.467   1.441
10623SOL     OW32767   6.263   6.063   5.344
10623SOL    HW132768   6.299   6.064   5.438
10623SOL    HW232769   6.326   6.012   5.285
10624SOL     OW32770   0.681   2.630   4.487
10624SOL    HW132771   0.671   2.662   4.393
10624SOL    HW232772   0.724   2.702   4.542
10625SOL     OW32773   0.565   3.004   0.538
10625SOL    HW132774   0.546   3.064   0.616
10625SOL    HW232775   0.575   3.059   0.455
10626SOL     OW32776   3.180   2.916   1.460
10626SOL    HW132777   3.206   2.899   1.555
10626SOL    HW232778   3.110   2.987   1.457
10627SOL     OW32779   5.573   0.896   6.479
10627SOL    HW132780   5.662   0.939   6.463
10627SOL    HW232781   5.582   0.828   6.552
10628SOL     OW32782   4.164   0.401   0.652
10628SOL    HW132783   4.136   0.403   0.747
10628SOL    HW232784   4.223   0.479   0.632
10629SOL     OW32785   3.364   5.173   4.993
10629SOL    HW132786   3.324   5.247   5.046
10629SOL    HW232787   3.328   5.085   5.025
10630SOL     OW32788   5.512   1.211   2.567
10630SOL    HW132789   5.594   1.258   2.599
10630SOL    HW232790   5.431   1.264   2.593
10631SOL     OW32791   4.059   4.683   6.044
10631SOL    HW132792   3.969   4.718   6.070
10631SOL    HW232793   4.050   4.590   6.009
10632SOL     OW32794   4.962   5.763   3.339
10632SOL    HW132795   5.030   5.690   3.341
10632SOL    HW232796   5.004   5.846   3.303
10633SOL     OW32797   2.504   2.782   1.819
10633SOL    HW132798   2.427   2.748   1.764
10633SOL    HW232799   2.573   2.710   1.827
10634SOL     OW32800   0.990   5.655   0.599
10634SOL    HW132801   1.024   5.624   0.510
10634SOL    HW232802   0.898   5.620   0.615
10635SOL     OW32803   2.292   3.586   0.619
10635SOL    HW132804   2.200   3.619   0.641
10635SOL    HW232805   2.296   3.557   0.524
10636SOL     OW32806   6.504   1.567   0.680
10636SOL    HW132807   6.527   1.493   0.617
10636SOL    HW232808   6.503   1.532   0.774
10637SOL     OW32809   1.994   5.840   6.536
10637SOL    HW132810   2.080   5.790   6.530
10637SOL    HW232811   2.012   5.934   6.566
10638SOL     OW32812   6.498   6.405   2.371
10638SOL    HW132813   6.539   6.356   2.448
10638SOL    HW232814   6.429   6.347   2.327
10639SOL     OW32815   2.067   3.389   1.771
10639SOL    HW132816   2.126   3.436   1.705
10639SOL    HW232817   2.101   3.406   1.864
10640SOL     OW32818   4.890   0.630   3.619
10640SOL    HW132819   4.846   0.676   3.697
10640SOL    HW232820   4.832   0.555   3.587
10641SOL     OW32821   1.865   1.325   3.316
10641SOL    HW132822   1.920   1.316   3.399
10641SOL    HW232823   1.896   1.260   3.247
10642SOL     OW32824   5.550   1.814   0.717
10642SOL    HW132825   5.644   1.834   0.689
10642SOL    HW232826   5.551   1.766   0.805
10643SOL     OW32827   2.357   6.137   4.569
10643SOL    HW132828   2.290   6.190   4.621
10643SOL    HW232829   2.374   6.182   4.481
10644SOL     OW32830   5.756   3.066   1.233
10644SOL    HW132831   5.806   2.988   1.195
10644SOL    HW232832   5.816   3.147   1.234
10645SOL     OW32833   2.355   2.831   3.564
10645SOL    HW132834   2.430   2.897   3.556
10645SOL    HW232835   2.338   2.789   3.475
10646SOL     OW32836   5.779   0.599   5.939
10646SOL    HW132837   5.788   0.597   5.840
10646SOL    HW232838   5.690   0.636   5.964
10647SOL     OW32839   3.856   5.323   5.216
10647SOL    HW132840   3.811   5.332   5.126
10647SOL    HW232841   3.896   5.231   5.224
10648SOL     OW32842   6.017   5.443   6.462
10648SOL    HW132843   6.105   5.395   6.460
10648SOL    HW232844   6.033   5.542   6.460
10649SOL     OW32845   0.922   3.131   3.527
10649SOL    HW132846   0.970   3.191   3.590
10649SOL    HW232847   0.882   3.054   3.577
10650SOL     OW32848   0.610   0.294   4.444
10650SOL    HW132849   0.518   0.314   4.411
10650SOL    HW232850   0.606   0.259   4.538
10651SOL     OW32851   6.080   6.103   6.122
10651SOL    HW132852   6.027   6.084   6.204
10651SOL    HW232853   6.150   6.172   6.143
10652SOL     OW32854   2.076   6.652   5.835
10652SOL    HW132855   2.091   6.750   5.846
10652SOL    HW232856   1.983   6.630   5.866
10653SOL     OW32857   3.915   5.848   4.796
10653SOL    HW132858   3.928   5.901   4.712
10653SOL    HW232859   3.987   5.779   4.803
10654SOL     OW32860   4.677   0.968   5.353
10654SOL    HW132861   4.715   0.923   5.434
10654SOL    HW232862   4.745   0.969   5.280
10655SOL     OW32863   1.757   4.660   0.683
10655SOL    HW132864   1.711   4.677   0.596
10655SOL    HW232865   1.718   4.578   0.726
10656SOL     OW32866   6.762   1.254   2.802
10656SOL    HW132867   6.838   1.223   2.858
10656SOL    HW232868   6.677   1.248   2.855
10657SOL     OW32869   6.053   0.917   4.494
10657SOL    HW132870   6.135   0.892   4.442
10657SOL    HW232871   6.017   0.835   4.538
10658SOL     OW32872   6.157   4.090   4.807
10658SOL    HW132873   6.179   4.184   4.780
10658SOL    HW232874   6.240   4.034   4.802
10659SOL     OW32875   0.981   4.760   0.615
10659SOL    HW132876   0.887   4.730   0.636
10659SOL    HW232877   1.034   4.682   0.582
10660SOL     OW32878   6.004   3.707   5.489
10660SOL    HW132879   5.939   3.716   5.413
10660SOL    HW232880   6.077   3.774   5.478
10661SOL     OW32881   1.337   5.582   0.528
10661SOL    HW132882   1.243   5.590   0.497
10661SOL    HW232883   1.370   5.489   0.511
10662SOL     OW32884   3.942   0.555   2.417
10662SOL    HW132885   3.964   0.509   2.504
10662SOL    HW232886   3.844   0.573   2.413
10663SOL     OW32887   0.442   1.808   3.382
10663SOL    HW132888   0.509   1.790   3.454
10663SOL    HW232889   0.471   1.887   3.328
10664SOL     OW32890   7.008   5.160   4.941
10664SOL    HW132891   0.063   5.105   4.923
10664SOL    HW232892   6.941   5.105   4.991
10665SOL     OW32893   2.026   2.388   0.007
10665SOL    HW132894   2.125   2.397   0.018
10665SOL    HW232895   2.000   2.421   6.942
10666SOL     OW32896   3.214   3.997   2.335
10666SOL    HW132897   3.162   4.023   2.416
10666SOL    HW232898   3.198   3.901   2.314
10667SOL     OW32899   4.930   1.668   4.277
10667SOL    HW132900   4.864   1.743   4.287
10667SOL    HW232901   4.911   1.597   4.345
10668SOL     OW32902   3.240   1.362   5.342
10668SOL    HW132903   3.156   1.408   5.316
10668SOL    HW232904   3.317   1.400   5.289
10669SOL     OW32905   5.765   0.687   1.010
10669SOL    HW132906   5.838   0.686   0.941
10669SOL    HW232907   5.802   0.656   1.097
10670SOL     OW32908   5.530   4.847   4.637
10670SOL    HW132909   5.475   4.783   4.691
10670SOL    HW232910   5.538   4.934   4.685
10671SOL     OW32911   1.742   1.497   4.276
10671SOL    HW132912   1.804   1.576   4.275
10671SOL    HW232913   1.649   1.529   4.296
10672SOL     OW32914   6.948   4.275   1.589
10672SOL    HW132915   6.943   4.374   1.592
10672SOL    HW232916   6.938   4.244   1.495
10673SOL     OW32917   1.356   0.226   0.206
10673SOL    HW132918   1.390   0.178   0.287
10673SOL    HW232919   1.331   0.320   0.231
10674SOL     OW32920   4.039   3.879   4.499
10674SOL    HW132921   4.036   3.909   4.404
10674SOL    HW232922   3.989   3.943   4.556
10675SOL     OW32923   2.884   0.541   6.497
10675SOL    HW132924   2.942   0.515   6.574
10675SOL    HW232925   2.859   0.460   6.445
10676SOL     OW32926   0.487   6.522   4.977
10676SOL    HW132927   0.463   6.604   4.925
10676SOL    HW232928   0.466   6.537   5.074
10677SOL     OW32929   1.847   1.153   1.053
10677SOL    HW132930   1.747   1.152   1.056
10677SOL    HW232931   1.882   1.107   1.134
10678SOL     OW32932   4.241   4.975   3.858
10678SOL    HW132933   4.309   5.015   3.920
10678SOL    HW232934   4.279   4.893   3.815
10679SOL     OW32935   3.788   6.028   6.607
10679SOL    HW132936   3.711   6.091   6.605
10679SOL    HW232937   3.858   6.057   6.541
10680SOL     OW32938   3.815   2.156   3.493
10680SOL    HW132939   3.863   2.239   3.464
10680SOL    HW232940   3.744   2.133   3.426
10681SOL     OW32941   6.584   3.650   0.500
10681SOL    HW132942   6.649   3.681   0.570
10681SOL    HW232943   6.493   3.639   0.541
10682SOL     OW32944   0.307   2.703   5.531
10682SOL    HW132945   0.225   2.699   5.588
10682SOL    HW232946   0.297   2.777   5.464
10683SOL     OW32947   4.811   0.999   3.931
10683SOL    HW132948   4.726   1.050   3.946
10683SOL    HW232949   4.876   1.058   3.881
10684SOL     OW32950   4.491   5.361   1.977
10684SOL    HW132951   4.444   5.282   1.939
10684SOL    HW232952   4.575   5.332   2.021
10685SOL     OW32953   0.537   5.503   1.271
10685SOL    HW132954   0.470   5.554   1.216
10685SOL    HW232955   0.545   5.410   1.234
10686SOL     OW32956   1.523   3.989   5.725
10686SOL    HW132957   1.559   4.078   5.699
10686SOL    HW232958   1.558   3.963   5.815
10687SOL     OW32959   6.304   4.666   4.597
10687SOL    HW132960   6.256   4.742   4.641
10687SOL    HW232961   6.279   4.663   4.500
10688SOL     OW32962   5.958   3.364   2.979
10688SOL    HW132963   6.016   3.394   2.903
10688SOL    HW232964   6.008   3.300   3.036
10689SOL     OW32965   6.610   0.610   2.296
10689SOL    HW132966   6.571   0.519   2.281
10689SOL    HW232967   6.538   0.674   2.321
10690SOL     OW32968   0.324   5.044   3.331
10690SOL    HW132969   0.307   5.049   3.429
10690SOL    HW232970   0.380   5.122   3.303
10691SOL     OW32971   1.728   1.983   1.769
10691SOL    HW132972   1.776   1.899   1.745
10691SOL    HW232973   1.773   2.027   1.847
10692SOL     OW32974   2.501   0.638   3.401
10692SOL    HW132975   2.550   0.556   3.431
10692SOL    HW232976   2.529   0.716   3.457
10693SOL     OW32977   1.443   5.955   1.108
10693SOL    HW132978   1.364   5.956   1.047
10693SOL    HW232979   1.438   5.875   1.167
10694SOL     OW32980   5.413   6.154   6.654
10694SOL    HW132981   5.439   6.240   6.699
10694SOL    HW232982   5.387   6.086   6.722
10695SOL     OW32983   1.424   2.549   2.267
10695SOL    HW132984   1.329   2.553   2.297
10695SOL    HW232985   1.475   2.485   2.326
10696SOL     OW32986   6.546   4.054   4.494
10696SOL    HW132987   6.484   4.115   4.542
10696SOL    HW232988   6.556   3.969   4.546
10697SOL     OW32989   0.037   0.468   5.564
10697SOL    HW132990   0.045   0.395   5.632
10697SOL    HW232991   0.122   0.474   5.512
10698SOL     OW32992   5.211   5.020   6.719
10698SOL    HW132993   5.226   5.051   6.813
10698SOL    HW232994   5.212   4.920   6.717
10699SOL     OW32995   3.778   4.885   1.831
10699SOL    HW132996   3.873   4.860   1.816
10699SOL    HW232997   3.744   4.840   1.913
10700SOL     OW32998   5.735   6.157   0.840
10700SOL    HW132999   5.808   6.154   0.908
10700SOL    HW233000   5.758   6.223   0.769
10701SOL     OW33001   2.570   6.768   5.629
10701SOL    HW133002   2.662   6.777   5.590
10701SOL    HW233003   2.503   6.762   5.555
10702SOL     OW33004   5.482   3.341   2.160
10702SOL    HW133005   5.501   3.310   2.253
10702SOL    HW233006   5.424   3.422   2.163
10703SOL     OW33007   2.539   2.514   5.276
10703SOL    HW133008   2.551   2.550   5.368
10703SOL    HW233009   2.623   2.470   5.246
10704SOL     OW33010   6.630   4.876   2.070
10704SOL    HW133011   6.577   4.911   1.992
10704SOL    HW233012   6.724   4.909   2.064
10705SOL     OW33013   6.702   5.186   1.521
10705SOL    HW133014   6.755   5.228   1.448
10705SOL    HW233015   6.723   5.088   1.525
10706SOL     OW33016   3.985   6.902   2.762
10706SOL    HW133017   3.928   6.973   2.804
10706SOL    HW233018   3.926   6.833   2.720
10707SOL     OW33019   0.437   6.447   4.065
10707SOL    HW133020   0.494   6.492   3.996
10707SOL    HW233021   0.489   6.376   4.111
10708SOL     OW33022   3.635   1.378   1.512
10708SOL    HW133023   3.659   1.300   1.571
10708SOL    HW233024   3.552   1.357   1.461
10709SOL     OW33025   5.553   5.609   4.993
10709SOL    HW133026   5.595   5.540   5.052
10709SOL    HW233027   5.480   5.566   4.940
10710SOL     OW33028   5.842   1.122   4.411
10710SOL    HW133029   5.913   1.052   4.425
10710SOL    HW233030   5.884   1.213   4.411
10711SOL     OW33031   2.086   6.670   3.892
10711SOL    HW133032   1.988   6.669   3.909
10711SOL    HW233033   2.115   6.582   3.856
10712SOL     OW33034   2.953   0.705   2.022
10712SOL    HW133035   2.951   0.630   2.089
10712SOL    HW233036   3.038   0.756   2.031
10713SOL     OW33037   0.444   3.390   0.692
10713SOL    HW133038   0.408   3.449   0.620
10713SOL    HW233039   0.542   3.407   0.703
10714SOL     OW33040   4.961   3.804   5.629
10714SOL    HW133041   4.863   3.783   5.633
10714SOL    HW233042   5.013   3.726   5.664
10715SOL     OW33043   4.443   0.129   2.325
10715SOL    HW133044   4.499   0.168   2.399
10715SOL    HW233045   4.438   0.194   2.249
10716SOL     OW33046   5.819   2.159   4.241
10716SOL    HW133047   5.767   2.183   4.159
10716SOL    HW233048   5.911   2.197   4.235
10717SOL     OW33049   0.945   2.256   1.205
10717SOL    HW133050   1.005   2.257   1.126
10717SOL    HW233051   0.855   2.220   1.179
10718SOL     OW33052   1.024   3.629   0.083
10718SOL    HW133053   0.994   3.666   0.171
10718SOL    HW233054   1.114   3.664   0.061
10719SOL     OW33055   0.405   5.729   3.019
10719SOL    HW133056   0.432   5.715   2.924
10719SOL    HW233057   0.424   5.824   3.046
10720SOL     OW33058   0.068   4.347   5.719
10720SOL    HW133059   0.099   4.252   5.711
10720SOL    HW233060   0.117   4.392   5.794
10721SOL     OW33061   5.196   3.731   5.163
10721SOL    HW133062   5.273   3.794   5.170
10721SOL    HW233063   5.170   3.701   5.255
10722SOL     OW33064   1.560   5.338   7.001
10722SOL    HW133065   1.543   5.307   6.907
10722SOL    HW233066   1.509   5.422   7.018
10723SOL     OW33067   0.402   2.930   6.833
10723SOL    HW133068   0.499   2.930   6.856
10723SOL    HW233069   0.390   2.960   6.739
10724SOL     OW33070   6.478   1.294   0.178
10724SOL    HW133071   6.437   1.234   0.110
10724SOL    HW233072   6.407   1.329   0.239
10725SOL     OW33073   1.487   5.690   4.670
10725SOL    HW133074   1.468   5.652   4.579
10725SOL    HW233075   1.474   5.618   4.739
10726SOL     OW33076   5.630   0.568   4.780
10726SOL    HW133077   5.641   0.654   4.729
10726SOL    HW233078   5.653   0.491   4.720
10727SOL     OW33079   0.501   5.670   5.661
10727SOL    HW133080   0.488   5.652   5.564
10727SOL    HW233081   0.570   5.742   5.672
10728SOL     OW33082   1.026   6.047   6.960
10728SOL    HW133083   1.080   6.131   6.953
10728SOL    HW233084   0.929   6.070   6.957
10729SOL     OW33085   4.767   1.592   2.713
10729SOL    HW133086   4.813   1.667   2.761
10729SOL    HW233087   4.683   1.626   2.671
10730SOL     OW33088   1.847   0.902   1.172
10730SOL    HW133089   1.935   0.898   1.221
10730SOL    HW233090   1.783   0.839   1.215
10731SOL     OW33091   3.240   0.145   0.884
10731SOL    HW133092   3.197   0.126   0.796
10731SOL    HW233093   3.325   0.195   0.870
10732SOL     OW33094   6.076   4.737   5.066
10732SOL    HW133095   6.133   4.768   5.142
10732SOL    HW233096   6.133   4.689   5.000
10733SOL     OW33097   6.420   2.064   1.029
10733SOL    HW133098   6.333   2.045   1.074
10733SOL    HW233099   6.447   1.985   0.974
10734SOL     OW33100   1.138   0.397   6.818
10734SOL    HW133101   1.161   0.303   6.845
10734SOL    HW233102   1.041   0.413   6.832
10735SOL     OW33103   0.520   2.982   2.724
10735SOL    HW133104   0.545   2.903   2.668
10735SOL    HW233105   0.587   3.055   2.710
10736SOL     OW33106   0.908   0.688   3.632
10736SOL    HW133107   0.877   0.740   3.712
10736SOL    HW233108   0.848   0.705   3.555
10737SOL     OW33109   1.352   1.591   0.851
10737SOL    HW133110   1.394   1.612   0.763
10737SOL    HW233111   1.279   1.523   0.838
10738SOL     OW33112   2.513   0.778   2.566
10738SOL    HW133113   2.515   0.717   2.487
10738SOL    HW233114   2.443   0.848   2.552
10739SOL     OW33115   1.538   1.641   0.601
10739SOL    HW133116   1.595   1.571   0.643
10739SOL    HW233117   1.568   1.731   0.633
10740SOL     OW33118   0.370   5.187   4.999
10740SOL    HW133119   0.322   5.200   4.913
10740SOL    HW233120   0.304   5.173   5.073
10741SOL     OW33121   5.041   0.126   1.462
10741SOL    HW133122   5.078   0.118   1.369
10741SOL    HW233123   5.116   0.120   1.528
10742SOL     OW33124   5.720   0.219   1.148
10742SOL    HW133125   5.735   0.271   1.233
10742SOL    HW233126   5.622   0.206   1.134
10743SOL     OW33127   2.251   1.254   5.001
10743SOL    HW133128   2.152   1.265   4.993
10743SOL    HW233129   2.295   1.343   4.985
10744SOL     OW33130   3.772   1.463   0.608
10744SOL    HW133131   3.705   1.503   0.671
10744SOL    HW233132   3.784   1.366   0.630
10745SOL     OW33133   0.480   5.950   6.412
10745SOL    HW133134   0.526   5.883   6.354
10745SOL    HW233135   0.501   5.931   6.508
10746SOL     OW33136   2.328   5.190   1.293
10746SOL    HW133137   2.328   5.137   1.378
10746SOL    HW233138   2.395   5.264   1.300
10747SOL     OW33139   3.892   1.293   4.351
10747SOL    HW133140   3.911   1.239   4.269
10747SOL    HW233141   3.907   1.390   4.331
10748SOL     OW33142   5.407   0.878   0.985
10748SOL    HW133143   5.379   0.908   0.894
10748SOL    HW233144   5.356   0.929   1.054
10749SOL     OW33145   0.640   5.105   3.451
10749SOL    HW133146   0.683   5.142   3.534
10749SOL    HW233147   0.551   5.149   3.437
10750SOL     OW33148   4.377   6.196   4.145
10750SOL    HW133149   4.310   6.189   4.071
10750SOL    HW233150   4.464   6.157   4.116
10751SOL     OW33151   1.864   4.675   4.623
10751SOL    HW133152   1.869   4.773   4.606
10751SOL    HW233153   1.903   4.654   4.713
10752SOL     OW33154   6.425   4.300   5.986
10752SOL    HW133155   6.396   4.390   6.018
10752SOL    HW233156   6.486   4.311   5.907
10753SOL     OW33157   4.927   5.217   4.628
10753SOL    HW133158   4.918   5.159   4.708
10753SOL    HW233159   4.927   5.313   4.656
10754SOL     OW33160   0.680   0.454   3.340
10754SOL    HW133161   0.684   0.552   3.360
10754SOL    HW233162   0.741   0.433   3.263
10755SOL     OW33163   6.866   1.050   0.161
10755SOL    HW133164   6.814   1.128   0.197
10755SOL    HW233165   6.881   1.064   0.063
10756SOL     OW33166   6.772   4.833   0.166
10756SOL    HW133167   6.792   4.801   0.259
10756SOL    HW233168   6.674   4.850   0.157
10757SOL     OW33169   2.289   3.243   0.220
10757SOL    HW133170   2.219   3.206   0.281
10757SOL    HW233171   2.376   3.196   0.236
10758SOL     OW33172   0.861   6.652   4.403
10758SOL    HW133173   0.897   6.713   4.332
10758SOL    HW233174   0.804   6.581   4.361
10759SOL     OW33175   2.007   2.771   1.246
10759SOL    HW133176   1.982   2.745   1.153
10759SOL    HW233177   2.106   2.782   1.252
10760SOL     OW33178   5.525   0.822   2.762
10760SOL    HW133179   5.500   0.878   2.683
10760SOL    HW233180   5.578   0.742   2.732
10761SOL     OW33181   1.059   6.517   5.696
10761SOL    HW133182   1.091   6.612   5.692
10761SOL    HW233183   0.990   6.508   5.768
10762SOL     OW33184   3.782   2.122   4.583
10762SOL    HW133185   3.772   2.092   4.488
10762SOL    HW233186   3.866   2.175   4.592
10763SOL     OW33187   5.524   6.729   2.896
10763SOL    HW133188   5.524   6.685   2.986
10763SOL    HW233189   5.549   6.663   2.826
10764SOL     OW33190   4.664   2.317   5.971
10764SOL    HW133191   4.566   2.319   5.950
10764SOL    HW233192   4.712   2.265   5.901
10765SOL     OW33193   5.045   2.603   0.761
10765SOL    HW133194   5.047   2.560   0.851
10765SOL    HW233195   5.078   2.539   0.692
10766SOL     OW33196   5.211   4.340   0.698
10766SOL    HW133197   5.148   4.310   0.770
10766SOL    HW233198   5.162   4.395   0.631
10767SOL     OW33199   1.713   0.251   6.925
10767SOL    HW133200   1.801   0.270   6.968
10767SOL    HW233201   1.678   0.333   6.882
10768SOL     OW33202   4.790   5.370   1.885
10768SOL    HW133203   4.886   5.369   1.859
10768SOL    HW233204   4.781   5.368   1.984
10769SOL     OW33205   2.406   4.124   5.402
10769SOL    HW133206   2.430   4.066   5.324
10769SOL    HW233207   2.322   4.175   5.380
10770SOL     OW33208   5.730   0.378   4.606
10770SOL    HW133209   5.792   0.404   4.531
10770SOL    HW233210   5.769   0.300   4.655
10771SOL     OW33211   6.043   6.477   3.617
10771SOL    HW133212   6.104   6.495   3.695
10771SOL    HW233213   6.083   6.517   3.534
10772SOL     OW33214   5.944   6.749   4.396
10772SOL    HW133215   5.860   6.701   4.370
10772SOL    HW233216   5.988   6.700   4.471
10773SOL     OW33217   6.223   5.855   6.366
10773SOL    HW133218   6.312   5.826   6.333
10773SOL    HW233219   6.232   5.944   6.411
10774SOL     OW33220   2.520   1.541   6.479
10774SOL    HW133221   2.603   1.563   6.531
10774SOL    HW233222   2.442   1.591   6.517
10775SOL     OW33223   0.508   4.536   1.855
10775SOL    HW133224   0.501   4.530   1.756
10775SOL    HW233225   0.584   4.596   1.880
10776SOL     OW33226   0.258   0.868   6.992
10776SOL    HW133227   0.225   0.807   0.038
10776SOL    HW233228   0.322   0.820   6.933
10777SOL     OW33229   3.983   5.275   2.721
10777SOL    HW133230   3.921   5.211   2.675
10777SOL    HW233231   3.970   5.268   2.820
10778SOL     OW33232   5.425   0.166   4.262
10778SOL    HW133233   5.484   0.205   4.191
10778SOL    HW233234   5.452   0.071   4.279
10779SOL     OW33235   6.246   3.733   3.784
10779SOL    HW133236   6.179   3.808   3.785
10779SOL    HW233237   6.305   3.742   3.704
10780SOL     OW33238   2.039   0.827   3.435
10780SOL    HW133239   2.086   0.915   3.434
10780SOL    HW233240   1.949   0.837   3.478
10781SOL     OW33241   4.481   1.121   4.082
10781SOL    HW133242   4.426   1.045   4.047
10781SOL    HW233243   4.491   1.113   4.181
10782SOL     OW33244   6.912   1.948   1.820
10782SOL    HW133245   7.006   1.950   1.856
10782SOL    HW233246   6.848   1.965   1.895
10783SOL     OW33247   0.519   2.793   2.481
10783SOL    HW133248   0.502   2.811   2.384
10783SOL    HW233249   0.483   2.702   2.504
10784SOL     OW33250   3.459   0.121   4.069
10784SOL    HW133251   3.538   0.165   4.027
10784SOL    HW233252   3.490   0.053   4.135
10785SOL     OW33253   6.774   4.767   0.425
10785SOL    HW133254   6.774   4.775   0.525
10785SOL    HW233255   6.729   4.682   0.399
10786SOL     OW33256   5.964   4.698   3.128
10786SOL    HW133257   5.977   4.599   3.133
10786SOL    HW233258   6.035   4.739   3.070
10787SOL     OW33259   2.084   1.569   5.483
10787SOL    HW133260   2.032   1.484   5.485
10787SOL    HW233261   2.169   1.557   5.535
10788SOL     OW33262   1.949   4.525   6.633
10788SOL    HW133263   1.917   4.452   6.695
10788SOL    HW233264   1.989   4.599   6.687
10789SOL     OW33265   6.644   2.554   6.236
10789SOL    HW133266   6.700   2.634   6.259
10789SOL    HW233267   6.563   2.584   6.185
10790SOL     OW33268   0.598   0.199   1.637
10790SOL    HW133269   0.547   0.117   1.666
10790SOL    HW233270   0.692   0.193   1.669
10791SOL     OW33271   6.624   6.526   1.587
10791SOL    HW133272   6.627   6.463   1.664
10791SOL    HW233273   6.595   6.477   1.505
10792SOL     OW33274   3.572   3.192   4.598
10792SOL    HW133275   3.511   3.132   4.649
10792SOL    HW233276   3.657   3.144   4.577
10793SOL     OW33277   5.779   2.896   5.249
10793SOL    HW133278   5.846   2.919   5.177
10793SOL    HW233279   5.691   2.876   5.206
10794SOL     OW33280   4.067   3.182   4.173
10794SOL    HW133281   4.036   3.221   4.260
10794SOL    HW233282   4.133   3.109   4.191
10795SOL     OW33283   6.842   4.638   2.575
10795SOL    HW133284   6.866   4.618   2.671
10795SOL    HW233285   6.919   4.684   2.531
10796SOL     OW33286   6.122   0.153   6.205
10796SOL    HW133287   6.205   0.163   6.150
10796SOL    HW233288   6.042   0.180   6.150
10797SOL     OW33289   3.119   2.276   1.421
10797SOL    HW133290   3.178   2.197   1.408
10797SOL    HW233291   3.114   2.299   1.519
10798SOL     OW33292   2.816   0.671   6.819
10798SOL    HW133293   2.863   0.720   6.892
10798SOL    HW233294   2.737   0.724   6.789
10799SOL     OW33295   3.900   0.951   1.818
10799SOL    HW133296   3.809   0.955   1.860
10799SOL    HW233297   3.970   0.961   1.889
10800SOL     OW33298   0.275   6.506   6.181
10800SOL    HW133299   0.269   6.514   6.081
10800SOL    HW233300   0.284   6.596   6.221
10801SOL     OW33301   1.342   6.799   6.583
10801SOL    HW133302   1.404   6.802   6.661
10801SOL    HW233303   1.386   6.841   6.504
10802SOL     OW33304   0.549   0.379   2.628
10802SOL    HW133305   0.596   0.334   2.705
10802SOL    HW233306   0.484   0.446   2.663
10803SOL     OW33307   2.171   5.456   6.042
10803SOL    HW133308   2.181   5.512   5.960
10803SOL    HW233309   2.122   5.372   6.020
10804SOL     OW33310   5.881   2.975   2.713
10804SOL    HW133311   5.923   2.895   2.757
10804SOL    HW233312   5.867   3.046   2.782
10805SOL     OW33313   4.865   6.714   5.945
10805SOL    HW133314   4.818   6.751   6.026
10805SOL    HW233315   4.951   6.763   5.931
10806SOL     OW33316   4.184   4.139   5.631
10806SOL    HW133317   4.232   4.156   5.718
10806SOL    HW233318   4.100   4.193   5.629
10807SOL     OW33319   1.516   0.054   3.055
10807SOL    HW133320   1.487   6.985   3.042
10807SOL    HW233321   1.525   0.073   3.153
10808SOL     OW33322   0.175   2.914   6.196
10808SOL    HW133323   0.168   2.880   6.290
10808SOL    HW233324   0.095   2.969   6.174
10809SOL     OW33325   2.215   4.305   3.311
10809SOL    HW133326   2.181   4.273   3.223
10809SOL    HW233327   2.301   4.354   3.298
10810SOL     OW33328   0.962   1.059   3.739
10810SOL    HW133329   0.981   1.146   3.693
10810SOL    HW233330   0.864   1.041   3.738
10811SOL     OW33331   3.994   4.989   5.751
10811SOL    HW133332   3.913   4.930   5.746
10811SOL    HW233333   3.979   5.071   5.696
10812SOL     OW33334   0.220   3.925   0.911
10812SOL    HW133335   0.297   3.958   0.966
10812SOL    HW233336   0.230   3.827   0.894
10813SOL     OW33337   1.395   3.611   5.970
10813SOL    HW133338   1.473   3.620   5.908
10813SOL    HW233339   1.415   3.544   6.041
10814SOL     OW33340   1.343   6.792   6.244
10814SOL    HW133341   1.330   6.695   6.223
10814SOL    HW233342   1.261   6.843   6.218
10815SOL     OW33343   5.327   3.420   3.617
10815SOL    HW133344   5.406   3.425   3.555
10815SOL    HW233345   5.282   3.509   3.622
10816SOL     OW33346   3.295   3.504   2.421
10816SOL    HW133347   3.249   3.452   2.492
10816SOL    HW233348   3.339   3.585   2.461
10817SOL     OW33349   3.927   0.651   3.491
10817SOL    HW133350   3.917   0.750   3.482
10817SOL    HW233351   4.006   0.631   3.549
10818SOL     OW33352   4.903   4.479   5.723
10818SOL    HW133353   4.958   4.544   5.671
10818SOL    HW233354   4.837   4.529   5.779
10819SOL     OW33355   6.227   5.102   6.225
10819SOL    HW133356   6.235   5.135   6.319
10819SOL    HW233357   6.244   5.178   6.162
10820SOL     OW33358   0.070   4.806   4.600
10820SOL    HW133359   0.024   4.744   4.664
10820SOL    HW233360   0.054   4.901   4.628
10821SOL     OW33361   4.715   6.742   3.470
10821SOL    HW133362   4.701   6.769   3.375
10821SOL    HW233363   4.630   6.758   3.522
10822SOL     OW33364   5.986   2.230   2.766
10822SOL    HW133365   5.988   2.208   2.864
10822SOL    HW233366   5.892   2.245   2.737
10823SOL     OW33367   0.944   1.019   2.205
10823SOL    HW133368   1.003   1.080   2.152
10823SOL    HW233369   0.978   1.011   2.298
10824SOL     OW33370   0.288   1.336   2.780
10824SOL    HW133371   0.294   1.311   2.877
10824SOL    HW233372   0.261   1.256   2.727
10825SOL     OW33373   2.239   2.063   6.571
10825SOL    HW133374   2.258   2.023   6.481
10825SOL    HW233375   2.151   2.110   6.569
10826SOL     OW33376   0.768   1.766   3.198
10826SOL    HW133377   0.735   1.843   3.252
10826SOL    HW233378   0.860   1.785   3.164
10827SOL     OW33379   0.417   3.276   5.055
10827SOL    HW133380   0.364   3.220   4.991
10827SOL    HW233381   0.387   3.371   5.047
10828SOL     OW33382   1.126   4.536   0.584
10828SOL    HW133383   1.216   4.510   0.548
10828SOL    HW233384   1.073   4.454   0.605
10829SOL     OW33385   4.745   2.921   0.559
10829SOL    HW133386   4.807   2.994   0.588
10829SOL    HW233387   4.755   2.842   0.620
10830SOL     OW33388   4.422   1.825   3.237
10830SOL    HW133389   4.353   1.754   3.227
10830SOL    HW233390   4.512   1.788   3.216
10831SOL     OW33391   2.915   6.521   2.739
10831SOL    HW133392   2.878   6.587   2.674
10831SOL    HW233393   2.996   6.477   2.700
10832SOL     OW33394   0.098   3.707   6.341
10832SOL    HW133395   0.164   3.753   6.281
10832SOL    HW233396   0.146   3.665   6.417
10833SOL     OW33397   0.556   1.369   1.761
10833SOL    HW133398   0.528   1.378   1.666
10833SOL    HW233399   0.501   1.299   1.806
10834SOL     OW33400   6.362   1.795   0.649
10834SOL    HW133401   6.424   1.719   0.633
10834SOL    HW233402   6.317   1.820   0.563
10835SOL     OW33403   6.147   2.350   6.997
10835SOL    HW133404   6.113   2.323   0.061
10835SOL    HW233405   6.220   2.417   7.008
10836SOL     OW33406   7.014   1.825   4.269
10836SOL    HW133407   7.009   1.764   4.348
10836SOL    HW233408   6.935   1.808   4.210
10837SOL     OW33409   6.797   5.032   1.207
10837SOL    HW133410   6.883   5.043   1.156
10837SOL    HW233411   6.720   5.034   1.143
10838SOL     OW33412   0.037   5.898   3.911
10838SOL    HW133413   6.977   5.846   3.909
10838SOL    HW233414   0.103   5.855   3.850
10839SOL     OW33415   4.258   3.243   0.721
10839SOL    HW133416   4.258   3.330   0.672
10839SOL    HW233417   4.272   3.260   0.819
10840SOL     OW33418   3.060   6.266   2.438
10840SOL    HW133419   3.082   6.177   2.397
10840SOL    HW233420   2.963   6.286   2.423
10841SOL     OW33421   6.934   4.444   5.541
10841SOL    HW133422   6.888   4.360   5.514
10841SOL    HW233423   6.999   4.425   5.614
10842SOL     OW33424   4.564   2.160   1.362
10842SOL    HW133425   4.535   2.143   1.267
10842SOL    HW233426   4.562   2.258   1.380
10843SOL     OW33427   1.602   1.381   1.203
10843SOL    HW133428   1.558   1.346   1.285
10843SOL    HW233429   1.593   1.315   1.129
10844SOL     OW33430   0.654   5.374   3.309
10844SOL    HW133431   0.729   5.373   3.374
10844SOL    HW233432   0.642   5.467   3.273
10845SOL     OW33433   4.036   6.100   5.403
10845SOL    HW133434   4.088   6.069   5.483
10845SOL    HW233435   4.088   6.078   5.320
10846SOL     OW33436   5.381   0.766   6.671
10846SOL    HW133437   5.449   0.721   6.730
10846SOL    HW233438   5.386   0.727   6.579
10847SOL     OW33439   3.344   2.546   6.972
10847SOL    HW133440   3.438   2.578   6.981
10847SOL    HW233441   3.344   2.446   6.969
10848SOL     OW33442   1.898   4.288   0.654
10848SOL    HW133443   1.872   4.193   0.666
10848SOL    HW233444   1.987   4.293   0.608
10849SOL     OW33445   2.435   4.473   4.212
10849SOL    HW133446   2.402   4.395   4.266
10849SOL    HW233447   2.443   4.445   4.116
10850SOL     OW33448   3.472   6.042   5.867
10850SOL    HW133449   3.565   6.051   5.832
10850SOL    HW233450   3.432   5.956   5.834
10851SOL     OW33451   3.072   3.779   0.499
10851SOL    HW133452   3.047   3.683   0.485
10851SOL    HW233453   3.054   3.804   0.594
10852SOL     OW33454   1.890   0.516   6.703
10852SOL    HW133455   1.795   0.510   6.734
10852SOL    HW233456   1.919   0.429   6.665
10853SOL     OW33457   1.730   3.066   5.741
10853SOL    HW133458   1.765   3.154   5.708
10853SOL    HW233459   1.648   3.041   5.689
10854SOL     OW33460   4.231   5.142   5.863
10854SOL    HW133461   4.138   5.107   5.855
10854SOL    HW233462   4.264   5.125   5.956
10855SOL     OW33463   4.096   0.786   0.790
10855SOL    HW133464   4.148   0.856   0.743
10855SOL    HW233465   4.154   0.739   0.856
10856SOL     OW33466   5.232   1.005   1.146
10856SOL    HW133467   5.148   0.956   1.124
10856SOL    HW233468   5.216   1.066   1.223
10857SOL     OW33469   1.062   2.271   2.637
10857SOL    HW133470   1.061   2.370   2.629
10857SOL    HW233471   0.969   2.238   2.656
10858SOL     OW33472   1.119   1.351   0.169
10858SOL    HW133473   1.189   1.354   0.240
10858SOL    HW233474   1.159   1.371   0.080
10859SOL     OW33475   0.971   4.869   4.411
10859SOL    HW133476   1.011   4.781   4.436
10859SOL    HW233477   0.997   4.938   4.478
10860SOL     OW33478   0.401   3.254   5.360
10860SOL    HW133479   0.391   3.266   5.261
10860SOL    HW233480   0.356   3.169   5.387
10861SOL     OW33481   3.401   3.812   3.463
10861SOL    HW133482   3.336   3.872   3.416
10861SOL    HW233483   3.434   3.858   3.546
10862SOL     OW33484   2.365   0.889   6.321
10862SOL    HW133485   2.393   0.983   6.338
10862SOL    HW233486   2.275   0.873   6.361
10863SOL     OW33487   2.608   0.624   4.182
10863SOL    HW133488   2.518   0.640   4.224
10863SOL    HW233489   2.595   0.587   4.090
10864SOL     OW33490   2.343   6.416   0.325
10864SOL    HW133491   2.442   6.419   0.338
10864SOL    HW233492   2.308   6.508   0.305
10865SOL     OW33493   6.758   1.392   0.832
10865SOL    HW133494   6.718   1.326   0.769
10865SOL    HW233495   6.685   1.446   0.874
10866SOL     OW33496   5.226   4.436   0.348
10866SOL    HW133497   5.138   4.388   0.345
10866SOL    HW233498   5.215   4.522   0.396
10867SOL     OW33499   3.293   4.207   0.428
10867SOL    HW133500   3.302   4.247   0.519
10867SOL    HW233501   3.200   4.172   0.416
10868SOL     OW33502   4.986   1.242   3.986
10868SOL    HW133503   4.987   1.329   4.035
10868SOL    HW233504   5.010   1.168   4.049
10869NA      NA33505   6.325   2.838   5.305
10870NA      NA33506   4.411   4.420   5.333
10871NA      NA33507   1.721   2.980   1.943
10872NA      NA33508   4.973   3.758   5.106
10873NA      NA33509   4.126   2.291   5.270
10874NA      NA33510   3.536   4.844   1.759
10875NA      NA33511   6.851   4.702   6.989
10876NA      NA33512   3.557   3.416   4.470
10877NA      NA33513   4.703   6.068   0.093
10878NA      NA33514   4.203   6.526   5.113
10879NA      NA33515   6.140   5.127   1.995
10880NA      NA33516   2.038   6.989   3.581
10881NA      NA33517   4.093   5.450   2.608
10882NA      NA33518   3.669   3.985   2.197
   7.02602   7.02602   7.02602
